<event>
 9    1  0.6202448E-006  0.1514000E+03  0.7546771E-02  0.1198924E+00
          2   -1    0    0  502    0  0.00000000000E+00  0.00000000000E+00  0.73900753944E+02  0.73900753944E+02  0.00000000000E+00 0. -1.
         -2   -1    0    0    0  501 -0.00000000000E+00 -0.00000000000E+00 -0.55344065675E+03  0.55344065675E+03  0.00000000000E+00 0.  1.
         23    2    1    2    0    0 -0.17108420853E+03  0.11793245847E+02 -0.25991342326E+03  0.32439979641E+03  0.90946980519E+02 0.  0.
         23    2    1    2    0    0  0.94256647667E+02 -0.10718017888E+02 -0.12367223442E+03  0.18001542756E+03  0.90064094152E+02 0.  0.
        -11    1    4    4    0    0  0.54760171743E+02 -0.40167780613E+02 -0.10932522719E+03  0.12870171836E+03  0.00000000000E+00 0.  1.
         11    1    4    4    0    0  0.39496475924E+02  0.29449762725E+02 -0.14347007226E+02  0.51313709195E+02  0.00000000000E+00 0. -1.
        -13    1    3    3    0    0 -0.10801389772E+03 -0.25324768271E+02 -0.20431649534E+03  0.23249424994E+03  0.00000000000E+00 0.  1.
         13    1    3    3    0    0 -0.63070310813E+02  0.37118014118E+02 -0.55596927924E+02  0.91905546474E+02  0.00000000000E+00 0. -1.
         21    1    1    2  502  501  0.76827560867E+02 -0.10752279594E+01 -0.95954245129E+02  0.12292618672E+03  0.00000000000E+00 0.  1.
<scales pt_clust_5="13000.00000" pt_clust_6="13000.00000" pt_clust_7="13000.00000" pt_clust_8="13000.00000" pt_clust_9="76.83508"></scales>
<clustering>
<clus scale="   76.835">  2  9  1 -1</clus>
<clus scale="   90.064">  5  6 -1 -1</clus>
<clus scale="   90.947">  7  8 -1 -1</clus>
<clus scale="  150.871">  1  5  2 -1</clus>
<clus scale="  150.871">  1  5  2 -1</clus>
</clustering>
</event>
<event>
 9    1  0.6202448E-006  0.1025333E+03  0.7546771E-02  0.1275922E+00
         -1   -1    0    0    0  501 -0.00000000000E+00  0.00000000000E+00  0.94000042370E+02  0.94000042370E+02  0.00000000000E+00 0.  1.
          1   -1    0    0  502    0  0.00000000000E+00 -0.00000000000E+00 -0.40520818958E+03  0.40520818958E+03  0.00000000000E+00 0. -1.
         23    2    1    2    0    0  0.37650117236E+01 -0.76115428584E+01 -0.10733996737E+03  0.13965125930E+03  0.88929717926E+02 0.  0.
         23    2    1    2    0    0  0.14406589278E+02  0.84422514162E+02 -0.24169176495E+03  0.27203122794E+03  0.90837046503E+02 0.  0.
        -11    1    3    3    0    0 -0.21203405409E+02 -0.28690900511E+02 -0.10114831796E+02  0.37081828371E+02  0.00000000000E+00 0.  1.
         11    1    3    3    0    0  0.24968417132E+02  0.21079357652E+02 -0.97225135576E+02  0.10256943093E+03  0.00000000000E+00 0. -1.
        -13    1    4    4    0    0 -0.12910368734E+02  0.80974870993E+02 -0.22582952979E+03  0.24025524734E+03  0.00000000000E+00 0. -1.
         13    1    4    4    0    0  0.27316958012E+02  0.34476431686E+01 -0.15862235167E+02  0.31775980597E+02  0.00000000000E+00 0.  1.
         21    1    1    2  502  501 -0.18171601001E+02 -0.76810971303E+02  0.37823585117E+02  0.87525744707E+02  0.00000000000E+00 0.  1.
<scales pt_clust_5="13000.00000" pt_clust_6="13000.00000" pt_clust_7="13000.00000" pt_clust_8="13000.00000" pt_clust_9="78.93119"></scales>
<clustering>
<clus scale="   78.931">  1  9  2 -1</clus>
<clus scale="   88.930">  5  6 -1 -1</clus>
<clus scale="   90.837">  7  8 -1 -1</clus>
<clus scale="  100.847">  1  5  2 -1</clus>
<clus scale="  102.533">  2  5  1 -1</clus>
</clustering>
</event>
<event>
 9    1  0.6202448E-006  0.1059969E+03  0.7546771E-02  0.1268658E+00
         -1   -1    0    0    0  501 -0.00000000000E+00  0.00000000000E+00  0.77295209709E+02  0.77295209709E+02  0.00000000000E+00 0.  1.
          1   -1    0    0  502    0  0.00000000000E+00 -0.00000000000E+00 -0.34147278945E+03  0.34147278945E+03  0.00000000000E+00 0. -1.
         23    2    1    2    0    0 -0.58031297184E+02 -0.55110591006E+01 -0.14754012775E-01  0.10987155660E+03  0.93132999017E+02 0.  0.
         23    2    1    2    0    0  0.34822568095E+02  0.28290278574E+01 -0.90566277057E+02  0.13373480262E+03  0.91989848594E+02 0.  0.
        -13    1    4    4    0    0 -0.16842548942E+02 -0.21669035407E+02 -0.98757575597E+00  0.27462590122E+02  0.00000000000E+00 0.  1.
         13    1    4    4    0    0  0.51665117037E+02  0.24498063265E+02 -0.89578701301E+02  0.10627221250E+03  0.00000000000E+00 0. -1.
        -13    1    3    3    0    0 -0.26870407341E+02 -0.23648764212E+02 -0.41568366901E+02  0.54856284656E+02  0.00000000000E+00 0. -1.
         13    1    3    3    0    0 -0.31160889843E+02  0.18137705112E+02  0.41553612889E+02  0.55015271940E+02  0.00000000000E+00 0.  1.
         21    1    1    2  502  501  0.23208729089E+02  0.26820312432E+01 -0.17359654867E+03  0.17516163995E+03  0.00000000000E+00 0. -1.
<scales pt_clust_5="13000.00000" pt_clust_6="13000.00000" pt_clust_7="13000.00000" pt_clust_8="13000.00000" pt_clust_9="23.36318"></scales>
<clustering>
<clus scale="   23.363">  2  9  1 -1</clus>
<clus scale="   91.990">  5  6 -1 -1</clus>
<clus scale="   93.133">  7  8 -1 -1</clus>
<clus scale="  104.994">  2  5  1 -1</clus>
<clus scale="   23.363">  2  5  1 -1</clus>
</clustering>
</event>
<event>
 9    1  0.6202448E-006  0.1383796E+03  0.7546771E-02  0.1215626E+00
          2   -1    0    0  502    0  0.00000000000E+00  0.00000000000E+00  0.51703644705E+03  0.51703644705E+03  0.00000000000E+00 0. -1.
         -2   -1    0    0    0  501 -0.00000000000E+00 -0.00000000000E+00 -0.62618068698E+02  0.62618068698E+02  0.00000000000E+00 0.  1.
         23    2    1    2    0    0 -0.45521153076E+02  0.91895850955E+02  0.20338275637E+03  0.24598804806E+03  0.92889996236E+02 0.  0.
         23    2    1    2    0    0  0.77807183133E+02 -0.71630670527E+02  0.25907623334E+03  0.29470858395E+03  0.92454010519E+02 0.  0.
        -11    1    3    3    0    0 -0.20652434935E+02 -0.14504236031E+02  0.64586432707E+02  0.69341929750E+02  0.00000000000E+00 0. -1.
         11    1    3    3    0    0 -0.24868718141E+02  0.10640008699E+03  0.13879632366E+03  0.17664611831E+03  0.00000000000E+00 0.  1.
        -13    1    4    4    0    0  0.59862823468E+02 -0.92815805022E+02  0.18325738218E+03  0.21396635114E+03  0.00000000000E+00 0. -1.
         13    1    4    4    0    0  0.17944359665E+02  0.21185134495E+02  0.75818851162E+02  0.80742232808E+02  0.00000000000E+00 0.  1.
         21    1    1    2  502  501 -0.32286030057E+02 -0.20265180427E+02 -0.80406113589E+01  0.38957883742E+02  0.00000000000E+00 0.  1.
<scales pt_clust_5="13000.00000" pt_clust_6="13000.00000" pt_clust_7="13000.00000" pt_clust_8="13000.00000" pt_clust_9="38.11909"></scales>
<clustering>
<clus scale="   38.119">  2  9  1 -1</clus>
<clus scale="   92.454">  7  8 -1 -1</clus>
<clus scale="   92.890">  5  6 -1 -1</clus>
<clus scale="  138.087">  1  7  2 -1</clus>
<clus scale="  138.087">  1  5  2 -1</clus>
</clustering>
</event>
<event>
 9    1  0.6202448E-006  0.9105700E+02  0.7546771E-02  0.1300605E+00
          1   -1    0    0  502    0  0.00000000000E+00  0.00000000000E+00  0.52761230261E+02  0.52761230261E+02  0.00000000000E+00 0. -1.
         -1   -1    0    0    0  501 -0.00000000000E+00 -0.00000000000E+00 -0.52257335453E+03  0.52257335453E+03  0.00000000000E+00 0.  1.
         23    2    1    2    0    0  0.15699828842E+02 -0.41628385374E+02 -0.12710864776E+03  0.16225514501E+03  0.90502578157E+02 0.  0.
         23    2    1    2    0    0  0.27366346421E+01 -0.21623235315E+02 -0.37426550599E+02  0.10077402484E+03  0.90992328899E+02 0.  0.
        -11    1    3    3    0    0 -0.33284832724E+02 -0.38899142029E+02 -0.73656383674E+02  0.89701093617E+02  0.00000000000E+00 0. -1.
         11    1    3    3    0    0  0.48984661566E+02 -0.27292433452E+01 -0.53452264086E+02  0.72554051396E+02  0.00000000000E+00 0.  1.
        -11    1    4    4    0    0  0.25271537986E+02  0.28544448537E+02 -0.20187269331E+02  0.43138868987E+02  0.00000000000E+00 0.  1.
         11    1    4    4    0    0 -0.22534903344E+02 -0.50167683852E+02 -0.17239281268E+02  0.57635155855E+02  0.00000000000E+00 0. -1.
         21    1    1    2  502  501 -0.18436463484E+02  0.63251620689E+02 -0.30527692591E+03  0.31230541493E+03  0.00000000000E+00 0. -1.
<scales pt_clust_5="13000.00000" pt_clust_6="13000.00000" pt_clust_7="13000.00000" pt_clust_8="13000.00000" pt_clust_9="65.88377"></scales>
<clustering>
<clus scale="   65.884">  2  9  1 -1</clus>
<clus scale="   90.503">  5  6 -1 -1</clus>
<clus scale="   90.568">  2  5  1 -1</clus>
<clus scale="   90.992">  7  8 -1 -1</clus>
<clus scale="   91.057">  1  5  2 -1</clus>
</clustering>
</event>
<event>
 9    1  0.6202448E-006  0.1820476E+03  0.7546771E-02  0.1170876E+00
          2   -1    0    0  502    0  0.00000000000E+00  0.00000000000E+00  0.67871571492E+03  0.67871571492E+03  0.00000000000E+00 0. -1.
         -2   -1    0    0    0  501 -0.00000000000E+00 -0.00000000000E+00 -0.11464926383E+03  0.11464926383E+03  0.00000000000E+00 0.  1.
         23    2    1    2    0    0  0.13253563145E+03 -0.23744199157E+02  0.96999587439E+02  0.18896817651E+03  0.90391211819E+02 0.  0.
         23    2    1    2    0    0 -0.10462266242E+03 -0.14423263396E+03  0.33766663009E+03  0.39052821935E+03  0.82125409188E+02 0.  0.
        -11    1    3    3    0    0  0.10539466300E+03  0.13995814340E+02  0.35946657878E+02  0.11223225927E+03  0.00000000000E+00 0.  1.
         11    1    3    3    0    0  0.27140968447E+02 -0.37740013497E+02  0.61052929560E+02  0.76735917242E+02  0.00000000000E+00 0. -1.
        -13    1    4    4    0    0 -0.60233943324E+02 -0.20474110179E+02  0.13014755842E+03  0.14486443345E+03  0.00000000000E+00 0.  1.
         13    1    4    4    0    0 -0.44388719097E+02 -0.12375852378E+03  0.20751907167E+03  0.24566378589E+03  0.00000000000E+00 0. -1.
         21    1    1    2  502  501 -0.27912969029E+02  0.16797683312E+03  0.12940023355E+03  0.21386858289E+03  0.00000000000E+00 0.  1.
<scales pt_clust_5="13000.00000" pt_clust_6="13000.00000" pt_clust_7="13000.00000" pt_clust_8="13000.00000" pt_clust_9="162.47072"></scales>
<clustering>
<clus scale="   82.125">  7  8 -1 -1</clus>
<clus scale="   90.391">  5  6 -1 -1</clus>
<clus scale="  162.173">  2  5  1 -1</clus>
<clus scale="  162.471">  2  9  1 -1</clus>
<clus scale="  182.048">  1  5  2 -1</clus>
</clustering>
</event>
<event>
 9    1  0.6202448E-006  0.9878390E+02  0.7546771E-02  0.1284534E+00
         -2   -1    0    0    0  501 -0.00000000000E+00  0.00000000000E+00  0.54877962141E+02  0.54877962141E+02  0.00000000000E+00 0.  1.
          2   -1    0    0  502    0  0.00000000000E+00 -0.00000000000E+00 -0.25174199021E+03  0.25174199021E+03  0.00000000000E+00 0. -1.
         23    2    1    2    0    0  0.47127561115E+02  0.25220305734E+02 -0.73784205377E+02  0.12697614728E+03  0.88440726912E+02 0.  0.
         23    2    1    2    0    0 -0.20812315837E+02  0.32817099436E+00 -0.85208211554E+02  0.12692307170E+03  0.91737487574E+02 0.  0.
        -11    1    3    3    0    0 -0.22358683388E+02 -0.29802660291E+01 -0.37279235038E+02  0.43572170861E+02  0.00000000000E+00 0.  1.
         11    1    3    3    0    0  0.69486244504E+02  0.28200571763E+02 -0.36504970338E+02  0.83403976418E+02  0.00000000000E+00 0. -1.
        -13    1    4    4    0    0  0.51183074816E+01  0.40468998539E+02 -0.18316756335E+02  0.44715103454E+02  0.00000000000E+00 0. -1.
         13    1    4    4    0    0 -0.25930623319E+02 -0.40140827545E+02 -0.66891455218E+02  0.82207968245E+02  0.00000000000E+00 0.  1.
         21    1    1    2  502  501 -0.26315245278E+02 -0.25548476728E+02 -0.37871611140E+02  0.52720733374E+02  0.00000000000E+00 0.  1.
<scales pt_clust_5="13000.00000" pt_clust_6="13000.00000" pt_clust_7="13000.00000" pt_clust_8="13000.00000" pt_clust_9="36.67720"></scales>
<clustering>
<clus scale="   36.677">  2  9  1 -1</clus>
<clus scale="   88.441">  5  6 -1 -1</clus>
<clus scale="   91.737">  7  8 -1 -1</clus>
<clus scale="   95.730">  1  5  2 -1</clus>
<clus scale="   36.677">  2  5  1 -1</clus>
</clustering>
</event>
<event>
 9    1  0.6202448E-006  0.9896606E+02  0.7546771E-02  0.1283702E+00
          2   -1    0    0  502    0  0.00000000000E+00  0.00000000000E+00  0.13110115095E+03  0.13110115095E+03  0.00000000000E+00 0. -1.
         -2   -1    0    0    0  501 -0.00000000000E+00 -0.00000000000E+00 -0.12307196162E+03  0.12307196162E+03  0.00000000000E+00 0.  1.
         23    2    1    2    0    0  0.42332852500E+02  0.12969394547E+02  0.16407237499E+02  0.10268915019E+03  0.91189848827E+02 0.  0.
         23    2    1    2    0    0 -0.35423163443E+02  0.78003579079E+01  0.35678904771E+02  0.10228902847E+03  0.88737900632E+02 0.  0.
        -11    1    4    4    0    0  0.21892399467E+02  0.22446633788E+02  0.29081108747E+02  0.42764931998E+02  0.00000000000E+00 0.  1.
         11    1    4    4    0    0 -0.57315562910E+02 -0.14646275880E+02  0.65977960233E+01  0.59524096475E+02  0.00000000000E+00 0. -1.
        -13    1    3    3    0    0  0.14769984307E+02  0.51329764378E+02  0.25961434531E+01  0.53475574876E+02  0.00000000000E+00 0.  1.
         13    1    3    3    0    0  0.27562868194E+02 -0.38360369831E+02  0.13811094045E+02  0.49213575315E+02  0.00000000000E+00 0. -1.
         21    1    1    2  502  501 -0.69096890576E+01 -0.20769752455E+02 -0.44056952935E+02  0.49194933905E+02  0.00000000000E+00 0.  1.
<scales pt_clust_5="13000.00000" pt_clust_6="13000.00000" pt_clust_7="13000.00000" pt_clust_8="13000.00000" pt_clust_9="21.88896"></scales>
<clustering>
<clus scale="   21.889">  2  9  1 -1</clus>
<clus scale="   88.738">  5  6 -1 -1</clus>
<clus scale="   91.190">  7  8 -1 -1</clus>
<clus scale="   96.711">  1  5  2 -1</clus>
<clus scale="   96.711">  1  5  2 -1</clus>
</clustering>
</event>
<event>
 9    1  0.6202448E-006  0.1002493E+03  0.7546771E-02  0.1281208E+00
         -1   -1    0    0    0  501 -0.00000000000E+00  0.00000000000E+00  0.13210094832E+03  0.13210094832E+03  0.00000000000E+00 0.  1.
          1   -1    0    0  502    0  0.00000000000E+00 -0.00000000000E+00 -0.11341147205E+03  0.11341147205E+03  0.00000000000E+00 0. -1.
         23    2    1    2    0    0 -0.36990569171E+02  0.30162662418E+02  0.32088794639E+02  0.10811107809E+03  0.91543574614E+02 0.  0.
         23    2    1    2    0    0  0.28332548186E+01 -0.40203871663E+02  0.47635415290E+01  0.97433386528E+02  0.88578749444E+02 0.  0.
        -13    1    3    3    0    0 -0.26092572830E+02  0.55853682580E+02 -0.48240794871E+01  0.61836299676E+02  0.00000000000E+00 0.  1.
         13    1    3    3    0    0 -0.10897996340E+02 -0.25691020162E+02  0.36912874127E+02  0.46274778417E+02  0.00000000000E+00 0. -1.
        -13    1    4    4    0    0  0.23271700933E+02  0.19942313577E+02  0.13166565051E+02  0.33356054478E+02  0.00000000000E+00 0. -1.
         13    1    4    4    0    0 -0.20438446115E+02 -0.60146185239E+02 -0.84030235215E+01  0.64077332050E+02  0.00000000000E+00 0.  1.
         21    1    1    2  502  501  0.34157314352E+02  0.10041209245E+02 -0.18162859906E+02  0.39967955750E+02  0.00000000000E+00 0.  1.
<scales pt_clust_5="13000.00000" pt_clust_6="13000.00000" pt_clust_7="13000.00000" pt_clust_8="13000.00000" pt_clust_9="35.60264"></scales>
<clustering>
<clus scale="   35.603">  2  9  1 -1</clus>
<clus scale="   88.579">  7  8 -1 -1</clus>
<clus scale="   91.544">  5  6 -1 -1</clus>
<clus scale="   97.549">  2  7  1 -1</clus>
<clus scale="   35.603">  2  5  1 -1</clus>
</clustering>
</event>
<event>
 9    1  0.6202448E-006  0.1011667E+03  0.7546771E-02  0.1278037E+00
          1   -1    0    0  502    0  0.00000000000E+00  0.00000000000E+00  0.24820840864E+03  0.24820840864E+03  0.00000000000E+00 0. -1.
         -1   -1    0    0    0  501 -0.00000000000E+00 -0.00000000000E+00 -0.63952077902E+02  0.63952077902E+02  0.00000000000E+00 0.  1.
         23    2    1    2    0    0 -0.75965720120E+01  0.24462658034E+02  0.61008099923E+02  0.11277669151E+03  0.91326142732E+02 0.  0.
         23    2    1    2    0    0 -0.45892789284E+01 -0.63683428080E+02  0.68939381142E+02  0.13129403869E+03  0.91699759164E+02 0.  0.
        -11    1    4    4    0    0  0.32273205778E+02 -0.19374900967E+02  0.62950040862E+02  0.73346126300E+02  0.00000000000E+00 0. -1.
         11    1    4    4    0    0 -0.36862484706E+02 -0.44308527113E+02  0.59893402805E+01  0.57947912392E+02  0.00000000000E+00 0.  1.
        -13    1    3    3    0    0 -0.43227260859E+02  0.20876614723E+02  0.60147694386E+02  0.76955664272E+02  0.00000000000E+00 0.  1.
         13    1    3    3    0    0  0.35630688847E+02  0.35860433108E+01  0.86040553661E+00  0.35821027233E+02  0.00000000000E+00 0. -1.
         21    1    1    2  502  501  0.12185850940E+02  0.39220770046E+02  0.54308849671E+02  0.68089756342E+02  0.00000000000E+00 0. -1.
<scales pt_clust_5="13000.00000" pt_clust_6="13000.00000" pt_clust_7="13000.00000" pt_clust_8="13000.00000" pt_clust_9="41.07023"></scales>
<clustering>
<clus scale="   41.070">  1  9  2 -1</clus>
<clus scale="   91.326">  7  8 -1 -1</clus>
<clus scale="   91.700">  5  6 -1 -1</clus>
<clus scale="  100.828">  2  7  1 -1</clus>
<clus scale="   41.070">  1  5  2 -1</clus>
</clustering>
</event>
<event>
 9    1  0.6202448E-006  0.1012993E+03  0.7546771E-02  0.1284664E+00
          2   -1    0    0  502    0  0.00000000000E+00  0.00000000000E+00  0.14722228048E+03  0.14722228048E+03  0.00000000000E+00 0. -1.
         -2   -1    0    0    0  501 -0.00000000000E+00 -0.00000000000E+00 -0.21127025838E+03  0.21127025838E+03  0.00000000000E+00 0.  1.
         23    2    1    2    0    0  0.53611464189E+02 -0.26066180259E+01 -0.13165952552E+03  0.16154145312E+03  0.76683941391E+02 0.  0.
         23    2    1    2    0    0 -0.17851049369E+02  0.43586682284E+02  0.91598104275E+02  0.13750760136E+03  0.91102518566E+02 0.  0.
        -11    1    4    4    0    0  0.18847287036E+02  0.10426303900E+02 -0.10573013302E+02  0.23994096189E+02  0.00000000000E+00 0.  1.
         11    1    4    4    0    0 -0.36698336405E+02  0.33160378384E+02  0.10217111758E+03  0.11351350517E+03  0.00000000000E+00 0. -1.
        -13    1    3    3    0    0  0.38255322886E+02 -0.38631797172E+02 -0.79659400967E+02  0.96444313696E+02  0.00000000000E+00 0.  1.
         13    1    3    3    0    0  0.15356141303E+02  0.36025179146E+02 -0.52000124553E+02  0.65097139428E+02  0.00000000000E+00 0. -1.
         21    1    1    2  502  501 -0.35760414820E+02 -0.40980064258E+02 -0.23986556654E+02  0.59443484377E+02  0.00000000000E+00 0.  1.
<scales pt_clust_5="13000.00000" pt_clust_6="13000.00000" pt_clust_7="13000.00000" pt_clust_8="13000.00000" pt_clust_9="54.38909"></scales>
<clustering>
<clus scale="   54.389">  2  9  1 -1</clus>
<clus scale="   76.684">  7  8 -1 -1</clus>
<clus scale="   88.557">  2  7  1 -1</clus>
<clus scale="   91.103">  5  6 -1 -1</clus>
<clus scale="  101.299">  1  5  2 -1</clus>
</clustering>
</event>
<event>
 9    1  0.6202448E-006  0.1399328E+03  0.7546771E-02  0.1228739E+00
          1   -1    0    0  502    0  0.00000000000E+00  0.00000000000E+00  0.12145400852E+03  0.12145400852E+03  0.00000000000E+00 0. -1.
         -1   -1    0    0    0  501 -0.00000000000E+00 -0.00000000000E+00 -0.41081531810E+03  0.41081531810E+03  0.00000000000E+00 0.  1.
         23    2    1    2    0    0 -0.73354800843E+02 -0.86713168457E+02 -0.35622334653E+02  0.14615338528E+03  0.84804250548E+02 0.  0.
         23    2    1    2    0    0 -0.26610015719E+02  0.35434878337E+02  0.74649178719E+01  0.10177477091E+03  0.91316238724E+02 0.  0.
        -13    1    3    3    0    0 -0.51294069508E+02  0.77342158279E+00 -0.16847264488E+02  0.53995463405E+02  0.00000000000E+00 0. -1.
         13    1    3    3    0    0 -0.22060731335E+02 -0.87486590040E+02 -0.18775070165E+02  0.92157921871E+02  0.00000000000E+00 0.  1.
        -13    1    4    4    0    0  0.23521388613E+02  0.42216450610E+02 -0.77587941470E+01  0.48945718005E+02  0.00000000000E+00 0.  1.
         13    1    4    4    0    0 -0.50131404331E+02 -0.67815722739E+01  0.15223712019E+02  0.52829052901E+02  0.00000000000E+00 0. -1.
         21    1    1    2  502  501  0.99964816562E+02  0.51278290120E+02 -0.26120389280E+03  0.28434117043E+03  0.00000000000E+00 0.  1.
<scales pt_clust_5="13000.00000" pt_clust_6="13000.00000" pt_clust_7="13000.00000" pt_clust_8="13000.00000" pt_clust_9="111.30776"></scales>
<clustering>
<clus scale="   84.804">  5  6 -1 -1</clus>
<clus scale="   91.316">  7  8 -1 -1</clus>
<clus scale="  101.501">  1  7  2 -1</clus>
<clus scale="  111.308">  2  9  1 -1</clus>
<clus scale="  101.501">  1  5  2 -1</clus>
</clustering>
</event>
<event>
 9    1  0.6202448E-006  0.1117543E+03  0.7546771E-02  0.1258555E+00
         -2   -1    0    0    0  501 -0.00000000000E+00  0.00000000000E+00  0.40668180392E+02  0.40668180392E+02  0.00000000000E+00 0.  1.
          2   -1    0    0  502    0  0.00000000000E+00 -0.00000000000E+00 -0.47424259472E+03  0.47424259472E+03  0.00000000000E+00 0. -1.
         23    2    1    2    0    0 -0.69408721414E+02 -0.47429786503E+02 -0.14989579122E+03  0.19555016411E+03  0.93295033099E+02 0.  0.
         23    2    1    2    0    0  0.27442809281E+02  0.27000936940E+02 -0.16626638880E+03  0.19301145810E+03  0.90148502675E+02 0.  0.
        -11    1    3    3    0    0 -0.33379867221E+02 -0.54255899506E+02 -0.14522777819E+03  0.15858444352E+03  0.00000000000E+00 0. -1.
         11    1    3    3    0    0 -0.36028854194E+02  0.68261130023E+01 -0.46680130278E+01  0.36965720591E+02  0.00000000000E+00 0.  1.
        -11    1    4    4    0    0  0.31263193186E+02 -0.17982609468E+02 -0.13056687964E+03  0.13545653012E+03  0.00000000000E+00 0.  1.
         11    1    4    4    0    0 -0.38203839047E+01  0.44983546408E+02 -0.35699509156E+02  0.57554927978E+02  0.00000000000E+00 0. -1.
         21    1    1    2  502  501  0.41965912133E+02  0.20428849563E+02 -0.11741223431E+03  0.12634915291E+03  0.00000000000E+00 0.  1.
<scales pt_clust_5="13000.00000" pt_clust_6="13000.00000" pt_clust_7="13000.00000" pt_clust_8="13000.00000" pt_clust_9="46.67414"></scales>
<clustering>
<clus scale="   46.674">  2  9  1 -1</clus>
<clus scale="   90.149">  7  8 -1 -1</clus>
<clus scale="   93.295">  5  6 -1 -1</clus>
<clus scale="  109.141">  2  7  1 -1</clus>
<clus scale="   46.674">  2  5  1 -1</clus>
</clustering>
</event>
<event>
 9    1  0.6202448E-006  0.1106370E+03  0.7546771E-02  0.1259805E+00
          2   -1    0    0  502    0  0.00000000000E+00  0.00000000000E+00  0.30696057718E+03  0.30696057718E+03  0.00000000000E+00 0. -1.
         -2   -1    0    0    0  501 -0.00000000000E+00 -0.00000000000E+00 -0.58593430318E+02  0.58593430318E+02  0.00000000000E+00 0.  1.
         23    2    1    2    0    0  0.54461294625E+02  0.29948713153E+02  0.83427275796E+02  0.13760292505E+03  0.90063847375E+02 0.  0.
         23    2    1    2    0    0 -0.32175561766E+02 -0.61322612733E+02  0.97774485794E+02  0.15054201035E+03  0.91144485304E+02 0.  0.
        -11    1    4    4    0    0  0.12081823963E+02 -0.56879309666E+02  0.87221258690E+02  0.10482735476E+03  0.00000000000E+00 0. -1.
         11    1    4    4    0    0 -0.44257385729E+02 -0.44433030674E+01  0.10553227104E+02  0.45714655593E+02  0.00000000000E+00 0.  1.
        -13    1    3    3    0    0  0.15323315386E+02  0.31235761384E+02  0.91260884188E+02  0.97667936225E+02  0.00000000000E+00 0.  1.
         13    1    3    3    0    0  0.39137979239E+02 -0.12870482319E+01 -0.78336083922E+01  0.39934988826E+02  0.00000000000E+00 0. -1.
         21    1    1    2  502  501 -0.22285732860E+02  0.31373899581E+02  0.67165385276E+02  0.77409072099E+02  0.00000000000E+00 0.  1.
<scales pt_clust_5="13000.00000" pt_clust_6="13000.00000" pt_clust_7="13000.00000" pt_clust_8="13000.00000" pt_clust_9="38.48344"></scales>
<clustering>
<clus scale="   38.483">  1  9  2 -1</clus>
<clus scale="   90.064">  7  8 -1 -1</clus>
<clus scale="   91.144">  5  6 -1 -1</clus>
<clus scale="  109.749">  2  7  1 -1</clus>
<clus scale="   38.483">  1  5  2 -1</clus>
</clustering>
</event>
<event>
 9    1  0.6202448E-006  0.1141133E+03  0.7546771E-02  0.1254488E+00
          1   -1    0    0  502    0  0.00000000000E+00  0.00000000000E+00  0.43487145084E+03  0.43487145084E+03  0.00000000000E+00 0. -1.
         -1   -1    0    0    0  501 -0.00000000000E+00 -0.00000000000E+00 -0.80340879103E+02  0.80340879103E+02  0.00000000000E+00 0.  1.
         23    2    1    2    0    0  0.65432266716E+02 -0.34198223287E+02  0.10624560668E+03  0.15607507050E+03  0.87294894989E+02 0.  0.
         23    2    1    2    0    0 -0.67746204590E+02 -0.43054816597E+02  0.25410947749E+03  0.28163041184E+03  0.91108709004E+02 0.  0.
        -11    1    3    3    0    0  0.45092931773E+02  0.23996706960E+02  0.35318014514E+02  0.62101341290E+02  0.00000000000E+00 0.  1.
         11    1    3    3    0    0  0.20339334944E+02 -0.58194930247E+02  0.70927592161E+02  0.93973729213E+02  0.00000000000E+00 0. -1.
        -11    1    4    4    0    0 -0.77573735585E+02 -0.15430856783E+01  0.14451864065E+03  0.16402957983E+03  0.00000000000E+00 0.  1.
         11    1    4    4    0    0  0.98275309954E+01 -0.41511730919E+02  0.10959083684E+03  0.11760083201E+03  0.00000000000E+00 0. -1.
         21    1    1    2  502  501  0.23139378735E+01  0.77253039885E+02 -0.58245124238E+01  0.77506847600E+02  0.00000000000E+00 0.  1.
<scales pt_clust_5="13000.00000" pt_clust_6="13000.00000" pt_clust_7="13000.00000" pt_clust_8="13000.00000" pt_clust_9="77.28769"></scales>
<clustering>
<clus scale="   77.288">  2  9  1 -1</clus>
<clus scale="   87.295">  5  6 -1 -1</clus>
<clus scale="   91.109">  7  8 -1 -1</clus>
<clus scale="  111.092">  2  5  1 -1</clus>
<clus scale="  114.113">  1  5  2 -1</clus>
</clustering>
</event>
<event>
 9    1  0.6202448E-006  0.9873402E+02  0.7546771E-02  0.1284674E+00
         -1   -1    0    0    0  501 -0.00000000000E+00  0.00000000000E+00  0.82057967935E+02  0.82057967935E+02  0.00000000000E+00 0.  1.
          1   -1    0    0  502    0  0.00000000000E+00 -0.00000000000E+00 -0.43431985592E+03  0.43431985592E+03  0.00000000000E+00 0. -1.
         23    2    1    2    0    0  0.93096049880E+02 -0.21484972685E+02 -0.42387073970E+02  0.13653633483E+03  0.87846617100E+02 0.  0.
         23    2    1    2    0    0 -0.63263133263E+01  0.34043060543E+02 -0.26279853151E+03  0.28032832845E+03  0.91224729960E+02 0.  0.
        -11    1    4    4    0    0 -0.96161245761E+01  0.61387753223E+02 -0.22586557653E+03  0.23425666428E+03  0.00000000000E+00 0. -1.
         11    1    4    4    0    0  0.32898112499E+01 -0.27344692680E+02 -0.36932954971E+02  0.46071664163E+02  0.00000000000E+00 0.  1.
        -13    1    3    3    0    0  0.45065858987E+02 -0.48622658022E+02 -0.46866096835E+02  0.81188210671E+02  0.00000000000E+00 0. -1.
         13    1    3    3    0    0  0.48030190893E+02  0.27137685337E+02  0.44790228655E+01  0.55348124164E+02  0.00000000000E+00 0.  1.
         21    1    1    2  502  501 -0.86769736554E+02 -0.12558087858E+02 -0.47076282507E+02  0.99513160572E+02  0.00000000000E+00 0. -1.
<scales pt_clust_5="13000.00000" pt_clust_6="13000.00000" pt_clust_7="13000.00000" pt_clust_8="13000.00000" pt_clust_9="87.67379"></scales>
<clustering>
<clus scale="   87.674">  1  9  2 -1</clus>
<clus scale="   87.847">  7  8 -1 -1</clus>
<clus scale="   91.225">  5  6 -1 -1</clus>
<clus scale="   95.622">  1  7  2 -1</clus>
<clus scale="   98.734">  2  5  1 -1</clus>
</clustering>
</event>
<event>
 9    1  0.6202448E-006  0.1379684E+03  0.7546771E-02  0.1233928E+00
         -3   -1    0    0    0  501 -0.00000000000E+00  0.00000000000E+00  0.10559473226E+03  0.10559473226E+03  0.00000000000E+00 0.  1.
          3   -1    0    0  502    0  0.00000000000E+00 -0.00000000000E+00 -0.52955874015E+03  0.52955874015E+03  0.00000000000E+00 0. -1.
         23    2    1    2    0    0  0.15476535837E+02  0.14397931153E+02  0.45674786337E+02  0.10555522116E+03  0.92784131315E+02 0.  0.
         23    2    1    2    0    0  0.77153515625E+02  0.50022029539E+02 -0.20545197665E+03  0.24232672055E+03  0.89759993160E+02 0.  0.
        -11    1    3    3    0    0 -0.32511585495E+02 -0.13399702217E+02  0.33934691502E+02  0.48868379329E+02  0.00000000000E+00 0.  1.
         11    1    3    3    0    0  0.47988121331E+02  0.27797633370E+02  0.11740094835E+02  0.56686841830E+02  0.00000000000E+00 0. -1.
        -11    1    4    4    0    0  0.18950937536E+02 -0.13864983289E+02 -0.49579426572E+01  0.23999103952E+02  0.00000000000E+00 0.  1.
         11    1    4    4    0    0  0.58202578089E+02  0.63887012828E+02 -0.20049403399E+03  0.21832761660E+03  0.00000000000E+00 0. -1.
         21    1    1    2  502  501 -0.92630051462E+02 -0.64419960692E+02 -0.26418681758E+03  0.28727153070E+03  0.00000000000E+00 0.  1.
<scales pt_clust_5="13000.00000" pt_clust_6="13000.00000" pt_clust_7="13000.00000" pt_clust_8="13000.00000" pt_clust_9="104.77792"></scales>
<clustering>
<clus scale="   89.760">  7  8 -1 -1</clus>
<clus scale="   92.784">  5  6 -1 -1</clus>
<clus scale="   95.162">  1  5  2 -1</clus>
<clus scale="  104.778">  2  9  1 -1</clus>
<clus scale="  104.778">  2  5  1 -1</clus>
</clustering>
</event>
<event>
 9    1  0.6202448E-006  0.9661593E+02  0.7546771E-02  0.1288277E+00
          2   -1    0    0  502    0  0.00000000000E+00  0.00000000000E+00  0.17993739459E+03  0.17993739459E+03  0.00000000000E+00 0. -1.
         -2   -1    0    0    0  501 -0.00000000000E+00 -0.00000000000E+00 -0.91367060319E+02  0.91367060319E+02  0.00000000000E+00 0.  1.
         23    2    1    2    0    0 -0.34465742895E+02  0.19335749583E+02 -0.33231466170E+02  0.10369118156E+03  0.89920921619E+02 0.  0.
         23    2    1    2    0    0  0.20452242283E+02 -0.41793858655E+01  0.11323615554E+03  0.14526458584E+03  0.88564165992E+02 0.  0.
        -11    1    3    3    0    0 -0.47687030602E+02  0.47242442194E+02 -0.19542495055E+02  0.69912876819E+02  0.00000000000E+00 0.  1.
         11    1    3    3    0    0  0.13221287707E+02 -0.27906692612E+02 -0.13688971115E+02  0.33778304743E+02  0.00000000000E+00 0. -1.
        -11    1    4    4    0    0 -0.11972266646E+02  0.31851865051E+02  0.78716877280E+02  0.85756767923E+02  0.00000000000E+00 0.  1.
         11    1    4    4    0    0  0.32424508929E+02 -0.36031250917E+02  0.34519278257E+02  0.59507817918E+02  0.00000000000E+00 0. -1.
         21    1    1    2  502  501  0.14013500612E+02 -0.15156363717E+02  0.85656449021E+01  0.22348687504E+02  0.00000000000E+00 0. -1.
<scales pt_clust_5="13000.00000" pt_clust_6="13000.00000" pt_clust_7="13000.00000" pt_clust_8="13000.00000" pt_clust_9="20.64203"></scales>
<clustering>
<clus scale="   20.642">  1  9  2 -1</clus>
<clus scale="   88.564">  7  8 -1 -1</clus>
<clus scale="   89.921">  5  6 -1 -1</clus>
<clus scale="   95.354">  1  7  2 -1</clus>
<clus scale="   20.642">  1  5  2 -1</clus>
</clustering>
</event>
<event>
 9    1  0.6202448E-006  0.2636115E+03  0.7546771E-02  0.1146911E+00
          1   -1    0    0  502    0  0.00000000000E+00  0.00000000000E+00  0.41228040755E+03  0.41228040755E+03  0.00000000000E+00 0. -1.
         -1   -1    0    0    0  501 -0.00000000000E+00 -0.00000000000E+00 -0.54416227282E+03  0.54416227282E+03  0.00000000000E+00 0.  1.
         23    2    1    2    0    0  0.13503560216E+01  0.45746077737E+01 -0.21910810985E+03  0.23819060740E+03  0.93293360710E+02 0.  0.
         23    2    1    2    0    0  0.70975800436E+02  0.23730506461E+03  0.29220100048E+03  0.39305751679E+03  0.88099539689E+02 0.  0.
        -11    1    3    3    0    0  0.45339938131E+02 -0.10990657507E+02 -0.10403445430E+03  0.11401610511E+03  0.00000000000E+00 0. -1.
         11    1    3    3    0    0 -0.43989582110E+02  0.15565265281E+02 -0.11507365555E+03  0.12417450229E+03  0.00000000000E+00 0.  1.
        -13    1    4    4    0    0 -0.15860371935E+02  0.25404188085E+02  0.14990499631E+02  0.33490883078E+02  0.00000000000E+00 0.  1.
         13    1    4    4    0    0  0.86836172371E+02  0.21190087652E+03  0.27721050085E+03  0.35956663372E+03  0.00000000000E+00 0. -1.
         21    1    1    2  502  501 -0.72326156458E+02 -0.24187967238E+03 -0.20497475590E+03  0.32519455619E+03  0.00000000000E+00 0.  1.
<scales pt_clust_5="13000.00000" pt_clust_6="13000.00000" pt_clust_7="13000.00000" pt_clust_8="13000.00000" pt_clust_9="248.45420"></scales>
<clustering>
<clus scale="   88.100">  7  8 -1 -1</clus>
<clus scale="   93.293">  5  6 -1 -1</clus>
<clus scale="   93.415">  2  5  1 -1</clus>
<clus scale="  248.454">  2  9  1 -1</clus>
<clus scale="  263.611">  1  5  2 -1</clus>
</clustering>
</event>
<event>
 9    1  0.6202448E-006  0.1105014E+03  0.7546771E-02  0.1262809E+00
         -1   -1    0    0    0  501 -0.00000000000E+00  0.00000000000E+00  0.74110524654E+02  0.74110524654E+02  0.00000000000E+00 0.  1.
          1   -1    0    0  502    0  0.00000000000E+00 -0.00000000000E+00 -0.57759963603E+03  0.57759963603E+03  0.00000000000E+00 0. -1.
         23    2    1    2    0    0 -0.67059754602E+02  0.10285859849E+02 -0.71472919605E+01  0.12067225320E+03  0.99538431321E+02 0.  0.
         23    2    1    2    0    0 -0.24431547120E+02  0.26905427379E+01 -0.22372886995E+03  0.24318922235E+03  0.92099137373E+02 0.  0.
        -13    1    3    3    0    0 -0.50217049434E+02 -0.23113831727E+02  0.34129420020E+02  0.64967827283E+02  0.00000000000E+00 0.  1.
         13    1    3    3    0    0 -0.16842705167E+02  0.33399691577E+02 -0.41276711980E+02  0.55704425916E+02  0.00000000000E+00 0. -1.
        -13    1    4    4    0    0 -0.11196818612E+02 -0.44719477717E+02 -0.10829092401E+03  0.11769504941E+03  0.00000000000E+00 0.  1.
         13    1    4    4    0    0 -0.13234728508E+02  0.47410020454E+02 -0.11543794594E+03  0.12549417294E+03  0.00000000000E+00 0. -1.
         21    1    1    2  502  501  0.91491301722E+02 -0.12976402587E+02 -0.27261294947E+03  0.28784868513E+03  0.00000000000E+00 0. -1.
<scales pt_clust_5="13000.00000" pt_clust_6="13000.00000" pt_clust_7="13000.00000" pt_clust_8="13000.00000" pt_clust_9="92.40695"></scales>
<clustering>
<clus scale="   92.099">  7  8 -1 -1</clus>
<clus scale="   92.407">  2  9  1 -1</clus>
<clus scale="   99.538">  5  6 -1 -1</clus>
<clus scale="  103.850">  2  7  1 -1</clus>
<clus scale="   92.407">  2  5  1 -1</clus>
</clustering>
</event>
<event>
 9    1  0.6202448E-006  0.2495588E+03  0.7546771E-02  0.1128620E+00
         -2   -1    0    0    0  501 -0.00000000000E+00  0.00000000000E+00  0.10651050537E+03  0.10651050537E+03  0.00000000000E+00 0.  1.
          2   -1    0    0  502    0  0.00000000000E+00 -0.00000000000E+00 -0.10968350693E+04  0.10968350693E+04  0.00000000000E+00 0. -1.
         23    2    1    2    0    0 -0.13907413681E+03 -0.40372503764E+02 -0.23306687007E+03  0.28934564853E+03  0.91810586607E+02 0.  0.
         23    2    1    2    0    0 -0.75051125785E+02 -0.17320310701E+03 -0.29618679575E+03  0.36259214358E+03  0.90080279988E+02 0.  0.
        -13    1    4    4    0    0 -0.68970116504E+01 -0.50131883649E+02 -0.15593896719E+03  0.16394430767E+03  0.00000000000E+00 0. -1.
         13    1    4    4    0    0 -0.68154114134E+02 -0.12307122337E+03 -0.14024782856E+03  0.19864783591E+03  0.00000000000E+00 0.  1.
        -13    1    3    3    0    0 -0.10763325904E+03 -0.37071566500E+02 -0.23116460674E+03  0.25767478515E+03  0.00000000000E+00 0.  1.
         13    1    3    3    0    0 -0.31440877771E+02 -0.33009372640E+01 -0.19022633325E+01  0.31670863386E+02  0.00000000000E+00 0. -1.
         21    1    1    2  502  501  0.21412526259E+03  0.21357561078E+03 -0.46107089814E+03  0.55140778260E+03  0.00000000000E+00 0. -1.
<scales pt_clust_5="13000.00000" pt_clust_6="13000.00000" pt_clust_7="13000.00000" pt_clust_8="13000.00000" pt_clust_9="232.73409"></scales>
<clustering>
<clus scale="   90.080">  5  6 -1 -1</clus>
<clus scale="   91.811">  7  8 -1 -1</clus>
<clus scale="  171.466">  1  7  2 -1</clus>
<clus scale="  232.734">  1  9  2 -1</clus>
<clus scale="  249.559">  2  5  1 -1</clus>
</clustering>
</event>
<event>
 9    1  0.6202448E-006  0.1355896E+03  0.7546771E-02  0.1220602E+00
          2   -1    0    0  502    0  0.00000000000E+00  0.00000000000E+00  0.81736398939E+03  0.81736398939E+03  0.00000000000E+00 0. -1.
         -2   -1    0    0    0  501 -0.00000000000E+00 -0.00000000000E+00 -0.49679725091E+02  0.49679725091E+02  0.00000000000E+00 0.  1.
         23    2    1    2    0    0 -0.15669829830E+01 -0.85675931312E+02  0.15148775090E+03  0.19651481318E+03  0.91250821832E+02 0.  0.
         23    2    1    2    0    0 -0.62395217994E+02  0.11408717370E+03  0.22903479763E+03  0.27709204995E+03  0.86104698966E+02 0.  0.
        -13    1    3    3    0    0  0.37026070655E+02 -0.73535426395E+02  0.11860327423E+03  0.14437841079E+03  0.00000000000E+00 0.  1.
         13    1    3    3    0    0 -0.38593053638E+02 -0.12140504917E+02  0.32884476666E+02  0.52136402392E+02  0.00000000000E+00 0. -1.
        -13    1    4    4    0    0 -0.83849184765E+02  0.95812023422E+02  0.19526472268E+03  0.23310714605E+03  0.00000000000E+00 0. -1.
         13    1    4    4    0    0  0.21453966771E+02  0.18275150282E+02  0.33770074953E+02  0.43984903892E+02  0.00000000000E+00 0.  1.
         21    1    1    2  502  501  0.63962200977E+02 -0.28411242392E+02  0.38716171577E+03  0.39343685136E+03  0.00000000000E+00 0. -1.
<scales pt_clust_5="13000.00000" pt_clust_6="13000.00000" pt_clust_7="13000.00000" pt_clust_8="13000.00000" pt_clust_9="69.98830"></scales>
<clustering>
<clus scale="   69.988">  1  9  2 -1</clus>
<clus scale="   86.105">  7  8 -1 -1</clus>
<clus scale="   91.251">  5  6 -1 -1</clus>
<clus scale="  132.181">  1  7  2 -1</clus>
<clus scale="   69.988">  1  5  2 -1</clus>
</clustering>
</event>
<event>
 9    1  0.6202448E-006  0.1525456E+03  0.7546771E-02  0.1218834E+00
         -2   -1    0    0    0  501 -0.00000000000E+00  0.00000000000E+00  0.48538464070E+03  0.48538464070E+03  0.00000000000E+00 0.  1.
          2   -1    0    0  502    0  0.00000000000E+00 -0.00000000000E+00 -0.12437974301E+03  0.12437974301E+03  0.00000000000E+00 0. -1.
         23    2    1    2    0    0 -0.43442011588E+01  0.20738514413E+02  0.83443617983E+02  0.12744935836E+03  0.93976292221E+02 0.  0.
         23    2    1    2    0    0  0.13411212080E+02  0.10329220284E+03  0.32172655133E+03  0.35034381361E+03  0.91562405658E+02 0.  0.
        -11    1    3    3    0    0  0.33605072982E+02  0.40649756305E+02  0.53801110058E+02  0.75340978632E+02  0.00000000000E+00 0.  1.
         11    1    3    3    0    0 -0.37949274140E+02 -0.19911241892E+02  0.29642507925E+02  0.52108379725E+02  0.00000000000E+00 0. -1.
        -13    1    4    4    0    0  0.23906940009E+02 -0.82764601814E+01  0.80008631370E+02  0.83913185301E+02  0.00000000000E+00 0. -1.
         13    1    4    4    0    0 -0.10495727930E+02  0.11156866302E+03  0.24171791996E+03  0.26643062831E+03  0.00000000000E+00 0.  1.
         21    1    1    2  502  501 -0.90670109208E+01 -0.12403071725E+03 -0.44165271621E+02  0.13197121173E+03  0.00000000000E+00 0. -1.
<scales pt_clust_5="13000.00000" pt_clust_6="13000.00000" pt_clust_7="13000.00000" pt_clust_8="13000.00000" pt_clust_9="122.01014"></scales>
<clustering>
<clus scale="   91.562">  7  8 -1 -1</clus>
<clus scale="   93.976">  5  6 -1 -1</clus>
<clus scale="   96.335">  1  5  2 -1</clus>
<clus scale="  122.010">  2  9  1 -1</clus>
<clus scale="  122.010">  2  5  1 -1</clus>
</clustering>
</event>
<event>
 9    1  0.6202448E-006  0.9417341E+02  0.7546771E-02  0.1298452E+00
         -1   -1    0    0    0  501 -0.00000000000E+00  0.00000000000E+00  0.33176440655E+03  0.33176440655E+03  0.00000000000E+00 0.  1.
          1   -1    0    0  502    0  0.00000000000E+00 -0.00000000000E+00 -0.51520624558E+02  0.51520624558E+02  0.00000000000E+00 0. -1.
         23    2    1    2    0    0 -0.49873716798E+01  0.18481921745E+01  0.24529372197E+03  0.26200983627E+03  0.91933968551E+02 0.  0.
         23    2    1    2    0    0  0.18291075943E+02  0.15036813503E+02  0.74203411760E+01  0.86347020201E+02  0.82704759324E+02 0.  0.
        -11    1    3    3    0    0 -0.44654126348E+02 -0.10864453024E+00  0.18109960218E+03  0.18652364117E+03  0.00000000000E+00 0.  1.
         11    1    3    3    0    0  0.39666754668E+02  0.19568367048E+01  0.64194119788E+02  0.75486195103E+02  0.00000000000E+00 0. -1.
        -11    1    4    4    0    0 -0.11016339837E+02 -0.27353229185E+02 -0.11211250141E+02  0.31547599275E+02  0.00000000000E+00 0.  1.
         11    1    4    4    0    0  0.29307415780E+02  0.42390042688E+02  0.18631591317E+02  0.54799420926E+02  0.00000000000E+00 0. -1.
         21    1    1    2  502  501 -0.13303704263E+02 -0.16885005678E+02  0.27529718846E+02  0.34928174639E+02  0.00000000000E+00 0.  1.
<scales pt_clust_5="13000.00000" pt_clust_6="13000.00000" pt_clust_7="13000.00000" pt_clust_8="13000.00000" pt_clust_9="21.49632"></scales>
<clustering>
<clus scale="   21.496">  1  9  2 -1</clus>
<clus scale="   82.705">  7  8 -1 -1</clus>
<clus scale="   85.187">  2  7  1 -1</clus>
<clus scale="   91.934">  5  6 -1 -1</clus>
<clus scale="   85.187">  2  5  1 -1</clus>
</clustering>
</event>
<event>
 9    1  0.6202448E-006  0.2302606E+03  0.7546771E-02  0.1160720E+00
         -2   -1    0    0    0  501 -0.00000000000E+00  0.00000000000E+00  0.27440341439E+03  0.27440341439E+03  0.00000000000E+00 0.  1.
          2   -1    0    0  502    0  0.00000000000E+00 -0.00000000000E+00 -0.91837120799E+03  0.91837120799E+03  0.00000000000E+00 0. -1.
         23    2    1    2    0    0 -0.50610588197E+02  0.44463301398E+01  0.18581122066E+03  0.21161913213E+03  0.87610763439E+02 0.  0.
         23    2    1    2    0    0  0.22141452435E+03 -0.34730145151E+02 -0.75397755884E+03  0.79184898031E+03  0.91170575386E+02 0.  0.
        -13    1    4    4    0    0  0.30532096479E+02 -0.40327127894E+02 -0.13986688447E+03  0.14873207970E+03  0.00000000000E+00 0.  1.
         13    1    4    4    0    0  0.19088242787E+03  0.55969827423E+01 -0.61411067436E+03  0.64311690061E+03  0.00000000000E+00 0. -1.
        -13    1    3    3    0    0 -0.13039594073E+02  0.29868235442E+02  0.16878859558E+02  0.36702021770E+02  0.00000000000E+00 0.  1.
         13    1    3    3    0    0 -0.37570994123E+02 -0.25421905303E+02  0.16893236110E+03  0.17491711036E+03  0.00000000000E+00 0. -1.
         21    1    1    2  502  501 -0.17080393616E+03  0.30283815012E+02 -0.75801455422E+02  0.18930650993E+03  0.00000000000E+00 0.  1.
<scales pt_clust_5="13000.00000" pt_clust_6="13000.00000" pt_clust_7="13000.00000" pt_clust_8="13000.00000" pt_clust_9="211.44234"></scales>
<clustering>
<clus scale="   87.611">  7  8 -1 -1</clus>
<clus scale="   91.171">  5  6 -1 -1</clus>
<clus scale="  101.276">  1  7  2 -1</clus>
<clus scale="  211.442">  1  9  2 -1</clus>
<clus scale="  230.261">  2  5  1 -1</clus>
</clustering>
</event>
<event>
 9    1  0.6202448E-006  0.1260118E+03  0.7546771E-02  0.1244433E+00
          1   -1    0    0  502    0  0.00000000000E+00  0.00000000000E+00  0.21910546112E+03  0.21910546112E+03  0.00000000000E+00 0. -1.
         -1   -1    0    0    0  501 -0.00000000000E+00 -0.00000000000E+00 -0.13361932842E+03  0.13361932842E+03  0.00000000000E+00 0.  1.
         23    2    1    2    0    0 -0.11549295142E+02  0.45603093041E+02 -0.13437319395E+02  0.10176591187E+03  0.89234023516E+02 0.  0.
         23    2    1    2    0    0 -0.28534091214E+00  0.66883701808E+02  0.71777935710E+02  0.13463941805E+03  0.92207319945E+02 0.  0.
        -11    1    3    3    0    0 -0.10432104093E+02  0.72600485260E+02 -0.52571458839E+01  0.73534324221E+02  0.00000000000E+00 0.  1.
         11    1    3    3    0    0 -0.11171910492E+01 -0.26997392219E+02 -0.81801735109E+01  0.28231587648E+02  0.00000000000E+00 0. -1.
        -13    1    4    4    0    0 -0.26557046617E+02  0.76639801116E+02  0.34847672137E+02  0.88279647108E+02  0.00000000000E+00 0.  1.
         13    1    4    4    0    0  0.26271705705E+02 -0.97560993080E+01  0.36930263573E+02  0.46359770944E+02  0.00000000000E+00 0. -1.
         21    1    1    2  502  501  0.11834636054E+02 -0.11248679485E+03  0.27145516387E+02  0.11631945962E+03  0.00000000000E+00 0. -1.
<scales pt_clust_5="13000.00000" pt_clust_6="13000.00000" pt_clust_7="13000.00000" pt_clust_8="13000.00000" pt_clust_9="85.88825"></scales>
<clustering>
<clus scale="   89.234">  5  6 -1 -1</clus>
<clus scale="   92.207">  7  8 -1 -1</clus>
<clus scale="  100.875">  2  5  1 -1</clus>
<clus scale="   85.888">  2  9  1 -1</clus>
<clus scale="  126.012">  1  5  2 -1</clus>
</clustering>
</event>
<event>
 9    1  0.6202448E-006  0.1847036E+03  0.7546771E-02  0.1163772E+00
          2   -1    0    0  502    0  0.00000000000E+00  0.00000000000E+00  0.22082798581E+03  0.22082798581E+03  0.00000000000E+00 0. -1.
         -2   -1    0    0    0  501 -0.00000000000E+00 -0.00000000000E+00 -0.28313115974E+03  0.28313115974E+03  0.00000000000E+00 0.  1.
         23    2    1    2    0    0  0.86257784760E+02 -0.12340650009E+03 -0.15114301789E+03  0.23179762409E+03  0.90644122700E+02 0.  0.
         23    2    1    2    0    0 -0.12859636788E+03  0.13920408460E+03  0.67808770061E+02  0.22231751113E+03  0.94404679194E+02 0.  0.
        -11    1    3    3    0    0  0.51840015283E+02 -0.10790410192E+02 -0.22900483921E+02  0.57691007102E+02  0.00000000000E+00 0. -1.
         11    1    3    3    0    0  0.34417769478E+02 -0.11261608990E+03 -0.12824253396E+03  0.17410661699E+03  0.00000000000E+00 0.  1.
        -13    1    4    4    0    0 -0.67397709245E+02  0.11509688898E+03  0.79843338089E+02  0.15545000386E+03  0.00000000000E+00 0. -1.
         13    1    4    4    0    0 -0.61198658637E+02  0.24107195622E+02 -0.12034568028E+02  0.66867507261E+02  0.00000000000E+00 0.  1.
         21    1    1    2  502  501  0.42338583121E+02 -0.15797584507E+02  0.21031073897E+02  0.49844010334E+02  0.00000000000E+00 0. -1.
<scales pt_clust_5="13000.00000" pt_clust_6="13000.00000" pt_clust_7="13000.00000" pt_clust_8="13000.00000" pt_clust_9="45.18981"></scales>
<clustering>
<clus scale="   45.190">  1  9  2 -1</clus>
<clus scale="   90.644">  5  6 -1 -1</clus>
<clus scale="   94.405">  7  8 -1 -1</clus>
<clus scale="  182.810">  2  5  1 -1</clus>
<clus scale="   45.190">  1  5  2 -1</clus>
</clustering>
</event>
<event>
 9    1  0.6202448E-006  0.1361844E+03  0.7546771E-02  0.1219418E+00
         -1   -1    0    0    0  501 -0.00000000000E+00  0.00000000000E+00  0.70624076958E+03  0.70624076958E+03  0.00000000000E+00 0.  1.
          1   -1    0    0  502    0  0.00000000000E+00 -0.00000000000E+00 -0.45574653010E+02  0.45574653010E+02  0.00000000000E+00 0. -1.
         23    2    1    2    0    0 -0.77185140191E+02  0.76884586447E+02  0.50033213235E+03  0.52066957892E+03  0.94317454616E+02 0.  0.
         23    2    1    2    0    0  0.39396188565E+02 -0.67174125433E+02  0.14789449981E+03  0.19019418082E+03  0.90755829254E+02 0.  0.
        -11    1    3    3    0    0 -0.79002813291E+02  0.50100459353E+02  0.47372051497E+03  0.48286916121E+03  0.00000000000E+00 0.  1.
         11    1    3    3    0    0  0.18176730998E+01  0.26784127094E+02  0.26611617379E+02  0.37800417713E+02  0.00000000000E+00 0. -1.
        -13    1    4    4    0    0  0.41447178833E+02  0.96965503981E+01  0.56863878466E+02  0.71030925638E+02  0.00000000000E+00 0.  1.
         13    1    4    4    0    0 -0.20509902682E+01 -0.76870675831E+02  0.91030621344E+02  0.11916325518E+03  0.00000000000E+00 0. -1.
         21    1    1    2  502  501  0.37788951626E+02 -0.97104610138E+01  0.12439484411E+02  0.40951662854E+02  0.00000000000E+00 0. -1.
<scales pt_clust_5="13000.00000" pt_clust_6="13000.00000" pt_clust_7="13000.00000" pt_clust_8="13000.00000" pt_clust_9="39.01664"></scales>
<clustering>
<clus scale="   39.017">  2  9  1 -1</clus>
<clus scale="   90.756">  7  8 -1 -1</clus>
<clus scale="   94.317">  5  6 -1 -1</clus>
<clus scale="  133.742">  2  7  1 -1</clus>
<clus scale="   39.017">  2  5  1 -1</clus>
</clustering>
</event>
<event>
 9    1  0.6202448E-006  0.1900023E+03  0.7546771E-02  0.1177820E+00
          1   -1    0    0  502    0  0.00000000000E+00  0.00000000000E+00  0.15153012148E+03  0.15153012148E+03  0.00000000000E+00 0. -1.
         -1   -1    0    0    0  501 -0.00000000000E+00 -0.00000000000E+00 -0.49641473832E+03  0.49641473832E+03  0.00000000000E+00 0.  1.
         23    2    1    2    0    0 -0.10522976999E+02 -0.79839808364E+02 -0.88176715531E+02  0.15039961979E+03  0.91431856733E+02 0.  0.
         23    2    1    2    0    0 -0.56160407412E+02 -0.88481674156E+02 -0.28136740682E+03  0.31482445180E+03  0.94677451414E+02 0.  0.
        -11    1    4    4    0    0 -0.64007056007E+02 -0.62249512800E+02 -0.27136156780E+03  0.28567289955E+03  0.00000000000E+00 0.  1.
         11    1    4    4    0    0  0.78466485953E+01 -0.26232161355E+02 -0.10005839023E+02  0.29151552242E+02  0.00000000000E+00 0. -1.
        -13    1    3    3    0    0  0.40691576359E+02 -0.38280419676E+02 -0.39199430369E+02  0.68248005527E+02  0.00000000000E+00 0.  1.
         13    1    3    3    0    0 -0.51214553358E+02 -0.41559388688E+02 -0.48977285162E+02  0.82151614261E+02  0.00000000000E+00 0. -1.
         21    1    1    2  502  501  0.66683384411E+02  0.16832148252E+03  0.24659505509E+02  0.18272078822E+03  0.00000000000E+00 0. -1.
<scales pt_clust_5="13000.00000" pt_clust_6="13000.00000" pt_clust_7="13000.00000" pt_clust_8="13000.00000" pt_clust_9="164.73324"></scales>
<clustering>
<clus scale="   91.432">  7  8 -1 -1</clus>
<clus scale="   94.677">  5  6 -1 -1</clus>
<clus scale="  121.840">  2  7  1 -1</clus>
<clus scale="  164.733">  1  9  2 -1</clus>
<clus scale="  164.733">  1  5  2 -1</clus>
</clustering>
</event>
<event>
 9    1  0.6202448E-006  0.9870639E+02  0.7546771E-02  0.1283354E+00
          2   -1    0    0  502    0  0.00000000000E+00  0.00000000000E+00  0.12320858826E+03  0.12320858826E+03  0.00000000000E+00 0. -1.
         -2   -1    0    0    0  501 -0.00000000000E+00 -0.00000000000E+00 -0.13710721387E+03  0.13710721387E+03  0.00000000000E+00 0.  1.
         23    2    1    2    0    0 -0.31200015061E+01  0.50640253113E+02 -0.37137110080E+02  0.10990079130E+03  0.90137946167E+02 0.  0.
         23    2    1    2    0    0  0.27988606692E+02 -0.25290187919E+02  0.45691030116E+02  0.10840084494E+03  0.90775091527E+02 0.  0.
        -11    1    3    3    0    0  0.22753151630E+02 -0.98359584982E+01  0.12246141030E+02  0.27648145667E+02  0.00000000000E+00 0. -1.
         11    1    3    3    0    0 -0.25873153136E+02  0.60476211611E+02 -0.49383251109E+02  0.82252645636E+02  0.00000000000E+00 0.  1.
        -11    1    4    4    0    0  0.37102578564E+02  0.26487804431E+02  0.24104329802E+02  0.51567662686E+02  0.00000000000E+00 0. -1.
         11    1    4    4    0    0 -0.91139718718E+01 -0.51777992349E+02  0.21586700313E+02  0.56833182257E+02  0.00000000000E+00 0.  1.
         21    1    1    2  502  501 -0.24868605186E+02 -0.25350065194E+02 -0.22452545640E+02  0.42014165884E+02  0.00000000000E+00 0.  1.
<scales pt_clust_5="13000.00000" pt_clust_6="13000.00000" pt_clust_7="13000.00000" pt_clust_8="13000.00000" pt_clust_9="35.51159"></scales>
<clustering>
<clus scale="   35.512">  2  9  1 -1</clus>
<clus scale="   90.138">  5  6 -1 -1</clus>
<clus scale="   90.775">  7  8 -1 -1</clus>
<clus scale="   98.121">  2  5  1 -1</clus>
<clus scale="   98.706">  1  5  2 -1</clus>
</clustering>
</event>
<event>
 9    1  0.6202448E-006  0.1361815E+03  0.7546771E-02  0.1238958E+00
         -1   -1    0    0    0  501 -0.00000000000E+00  0.00000000000E+00  0.73667876397E+02  0.73667876397E+02  0.00000000000E+00 0.  1.
          1   -1    0    0  502    0  0.00000000000E+00 -0.00000000000E+00 -0.46700425610E+03  0.46700425610E+03  0.00000000000E+00 0. -1.
         23    2    1    2    0    0 -0.27042834127E+02 -0.79333257521E+02 -0.16112595094E+03  0.20584731588E+03  0.96883769339E+02 0.  0.
         23    2    1    2    0    0 -0.57086944353E+01 -0.14598280369E+02 -0.21640037445E+03  0.23409868173E+03  0.87905470499E+02 0.  0.
        -11    1    3    3    0    0 -0.51645471045E+02 -0.68802814720E+02 -0.15664373652E+03  0.17871301627E+03  0.00000000000E+00 0. -1.
         11    1    3    3    0    0  0.24602636918E+02 -0.10530442801E+02 -0.44822144126E+01  0.27134299603E+02  0.00000000000E+00 0.  1.
        -13    1    4    4    0    0 -0.24814247783E+01 -0.51152781033E+02 -0.10527401643E+03  0.11706999194E+03  0.00000000000E+00 0. -1.
         13    1    4    4    0    0 -0.32272696571E+01  0.36554500665E+02 -0.11112635801E+03  0.11702868979E+03  0.00000000000E+00 0.  1.
         21    1    1    2  502  501  0.32751528562E+02  0.93931537890E+02 -0.15810054321E+02  0.10072613490E+03  0.00000000000E+00 0.  1.
<scales pt_clust_5="13000.00000" pt_clust_6="13000.00000" pt_clust_7="13000.00000" pt_clust_8="13000.00000" pt_clust_9="95.70238"></scales>
<clustering>
<clus scale="   87.905">  7  8 -1 -1</clus>
<clus scale="   89.292">  2  7  1 -1</clus>
<clus scale="   95.702">  1  9  2 -1</clus>
<clus scale="   96.884">  5  6 -1 -1</clus>
<clus scale="   89.292">  2  5  1 -1</clus>
</clustering>
</event>
<event>
 9    1  0.6202448E-006  0.1043404E+03  0.7546771E-02  0.1271554E+00
          1   -1    0    0  502    0  0.00000000000E+00  0.00000000000E+00  0.47296755770E+02  0.47296755770E+02  0.00000000000E+00 0. -1.
         -1   -1    0    0    0  501 -0.00000000000E+00 -0.00000000000E+00 -0.49323221543E+03  0.49323221543E+03  0.00000000000E+00 0.  1.
         23    2    1    2    0    0 -0.16571387331E+01 -0.30161679830E+02 -0.27868207393E+03  0.29492709175E+03  0.91683248620E+02 0.  0.
         23    2    1    2    0    0  0.11307842939E+02  0.53146248512E+02 -0.37107566929E+02  0.11309014171E+03  0.91978353895E+02 0.  0.
        -11    1    4    4    0    0  0.61073841563E+01 -0.23771838197E+02 -0.25030817472E+02  0.35056272703E+02  0.00000000000E+00 0.  1.
         11    1    4    4    0    0  0.52004587822E+01  0.76918086708E+02 -0.12076749457E+02  0.78033869005E+02  0.00000000000E+00 0. -1.
        -13    1    3    3    0    0  0.36003986196E+02 -0.34219376763E+02 -0.21642667111E+03  0.22205349972E+03  0.00000000000E+00 0.  1.
         13    1    3    3    0    0 -0.37661124929E+02  0.40576969336E+01 -0.62255402822E+02  0.72873592034E+02  0.00000000000E+00 0. -1.
         21    1    1    2  502  501 -0.96507042054E+01 -0.22984568682E+02 -0.13014581880E+03  0.13251173774E+03  0.00000000000E+00 0.  1.
<scales pt_clust_5="13000.00000" pt_clust_6="13000.00000" pt_clust_7="13000.00000" pt_clust_8="13000.00000" pt_clust_9="24.92843"></scales>
<clustering>
<clus scale="   24.928">  2  9  1 -1</clus>
<clus scale="   91.683">  7  8 -1 -1</clus>
<clus scale="   91.978">  5  6 -1 -1</clus>
<clus scale="  104.080">  2  7  1 -1</clus>
<clus scale="  104.340">  1  5  2 -1</clus>
</clustering>
</event>
<event>
 9    1  0.6202448E-006  0.1238895E+03  0.7546771E-02  0.1256771E+00
          2   -1    0    0  502    0  0.00000000000E+00  0.00000000000E+00  0.19429726513E+03  0.19429726513E+03  0.00000000000E+00 0. -1.
         -2   -1    0    0    0  501 -0.00000000000E+00 -0.00000000000E+00 -0.10181012235E+03  0.10181012235E+03  0.00000000000E+00 0.  1.
         23    2    1    2    0    0  0.46569677283E+01  0.34957158304E+02  0.17170180327E+02  0.12984938181E+03  0.12378350698E+03 0.  0.
         23    2    1    2    0    0  0.62981334002E+01  0.15545511277E+02  0.13316417953E+02  0.85544924984E+02  0.82820757050E+02 0.  0.
        -11    1    4    4    0    0 -0.36291491024E+02 -0.50982329933E+01  0.10545046107E+02  0.38134791173E+02  0.00000000000E+00 0.  1.
         11    1    4    4    0    0  0.42589624424E+02  0.20643744271E+02  0.27713718462E+01  0.47410133811E+02  0.00000000000E+00 0. -1.
        -13    1    3    3    0    0  0.34560180194E+02 -0.23288364725E+02 -0.28088123437E+02  0.50256309701E+02  0.00000000000E+00 0.  1.
         13    1    3    3    0    0 -0.29903212465E+02  0.58245523029E+02  0.45258303764E+02  0.79593072113E+02  0.00000000000E+00 0. -1.
         21    1    1    2  502  501 -0.10955101128E+02 -0.50502669582E+02  0.62000544495E+02  0.80713080683E+02  0.00000000000E+00 0.  1.
<scales pt_clust_5="13000.00000" pt_clust_6="13000.00000" pt_clust_7="13000.00000" pt_clust_8="13000.00000" pt_clust_9="51.67721"></scales>
<clustering>
<clus scale="   51.677">  1  9  2 -1</clus>
<clus scale="   82.821">  5  6 -1 -1</clus>
<clus scale="   82.979">  1  5  2 -1</clus>
<clus scale="  123.784">  7  8 -1 -1</clus>
<clus scale="   51.677">  1  5  2 -1</clus>
</clustering>
</event>
<event>
 9    1  0.6202448E-006  0.1039985E+03  0.7546771E-02  0.1272557E+00
          1   -1    0    0  502    0  0.00000000000E+00  0.00000000000E+00  0.92611370429E+02  0.92611370429E+02  0.00000000000E+00 0. -1.
         -1   -1    0    0    0  501 -0.00000000000E+00 -0.00000000000E+00 -0.71533345010E+03  0.71533345010E+03  0.00000000000E+00 0.  1.
         23    2    1    2    0    0  0.52452857535E+02  0.36012312279E+02 -0.56359351619E+03  0.57453596747E+03  0.91682809289E+02 0.  0.
         23    2    1    2    0    0 -0.47095637369E+01  0.18299503475E+02 -0.10993326832E+03  0.14503287518E+03  0.92693902611E+02 0.  0.
        -11    1    4    4    0    0  0.11365345422E+02 -0.35230093865E+02 -0.57572596438E+02  0.68446581002E+02  0.00000000000E+00 0.  1.
         11    1    4    4    0    0 -0.16074909159E+02  0.53529597340E+02 -0.52360671883E+02  0.76586294178E+02  0.00000000000E+00 0. -1.
        -13    1    3    3    0    0  0.81550104625E+01 -0.30208725602E+02 -0.18791512643E+03  0.19050240429E+03  0.00000000000E+00 0.  1.
         13    1    3    3    0    0  0.44297847072E+02  0.66221037881E+02 -0.37567838976E+03  0.38403356318E+03  0.00000000000E+00 0. -1.
         21    1    1    2  502  501 -0.47743293798E+02 -0.54311815754E+02  0.50804704840E+02  0.88375977885E+02  0.00000000000E+00 0. -1.
<scales pt_clust_5="13000.00000" pt_clust_6="13000.00000" pt_clust_7="13000.00000" pt_clust_8="13000.00000" pt_clust_9="72.31318"></scales>
<clustering>
<clus scale="   72.313">  1  9  2 -1</clus>
<clus scale="   91.683">  7  8 -1 -1</clus>
<clus scale="   92.694">  5  6 -1 -1</clus>
<clus scale="  103.098">  2  7  1 -1</clus>
<clus scale="   72.313">  1  5  2 -1</clus>
</clustering>
</event>
<event>
 9    1  0.6202448E-006  0.9701203E+02  0.7546771E-02  0.1288028E+00
          1   -1    0    0  502    0  0.00000000000E+00  0.00000000000E+00  0.20092895421E+03  0.20092895421E+03  0.00000000000E+00 0. -1.
         -1   -1    0    0    0  501 -0.00000000000E+00 -0.00000000000E+00 -0.10359995498E+03  0.10359995498E+03  0.00000000000E+00 0.  1.
         23    2    1    2    0    0 -0.27011322807E+02 -0.14184034946E+02 -0.52380847856E+02  0.11110333623E+03  0.93109611173E+02 0.  0.
         23    2    1    2    0    0  0.30337062335E+01  0.15047558792E+02  0.14013753605E+03  0.16759340486E+03  0.90627743786E+02 0.  0.
        -11    1    3    3    0    0 -0.19881077422E+02 -0.48867932432E+02 -0.54213416917E+02  0.75646722556E+02  0.00000000000E+00 0.  1.
         11    1    3    3    0    0 -0.71302453854E+01  0.34683897486E+02  0.18325690603E+01  0.35456613677E+02  0.00000000000E+00 0. -1.
        -13    1    4    4    0    0 -0.18364411848E+00  0.38082012729E+02  0.13920122131E+03  0.14431650437E+03  0.00000000000E+00 0. -1.
         13    1    4    4    0    0  0.32173503519E+01 -0.23034453937E+02  0.93631474417E+00  0.23276900498E+02  0.00000000000E+00 0.  1.
         21    1    1    2  502  501  0.23977616574E+02 -0.86352384602E+00  0.95723110352E+01  0.25832168096E+02  0.00000000000E+00 0. -1.
<scales pt_clust_5="13000.00000" pt_clust_6="13000.00000" pt_clust_7="13000.00000" pt_clust_8="13000.00000" pt_clust_9="23.99316"></scales>
<clustering>
<clus scale="   23.993">  1  9  2 -1</clus>
<clus scale="   90.628">  7  8 -1 -1</clus>
<clus scale="   93.110">  5  6 -1 -1</clus>
<clus scale="   94.633">  1  7  2 -1</clus>
<clus scale="   23.993">  1  5  2 -1</clus>
</clustering>
</event>
<event>
 9    1  0.6202448E-006  0.1653288E+03  0.7546771E-02  0.1201466E+00
          1   -1    0    0  502    0  0.00000000000E+00  0.00000000000E+00  0.82437633056E+03  0.82437633056E+03  0.00000000000E+00 0. -1.
         -1   -1    0    0    0  501 -0.00000000000E+00 -0.00000000000E+00 -0.13735786753E+03  0.13735786753E+03  0.00000000000E+00 0.  1.
         23    2    1    2    0    0 -0.20755059406E+01 -0.13731162801E+03 -0.46430818865E+02  0.16694012612E+03  0.82791266806E+02 0.  0.
         23    2    1    2    0    0  0.19945980082E+02 -0.56556311204E+02  0.22349660705E+03  0.24894073792E+03  0.91783981037E+02 0.  0.
        -13    1    4    4    0    0 -0.34547920627E+02 -0.10554929068E+02  0.10010227706E+03  0.10642100930E+03  0.00000000000E+00 0. -1.
         13    1    4    4    0    0  0.54493900710E+02 -0.46001382136E+02  0.12339432999E+03  0.14251972862E+03  0.00000000000E+00 0.  1.
        -13    1    3    3    0    0  0.10184724891E+02 -0.11045855059E+03 -0.68241495330E+02  0.13023717482E+03  0.00000000000E+00 0.  1.
         13    1    3    3    0    0 -0.12260230831E+02 -0.26853077412E+02  0.21810676465E+02  0.36702951303E+02  0.00000000000E+00 0. -1.
         21    1    1    2  502  501 -0.17870474142E+02  0.19386793921E+03  0.50995267484E+03  0.54585333403E+03  0.00000000000E+00 0. -1.
<scales pt_clust_5="13000.00000" pt_clust_6="13000.00000" pt_clust_7="13000.00000" pt_clust_8="13000.00000" pt_clust_9="143.10562"></scales>
<clustering>
<clus scale="   82.791">  7  8 -1 -1</clus>
<clus scale="   91.784">  5  6 -1 -1</clus>
<clus scale="  109.639">  1  5  2 -1</clus>
<clus scale="  143.106">  1  9  2 -1</clus>
<clus scale="  109.639">  1  5  2 -1</clus>
</clustering>
</event>
<event>
 9    1  0.6202448E-006  0.1149350E+03  0.7546771E-02  0.1259245E+00
          2   -1    0    0  502    0  0.00000000000E+00  0.00000000000E+00  0.99196373360E+02  0.99196373360E+02  0.00000000000E+00 0. -1.
         -2   -1    0    0    0  501 -0.00000000000E+00 -0.00000000000E+00 -0.16745408545E+03  0.16745408545E+03  0.00000000000E+00 0.  1.
         23    2    1    2    0    0  0.79548960273E+01 -0.21617430279E+02 -0.52805755564E+02  0.12187395262E+03  0.10739748062E+03 0.  0.
         23    2    1    2    0    0 -0.35770994213E+02  0.37029903077E+02  0.96944729160E+01  0.10423489116E+03  0.90111885899E+02 0.  0.
        -11    1    4    4    0    0 -0.47774853754E+02  0.58366509979E+02  0.19430334263E+02  0.77888535921E+02  0.00000000000E+00 0. -1.
         11    1    4    4    0    0  0.12003859541E+02 -0.21336606902E+02 -0.97358613473E+01  0.26346355235E+02  0.00000000000E+00 0.  1.
        -13    1    3    3    0    0  0.19381805874E+02  0.41409822423E+02 -0.24049401538E+02  0.51660444311E+02  0.00000000000E+00 0. -1.
         13    1    3    3    0    0 -0.11426909846E+02 -0.63027252702E+02 -0.28756354027E+02  0.70213508307E+02  0.00000000000E+00 0.  1.
         21    1    1    2  502  501  0.27816098186E+02 -0.15412472798E+02 -0.25146429440E+02  0.40541615035E+02  0.00000000000E+00 0.  1.
<scales pt_clust_5="13000.00000" pt_clust_6="13000.00000" pt_clust_7="13000.00000" pt_clust_8="13000.00000" pt_clust_9="31.80062"></scales>
<clustering>
<clus scale="   31.801">  2  9  1 -1</clus>
<clus scale="   90.112">  5  6 -1 -1</clus>
<clus scale="   98.975">  1  5  2 -1</clus>
<clus scale="  107.397">  7  8 -1 -1</clus>
<clus scale="   98.975">  1  5  2 -1</clus>
</clustering>
</event>
<event>
 9    1  0.6202448E-006  0.9429329E+02  0.7546771E-02  0.1296031E+00
         -2   -1    0    0    0  501 -0.00000000000E+00  0.00000000000E+00  0.23916235563E+03  0.23916235563E+03  0.00000000000E+00 0.  1.
          2   -1    0    0  502    0  0.00000000000E+00 -0.00000000000E+00 -0.83691344363E+02  0.83691344363E+02  0.00000000000E+00 0. -1.
         23    2    1    2    0    0 -0.12095671213E+02 -0.20066889310E+02  0.16735662985E+03  0.19259078346E+03  0.92379559471E+02 0.  0.
         23    2    1    2    0    0 -0.25250275419E+02  0.12220600102E+02 -0.36078292107E+01  0.91214154950E+02  0.86718430314E+02 0.  0.
        -13    1    3    3    0    0  0.22614494670E+02 -0.45151800092E+02  0.70810301513E+02  0.86972404940E+02  0.00000000000E+00 0.  1.
         13    1    3    3    0    0 -0.34710165884E+02  0.25084910781E+02  0.96546328341E+02  0.10561837852E+03  0.00000000000E+00 0. -1.
        -13    1    4    4    0    0 -0.49832831777E+02  0.24936230752E+02 -0.19814436925E+02  0.59141682743E+02  0.00000000000E+00 0. -1.
         13    1    4    4    0    0  0.24582556357E+02 -0.12715630650E+02  0.16206607714E+02  0.32072472207E+02  0.00000000000E+00 0.  1.
         21    1    1    2  502  501  0.37345946632E+02  0.78462892083E+01 -0.82777893774E+01  0.39048761583E+02  0.00000000000E+00 0.  1.
<scales pt_clust_5="13000.00000" pt_clust_6="13000.00000" pt_clust_7="13000.00000" pt_clust_8="13000.00000" pt_clust_9="38.16129"></scales>
<clustering>
<clus scale="   38.161">  2  9  1 -1</clus>
<clus scale="   86.718">  7  8 -1 -1</clus>
<clus scale="   88.754">  2  7  1 -1</clus>
<clus scale="   92.380">  5  6 -1 -1</clus>
<clus scale="   38.161">  2  5  1 -1</clus>
</clustering>
</event>
<event>
 9    1  0.6202448E-006  0.9985120E+02  0.7546771E-02  0.1280819E+00
         -1   -1    0    0    0  501 -0.00000000000E+00  0.00000000000E+00  0.25492205609E+02  0.25492205609E+02  0.00000000000E+00 0.  1.
          1   -1    0    0  502    0  0.00000000000E+00 -0.00000000000E+00 -0.66576453017E+03  0.66576453017E+03  0.00000000000E+00 0. -1.
         23    2    1    2    0    0 -0.45682041663E+02  0.15177847862E+02 -0.28412029967E+03  0.30233711280E+03  0.91466764982E+02 0.  0.
         23    2    1    2    0    0  0.32673146328E+02  0.31993533890E+02 -0.28418861957E+03  0.30189604962E+03  0.91032590767E+02 0.  0.
        -13    1    4    4    0    0 -0.29301585799E+02  0.85090522892E+01 -0.13880102017E+03  0.14211512974E+03  0.00000000000E+00 0. -1.
         13    1    4    4    0    0  0.61974732126E+02  0.23484481601E+02 -0.14538759940E+03  0.15978091988E+03  0.00000000000E+00 0.  1.
        -13    1    3    3    0    0  0.94331316531E+00  0.39558830598E+02 -0.19389156365E+03  0.19788817391E+03  0.00000000000E+00 0.  1.
         13    1    3    3    0    0 -0.46625354829E+02 -0.24380982736E+02 -0.90228736014E+02  0.10444893889E+03  0.00000000000E+00 0. -1.
         21    1    1    2  502  501  0.13008895336E+02 -0.47171381753E+02 -0.71963405325E+02  0.87023573360E+02  0.00000000000E+00 0.  1.
<scales pt_clust_5="13000.00000" pt_clust_6="13000.00000" pt_clust_7="13000.00000" pt_clust_8="13000.00000" pt_clust_9="48.93231"></scales>
<clustering>
<clus scale="   48.932">  1  9  2 -1</clus>
<clus scale="   91.033">  5  6 -1 -1</clus>
<clus scale="   91.467">  7  8 -1 -1</clus>
<clus scale="   99.454">  2  5  1 -1</clus>
<clus scale="   99.454">  2  5  1 -1</clus>
</clustering>
</event>
<event>
 9    1  0.6202448E-006  0.1825582E+03  0.7546771E-02  0.1165791E+00
         -1   -1    0    0    0  501 -0.00000000000E+00  0.00000000000E+00  0.18657980031E+03  0.18657980031E+03  0.00000000000E+00 0.  1.
          1   -1    0    0  502    0  0.00000000000E+00 -0.00000000000E+00 -0.34697334581E+03  0.34697334581E+03  0.00000000000E+00 0. -1.
         23    2    1    2    0    0  0.17641556311E+03  0.33551080882E+02  0.51935428215E+02  0.20887733979E+03  0.93189744284E+02 0.  0.
         23    2    1    2    0    0 -0.12409737329E+03 -0.69019205295E+01 -0.65588861074E+02  0.16662508223E+03  0.89522202643E+02 0.  0.
        -11    1    4    4    0    0 -0.45865141127E+02 -0.32391340804E+02  0.74020635710E+01  0.56635683758E+02  0.00000000000E+00 0.  1.
         11    1    4    4    0    0 -0.78232232160E+02  0.25489420275E+02 -0.72990924645E+02  0.10998939847E+03  0.00000000000E+00 0. -1.
        -13    1    3    3    0    0  0.95311288713E+02 -0.20655371268E+02  0.53658445283E+02  0.11131089286E+03  0.00000000000E+00 0.  1.
         13    1    3    3    0    0  0.81104274394E+02  0.54206452150E+02 -0.17230170680E+01  0.97566446935E+02  0.00000000000E+00 0. -1.
         21    1    1    2  502  501 -0.52318189821E+02 -0.26649160352E+02 -0.14674011263E+03  0.15805072410E+03  0.00000000000E+00 0.  1.
<scales pt_clust_5="13000.00000" pt_clust_6="13000.00000" pt_clust_7="13000.00000" pt_clust_8="13000.00000" pt_clust_9="58.71431"></scales>
<clustering>
<clus scale="   58.714">  2  9  1 -1</clus>
<clus scale="   89.522">  5  6 -1 -1</clus>
<clus scale="   93.190">  7  8 -1 -1</clus>
<clus scale="  180.714">  2  5  1 -1</clus>
<clus scale="   58.714">  2  5  1 -1</clus>
</clustering>
</event>
<event>
 9    1  0.6202448E-006  0.9359447E+02  0.7546771E-02  0.1296354E+00
          2   -1    0    0  502    0  0.00000000000E+00  0.00000000000E+00  0.31343522233E+03  0.31343522233E+03  0.00000000000E+00 0. -1.
         -2   -1    0    0    0  501 -0.00000000000E+00 -0.00000000000E+00 -0.65457375086E+02  0.65457375086E+02  0.00000000000E+00 0.  1.
         23    2    1    2    0    0 -0.13899764596E+02  0.47553340876E+02  0.87456317266E+01  0.10451734722E+03  0.91612587078E+02 0.  0.
         23    2    1    2    0    0  0.27325576957E+01 -0.13109817413E+02  0.20892270950E+03  0.22715524412E+03  0.88155953884E+02 0.  0.
        -11    1    4    4    0    0 -0.31671011328E+02 -0.51677108854E+01  0.27297076525E+02  0.42129426547E+02  0.00000000000E+00 0.  1.
         11    1    4    4    0    0  0.34403569024E+02 -0.79421065277E+01  0.18162563297E+03  0.18502581758E+03  0.00000000000E+00 0. -1.
        -13    1    3    3    0    0 -0.50394258639E+02  0.99693370883E+01  0.88646706212E+01  0.52130138796E+02  0.00000000000E+00 0.  1.
         13    1    3    3    0    0  0.36494494042E+02  0.37584003787E+02 -0.11903889461E+00  0.52387208423E+02  0.00000000000E+00 0. -1.
         21    1    1    2  502  501  0.11167206901E+02 -0.34443523463E+02  0.30309506023E+02  0.47220006076E+02  0.00000000000E+00 0. -1.
<scales pt_clust_5="13000.00000" pt_clust_6="13000.00000" pt_clust_7="13000.00000" pt_clust_8="13000.00000" pt_clust_9="36.20860"></scales>
<clustering>
<clus scale="   36.209">  2  9  1 -1</clus>
<clus scale="   88.156">  5  6 -1 -1</clus>
<clus scale="   90.214">  1  5  2 -1</clus>
<clus scale="   91.613">  7  8 -1 -1</clus>
<clus scale="   90.214">  1  5  2 -1</clus>
</clustering>
</event>
<event>
 9    1  0.6202448E-006  0.1518238E+03  0.7546771E-02  0.1218225E+00
         -2   -1    0    0    0  501 -0.00000000000E+00  0.00000000000E+00  0.60815826676E+02  0.60815826676E+02  0.00000000000E+00 0.  1.
          2   -1    0    0  502    0  0.00000000000E+00 -0.00000000000E+00 -0.90072253041E+03  0.90072253041E+03  0.00000000000E+00 0. -1.
         23    2    1    2    0    0 -0.12264032672E+03 -0.47632732693E+02 -0.84599548120E+02  0.17953948039E+03  0.88135205888E+02 0.  0.
         23    2    1    2    0    0  0.29211241463E+02  0.53418995914E+01 -0.41048952551E+03  0.42225354098E+03  0.94416999519E+02 0.  0.
        -11    1    4    4    0    0  0.58429612373E+02 -0.17775509967E+02 -0.23094238442E+03  0.23888150468E+03  0.00000000000E+00 0.  1.
         11    1    4    4    0    0 -0.29218370910E+02  0.23117409559E+02 -0.17954714109E+03  0.18337203630E+03  0.00000000000E+00 0. -1.
        -13    1    3    3    0    0 -0.68481008747E+02 -0.58959057013E+02 -0.16607108202E+02  0.91878261878E+02  0.00000000000E+00 0.  1.
         13    1    3    3    0    0 -0.54159317971E+02  0.11326324321E+02 -0.67992439918E+02  0.87661218516E+02  0.00000000000E+00 0. -1.
         21    1    1    2  502  501  0.93429085255E+02  0.42290833101E+02 -0.34481763010E+03  0.35974533571E+03  0.00000000000E+00 0.  1.
<scales pt_clust_5="13000.00000" pt_clust_6="13000.00000" pt_clust_7="13000.00000" pt_clust_8="13000.00000" pt_clust_9="123.62297"></scales>
<clustering>
<clus scale="   88.135">  7  8 -1 -1</clus>
<clus scale="   94.417">  5  6 -1 -1</clus>
<clus scale="   98.977">  2  5  1 -1</clus>
<clus scale="  123.623">  2  9  1 -1</clus>
<clus scale="   98.977">  2  5  1 -1</clus>
</clustering>
</event>
<event>
 9    1  0.6202448E-006  0.2351056E+03  0.7546771E-02  0.1123261E+00
         -1   -1    0    0    0  501 -0.00000000000E+00  0.00000000000E+00  0.12985671371E+03  0.12985671371E+03  0.00000000000E+00 0.  1.
          1   -1    0    0  502    0  0.00000000000E+00 -0.00000000000E+00 -0.81143753943E+03  0.81143753943E+03  0.00000000000E+00 0. -1.
         23    2    1    2    0    0 -0.14241665001E+03  0.21313458997E+03 -0.12341794052E+03  0.29946551956E+03  0.93481301435E+02 0.  0.
         23    2    1    2    0    0  0.67065145904E+02 -0.19483298671E+03 -0.48700900564E+03  0.53658771292E+03  0.91054794395E+02 0.  0.
        -11    1    3    3    0    0 -0.86319713992E+02  0.86565996368E+02 -0.10233211539E+03  0.15942592823E+03  0.00000000000E+00 0. -1.
         11    1    3    3    0    0 -0.56096936022E+02  0.12656859361E+03 -0.21085825125E+02  0.14003959133E+03  0.00000000000E+00 0.  1.
        -13    1    4    4    0    0  0.81723333869E+02 -0.12350840722E+03 -0.27378788285E+03  0.31127613906E+03  0.00000000000E+00 0.  1.
         13    1    4    4    0    0 -0.14658187965E+02 -0.71324579493E+02 -0.21322112279E+03  0.22531157386E+03  0.00000000000E+00 0. -1.
         21    1    1    2  502  501  0.75351504110E+02 -0.18301603265E+02 -0.71153879560E+02  0.10524102066E+03  0.00000000000E+00 0. -1.
<scales pt_clust_5="13000.00000" pt_clust_6="13000.00000" pt_clust_7="13000.00000" pt_clust_8="13000.00000" pt_clust_9="77.54223"></scales>
<clustering>
<clus scale="   77.542">  1  9  2 -1</clus>
<clus scale="   91.055">  7  8 -1 -1</clus>
<clus scale="   93.481">  5  6 -1 -1</clus>
<clus scale="  234.151">  2  7  1 -1</clus>
<clus scale="  234.151">  2  5  1 -1</clus>
</clustering>
</event>
<event>
 9    1  0.6202448E-006  0.1643892E+03  0.7546771E-02  0.1197404E+00
         -2   -1    0    0    0  501 -0.00000000000E+00  0.00000000000E+00  0.70234593955E+02  0.70234593955E+02  0.00000000000E+00 0.  1.
          2   -1    0    0  502    0  0.00000000000E+00 -0.00000000000E+00 -0.78174941127E+03  0.78174941127E+03  0.00000000000E+00 0. -1.
         23    2    1    2    0    0  0.43939015694E+02  0.60758928147E+02 -0.82054703562E+02  0.14688450054E+03  0.96019777500E+02 0.  0.
         23    2    1    2    0    0 -0.14456454162E+02  0.11284260197E+03 -0.26399245744E+03  0.29942313059E+03  0.83783958253E+02 0.  0.
        -11    1    3    3    0    0  0.68047567205E+02  0.43152069188E+02 -0.28309975860E+02  0.85405077196E+02  0.00000000000E+00 0.  1.
         11    1    3    3    0    0 -0.24108551511E+02  0.17606858959E+02 -0.53744727702E+02  0.61479423339E+02  0.00000000000E+00 0. -1.
        -13    1    4    4    0    0 -0.31988830179E+02  0.52533947303E+02 -0.59782027252E+02  0.85772907482E+02  0.00000000000E+00 0.  1.
         13    1    4    4    0    0  0.17532376016E+02  0.60308654665E+02 -0.20421043019E+03  0.21365022311E+03  0.00000000000E+00 0. -1.
         21    1    1    2  502  501 -0.29482561532E+02 -0.17360153011E+03 -0.36546765632E+03  0.40567637411E+03  0.00000000000E+00 0. -1.
<scales pt_clust_5="13000.00000" pt_clust_6="13000.00000" pt_clust_7="13000.00000" pt_clust_8="13000.00000" pt_clust_9="141.43573"></scales>
<clustering>
<clus scale="   83.784">  7  8 -1 -1</clus>
<clus scale="   96.020">  5  6 -1 -1</clus>
<clus scale="  121.828">  1  5  2 -1</clus>
<clus scale="  141.436">  1  9  2 -1</clus>
<clus scale="  164.389">  2  5  1 -1</clus>
</clustering>
</event>
<event>
 9    1  0.6202448E-006  0.2355293E+03  0.7546771E-02  0.1142747E+00
         -2   -1    0    0    0  501 -0.00000000000E+00  0.00000000000E+00  0.99092163840E+02  0.99092163840E+02  0.00000000000E+00 0.  1.
          2   -1    0    0  502    0  0.00000000000E+00 -0.00000000000E+00 -0.14438850452E+04  0.14438850452E+04  0.00000000000E+00 0. -1.
         23    2    1    2    0    0  0.10895368425E+03 -0.27211188131E+02 -0.12627420989E+03  0.19203790758E+03  0.91225148907E+02 0.  0.
         23    2    1    2    0    0  0.10280222585E+03  0.11529914894E+03 -0.99362231868E+02  0.20852466981E+03  0.98729394874E+02 0.  0.
        -11    1    4    4    0    0  0.31908357544E+02  0.92090882797E+02 -0.19783581796E+02  0.99449806859E+02  0.00000000000E+00 0.  1.
         11    1    4    4    0    0  0.70893868309E+02  0.23208266142E+02 -0.79578650072E+02  0.10907486295E+03  0.00000000000E+00 0. -1.
        -13    1    3    3    0    0  0.37304828558E+02  0.13834817124E+02  0.16008255027E+01  0.39819782030E+02  0.00000000000E+00 0.  1.
         13    1    3    3    0    0  0.71648855689E+02 -0.41046005256E+02 -0.12787503539E+03  0.15221812555E+03  0.00000000000E+00 0. -1.
         21    1    1    2  502  501 -0.21175591010E+03 -0.88087960808E+02 -0.11191564396E+04  0.11424146316E+04  0.00000000000E+00 0. -1.
<scales pt_clust_5="13000.00000" pt_clust_6="13000.00000" pt_clust_7="13000.00000" pt_clust_8="13000.00000" pt_clust_9="213.83774"></scales>
<clustering>
<clus scale="   91.225">  7  8 -1 -1</clus>
<clus scale="   98.729">  5  6 -1 -1</clus>
<clus scale="  144.684">  1  7  2 -1</clus>
<clus scale="  213.838">  2  9  1 -1</clus>
<clus scale="  213.838">  2  5  1 -1</clus>
</clustering>
</event>
<event>
 9    1  0.6202448E-006  0.1003278E+03  0.7546771E-02  0.1281271E+00
         -1   -1    0    0    0  501 -0.00000000000E+00  0.00000000000E+00  0.28422473089E+03  0.28422473089E+03  0.00000000000E+00 0.  1.
          1   -1    0    0  502    0  0.00000000000E+00 -0.00000000000E+00 -0.98420239031E+02  0.98420239031E+02  0.00000000000E+00 0. -1.
         23    2    1    2    0    0  0.24207835163E+02 -0.57196734657E+02  0.20961497961E+03  0.23580020341E+03  0.88350498099E+02 0.  0.
         23    2    1    2    0    0 -0.17137771801E+02  0.33451570701E+02 -0.49768164045E+02  0.11096135020E+03  0.91776033261E+02 0.  0.
        -13    1    4    4    0    0 -0.22864265533E+01 -0.27807688798E+02  0.39032000554E+01  0.28173219080E+02  0.00000000000E+00 0.  1.
         13    1    4    4    0    0 -0.14851345248E+02  0.61259259499E+02 -0.53671364100E+02  0.82788131120E+02  0.00000000000E+00 0. -1.
        -13    1    3    3    0    0  0.46998234239E+02 -0.38034025550E+02  0.19179569689E+03  0.20109950389E+03  0.00000000000E+00 0.  1.
         13    1    3    3    0    0 -0.22790399076E+02 -0.19162709108E+02  0.17819282716E+02  0.34700699516E+02  0.00000000000E+00 0. -1.
         21    1    1    2  502  501 -0.70700633624E+01  0.23745163956E+02  0.25957676296E+02  0.35883416308E+02  0.00000000000E+00 0. -1.
<scales pt_clust_5="13000.00000" pt_clust_6="13000.00000" pt_clust_7="13000.00000" pt_clust_8="13000.00000" pt_clust_9="24.77536"></scales>
<clustering>
<clus scale="   24.775">  1  9  2 -1</clus>
<clus scale="   88.350">  7  8 -1 -1</clus>
<clus scale="   91.776">  5  6 -1 -1</clus>
<clus scale="   97.204">  1  7  2 -1</clus>
<clus scale="  100.328">  2  5  1 -1</clus>
</clustering>
</event>
<event>
 9    1  0.6202448E-006  0.1267719E+03  0.7546771E-02  0.1232543E+00
          1   -1    0    0  502    0  0.00000000000E+00  0.00000000000E+00  0.49966861399E+03  0.49966861399E+03  0.00000000000E+00 0. -1.
         -1   -1    0    0    0  501 -0.00000000000E+00 -0.00000000000E+00 -0.79381676579E+02  0.79381676579E+02  0.00000000000E+00 0.  1.
         23    2    1    2    0    0  0.91212941758E-01 -0.13078325841E+03  0.15750301138E+03  0.22281989187E+03  0.87961563299E+02 0.  0.
         23    2    1    2    0    0 -0.73697774537E+02  0.45598173651E+02  0.16934857935E+03  0.20992732770E+03  0.88769286208E+02 0.  0.
        -11    1    4    4    0    0 -0.81027569600E+02  0.23392824589E+02  0.75450152079E+02  0.11316102123E+03  0.00000000000E+00 0.  1.
         11    1    4    4    0    0  0.73297950626E+01  0.22205349062E+02  0.93898427276E+02  0.96766306468E+02  0.00000000000E+00 0. -1.
        -13    1    3    3    0    0  0.43689140746E+02 -0.56585029421E+02  0.68304673888E+02  0.98874339687E+02  0.00000000000E+00 0. -1.
         13    1    3    3    0    0 -0.43597927804E+02 -0.74198228991E+02  0.89198337496E+02  0.12394555218E+03  0.00000000000E+00 0.  1.
         21    1    1    2  502  501  0.73606561595E+02  0.85185084761E+02  0.93435346672E+02  0.14630307100E+03  0.00000000000E+00 0. -1.
<scales pt_clust_5="13000.00000" pt_clust_6="13000.00000" pt_clust_7="13000.00000" pt_clust_8="13000.00000" pt_clust_9="112.58075"></scales>
<clustering>
<clus scale="   87.962">  7  8 -1 -1</clus>
<clus scale="   88.769">  5  6 -1 -1</clus>
<clus scale="  112.581">  2  9  1 -1</clus>
<clus scale="  126.208">  2  7  1 -1</clus>
<clus scale="  126.772">  1  5  2 -1</clus>
</clustering>
</event>
<event>
 9    1  0.6202448E-006  0.9540216E+02  0.7546771E-02  0.1292881E+00
         -2   -1    0    0    0  501 -0.00000000000E+00  0.00000000000E+00  0.78472560160E+02  0.78472560160E+02  0.00000000000E+00 0.  1.
          2   -1    0    0  502    0  0.00000000000E+00 -0.00000000000E+00 -0.29112988591E+03  0.29112988591E+03  0.00000000000E+00 0. -1.
         23    2    1    2    0    0  0.50844073524E+02 -0.43223524082E+02 -0.77934448971E+02  0.13955720954E+03  0.94599384518E+02 0.  0.
         23    2    1    2    0    0  0.20993662318E+02 -0.12453048675E+02 -0.86254916946E+02  0.12704191535E+03  0.90021804463E+02 0.  0.
        -11    1    3    3    0    0  0.61230173745E+02 -0.84138740235E+01 -0.10123356130E+02  0.62629144911E+02  0.00000000000E+00 0.  1.
         11    1    3    3    0    0 -0.10386100221E+02 -0.34809650059E+02 -0.67811092841E+02  0.76928064627E+02  0.00000000000E+00 0. -1.
        -13    1    4    4    0    0 -0.14184075893E+02 -0.23182973514E+02 -0.86074954088E+02  0.90263702512E+02  0.00000000000E+00 0. -1.
         13    1    4    4    0    0  0.35177738211E+02  0.10729924839E+02 -0.17996285722E+00  0.36778212835E+02  0.00000000000E+00 0.  1.
         21    1    1    2  502  501 -0.71837735842E+02  0.55676572757E+02 -0.48467959833E+02  0.10300332119E+03  0.00000000000E+00 0. -1.
<scales pt_clust_5="13000.00000" pt_clust_6="13000.00000" pt_clust_7="13000.00000" pt_clust_8="13000.00000" pt_clust_9="90.88752"></scales>
<clustering>
<clus scale="   90.022">  7  8 -1 -1</clus>
<clus scale="   90.888">  1  9  2 -1</clus>
<clus scale="   90.865">  2  7  1 -1</clus>
<clus scale="   94.599">  5  6 -1 -1</clus>
<clus scale="   90.865">  2  5  1 -1</clus>
</clustering>
</event>
<event>
 9    1  0.6202448E-006  0.1503339E+03  0.7546771E-02  0.1202165E+00
          1   -1    0    0  502    0  0.00000000000E+00  0.00000000000E+00  0.93242154992E+03  0.93242154992E+03  0.00000000000E+00 0. -1.
         -1   -1    0    0    0  501 -0.00000000000E+00 -0.00000000000E+00 -0.18262202052E+03  0.18262202052E+03  0.00000000000E+00 0.  1.
         23    2    1    2    0    0  0.14584533620E+02  0.11319604336E+03 -0.11227755863E+03  0.17893849934E+03  0.79916728672E+02 0.  0.
         23    2    1    2    0    0 -0.10654999676E+03 -0.15912507679E+03  0.31732257047E+03  0.38173641495E+03  0.91407794528E+02 0.  0.
        -11    1    3    3    0    0  0.34394925840E+02  0.12603013217E+02 -0.33551226311E+02  0.49674255432E+02  0.00000000000E+00 0. -1.
         11    1    3    3    0    0 -0.19810392220E+02  0.10059303015E+03 -0.78726332318E+02  0.12926424391E+03  0.00000000000E+00 0.  1.
        -11    1    4    4    0    0 -0.36136258588E+02 -0.50106898049E+02  0.19054594540E+03  0.20031047833E+03  0.00000000000E+00 0.  1.
         11    1    4    4    0    0 -0.70413738172E+02 -0.10901817874E+03  0.12677662506E+03  0.18142593663E+03  0.00000000000E+00 0. -1.
         21    1    1    2  502  501  0.91965463141E+02  0.45929033423E+02  0.54475451756E+03  0.55436865615E+03  0.00000000000E+00 0.  1.
<scales pt_clust_5="13000.00000" pt_clust_6="13000.00000" pt_clust_7="13000.00000" pt_clust_8="13000.00000" pt_clust_9="102.79651"></scales>
<clustering>
<clus scale="   79.917">  5  6 -1 -1</clus>
<clus scale="   91.408">  7  8 -1 -1</clus>
<clus scale="  102.797">  1  9  2 -1</clus>
<clus scale="  143.637">  2  5  1 -1</clus>
<clus scale="  102.797">  1  5  2 -1</clus>
</clustering>
</event>
<event>
 9    1  0.6202448E-006  0.1128898E+03  0.7546771E-02  0.1259386E+00
          1   -1    0    0  502    0  0.00000000000E+00  0.00000000000E+00  0.17494127259E+03  0.17494127259E+03  0.00000000000E+00 0. -1.
         -1   -1    0    0    0  501 -0.00000000000E+00 -0.00000000000E+00 -0.24219608950E+03  0.24219608950E+03  0.00000000000E+00 0.  1.
         23    2    1    2    0    0 -0.30429042749E+02  0.14019180309E+02 -0.14213304421E+03  0.16663709970E+03  0.80272390534E+02 0.  0.
         23    2    1    2    0    0  0.52848728481E+02  0.53044832437E+02  0.11859930223E+03  0.16736328802E+03  0.91312284701E+02 0.  0.
        -11    1    4    4    0    0  0.31097473442E+02  0.57539200093E+02  0.23176890583E+02  0.69390061672E+02  0.00000000000E+00 0.  1.
         11    1    4    4    0    0  0.21751255040E+02 -0.44943676561E+01  0.95422411650E+02  0.97973226351E+02  0.00000000000E+00 0. -1.
        -11    1    3    3    0    0  0.43215273349E+01 -0.26693914790E+02 -0.21111316296E+02  0.34306389508E+02  0.00000000000E+00 0.  1.
         11    1    3    3    0    0 -0.34750570084E+02  0.40713095099E+02 -0.12102172791E+03  0.13233071020E+03  0.00000000000E+00 0. -1.
         21    1    1    2  502  501 -0.22419685732E+02 -0.67064012746E+02 -0.43721074929E+02  0.83136974367E+02  0.00000000000E+00 0.  1.
<scales pt_clust_5="13000.00000" pt_clust_6="13000.00000" pt_clust_7="13000.00000" pt_clust_8="13000.00000" pt_clust_9="70.71226"></scales>
<clustering>
<clus scale="   70.712">  2  9  1 -1</clus>
<clus scale="   80.272">  7  8 -1 -1</clus>
<clus scale="   91.312">  5  6 -1 -1</clus>
<clus scale="  104.162">  2  7  1 -1</clus>
<clus scale="  112.890">  1  5  2 -1</clus>
</clustering>
</event>
<event>
 9    1  0.6202448E-006  0.2028808E+03  0.7546771E-02  0.1166321E+00
         -2   -1    0    0    0  501 -0.00000000000E+00  0.00000000000E+00  0.11192376539E+03  0.11192376539E+03  0.00000000000E+00 0. -1.
          2   -1    0    0  502    0  0.00000000000E+00 -0.00000000000E+00 -0.17738568212E+04  0.17738568212E+04  0.00000000000E+00 0.  1.
         23    2    1    2    0    0 -0.40962856057E+02  0.84438439856E+02  0.38314280373E+01  0.13012249412E+03  0.90052084563E+02 0.  0.
         23    2    1    2    0    0 -0.14131557734E+03 -0.11248196431E+03 -0.22291765264E+03  0.30107263782E+03  0.91269757803E+02 0.  0.
        -11    1    4    4    0    0 -0.72434406869E+02 -0.61473472491E+02 -0.48353162996E+02  0.10660093569E+03  0.00000000000E+00 0. -1.
         11    1    4    4    0    0 -0.68881170475E+02 -0.51008491822E+02 -0.17456448964E+03  0.19447170213E+03  0.00000000000E+00 0.  1.
        -11    1    3    3    0    0 -0.46739995240E+02  0.13146501382E+02 -0.23005198893E+02  0.53727989258E+02  0.00000000000E+00 0. -1.
         11    1    3    3    0    0  0.57771391825E+01  0.71291938474E+02  0.26836626930E+02  0.76394504864E+02  0.00000000000E+00 0.  1.
         21    1    1    2  502  501  0.18227843340E+03  0.28043524457E+02 -0.14428468312E+04  0.14545854547E+04  0.00000000000E+00 0.  1.
<scales pt_clust_5="13000.00000" pt_clust_6="13000.00000" pt_clust_7="13000.00000" pt_clust_8="13000.00000" pt_clust_9="181.19174"></scales>
<clustering>
<clus scale="   90.052">  7  8 -1 -1</clus>
<clus scale="   91.270">  5  6 -1 -1</clus>
<clus scale="  130.066">  1  7  2 -1</clus>
<clus scale="  181.192">  2  9  1 -1</clus>
<clus scale="  181.192">  2  5  1 -1</clus>
</clustering>
</event>
<event>
 9    1  0.6202448E-006  0.9788157E+02  0.7546771E-02  0.1285355E+00
         -1   -1    0    0    0  501 -0.00000000000E+00  0.00000000000E+00  0.34272840983E+03  0.34272840983E+03  0.00000000000E+00 0.  1.
          1   -1    0    0  502    0  0.00000000000E+00 -0.00000000000E+00 -0.11085325016E+03  0.11085325016E+03  0.00000000000E+00 0. -1.
         23    2    1    2    0    0  0.15294473285E+02  0.26939141891E+02  0.21358258007E+03  0.23465463628E+03  0.92117541965E+02 0.  0.
         23    2    1    2    0    0  0.49562243186E+02 -0.71122700894E+02 -0.26611845481E+02  0.12851138375E+03  0.91061138264E+02 0.  0.
        -11    1    4    4    0    0 -0.23518039290E+02 -0.31645717353E+02  0.47791540300E+01  0.39716368315E+02  0.00000000000E+00 0.  1.
         11    1    4    4    0    0  0.73080282477E+02 -0.39476983541E+02 -0.31390999511E+02  0.88795015438E+02  0.00000000000E+00 0. -1.
        -11    1    3    3    0    0  0.26346831961E+02  0.58183233140E+02  0.13382035731E+03  0.14828126046E+03  0.00000000000E+00 0.  1.
         11    1    3    3    0    0 -0.11052358676E+02 -0.31244091249E+02  0.79762222760E+02  0.86373375816E+02  0.00000000000E+00 0. -1.
         21    1    1    2  502  501 -0.64856716472E+02  0.44183559003E+02  0.44904425082E+02  0.90415639962E+02  0.00000000000E+00 0.  1.
<scales pt_clust_5="13000.00000" pt_clust_6="13000.00000" pt_clust_7="13000.00000" pt_clust_8="13000.00000" pt_clust_9="78.47662"></scales>
<clustering>
<clus scale="   78.477">  2  9  1 -1</clus>
<clus scale="   91.061">  5  6 -1 -1</clus>
<clus scale="   92.118">  7  8 -1 -1</clus>
<clus scale="   96.888">  2  5  1 -1</clus>
<clus scale="   78.477">  2  5  1 -1</clus>
</clustering>
</event>
<event>
 9    1  0.6202448E-006  0.1216671E+03  0.7546771E-02  0.1241322E+00
         -1   -1    0    0    0  501 -0.00000000000E+00  0.00000000000E+00  0.15536270453E+03  0.15536270453E+03  0.00000000000E+00 0.  1.
          1   -1    0    0  502    0  0.00000000000E+00 -0.00000000000E+00 -0.18692909457E+03  0.18692909457E+03  0.00000000000E+00 0. -1.
         23    2    1    2    0    0 -0.84450366732E+02 -0.75949125167E+02 -0.54949422670E+02  0.15556368584E+03  0.90997182621E+02 0.  0.
         23    2    1    2    0    0  0.17042739410E+02  0.42483224515E+02 -0.86672898271E+01  0.10492971538E+03  0.94020444183E+02 0.  0.
        -11    1    4    4    0    0  0.17960515175E+02 -0.28303097431E+02  0.64872527005E+00  0.33527097608E+02  0.00000000000E+00 0. -1.
         11    1    4    4    0    0 -0.91777576504E+00  0.70786321946E+02 -0.93160150972E+01  0.71402617769E+02  0.00000000000E+00 0.  1.
        -13    1    3    3    0    0 -0.67250159309E+02 -0.32825408347E+02  0.10240327947E+02  0.75531156993E+02  0.00000000000E+00 0.  1.
         13    1    3    3    0    0 -0.17200207424E+02 -0.43123716820E+02 -0.65189750617E+02  0.80032528845E+02  0.00000000000E+00 0. -1.
         21    1    1    2  502  501  0.67407627322E+02  0.33465900652E+02  0.32050322453E+02  0.81798397888E+02  0.00000000000E+00 0.  1.
<scales pt_clust_5="13000.00000" pt_clust_6="13000.00000" pt_clust_7="13000.00000" pt_clust_8="13000.00000" pt_clust_9="75.25792"></scales>
<clustering>
<clus scale="   75.258">  1  9  2 -1</clus>
<clus scale="   90.997">  7  8 -1 -1</clus>
<clus scale="   94.020">  5  6 -1 -1</clus>
<clus scale="  119.346">  1  7  2 -1</clus>
<clus scale="  121.667">  2  5  1 -1</clus>
</clustering>
</event>
<event>
 9    1  0.6202448E-006  0.1875821E+03  0.7546771E-02  0.1187183E+00
          1   -1    0    0  502    0  0.00000000000E+00  0.00000000000E+00  0.55163923994E+03  0.55163923994E+03  0.00000000000E+00 0. -1.
         -1   -1    0    0    0  501 -0.00000000000E+00 -0.00000000000E+00 -0.12487681505E+03  0.12487681505E+03  0.00000000000E+00 0.  1.
         23    2    1    2    0    0 -0.11994361763E+03 -0.79446142726E+02  0.70823943399E+02  0.18401746200E+03  0.90267570903E+02 0.  0.
         23    2    1    2    0    0 -0.43633001921E+02 -0.15763565868E+02  0.26158700016E+03  0.28101714911E+03  0.91599948561E+02 0.  0.
        -11    1    3    3    0    0 -0.18801197320E+02  0.14266444418E+02  0.33845137095E+02  0.41261480366E+02  0.00000000000E+00 0.  1.
         11    1    3    3    0    0 -0.10114242031E+03 -0.93712587145E+02  0.36978806304E+02  0.14275598163E+03  0.00000000000E+00 0. -1.
        -13    1    4    4    0    0 -0.14663713301E+02  0.30382267894E+02  0.17849089613E+03  0.18165105750E+03  0.00000000000E+00 0.  1.
         13    1    4    4    0    0 -0.28969288620E+02 -0.46145833762E+02  0.83096104026E+02  0.99366091605E+02  0.00000000000E+00 0. -1.
         21    1    1    2  502  501  0.16357661955E+03  0.95209708595E+02  0.94351481341E+02  0.21148144388E+03  0.00000000000E+00 0.  1.
<scales pt_clust_5="13000.00000" pt_clust_6="13000.00000" pt_clust_7="13000.00000" pt_clust_8="13000.00000" pt_clust_9="164.43481"></scales>
<clustering>
<clus scale="   90.268">  5  6 -1 -1</clus>
<clus scale="   91.600">  7  8 -1 -1</clus>
<clus scale="  102.679">  1  7  2 -1</clus>
<clus scale="  164.435">  1  9  2 -1</clus>
<clus scale="  102.679">  1  5  2 -1</clus>
</clustering>
</event>
<event>
 9    1  0.6202448E-006  0.1342739E+03  0.7546771E-02  0.1222347E+00
         -2   -1    0    0    0  501 -0.00000000000E+00  0.00000000000E+00  0.91928957256E+02  0.91928957256E+02  0.00000000000E+00 0.  1.
          2   -1    0    0  502    0  0.00000000000E+00 -0.00000000000E+00 -0.28602678495E+03  0.28602678495E+03  0.00000000000E+00 0. -1.
         23    2    1    2    0    0  0.64656779086E+02  0.17156460751E+02 -0.47567086285E+02  0.12603006316E+03  0.95635275376E+02 0.  0.
         23    2    1    2    0    0 -0.11361482845E+03 -0.29690859636E+02 -0.13317701907E+03  0.19965404569E+03  0.91300291142E+02 0.  0.
        -13    1    3    3    0    0  0.62662392581E+02 -0.29132830962E+02 -0.19269715409E+02  0.71739941565E+02  0.00000000000E+00 0. -1.
         13    1    3    3    0    0  0.19943865059E+01  0.46289291713E+02 -0.28297370876E+02  0.54290121600E+02  0.00000000000E+00 0.  1.
        -13    1    4    4    0    0 -0.10726192330E+03  0.90239972052E+01 -0.82802549709E+02  0.13580432598E+03  0.00000000000E+00 0.  1.
         13    1    4    4    0    0 -0.63529051489E+01 -0.38714856842E+02 -0.50374469361E+02  0.63849719713E+02  0.00000000000E+00 0. -1.
         21    1    1    2  502  501  0.48958049364E+02  0.12534398885E+02 -0.13353722340E+02  0.52271633352E+02  0.00000000000E+00 0.  1.
<scales pt_clust_5="13000.00000" pt_clust_6="13000.00000" pt_clust_7="13000.00000" pt_clust_8="13000.00000" pt_clust_9="50.53713"></scales>
<clustering>
<clus scale="   50.537">  1  9  2 -1</clus>
<clus scale="   91.300">  7  8 -1 -1</clus>
<clus scale="   95.635">  5  6 -1 -1</clus>
<clus scale="  131.222">  2  7  1 -1</clus>
<clus scale="  131.222">  2  5  1 -1</clus>
</clustering>
</event>
<event>
 9    1  0.6202448E-006  0.1299599E+03  0.7546771E-02  0.1227956E+00
         -2   -1    0    0    0  501 -0.00000000000E+00  0.00000000000E+00  0.18082736583E+03  0.18082736583E+03  0.00000000000E+00 0.  1.
          2   -1    0    0  502    0  0.00000000000E+00 -0.00000000000E+00 -0.23597328637E+03  0.23597328637E+03  0.00000000000E+00 0. -1.
         23    2    1    2    0    0 -0.21306063926E+02  0.99792258098E+02  0.12052182435E+03  0.18246660105E+03  0.91411745507E+02 0.  0.
         23    2    1    2    0    0  0.41745361900E+01 -0.52622306002E+02 -0.10702600155E+03  0.14930357102E+03  0.89724341573E+02 0.  0.
        -13    1    4    4    0    0 -0.39061140359E+02 -0.10012208417E+02 -0.25689301014E+02  0.47811684661E+02  0.00000000000E+00 0.  1.
         13    1    4    4    0    0  0.43235676549E+02 -0.42610097585E+02 -0.81336700540E+02  0.10149188636E+03  0.00000000000E+00 0. -1.
        -13    1    3    3    0    0 -0.42518679561E+02  0.10615602903E+03  0.10641674231E+03  0.15620967850E+03  0.00000000000E+00 0.  1.
         13    1    3    3    0    0  0.21212615636E+02 -0.63637709331E+01  0.14105082038E+02  0.26256922552E+02  0.00000000000E+00 0. -1.
         21    1    1    2  502  501  0.17131527736E+02 -0.47169952096E+02 -0.68641743340E+02  0.85030480135E+02  0.00000000000E+00 0. -1.
<scales pt_clust_5="13000.00000" pt_clust_6="13000.00000" pt_clust_7="13000.00000" pt_clust_8="13000.00000" pt_clust_9="50.18460"></scales>
<clustering>
<clus scale="   50.185">  2  9  1 -1</clus>
<clus scale="   89.724">  5  6 -1 -1</clus>
<clus scale="   91.412">  7  8 -1 -1</clus>
<clus scale="  128.779">  2  5  1 -1</clus>
<clus scale="   50.185">  2  5  1 -1</clus>
</clustering>
</event>
<event>
 9    1  0.6202448E-006  0.9306359E+02  0.7546771E-02  0.1299152E+00
         -1   -1    0    0    0  501 -0.00000000000E+00  0.00000000000E+00  0.28651163322E+02  0.28651163322E+02  0.00000000000E+00 0.  1.
          1   -1    0    0  502    0  0.00000000000E+00 -0.00000000000E+00 -0.45679641021E+03  0.45679641021E+03  0.00000000000E+00 0. -1.
         23    2    1    2    0    0 -0.20562419672E+02 -0.16296493549E+02 -0.10900262741E+03  0.14415416464E+03  0.90611597469E+02 0.  0.
         23    2    1    2    0    0 -0.10989334252E+02  0.23833045325E+02 -0.23096236429E+03  0.24733559818E+03  0.84513341505E+02 0.  0.
        -13    1    3    3    0    0  0.20820233956E+02  0.27114480311E+02 -0.43819599790E+02  0.55577284121E+02  0.00000000000E+00 0.  1.
         13    1    3    3    0    0 -0.41382653628E+02 -0.43410973860E+02 -0.65183027617E+02  0.88576880517E+02  0.00000000000E+00 0. -1.
        -13    1    4    4    0    0 -0.46122614521E+02  0.33135996590E+00 -0.11458572734E+03  0.12352042050E+03  0.00000000000E+00 0. -1.
         13    1    4    4    0    0  0.35133280269E+02  0.23501685359E+02 -0.11637663695E+03  0.12381517769E+03  0.00000000000E+00 0.  1.
         21    1    1    2  502  501  0.31551753924E+02 -0.75365517767E+01 -0.88180255188E+02  0.93957810710E+02  0.00000000000E+00 0.  1.
<scales pt_clust_5="13000.00000" pt_clust_6="13000.00000" pt_clust_7="13000.00000" pt_clust_8="13000.00000" pt_clust_9="32.43937"></scales>
<clustering>
<clus scale="   32.439">  2  9  1 -1</clus>
<clus scale="   84.513">  7  8 -1 -1</clus>
<clus scale="   87.137">  2  7  1 -1</clus>
<clus scale="   90.612">  5  6 -1 -1</clus>
<clus scale="   32.439">  2  5  1 -1</clus>
</clustering>
</event>
<event>
 9    1  0.6202448E-006  0.1803268E+03  0.7546771E-02  0.1193984E+00
          2   -1    0    0  502    0  0.00000000000E+00  0.00000000000E+00  0.34027625847E+03  0.34027625847E+03  0.00000000000E+00 0. -1.
         -2   -1    0    0    0  501 -0.00000000000E+00 -0.00000000000E+00 -0.28756410402E+03  0.28756410402E+03  0.00000000000E+00 0.  1.
         23    2    1    2    0    0 -0.44917363175E+02  0.13719435818E+03 -0.11525384609E+03  0.20553325817E+03  0.90114425834E+02 0.  0.
         23    2    1    2    0    0 -0.12118083082E+01  0.29730219682E+02  0.22003043585E+03  0.24146899834E+03  0.94913276307E+02 0.  0.
        -11    1    4    4    0    0  0.42343937076E+02  0.15008625610E+02  0.59938230327E+02  0.74905669375E+02  0.00000000000E+00 0.  1.
         11    1    4    4    0    0 -0.43555745385E+02  0.14721594072E+02  0.16009220552E+03  0.16656332897E+03  0.00000000000E+00 0. -1.
        -11    1    3    3    0    0  0.66311899148E+01  0.23715773699E+02 -0.67857538745E+02  0.72187645525E+02  0.00000000000E+00 0. -1.
         11    1    3    3    0    0 -0.51548553090E+02  0.11347858448E+03 -0.47396307348E+02  0.13334561264E+03  0.00000000000E+00 0.  1.
         21    1    1    2  502  501  0.46129171483E+02 -0.16692457786E+03 -0.52064435301E+02  0.18083810599E+03  0.00000000000E+00 0. -1.
<scales pt_clust_5="13000.00000" pt_clust_6="13000.00000" pt_clust_7="13000.00000" pt_clust_8="13000.00000" pt_clust_9="156.19589"></scales>
<clustering>
<clus scale="   90.114">  7  8 -1 -1</clus>
<clus scale="   94.913">  5  6 -1 -1</clus>
<clus scale="   99.468">  1  5  2 -1</clus>
<clus scale="  156.196">  1  9  2 -1</clus>
<clus scale="   99.468">  1  5  2 -1</clus>
</clustering>
</event>
<event>
 9    1  0.6202448E-006  0.1452403E+03  0.7546771E-02  0.1227354E+00
          2   -1    0    0  502    0  0.00000000000E+00  0.00000000000E+00  0.26966393302E+03  0.26966393302E+03  0.00000000000E+00 0. -1.
         -2   -1    0    0    0  501 -0.00000000000E+00 -0.00000000000E+00 -0.26576531360E+03  0.26576531360E+03  0.00000000000E+00 0.  1.
         23    2    1    2    0    0  0.64681901542E+02 -0.98990131897E+02 -0.11397021193E+03  0.18612602353E+03  0.87583633316E+02 0.  0.
         23    2    1    2    0    0  0.71129801008E+01  0.10324274583E+02  0.19180989785E+03  0.21334947876E+03  0.92573095672E+02 0.  0.
        -11    1    4    4    0    0  0.38328440529E+02 -0.89838687315E+01  0.36239327625E+02  0.53507645412E+02  0.00000000000E+00 0.  1.
         11    1    4    4    0    0 -0.31215460429E+02  0.19308143314E+02  0.15557057022E+03  0.15984183335E+03  0.00000000000E+00 0. -1.
        -13    1    3    3    0    0  0.83277793433E+02 -0.75593117693E+02 -0.68420962441E+02  0.13164702208E+03  0.00000000000E+00 0.  1.
         13    1    3    3    0    0 -0.18595891890E+02 -0.23397014203E+02 -0.45549249494E+02  0.54479001443E+02  0.00000000000E+00 0. -1.
         21    1    1    2  502  501 -0.71794881643E+02  0.88665857314E+02 -0.73941066491E+02  0.13595374433E+03  0.00000000000E+00 0. -1.
<scales pt_clust_5="13000.00000" pt_clust_6="13000.00000" pt_clust_7="13000.00000" pt_clust_8="13000.00000" pt_clust_9="115.86136"></scales>
<clustering>
<clus scale="   87.584">  7  8 -1 -1</clus>
<clus scale="   92.573">  5  6 -1 -1</clus>
<clus scale="   93.418">  1  5  2 -1</clus>
<clus scale="  115.861">  1  9  2 -1</clus>
<clus scale="   93.418">  1  5  2 -1</clus>
</clustering>
</event>
<event>
 9    1  0.6202448E-006  0.1795139E+03  0.7546771E-02  0.1195038E+00
         -2   -1    0    0    0  501 -0.00000000000E+00  0.00000000000E+00  0.29921317125E+03  0.29921317125E+03  0.00000000000E+00 0.  1.
          2   -1    0    0  502    0  0.00000000000E+00 -0.00000000000E+00 -0.21861996712E+03  0.21861996712E+03  0.00000000000E+00 0. -1.
         23    2    1    2    0    0  0.26811656775E+00 -0.16388164088E+03  0.18686080045E+03  0.26452786412E+03  0.90558092100E+02 0.  0.
         23    2    1    2    0    0 -0.15746582191E+02  0.34086125832E+02 -0.35949651673E+02  0.10487659789E+03  0.91087345468E+02 0.  0.
        -11    1    3    3    0    0 -0.44636175709E+02 -0.67703986355E+02  0.81048471922E+02  0.11465196357E+03  0.00000000000E+00 0. -1.
         11    1    3    3    0    0  0.44904292277E+02 -0.96177654529E+02  0.10581232853E+03  0.14987590055E+03  0.00000000000E+00 0.  1.
        -13    1    4    4    0    0 -0.19140589075E+02 -0.20562458105E+02  0.13436913673E+02  0.31140447693E+02  0.00000000000E+00 0.  1.
         13    1    4    4    0    0  0.33940068833E+01  0.54648583938E+02 -0.49386565346E+02  0.73736150196E+02  0.00000000000E+00 0. -1.
         21    1    1    2  502  501  0.15478465624E+02  0.12979551505E+03 -0.70317944654E+02  0.14842867636E+03  0.00000000000E+00 0. -1.
<scales pt_clust_5="13000.00000" pt_clust_6="13000.00000" pt_clust_7="13000.00000" pt_clust_8="13000.00000" pt_clust_9="154.99833"></scales>
<clustering>
<clus scale="   90.558">  5  6 -1 -1</clus>
<clus scale="   91.087">  7  8 -1 -1</clus>
<clus scale="   98.523">  2  7  1 -1</clus>
<clus scale="  154.998">  2  9  1 -1</clus>
<clus scale="   98.523">  2  5  1 -1</clus>
</clustering>
</event>
<event>
 9    1  0.6202448E-006  0.1149080E+03  0.7546771E-02  0.1260349E+00
         -1   -1    0    0    0  501 -0.00000000000E+00  0.00000000000E+00  0.13994691291E+03  0.13994691291E+03  0.00000000000E+00 0.  1.
          1   -1    0    0  502    0  0.00000000000E+00 -0.00000000000E+00 -0.18683628307E+03  0.18683628307E+03  0.00000000000E+00 0. -1.
         23    2    1    2    0    0 -0.32932765857E+01 -0.10929750275E+02  0.37668623653E+01  0.91115307138E+02  0.90318906277E+02 0.  0.
         23    2    1    2    0    0 -0.51527507724E+02  0.48048323102E+02  0.27749811449E+02  0.13304910610E+03  0.10939966724E+03 0.  0.
        -11    1    4    4    0    0 -0.43109867064E+02 -0.21727637192E+02 -0.15285697439E+02  0.50637964043E+02  0.00000000000E+00 0. -1.
         11    1    4    4    0    0 -0.84176406599E+01  0.69775960293E+02  0.43035508888E+02  0.82411142053E+02  0.00000000000E+00 0.  1.
        -13    1    3    3    0    0  0.35214730260E+02 -0.25666299609E+02  0.18486960561E+02  0.47335017414E+02  0.00000000000E+00 0.  1.
         13    1    3    3    0    0 -0.38508006845E+02  0.14736549334E+02 -0.14720098195E+02  0.43780289724E+02  0.00000000000E+00 0. -1.
         21    1    1    2  502  501  0.54820784309E+02 -0.37118572827E+02 -0.78406043975E+02  0.10261878275E+03  0.00000000000E+00 0. -1.
<scales pt_clust_5="13000.00000" pt_clust_6="13000.00000" pt_clust_7="13000.00000" pt_clust_8="13000.00000" pt_clust_9="66.20504"></scales>
<clustering>
<clus scale="   66.205">  2  9  1 -1</clus>
<clus scale="   90.319">  7  8 -1 -1</clus>
<clus scale="   96.918">  1  7  2 -1</clus>
<clus scale="  109.400">  5  6 -1 -1</clus>
<clus scale="   66.205">  2  5  1 -1</clus>
</clustering>
</event>
<event>
 9    1  0.6202448E-006  0.1447674E+03  0.7546771E-02  0.1227729E+00
         -3   -1    0    0    0  501 -0.00000000000E+00  0.00000000000E+00  0.30461082124E+03  0.30461082124E+03  0.00000000000E+00 0.  1.
          3   -1    0    0  502    0  0.00000000000E+00 -0.00000000000E+00 -0.17270348547E+03  0.17270348547E+03  0.00000000000E+00 0. -1.
         23    2    1    2    0    0 -0.99650557220E+02 -0.11222851722E+01  0.43724203081E+02  0.14153033968E+03  0.90485015537E+02 0.  0.
         23    2    1    2    0    0 -0.17388305685E+02  0.18864611021E+02 -0.84713064179E+02  0.12624642756E+03  0.90020167220E+02 0.  0.
        -11    1    4    4    0    0  0.17215137755E+02  0.39842944075E+02 -0.15529688844E+02  0.46097639810E+02  0.00000000000E+00 0.  1.
         11    1    4    4    0    0 -0.34603443440E+02 -0.20978333054E+02 -0.69183375335E+02  0.80148787753E+02  0.00000000000E+00 0. -1.
        -13    1    3    3    0    0 -0.45839580553E+02 -0.37683202783E+02  0.48014521247E+02  0.76332726716E+02  0.00000000000E+00 0.  1.
         13    1    3    3    0    0 -0.53810976667E+02  0.36560917610E+02 -0.42903181661E+01  0.65197612965E+02  0.00000000000E+00 0. -1.
         21    1    1    2  502  501  0.11703886290E+03 -0.17742325849E+02  0.17289619687E+03  0.20953753947E+03  0.00000000000E+00 0.  1.
<scales pt_clust_5="13000.00000" pt_clust_6="13000.00000" pt_clust_7="13000.00000" pt_clust_8="13000.00000" pt_clust_9="113.00475"></scales>
<clustering>
<clus scale="   90.020">  5  6 -1 -1</clus>
<clus scale="   90.485">  7  8 -1 -1</clus>
<clus scale="   93.605">  2  5  1 -1</clus>
<clus scale="  113.005">  1  9  2 -1</clus>
<clus scale="   93.605">  2  5  1 -1</clus>
</clustering>
</event>
<event>
 9    1  0.6202448E-006  0.1000115E+03  0.7546771E-02  0.1280437E+00
          1   -1    0    0  502    0  0.00000000000E+00  0.00000000000E+00  0.35096189167E+03  0.35096189167E+03  0.00000000000E+00 0. -1.
         -1   -1    0    0    0  501 -0.00000000000E+00 -0.00000000000E+00 -0.79419692639E+02  0.79419692639E+02  0.00000000000E+00 0.  1.
         23    2    1    2    0    0 -0.27687118382E+02  0.33210428036E+02 -0.13633290137E+02  0.10171038089E+03  0.91047382865E+02 0.  0.
         23    2    1    2    0    0 -0.44375936086E+01 -0.46114512415E+02  0.10920918082E+03  0.14933170920E+03  0.90703217713E+02 0.  0.
        -11    1    4    4    0    0 -0.35924521857E+02 -0.27844728891E+02  0.14249677162E+02  0.47633533324E+02  0.00000000000E+00 0.  1.
         11    1    4    4    0    0  0.31486928249E+02 -0.18269783524E+02  0.94959503660E+02  0.10169817587E+03  0.00000000000E+00 0. -1.
        -11    1    3    3    0    0  0.22411959769E+02 -0.87513366578E+01 -0.25755157181E+02  0.35244999012E+02  0.00000000000E+00 0. -1.
         11    1    3    3    0    0 -0.50099078151E+02  0.41961764694E+02  0.12121867043E+02  0.66465381880E+02  0.00000000000E+00 0.  1.
         21    1    1    2  502  501  0.32124711991E+02  0.12904084379E+02  0.17596630835E+03  0.17933949422E+03  0.00000000000E+00 0. -1.
<scales pt_clust_5="13000.00000" pt_clust_6="13000.00000" pt_clust_7="13000.00000" pt_clust_8="13000.00000" pt_clust_9="34.61954"></scales>
<clustering>
<clus scale="   34.620">  1  9  2 -1</clus>
<clus scale="   90.703">  5  6 -1 -1</clus>
<clus scale="   91.047">  7  8 -1 -1</clus>
<clus scale="   99.698">  1  5  2 -1</clus>
<clus scale="   34.620">  1  5  2 -1</clus>
</clustering>
</event>
<event>
 9    1  0.6202448E-006  0.3580842E+03  0.7546771E-02  0.1103845E+00
          2   -1    0    0  502    0  0.00000000000E+00  0.00000000000E+00  0.11539046251E+04  0.11539046251E+04  0.00000000000E+00 0. -1.
         -2   -1    0    0    0  501 -0.00000000000E+00 -0.00000000000E+00 -0.15131709183E+03  0.15131709183E+03  0.00000000000E+00 0.  1.
         23    2    1    2    0    0  0.14501782955E+02  0.59043772629E+02  0.53513258017E+02  0.12082302828E+03  0.89655265230E+02 0.  0.
         23    2    1    2    0    0  0.31190622415E+03 -0.16269122955E+03  0.53823185467E+03  0.64953751322E+03  0.91932164510E+02 0.  0.
        -11    1    3    3    0    0  0.43433121236E+02  0.20490980228E+02  0.54463535934E+02  0.72612623128E+02  0.00000000000E+00 0. -1.
         11    1    3    3    0    0 -0.28931338281E+02  0.38552792401E+02 -0.95027791740E+00  0.48210405151E+02  0.00000000000E+00 0.  1.
        -13    1    4    4    0    0  0.19973398521E+03 -0.90296624638E+02  0.40733657086E+03  0.46256915940E+03  0.00000000000E+00 0. -1.
         13    1    4    4    0    0  0.11217223893E+03 -0.72394604913E+02  0.13089528381E+03  0.18696835382E+03  0.00000000000E+00 0.  1.
         21    1    1    2  502  501 -0.32640800710E+03  0.10364745692E+03  0.41084242062E+03  0.53486117545E+03  0.00000000000E+00 0.  1.
<scales pt_clust_5="13000.00000" pt_clust_6="13000.00000" pt_clust_7="13000.00000" pt_clust_8="13000.00000" pt_clust_9="346.08203"></scales>
<clustering>
<clus scale="   89.655">  5  6 -1 -1</clus>
<clus scale="   91.932">  7  8 -1 -1</clus>
<clus scale="  108.326">  2  5  1 -1</clus>
<clus scale="  346.082">  2  9  1 -1</clus>
<clus scale="  358.084">  1  5  2 -1</clus>
</clustering>
</event>
<event>
 9    1  0.6202448E-006  0.1321683E+03  0.7546771E-02  0.1243199E+00
         -1   -1    0    0    0  501 -0.00000000000E+00  0.00000000000E+00  0.22403747901E+03  0.22403747901E+03  0.00000000000E+00 0.  1.
          1   -1    0    0  502    0  0.00000000000E+00 -0.00000000000E+00 -0.36838594928E+03  0.36838594928E+03  0.00000000000E+00 0. -1.
         23    2    1    2    0    0 -0.16933289989E+02  0.35664651354E+01  0.25266969038E+02  0.93122959587E+02  0.87943219719E+02 0.  0.
         23    2    1    2    0    0  0.99099677762E+02  0.39154828870E+02  0.12584101284E+03  0.18967014177E+03  0.93728092950E+02 0.  0.
        -11    1    4    4    0    0 -0.18669374950E+01  0.40076308660E+02  0.45296867194E+02  0.60509521143E+02  0.00000000000E+00 0.  1.
         11    1    4    4    0    0  0.10096661526E+03 -0.92147978969E+00  0.80544145648E+02  0.12916062062E+03  0.00000000000E+00 0. -1.
        -13    1    3    3    0    0  0.80087688725E+01  0.32927755129E+02 -0.15296626584E+02  0.37180158977E+02  0.00000000000E+00 0.  1.
         13    1    3    3    0    0 -0.24942058861E+02 -0.29361289994E+02  0.40563595622E+02  0.55942800610E+02  0.00000000000E+00 0. -1.
         21    1    1    2  502  501 -0.82166387773E+02 -0.42721294006E+02 -0.29545645215E+03  0.30963032693E+03  0.00000000000E+00 0. -1.
<scales pt_clust_5="13000.00000" pt_clust_6="13000.00000" pt_clust_7="13000.00000" pt_clust_8="13000.00000" pt_clust_9="93.18536"></scales>
<clustering>
<clus scale="   87.943">  7  8 -1 -1</clus>
<clus scale="   89.630">  1  7  2 -1</clus>
<clus scale="   93.185">  2  9  1 -1</clus>
<clus scale="   93.728">  5  6 -1 -1</clus>
<clus scale="   93.185">  2  5  1 -1</clus>
</clustering>
</event>
<event>
 9    1  0.6202448E-006  0.1373412E+03  0.7546771E-02  0.1219841E+00
         -1   -1    0    0    0  501 -0.00000000000E+00  0.00000000000E+00  0.34402536270E+03  0.34402536270E+03  0.00000000000E+00 0.  1.
          1   -1    0    0  502    0  0.00000000000E+00 -0.00000000000E+00 -0.14612516512E+03  0.14612516512E+03  0.00000000000E+00 0. -1.
         23    2    1    2    0    0  0.13123609981E+02  0.82221483279E+02  0.90180997506E+02  0.15759146447E+03  0.98842581468E+02 0.  0.
         23    2    1    2    0    0  0.98807257551E+02 -0.75460039740E+01 -0.32186292462E+02  0.13844957580E+03  0.91172974594E+02 0.  0.
        -13    1    3    3    0    0  0.32514344005E+02  0.96192007204E+02  0.56218805710E+02  0.11606308169E+03  0.00000000000E+00 0.  1.
         13    1    3    3    0    0 -0.19390734025E+02 -0.13970523925E+02  0.33962191797E+02  0.41528382781E+02  0.00000000000E+00 0. -1.
        -13    1    4    4    0    0  0.88497274474E+02 -0.29844144038E+02  0.53967725944E+01  0.93549803192E+02  0.00000000000E+00 0. -1.
         13    1    4    4    0    0  0.10309983076E+02  0.22298140064E+02 -0.37583065056E+02  0.44899772609E+02  0.00000000000E+00 0.  1.
         21    1    1    2  502  501 -0.11193086753E+03 -0.74675479305E+02  0.13990549254E+03  0.19410948755E+03  0.00000000000E+00 0.  1.
<scales pt_clust_5="13000.00000" pt_clust_6="13000.00000" pt_clust_7="13000.00000" pt_clust_8="13000.00000" pt_clust_9="102.71365"></scales>
<clustering>
<clus scale="   91.173">  7  8 -1 -1</clus>
<clus scale="   98.843">  5  6 -1 -1</clus>
<clus scale="  129.238">  1  5  2 -1</clus>
<clus scale="  102.714">  1  9  2 -1</clus>
<clus scale="  137.341">  2  5  1 -1</clus>
</clustering>
</event>
<event>
 9    1  0.6202448E-006  0.1097524E+03  0.7546771E-02  0.1263783E+00
          1   -1    0    0  502    0  0.00000000000E+00  0.00000000000E+00  0.12700904636E+03  0.12700904636E+03  0.00000000000E+00 0. -1.
         -1   -1    0    0    0  501 -0.00000000000E+00 -0.00000000000E+00 -0.38134951251E+03  0.38134951251E+03  0.00000000000E+00 0.  1.
         23    2    1    2    0    0 -0.69621660641E+02  0.44407625268E+02 -0.56704558768E+02  0.13627765982E+03  0.92395783291E+02 0.  0.
         23    2    1    2    0    0  0.55483541969E+02  0.21074460048E+02  0.50068842217E+02  0.11547724967E+03  0.85472509814E+02 0.  0.
        -11    1    3    3    0    0 -0.67922968646E+02  0.69844942959E+02 -0.51711803286E+02  0.11029939404E+03  0.00000000000E+00 0.  1.
         11    1    3    3    0    0 -0.16986919945E+01 -0.25437317692E+02 -0.49927554816E+01  0.25978265784E+02  0.00000000000E+00 0. -1.
        -11    1    4    4    0    0  0.43040368126E+02  0.46049363153E+02  0.59990886440E+01  0.63316713431E+02  0.00000000000E+00 0.  1.
         11    1    4    4    0    0  0.12443173843E+02 -0.24974903105E+02  0.44069753573E+02  0.52160536236E+02  0.00000000000E+00 0. -1.
         21    1    1    2  502  501  0.14138118672E+02 -0.65482085316E+02 -0.24770474961E+03  0.25660364938E+03  0.00000000000E+00 0.  1.
<scales pt_clust_5="13000.00000" pt_clust_6="13000.00000" pt_clust_7="13000.00000" pt_clust_8="13000.00000" pt_clust_9="66.99097"></scales>
<clustering>
<clus scale="   66.991">  2  9  1 -1</clus>
<clus scale="   85.473">  7  8 -1 -1</clus>
<clus scale="   92.396">  5  6 -1 -1</clus>
<clus scale="  103.991">  1  7  2 -1</clus>
<clus scale="  103.991">  1  5  2 -1</clus>
</clustering>
</event>
<event>
 9    1  0.6202448E-006  0.1972917E+03  0.7546771E-02  0.1152134E+00
          4   -1    0    0  502    0  0.00000000000E+00  0.00000000000E+00  0.16214331331E+03  0.16214331331E+03  0.00000000000E+00 0. -1.
         -4   -1    0    0    0  501 -0.00000000000E+00 -0.00000000000E+00 -0.67253808795E+03  0.67253808795E+03  0.00000000000E+00 0.  1.
         23    2    1    2    0    0  0.54304020547E+02  0.10653808279E+03 -0.41775341723E+03  0.44427104396E+03  0.92517853204E+02 0.  0.
         23    2    1    2    0    0 -0.18322252540E+03 -0.62578991603E+02  0.17962556617E+02  0.21495207625E+03  0.91624874563E+02 0.  0.
        -13    1    4    4    0    0 -0.33947003189E+02  0.42285194804E+01 -0.28948152283E+02  0.44813780505E+02  0.00000000000E+00 0.  1.
         13    1    4    4    0    0 -0.14927552221E+03 -0.66807511084E+02  0.46910708900E+02  0.17013829575E+03  0.00000000000E+00 0. -1.
        -13    1    3    3    0    0  0.78312070160E+02  0.67222526566E+02 -0.31947441113E+03  0.33573136252E+03  0.00000000000E+00 0.  1.
         13    1    3    3    0    0 -0.24008049613E+02  0.39315556229E+02 -0.98279006091E+02  0.10853968144E+03  0.00000000000E+00 0. -1.
         21    1    1    2  502  501  0.12891850486E+03 -0.43959091191E+02 -0.11060391403E+03  0.17545828106E+03  0.00000000000E+00 0.  1.
<scales pt_clust_5="13000.00000" pt_clust_6="13000.00000" pt_clust_7="13000.00000" pt_clust_8="13000.00000" pt_clust_9="136.20713"></scales>
<clustering>
<clus scale="   91.625">  5  6 -1 -1</clus>
<clus scale="   92.518">  7  8 -1 -1</clus>
<clus scale="  136.207">  2  9  1 -1</clus>
<clus scale="  196.874">  1  5  2 -1</clus>
<clus scale="  196.874">  1  5  2 -1</clus>
</clustering>
</event>
<event>
 9    1  0.6202448E-006  0.1243832E+03  0.7546771E-02  0.1236047E+00
          2   -1    0    0  502    0  0.00000000000E+00  0.00000000000E+00  0.63184516337E+03  0.63184516337E+03  0.00000000000E+00 0. -1.
         -2   -1    0    0    0  501 -0.00000000000E+00 -0.00000000000E+00 -0.42211141136E+02  0.42211141136E+02  0.00000000000E+00 0.  1.
         23    2    1    2    0    0 -0.16820838054E+02 -0.52016454304E+02  0.17061008582E+03  0.20053121518E+03  0.90090591992E+02 0.  0.
         23    2    1    2    0    0  0.44842846126E+02  0.10711966365E+03  0.35649944283E+03  0.38559950196E+03  0.90053428491E+02 0.  0.
        -11    1    4    4    0    0  0.57515641618E+02  0.27948951080E+02  0.19634782700E+03  0.20649857642E+03  0.00000000000E+00 0.  1.
         11    1    4    4    0    0 -0.12672795492E+02  0.79170712572E+02  0.16015161583E+03  0.17910092554E+03  0.00000000000E+00 0. -1.
        -13    1    3    3    0    0 -0.53160099705E+02 -0.19661242430E+02  0.88885718550E+02  0.10541931330E+03  0.00000000000E+00 0.  1.
         13    1    3    3    0    0  0.36339261651E+02 -0.32355211874E+02  0.81724367269E+02  0.95111901875E+02  0.00000000000E+00 0. -1.
         21    1    1    2  502  501 -0.28022008072E+02 -0.55103209348E+02  0.62524493586E+02  0.87925587374E+02  0.00000000000E+00 0.  1.
<scales pt_clust_5="13000.00000" pt_clust_6="13000.00000" pt_clust_7="13000.00000" pt_clust_8="13000.00000" pt_clust_9="61.81906"></scales>
<clustering>
<clus scale="   61.819">  2  9  1 -1</clus>
<clus scale="   90.053">  5  6 -1 -1</clus>
<clus scale="   90.091">  7  8 -1 -1</clus>
<clus scale="  124.356">  1  5  2 -1</clus>
<clus scale="  124.356">  1  5  2 -1</clus>
</clustering>
</event>
<event>
 9    1  0.6202448E-006  0.9595257E+02  0.7546771E-02  0.1289204E+00
          2   -1    0    0  502    0  0.00000000000E+00  0.00000000000E+00  0.28888585674E+03  0.28888585674E+03  0.00000000000E+00 0. -1.
         -2   -1    0    0    0  501 -0.00000000000E+00 -0.00000000000E+00 -0.55576086899E+02  0.55576086899E+02  0.00000000000E+00 0.  1.
         23    2    1    2    0    0  0.35094148006E+00 -0.38611589527E+01  0.66595304569E+02  0.11212331931E+03  0.90120321983E+02 0.  0.
         23    2    1    2    0    0 -0.38373877304E+01  0.57867647196E+02  0.11724992788E+03  0.15902016459E+03  0.90423874170E+02 0.  0.
        -13    1    3    3    0    0  0.35737884689E+02 -0.43419544433E+01 -0.79065596737E+00  0.36009361384E+02  0.00000000000E+00 0.  1.
         13    1    3    3    0    0 -0.35386943209E+02  0.48079549064E+00  0.67385960536E+02  0.76113957927E+02  0.00000000000E+00 0. -1.
        -13    1    4    4    0    0 -0.32602018763E+02  0.17346151646E+02  0.99699174222E+02  0.10631888800E+03  0.00000000000E+00 0. -1.
         13    1    4    4    0    0  0.28764631033E+02  0.40521495550E+02  0.17550753660E+02  0.52701276589E+02  0.00000000000E+00 0.  1.
         21    1    1    2  502  501  0.34864462504E+01 -0.54006488243E+02  0.49464537393E+02  0.73318459745E+02  0.00000000000E+00 0. -1.
<scales pt_clust_5="13000.00000" pt_clust_6="13000.00000" pt_clust_7="13000.00000" pt_clust_8="13000.00000" pt_clust_9="54.11891"></scales>
<clustering>
<clus scale="   54.119">  2  9  1 -1</clus>
<clus scale="   90.120">  5  6 -1 -1</clus>
<clus scale="   90.424">  7  8 -1 -1</clus>
<clus scale="   95.667">  2  5  1 -1</clus>
<clus scale="   95.953">  1  5  2 -1</clus>
</clustering>
</event>
<event>
 9    1  0.6202448E-006  0.1021362E+03  0.7546771E-02  0.1278503E+00
         -3   -1    0    0    0  501 -0.00000000000E+00  0.00000000000E+00  0.51858159186E+03  0.51858159186E+03  0.00000000000E+00 0.  1.
          3   -1    0    0  502    0  0.00000000000E+00 -0.00000000000E+00 -0.73275897409E+02  0.73275897409E+02  0.00000000000E+00 0. -1.
         23    2    1    2    0    0 -0.55415704647E+02  0.47619166489E+02  0.24418873153E+03  0.27177394621E+03  0.94310423017E+02 0.  0.
         23    2    1    2    0    0 -0.42884954591E+02 -0.25899730798E+02  0.80149276880E+01  0.10231497439E+03  0.88849308003E+02 0.  0.
        -11    1    4    4    0    0  0.24638336100E+02 -0.19785639878E+02 -0.81117132235E+01  0.32623902933E+02  0.00000000000E+00 0.  1.
         11    1    4    4    0    0 -0.67523290691E+02 -0.61140909195E+01  0.16126640911E+02  0.69691071455E+02  0.00000000000E+00 0. -1.
        -13    1    3    3    0    0  0.18069555122E+02  0.35904120350E+02  0.12460899720E+03  0.13093134408E+03  0.00000000000E+00 0.  1.
         13    1    3    3    0    0 -0.73485259769E+02  0.11715046139E+02  0.11957973434E+03  0.14084260213E+03  0.00000000000E+00 0. -1.
         21    1    1    2  502  501  0.98300659237E+02 -0.21719435691E+02  0.19310203523E+03  0.21776856868E+03  0.00000000000E+00 0.  1.
<scales pt_clust_5="13000.00000" pt_clust_6="13000.00000" pt_clust_7="13000.00000" pt_clust_8="13000.00000" pt_clust_9="100.67151"></scales>
<clustering>
<clus scale="   88.849">  5  6 -1 -1</clus>
<clus scale="   94.310">  7  8 -1 -1</clus>
<clus scale="  100.672">  1  9  2 -1</clus>
<clus scale="   97.116">  2  5  1 -1</clus>
<clus scale="   97.116">  2  5  1 -1</clus>
</clustering>
</event>
<event>
 9    1  0.6202448E-006  0.1303616E+03  0.7546771E-02  0.1226965E+00
          1   -1    0    0  502    0  0.00000000000E+00  0.00000000000E+00  0.16813708864E+03  0.16813708864E+03  0.00000000000E+00 0. -1.
         -1   -1    0    0    0  501 -0.00000000000E+00 -0.00000000000E+00 -0.15938653977E+03  0.15938653977E+03  0.00000000000E+00 0.  1.
         23    2    1    2    0    0 -0.91960787683E+02 -0.69411937205E+02 -0.37782797443E+02  0.15261579186E+03  0.92678134660E+02 0.  0.
         23    2    1    2    0    0  0.75027818848E+02  0.34015616434E+02  0.53720797362E+02  0.13501693020E+03  0.92506278754E+02 0.  0.
        -11    1    4    4    0    0  0.86370078506E+02 -0.79226696660E+00  0.30191231471E+02  0.91498243731E+02  0.00000000000E+00 0.  1.
         11    1    4    4    0    0 -0.11342259658E+02  0.34807883401E+02  0.23529565890E+02  0.43518686469E+02  0.00000000000E+00 0. -1.
        -11    1    3    3    0    0  0.16790481098E+02 -0.11928208923E+02 -0.19300402652E+02  0.28226015768E+02  0.00000000000E+00 0.  1.
         11    1    3    3    0    0 -0.10875126878E+03 -0.57483728282E+02 -0.18482394792E+02  0.12438977609E+03  0.00000000000E+00 0. -1.
         21    1    1    2  502  501  0.16932968836E+02  0.35396320771E+02 -0.71874510485E+01  0.39890906361E+02  0.00000000000E+00 0. -1.
<scales pt_clust_5="13000.00000" pt_clust_6="13000.00000" pt_clust_7="13000.00000" pt_clust_8="13000.00000" pt_clust_9="39.23805"></scales>
<clustering>
<clus scale="   39.238">  2  9  1 -1</clus>
<clus scale="   92.506">  5  6 -1 -1</clus>
<clus scale="   92.678">  7  8 -1 -1</clus>
<clus scale="  130.239">  1  5  2 -1</clus>
<clus scale="  130.239">  1  5  2 -1</clus>
</clustering>
</event>
<event>
 9    1  0.6202448E-006  0.1130136E+03  0.7546771E-02  0.1256858E+00
          1   -1    0    0  502    0  0.00000000000E+00  0.00000000000E+00  0.15517441832E+03  0.15517441832E+03  0.00000000000E+00 0. -1.
         -1   -1    0    0    0  501 -0.00000000000E+00 -0.00000000000E+00 -0.36826453995E+03  0.36826453995E+03  0.00000000000E+00 0.  1.
         23    2    1    2    0    0 -0.18309628249E+02  0.43344226862E+02 -0.26916408839E+03  0.28850003720E+03  0.92568895970E+02 0.  0.
         23    2    1    2    0    0 -0.35910026332E+02 -0.48869733831E+02  0.10963536417E+03  0.15852475051E+03  0.97120556886E+02 0.  0.
        -11    1    4    4    0    0 -0.20827258037E+02 -0.13360210964E+02 -0.14399133195E+02  0.28628743443E+02  0.00000000000E+00 0.  1.
         11    1    4    4    0    0 -0.15082768296E+02 -0.35509522867E+02  0.12403449737E+03  0.12989600706E+03  0.00000000000E+00 0. -1.
        -13    1    3    3    0    0 -0.19546739363E+02 -0.21386845921E+02 -0.34418743936E+02  0.44990244857E+02  0.00000000000E+00 0.  1.
         13    1    3    3    0    0  0.12371111144E+01  0.64731072784E+02 -0.23474534445E+03  0.24350979235E+03  0.00000000000E+00 0. -1.
         21    1    1    2  502  501  0.54219654581E+02  0.55255069688E+01 -0.53561397409E+02  0.76414170562E+02  0.00000000000E+00 0. -1.
<scales pt_clust_5="13000.00000" pt_clust_6="13000.00000" pt_clust_7="13000.00000" pt_clust_8="13000.00000" pt_clust_9="54.50048"></scales>
<clustering>
<clus scale="   54.500">  2  9  1 -1</clus>
<clus scale="   92.569">  7  8 -1 -1</clus>
<clus scale="   97.121">  5  6 -1 -1</clus>
<clus scale="  109.127">  2  7  1 -1</clus>
<clus scale="  113.014">  1  5  2 -1</clus>
</clustering>
</event>
<event>
 9    1  0.6202448E-006  0.1054069E+03  0.7546771E-02  0.1269435E+00
         -1   -1    0    0    0  501 -0.00000000000E+00  0.00000000000E+00  0.19438404847E+03  0.19438404847E+03  0.00000000000E+00 0.  1.
          1   -1    0    0  502    0  0.00000000000E+00 -0.00000000000E+00 -0.17212550834E+03  0.17212550834E+03  0.00000000000E+00 0. -1.
         23    2    1    2    0    0 -0.44919569038E+02  0.18763538142E+02  0.64078481065E+02  0.12163599159E+03  0.91210880208E+02 0.  0.
         23    2    1    2    0    0  0.70464059849E+02  0.78754839945E+02 -0.15111538050E+02  0.14058697040E+03  0.91481304749E+02 0.  0.
        -11    1    3    3    0    0 -0.28206058543E+02 -0.35430626710E+02  0.38421007961E+02  0.59389265868E+02  0.00000000000E+00 0.  1.
         11    1    3    3    0    0 -0.16713510496E+02  0.54194164852E+02  0.25657473104E+02  0.62246725722E+02  0.00000000000E+00 0. -1.
        -13    1    4    4    0    0  0.24447663580E+02  0.67855124003E+02 -0.44652847045E+02  0.84828549776E+02  0.00000000000E+00 0. -1.
         13    1    4    4    0    0  0.46016396270E+02  0.10899715942E+02  0.29541308994E+02  0.55758420623E+02  0.00000000000E+00 0.  1.
         21    1    1    2  502  501 -0.25544490811E+02 -0.97518378086E+02 -0.26708402885E+02  0.10428659482E+03  0.00000000000E+00 0.  1.
<scales pt_clust_5="13000.00000" pt_clust_6="13000.00000" pt_clust_7="13000.00000" pt_clust_8="13000.00000" pt_clust_9="100.80851"></scales>
<clustering>
<clus scale="   91.211">  5  6 -1 -1</clus>
<clus scale="   91.481">  7  8 -1 -1</clus>
<clus scale="  100.809">  2  9  1 -1</clus>
<clus scale="  105.172">  1  5  2 -1</clus>
<clus scale="  100.809">  2  5  1 -1</clus>
</clustering>
</event>
<event>
 9    1  0.6202448E-006  0.9850627E+02  0.7546771E-02  0.1286751E+00
         -2   -1    0    0    0  501 -0.00000000000E+00  0.00000000000E+00  0.33927620714E+02  0.33927620714E+02  0.00000000000E+00 0.  1.
          2   -1    0    0  502    0  0.00000000000E+00 -0.00000000000E+00 -0.48231181723E+03  0.48231181723E+03  0.00000000000E+00 0. -1.
         23    2    1    2    0    0  0.22433980978E+02 -0.26993420951E+02 -0.68187428548E+02  0.11523123749E+03  0.86004560375E+02 0.  0.
         23    2    1    2    0    0 -0.37249647124E+02  0.73968904115E+01 -0.33502881465E+03  0.34959154965E+03  0.92345518262E+02 0.  0.
        -11    1    4    4    0    0 -0.76336150845E+01  0.47773836921E+02 -0.13559217701E+03  0.14396475277E+03  0.00000000000E+00 0.  1.
         11    1    4    4    0    0 -0.29616032039E+02 -0.40376946509E+02 -0.19943663764E+03  0.20562679688E+03  0.00000000000E+00 0. -1.
        -13    1    3    3    0    0  0.43546158731E+02 -0.42311305480E+01 -0.40046256729E+01  0.43934126060E+02  0.00000000000E+00 0.  1.
         13    1    3    3    0    0 -0.21112177753E+02 -0.22762290403E+02 -0.64182802875E+02  0.71297111433E+02  0.00000000000E+00 0. -1.
         21    1    1    2  502  501  0.14815666146E+02  0.19596530539E+02 -0.45167953324E+02  0.51416650805E+02  0.00000000000E+00 0.  1.
<scales pt_clust_5="13000.00000" pt_clust_6="13000.00000" pt_clust_7="13000.00000" pt_clust_8="13000.00000" pt_clust_9="24.56681"></scales>
<clustering>
<clus scale="   24.567">  2  9  1 -1</clus>
<clus scale="   86.005">  7  8 -1 -1</clus>
<clus scale="   92.346">  5  6 -1 -1</clus>
<clus scale="   92.588">  1  7  2 -1</clus>
<clus scale="   24.567">  2  5  1 -1</clus>
</clustering>
</event>
<event>
 9    1  0.6202448E-006  0.9549203E+02  0.7546771E-02  0.1290880E+00
          2   -1    0    0  502    0  0.00000000000E+00  0.00000000000E+00  0.36333600879E+03  0.36333600879E+03  0.00000000000E+00 0. -1.
         -2   -1    0    0    0  501 -0.00000000000E+00 -0.00000000000E+00 -0.52162978859E+02  0.52162978859E+02  0.00000000000E+00 0.  1.
         23    2    1    2    0    0 -0.33085715677E+02 -0.36059659556E+02  0.41451961453E+02  0.11145222457E+03  0.91150258498E+02 0.  0.
         23    2    1    2    0    0  0.10371837442E+02  0.13322334682E+02  0.24795843383E+03  0.26523286771E+03  0.92628449161E+02 0.  0.
        -11    1    3    3    0    0 -0.17259338908E+01  0.24710357117E+02 -0.91236721615E+01  0.26397386051E+02  0.00000000000E+00 0.  1.
         11    1    3    3    0    0 -0.31359781786E+02 -0.60770016672E+02  0.50575633614E+02  0.85054838519E+02  0.00000000000E+00 0. -1.
        -13    1    4    4    0    0 -0.17459773997E+02 -0.34252965550E+02  0.87571535718E+02  0.95639339317E+02  0.00000000000E+00 0.  1.
         13    1    4    4    0    0  0.27831611439E+02  0.47575300231E+02  0.16038689811E+03  0.16959352839E+03  0.00000000000E+00 0. -1.
         21    1    1    2  502  501  0.22713878235E+02  0.22737324874E+02  0.21762634656E+02  0.38813895374E+02  0.00000000000E+00 0. -1.
<scales pt_clust_5="13000.00000" pt_clust_6="13000.00000" pt_clust_7="13000.00000" pt_clust_8="13000.00000" pt_clust_9="32.13886"></scales>
<clustering>
<clus scale="   32.139">  2  9  1 -1</clus>
<clus scale="   91.150">  5  6 -1 -1</clus>
<clus scale="   92.628">  7  8 -1 -1</clus>
<clus scale="   94.059">  2  5  1 -1</clus>
<clus scale="   95.492">  1  5  2 -1</clus>
</clustering>
</event>
<event>
 9    1  0.6202448E-006  0.9101539E+02  0.7546771E-02  0.1301181E+00
          1   -1    0    0  502    0  0.00000000000E+00  0.00000000000E+00  0.19298853410E+03  0.19298853410E+03  0.00000000000E+00 0. -1.
         -1   -1    0    0    0  501 -0.00000000000E+00 -0.00000000000E+00 -0.99912214750E+02  0.99912214750E+02  0.00000000000E+00 0.  1.
         23    2    1    2    0    0 -0.52618611557E+01  0.28533192579E+01 -0.18156949688E+02  0.90867340426E+02  0.88833384043E+02 0.  0.
         23    2    1    2    0    0 -0.12084755052E+02 -0.26290382217E+02  0.82677921113E+01  0.95018968030E+02  0.90127811453E+02 0.  0.
        -11    1    3    3    0    0 -0.14057869373E+02 -0.29999243570E+02 -0.38849363315E+02  0.51057333812E+02  0.00000000000E+00 0.  1.
         11    1    3    3    0    0  0.87960082176E+01  0.32852562828E+02  0.20692413626E+02  0.39810006614E+02  0.00000000000E+00 0. -1.
        -13    1    4    4    0    0 -0.19410988331E+01 -0.51321149196E+02 -0.20737351220E+02  0.55386514199E+02  0.00000000000E+00 0.  1.
         13    1    4    4    0    0 -0.10143656219E+02  0.25030766978E+02  0.29005143331E+02  0.39632453831E+02  0.00000000000E+00 0. -1.
         21    1    1    2  502  501  0.17346616207E+02  0.23437062959E+02  0.10296547693E+03  0.10701444040E+03  0.00000000000E+00 0. -1.
<scales pt_clust_5="13000.00000" pt_clust_6="13000.00000" pt_clust_7="13000.00000" pt_clust_8="13000.00000" pt_clust_9="29.15821"></scales>
<clustering>
<clus scale="   29.158">  1  9  2 -1</clus>
<clus scale="   88.833">  5  6 -1 -1</clus>
<clus scale="   89.734">  2  5  1 -1</clus>
<clus scale="   90.128">  7  8 -1 -1</clus>
<clus scale="   29.158">  1  5  2 -1</clus>
</clustering>
</event>
<event>
 9    1  0.6202448E-006  0.1006802E+03  0.7546771E-02  0.1279899E+00
         -1   -1    0    0    0  501 -0.00000000000E+00  0.00000000000E+00  0.52938922087E+02  0.52938922087E+02  0.00000000000E+00 0.  1.
          1   -1    0    0  502    0  0.00000000000E+00 -0.00000000000E+00 -0.33365655524E+03  0.33365655524E+03  0.00000000000E+00 0. -1.
         23    2    1    2    0    0  0.31714573216E+02  0.35651816776E+02 -0.34198103820E+02  0.10945839450E+03  0.92383784442E+02 0.  0.
         23    2    1    2    0    0 -0.20379042531E+02 -0.12329437291E+02 -0.14570280541E+03  0.17303886256E+03  0.90254196870E+02 0.  0.
        -13    1    3    3    0    0  0.33331647508E+02  0.62028007140E+02 -0.41892001663E+02  0.81935414802E+02  0.00000000000E+00 0. -1.
         13    1    3    3    0    0 -0.16170742920E+01 -0.26376190364E+02  0.76938978438E+01  0.27522979697E+02  0.00000000000E+00 0.  1.
        -13    1    4    4    0    0 -0.13963200615E+02  0.28872978632E+02 -0.11964167402E+03  0.12386585498E+03  0.00000000000E+00 0. -1.
         13    1    4    4    0    0 -0.64158419160E+01 -0.41202415922E+02 -0.26061131389E+02  0.49173007582E+02  0.00000000000E+00 0.  1.
         21    1    1    2  502  501 -0.11335530685E+02 -0.23322379486E+02 -0.10081672392E+03  0.10409822027E+03  0.00000000000E+00 0.  1.
<scales pt_clust_5="13000.00000" pt_clust_6="13000.00000" pt_clust_7="13000.00000" pt_clust_8="13000.00000" pt_clust_9="25.93121"></scales>
<clustering>
<clus scale="   25.931">  2  9  1 -1</clus>
<clus scale="   90.254">  7  8 -1 -1</clus>
<clus scale="   92.384">  5  6 -1 -1</clus>
<clus scale="   98.730">  2  7  1 -1</clus>
<clus scale="   25.931">  2  5  1 -1</clus>
</clustering>
</event>
<event>
 9    1  0.6202448E-006  0.9152907E+02  0.7546771E-02  0.1299193E+00
         -1   -1    0    0    0  501 -0.00000000000E+00  0.00000000000E+00  0.98648198537E+02  0.98648198537E+02  0.00000000000E+00 0.  1.
          1   -1    0    0  502    0  0.00000000000E+00 -0.00000000000E+00 -0.52687174747E+03  0.52687174747E+03  0.00000000000E+00 0. -1.
         23    2    1    2    0    0  0.40339741272E+02 -0.14113955685E+02 -0.19931728193E+03  0.22312504350E+03  0.90724350032E+02 0.  0.
         23    2    1    2    0    0  0.49993747504E+02 -0.41094729705E-01 -0.27937033221E+03  0.29795771313E+03  0.90728384854E+02 0.  0.
        -11    1    4    4    0    0 -0.16600459981E+01  0.28462542582E+02 -0.28760800734E+02  0.40497601680E+02  0.00000000000E+00 0.  1.
         11    1    4    4    0    0  0.51653793502E+02 -0.28503637312E+02 -0.25060953147E+03  0.25746011145E+03  0.00000000000E+00 0. -1.
        -11    1    3    3    0    0  0.44686547532E+02 -0.38953160345E+02 -0.71665179076E+02  0.93006097237E+02  0.00000000000E+00 0. -1.
         11    1    3    3    0    0 -0.43468062598E+01  0.24839204660E+02 -0.12765210286E+03  0.13011894626E+03  0.00000000000E+00 0.  1.
         21    1    1    2  502  501 -0.90333488777E+02  0.14155050415E+02  0.50464065209E+02  0.10443718937E+03  0.00000000000E+00 0.  1.
<scales pt_clust_5="13000.00000" pt_clust_6="13000.00000" pt_clust_7="13000.00000" pt_clust_8="13000.00000" pt_clust_9="91.43580"></scales>
<clustering>
<clus scale="   90.724">  7  8 -1 -1</clus>
<clus scale="   90.728">  5  6 -1 -1</clus>
<clus scale="   91.436">  1  9  2 -1</clus>
<clus scale="   91.525">  1  7  2 -1</clus>
<clus scale="   91.529">  2  5  1 -1</clus>
</clustering>
</event>
<event>
 9    1  0.6202448E-006  0.1030337E+03  0.7546771E-02  0.1284055E+00
         -1   -1    0    0    0  501 -0.00000000000E+00  0.00000000000E+00  0.20511074122E+03  0.20511074122E+03  0.00000000000E+00 0.  1.
          1   -1    0    0  502    0  0.00000000000E+00 -0.00000000000E+00 -0.37046069409E+03  0.37046069409E+03  0.00000000000E+00 0. -1.
         23    2    1    2    0    0  0.94660002958E+01 -0.10174256411E+02  0.17965766904E+03  0.19885433056E+03  0.84101403567E+02 0.  0.
         23    2    1    2    0    0 -0.22671422002E+02 -0.30015745765E+02 -0.24253990003E+03  0.26586019940E+03  0.10218172121E+03 0.  0.
        -11    1    4    4    0    0  0.19075039732E+02  0.68958841867E+01 -0.37153500647E+01  0.20620722238E+02  0.00000000000E+00 0.  1.
         11    1    4    4    0    0 -0.41746461735E+02 -0.36911629952E+02 -0.23882454996E+03  0.24523947716E+03  0.00000000000E+00 0. -1.
        -13    1    3    3    0    0  0.20973136455E+02 -0.43995331030E+02  0.11666359628E+03  0.12643518617E+03  0.00000000000E+00 0.  1.
         13    1    3    3    0    0 -0.11507136159E+02  0.33821074618E+02  0.62994072764E+02  0.72419144391E+02  0.00000000000E+00 0. -1.
         21    1    1    2  502  501  0.13205421707E+02  0.40190002176E+02 -0.10246772188E+03  0.11085690536E+03  0.00000000000E+00 0. -1.
<scales pt_clust_5="13000.00000" pt_clust_6="13000.00000" pt_clust_7="13000.00000" pt_clust_8="13000.00000" pt_clust_9="42.30389"></scales>
<clustering>
<clus scale="   42.304">  2  9  1 -1</clus>
<clus scale="   84.101">  7  8 -1 -1</clus>
<clus scale="   85.134">  1  7  2 -1</clus>
<clus scale="  102.182">  5  6 -1 -1</clus>
<clus scale="   42.304">  2  5  1 -1</clus>
</clustering>
</event>
<event>
 9    1  0.6202448E-006  0.1035349E+03  0.7546771E-02  0.1273911E+00
         -1   -1    0    0    0  501 -0.00000000000E+00  0.00000000000E+00  0.22906135758E+03  0.22906135758E+03  0.00000000000E+00 0.  1.
          1   -1    0    0  502    0  0.00000000000E+00 -0.00000000000E+00 -0.13354458515E+03  0.13354458515E+03  0.00000000000E+00 0. -1.
         23    2    1    2    0    0  0.16490487377E+02 -0.96765881561E+02  0.63260217730E+02  0.14929820977E+03  0.93018967346E+02 0.  0.
         23    2    1    2    0    0 -0.29709428986E+02  0.18501423724E+02 -0.40485414751E+02  0.10564409055E+03  0.91085960556E+02 0.  0.
        -11    1    3    3    0    0  0.26412648654E+02 -0.48492133740E+02 -0.14631940902E+02  0.57124502082E+02  0.00000000000E+00 0.  1.
         11    1    3    3    0    0 -0.99221612773E+01 -0.48273747821E+02  0.77892158632E+02  0.92173707691E+02  0.00000000000E+00 0. -1.
        -13    1    4    4    0    0 -0.49361681990E+02 -0.65563393300E+01  0.50798808072E+01  0.50053635465E+02  0.00000000000E+00 0.  1.
         13    1    4    4    0    0  0.19652253004E+02  0.25057763054E+02 -0.45565295558E+02  0.55590455086E+02  0.00000000000E+00 0. -1.
         21    1    1    2  502  501  0.13218941609E+02  0.78264457837E+02  0.72741969452E+02  0.10766364241E+03  0.00000000000E+00 0. -1.
<scales pt_clust_5="13000.00000" pt_clust_6="13000.00000" pt_clust_7="13000.00000" pt_clust_8="13000.00000" pt_clust_9="79.37295"></scales>
<clustering>
<clus scale="   79.373">  1  9  2 -1</clus>
<clus scale="   91.086">  7  8 -1 -1</clus>
<clus scale="   93.019">  5  6 -1 -1</clus>
<clus scale="  101.802">  2  7  1 -1</clus>
<clus scale="  101.802">  2  5  1 -1</clus>
</clustering>
</event>
<event>
 9    1  0.6202448E-006  0.1677037E+03  0.7546771E-02  0.1196648E+00
         -2   -1    0    0    0  501 -0.00000000000E+00  0.00000000000E+00  0.72632324926E+02  0.72632324926E+02  0.00000000000E+00 0.  1.
          2   -1    0    0  502    0  0.00000000000E+00 -0.00000000000E+00 -0.66389227097E+03  0.66389227097E+03  0.00000000000E+00 0. -1.
         23    2    1    2    0    0 -0.46036354632E+02  0.51945382998E+02 -0.11697327728E+03  0.16520073780E+03  0.93759625687E+02 0.  0.
         23    2    1    2    0    0  0.82325642034E+02  0.10071601940E+03 -0.19220914583E+03  0.24853887532E+03  0.88915628010E+02 0.  0.
        -11    1    4    4    0    0  0.28560331170E+01  0.63829286605E+02 -0.11593788557E+03  0.13237797424E+03  0.00000000000E+00 0. -1.
         11    1    4    4    0    0  0.79469608917E+02  0.36886732794E+02 -0.76271260259E+02  0.11616090108E+03  0.00000000000E+00 0.  1.
        -13    1    3    3    0    0  0.47963530601E+01  0.61568061526E+02 -0.44332337934E+02  0.76019651337E+02  0.00000000000E+00 0.  1.
         13    1    3    3    0    0 -0.50832707692E+02 -0.96226785284E+01 -0.72640939343E+02  0.89181086459E+02  0.00000000000E+00 0. -1.
         21    1    1    2  502  501 -0.36289287402E+02 -0.15266140240E+03 -0.28207752293E+03  0.32278498278E+03  0.00000000000E+00 0. -1.
<scales pt_clust_5="13000.00000" pt_clust_6="13000.00000" pt_clust_7="13000.00000" pt_clust_8="13000.00000" pt_clust_9="142.19191"></scales>
<clustering>
<clus scale="   88.916">  5  6 -1 -1</clus>
<clus scale="   93.760">  7  8 -1 -1</clus>
<clus scale="  116.656">  1  7  2 -1</clus>
<clus scale="  142.192">  2  9  1 -1</clus>
<clus scale="  142.192">  2  5  1 -1</clus>
</clustering>
</event>
<event>
 9    1  0.6202448E-006  0.1361352E+03  0.7546771E-02  0.1238411E+00
          1   -1    0    0  502    0  0.00000000000E+00  0.00000000000E+00  0.40677922903E+03  0.40677922903E+03  0.00000000000E+00 0. -1.
         -1   -1    0    0    0  501 -0.00000000000E+00 -0.00000000000E+00 -0.66150722342E+02  0.66150722342E+02  0.00000000000E+00 0.  1.
         23    2    1    2    0    0 -0.73343915239E+02 -0.62784319414E+02  0.15977486866E+03  0.20832016447E+03  0.92455835962E+02 0.  0.
         23    2    1    2    0    0 -0.67603622546E+01 -0.24608177318E+00  0.97386952843E+02  0.13286680120E+03  0.90131044716E+02 0.  0.
        -11    1    3    3    0    0 -0.35247512500E+02  0.10471112960E+01  0.11777328732E+03  0.12293913447E+03  0.00000000000E+00 0. -1.
         11    1    3    3    0    0 -0.38096402739E+02 -0.63831430710E+02  0.42001581338E+02  0.85381029995E+02  0.00000000000E+00 0.  1.
        -11    1    4    4    0    0  0.31671751470E+01  0.33609543823E+02  0.90937057877E+02  0.97000932623E+02  0.00000000000E+00 0. -1.
         11    1    4    4    0    0 -0.99275374016E+01 -0.33855625596E+02  0.64498949669E+01  0.35865868572E+02  0.00000000000E+00 0.  1.
         21    1    1    2  502  501  0.80104277494E+02  0.63030401187E+02  0.83466685185E+02  0.13174298570E+03  0.00000000000E+00 0. -1.
<scales pt_clust_5="13000.00000" pt_clust_6="13000.00000" pt_clust_7="13000.00000" pt_clust_8="13000.00000" pt_clust_9="99.92354"></scales>
<clustering>
<clus scale="   90.131">  7  8 -1 -1</clus>
<clus scale="   90.385">  1  7  2 -1</clus>
<clus scale="   92.456">  5  6 -1 -1</clus>
<clus scale="   99.924">  2  9  1 -1</clus>
<clus scale="   90.385">  1  5  2 -1</clus>
</clustering>
</event>
<event>
 9    1  0.6202448E-006  0.1037346E+03  0.7546771E-02  0.1274862E+00
          4   -1    0    0  502    0  0.00000000000E+00  0.00000000000E+00  0.11518410735E+03  0.11518410735E+03  0.00000000000E+00 0. -1.
         -4   -1    0    0    0  501 -0.00000000000E+00 -0.00000000000E+00 -0.17969936853E+03  0.17969936853E+03  0.00000000000E+00 0.  1.
         23    2    1    2    0    0 -0.17143222491E+02 -0.22998291141E+02 -0.58839109012E+02  0.11592198775E+03  0.95671599876E+02 0.  0.
         23    2    1    2    0    0  0.30285335533E+01  0.45366913974E+02  0.52959861934E+02  0.11463605084E+03  0.90935957013E+02 0.  0.
        -11    1    4    4    0    0 -0.31877976540E+02  0.28357633656E+02 -0.69649326041E+01  0.43230441370E+02  0.00000000000E+00 0. -1.
         11    1    4    4    0    0  0.34906510093E+02  0.17009280318E+02  0.59924794538E+02  0.71405609474E+02  0.00000000000E+00 0.  1.
        -13    1    3    3    0    0  0.15639201595E+02 -0.36797789540E+02  0.74705266069E+01  0.40675185425E+02  0.00000000000E+00 0. -1.
         13    1    3    3    0    0 -0.32782424086E+02  0.13799498399E+02 -0.66309635619E+02  0.75246802330E+02  0.00000000000E+00 0.  1.
         21    1    1    2  502  501  0.14114688938E+02 -0.22368622833E+02 -0.58636014102E+02  0.64325437278E+02  0.00000000000E+00 0. -1.
<scales pt_clust_5="13000.00000" pt_clust_6="13000.00000" pt_clust_7="13000.00000" pt_clust_8="13000.00000" pt_clust_9="26.44957"></scales>
<clustering>
<clus scale="   26.450">  2  9  1 -1</clus>
<clus scale="   90.936">  5  6 -1 -1</clus>
<clus scale="   95.672">  7  8 -1 -1</clus>
<clus scale="   99.384">  1  5  2 -1</clus>
<clus scale="   99.384">  1  5  2 -1</clus>
</clustering>
</event>
<event>
 9    1  0.6202448E-006  0.2041482E+03  0.7546771E-02  0.1178061E+00
          1   -1    0    0  502    0  0.00000000000E+00  0.00000000000E+00  0.14667481358E+03  0.14667481358E+03  0.00000000000E+00 0. -1.
         -1   -1    0    0    0  501 -0.00000000000E+00 -0.00000000000E+00 -0.42464810723E+03  0.42464810723E+03  0.00000000000E+00 0.  1.
         23    2    1    2    0    0  0.19928811683E+03  0.28191535251E+02 -0.16818781402E+03  0.27706955696E+03  0.89274198060E+02 0.  0.
         23    2    1    2    0    0 -0.34599023481E+02  0.64629131300E+01 -0.90499462847E+01  0.98112914332E+02  0.91133861758E+02 0.  0.
        -11    1    4    4    0    0 -0.51250703413E+02 -0.28499580823E+02 -0.93733201025E+01  0.59386192310E+02  0.00000000000E+00 0. -1.
         11    1    4    4    0    0  0.16651679931E+02  0.34962493953E+02  0.32337381779E+00  0.38726722022E+02  0.00000000000E+00 0.  1.
        -11    1    3    3    0    0  0.10127891219E+03  0.61504918580E+01 -0.29209691861E+02  0.10558623349E+03  0.00000000000E+00 0. -1.
         11    1    3    3    0    0  0.98009204639E+02  0.22041043393E+02 -0.13897812216E+03  0.17148332347E+03  0.00000000000E+00 0.  1.
         21    1    1    2  502  501 -0.16468909335E+03 -0.34654448381E+02 -0.10073553334E+03  0.19614044952E+03  0.00000000000E+00 0. -1.
<scales pt_clust_5="13000.00000" pt_clust_6="13000.00000" pt_clust_7="13000.00000" pt_clust_8="13000.00000" pt_clust_9="183.59361"></scales>
<clustering>
<clus scale="   89.274">  7  8 -1 -1</clus>
<clus scale="   91.134">  5  6 -1 -1</clus>
<clus scale="   97.695">  1  5  2 -1</clus>
<clus scale="  183.594">  2  9  1 -1</clus>
<clus scale="   97.695">  1  5  2 -1</clus>
</clustering>
</event>
<event>
 9    1  0.6202448E-006  0.1146474E+03  0.7546771E-02  0.1256776E+00
         -1   -1    0    0    0  501 -0.00000000000E+00  0.00000000000E+00  0.27017555812E+03  0.27017555812E+03  0.00000000000E+00 0.  1.
          1   -1    0    0  502    0  0.00000000000E+00 -0.00000000000E+00 -0.97814962144E+02  0.97814962144E+02  0.00000000000E+00 0. -1.
         23    2    1    2    0    0  0.27200631465E+02 -0.42978965688E+02  0.64922818707E+02  0.12319232002E+03  0.91511253293E+02 0.  0.
         23    2    1    2    0    0  0.72165754993E+02  0.26818088401E+01  0.24817633572E+02  0.10943340514E+03  0.78387925939E+02 0.  0.
        -11    1    3    3    0    0  0.19608335832E+01  0.27064773092E+02  0.31515855144E+02  0.41588411082E+02  0.00000000000E+00 0.  1.
         11    1    3    3    0    0  0.25239797882E+02 -0.70043738780E+02  0.33406963563E+02  0.81603908938E+02  0.00000000000E+00 0. -1.
        -13    1    4    4    0    0  0.13202145289E+02 -0.25430839749E+02  0.32882237573E+02  0.43614972182E+02  0.00000000000E+00 0.  1.
         13    1    4    4    0    0  0.58963609703E+02  0.28112648590E+02 -0.80646040007E+01  0.65818432963E+02  0.00000000000E+00 0. -1.
         21    1    1    2  502  501 -0.99366386458E+02  0.40297156848E+02  0.82620143694E+02  0.13536479510E+03  0.00000000000E+00 0.  1.
<scales pt_clust_5="13000.00000" pt_clust_6="13000.00000" pt_clust_7="13000.00000" pt_clust_8="13000.00000" pt_clust_9="83.66219"></scales>
<clustering>
<clus scale="   78.388">  7  8 -1 -1</clus>
<clus scale="   91.511">  5  6 -1 -1</clus>
<clus scale="  104.697">  1  5  2 -1</clus>
<clus scale="   83.662">  1  9  2 -1</clus>
<clus scale="  114.647">  2  5  1 -1</clus>
</clustering>
</event>
<event>
 9    1  0.6202448E-006  0.1099315E+03  0.7546771E-02  0.1260881E+00
          4   -1    0    0  502    0  0.00000000000E+00  0.00000000000E+00  0.33460156286E+02  0.33460156286E+02  0.00000000000E+00 0. -1.
         -4   -1    0    0    0  501 -0.00000000000E+00 -0.00000000000E+00 -0.69913243001E+03  0.69913243001E+03  0.00000000000E+00 0.  1.
         23    2    1    2    0    0 -0.19393971043E+02  0.13105658408E+02 -0.39304810394E+03  0.40388451333E+03  0.89933329231E+02 0.  0.
         23    2    1    2    0    0  0.50194060380E+02 -0.60574125687E+02 -0.13862087404E+03  0.18324747982E+03  0.90416943866E+02 0.  0.
        -11    1    3    3    0    0 -0.55124480981E+02  0.96272970846E+01 -0.26830890636E+03  0.27408221848E+03  0.00000000000E+00 0. -1.
         11    1    3    3    0    0  0.35730509939E+02  0.34783613230E+01 -0.12473919757E+03  0.12980229485E+03  0.00000000000E+00 0.  1.
        -13    1    4    4    0    0  0.40410289240E+01  0.21616212906E+02 -0.10997753214E+02  0.24587418550E+02  0.00000000000E+00 0. -1.
         13    1    4    4    0    0  0.46153031456E+02 -0.82190338593E+02 -0.12762312083E+03  0.15866006127E+03  0.00000000000E+00 0.  1.
         21    1    1    2  502  501 -0.30800089337E+02  0.47468467279E+02 -0.13400329574E+03  0.14546059315E+03  0.00000000000E+00 0. -1.
<scales pt_clust_5="13000.00000" pt_clust_6="13000.00000" pt_clust_7="13000.00000" pt_clust_8="13000.00000" pt_clust_9="56.58534"></scales>
<clustering>
<clus scale="   56.585">  2  9  1 -1</clus>
<clus scale="   89.933">  5  6 -1 -1</clus>
<clus scale="   90.417">  7  8 -1 -1</clus>
<clus scale="  109.534">  2  5  1 -1</clus>
<clus scale="  109.932">  1  5  2 -1</clus>
</clustering>
</event>
<event>
 9    1  0.6202448E-006  0.9443227E+02  0.7546771E-02  0.1299692E+00
         -1   -1    0    0    0  501 -0.00000000000E+00  0.00000000000E+00  0.95350913279E+02  0.95350913279E+02  0.00000000000E+00 0.  1.
          1   -1    0    0  502    0  0.00000000000E+00 -0.00000000000E+00 -0.17052290961E+03  0.17052290961E+03  0.00000000000E+00 0. -1.
         23    2    1    2    0    0  0.13465270465E+02 -0.31450855667E+02  0.10498529369E+02  0.98286478282E+02  0.91539843037E+02 0.  0.
         23    2    1    2    0    0 -0.30723703922E+02 -0.19220022950E+02 -0.35103180363E+02  0.93950072254E+02  0.79252933952E+02 0.  0.
        -11    1    4    4    0    0  0.12404388360E+01 -0.38357730780E+02  0.55852649044E+01  0.38782075539E+02  0.00000000000E+00 0.  1.
         11    1    4    4    0    0 -0.31964142758E+02  0.19137707830E+02 -0.40688445267E+02  0.55167996715E+02  0.00000000000E+00 0. -1.
        -13    1    3    3    0    0  0.45659510629E+02 -0.27964566443E+02  0.29102218768E+02  0.60940520382E+02  0.00000000000E+00 0.  1.
         13    1    3    3    0    0 -0.32194240164E+02 -0.34862892245E+01 -0.18603689399E+02  0.37345957901E+02  0.00000000000E+00 0. -1.
         21    1    1    2  502  501  0.17258433457E+02  0.50670878617E+02 -0.50567345343E+02  0.73637272357E+02  0.00000000000E+00 0. -1.
<scales pt_clust_5="13000.00000" pt_clust_6="13000.00000" pt_clust_7="13000.00000" pt_clust_8="13000.00000" pt_clust_9="53.52935"></scales>
<clustering>
<clus scale="   53.529">  2  9  1 -1</clus>
<clus scale="   79.253">  5  6 -1 -1</clus>
<clus scale="   82.577">  2  5  1 -1</clus>
<clus scale="   91.540">  7  8 -1 -1</clus>
<clus scale="   53.529">  2  5  1 -1</clus>
</clustering>
</event>
<event>
 9    1  0.6202448E-006  0.1491099E+03  0.7546771E-02  0.1223599E+00
         -1   -1    0    0    0  501 -0.00000000000E+00  0.00000000000E+00  0.20929767751E+03  0.20929767751E+03  0.00000000000E+00 0.  1.
          1   -1    0    0  502    0  0.00000000000E+00 -0.00000000000E+00 -0.21293035347E+03  0.21293035347E+03  0.00000000000E+00 0. -1.
         23    2    1    2    0    0  0.15167030254E+02  0.18204467390E+02  0.80819736269E+02  0.12347200569E+03  0.90288786562E+02 0.  0.
         23    2    1    2    0    0 -0.12882265022E+03 -0.68079814263E+01 -0.21985770379E+01  0.15799675120E+03  0.91194933123E+02 0.  0.
        -11    1    3    3    0    0 -0.26273325286E+02  0.17254101011E+02  0.75372990247E+02  0.81664430948E+02  0.00000000000E+00 0. -1.
         11    1    3    3    0    0  0.41440355540E+02  0.95036637880E+00  0.54467460220E+01  0.41807574742E+02  0.00000000000E+00 0.  1.
        -13    1    4    4    0    0 -0.30829771845E+02  0.99581989051E+01  0.38721749162E+02  0.50487765009E+02  0.00000000000E+00 0.  1.
         13    1    4    4    0    0 -0.97992878373E+02 -0.16766180331E+02 -0.40920326200E+02  0.10750898619E+03  0.00000000000E+00 0. -1.
         21    1    1    2  502  501  0.11365561996E+03 -0.11396485964E+02 -0.82253835189E+02  0.14075927410E+03  0.00000000000E+00 0.  1.
<scales pt_clust_5="13000.00000" pt_clust_6="13000.00000" pt_clust_7="13000.00000" pt_clust_8="13000.00000" pt_clust_9="117.97144"></scales>
<clustering>
<clus scale="   90.289">  5  6 -1 -1</clus>
<clus scale="   91.195">  7  8 -1 -1</clus>
<clus scale="   93.346">  1  5  2 -1</clus>
<clus scale="  117.971">  2  9  1 -1</clus>
<clus scale="  117.971">  2  5  1 -1</clus>
</clustering>
</event>
<event>
 9    1  0.6202448E-006  0.9979778E+02  0.7546771E-02  0.1281094E+00
          2   -1    0    0  502    0  0.00000000000E+00  0.00000000000E+00  0.44269713535E+03  0.44269713535E+03  0.00000000000E+00 0. -1.
         -2   -1    0    0    0  501 -0.00000000000E+00 -0.00000000000E+00 -0.84061950569E+02  0.84061950569E+02  0.00000000000E+00 0.  1.
         23    2    1    2    0    0 -0.19846614206E+02  0.33479683690E+02 -0.37525392500E+02  0.10660018389E+03  0.91873101655E+02 0.  0.
         23    2    1    2    0    0 -0.99901997314E+01 -0.49822531182E+02  0.26880878284E+03  0.28834159027E+03  0.91107750754E+02 0.  0.
        -11    1    3    3    0    0 -0.51195970277E+02  0.38969481179E+02 -0.11222680522E+02  0.65311533393E+02  0.00000000000E+00 0.  1.
         11    1    3    3    0    0  0.31349356071E+02 -0.54897974887E+01 -0.26302711977E+02  0.41288650497E+02  0.00000000000E+00 0. -1.
        -13    1    4    4    0    0  0.32519473136E+02 -0.45506689173E+01  0.42735534358E+02  0.53893882932E+02  0.00000000000E+00 0.  1.
         13    1    4    4    0    0 -0.42509672867E+02 -0.45271862264E+02  0.22607324848E+03  0.23444770734E+03  0.00000000000E+00 0. -1.
         21    1    1    2  502  501  0.29836813938E+02  0.16342847492E+02  0.12735179444E+03  0.13181731175E+03  0.00000000000E+00 0.  1.
<scales pt_clust_5="13000.00000" pt_clust_6="13000.00000" pt_clust_7="13000.00000" pt_clust_8="13000.00000" pt_clust_9="34.01947"></scales>
<clustering>
<clus scale="   34.019">  1  9  2 -1</clus>
<clus scale="   91.108">  7  8 -1 -1</clus>
<clus scale="   91.873">  5  6 -1 -1</clus>
<clus scale="   99.094">  1  7  2 -1</clus>
<clus scale="   34.019">  1  5  2 -1</clus>
</clustering>
</event>
<event>
 9    1  0.6202448E-006  0.1217486E+03  0.7546771E-02  0.1241755E+00
         -2   -1    0    0    0  501 -0.00000000000E+00  0.00000000000E+00  0.36948708938E+03  0.36948708938E+03  0.00000000000E+00 0.  1.
          2   -1    0    0  502    0  0.00000000000E+00 -0.00000000000E+00 -0.17547473087E+03  0.17547473087E+03  0.00000000000E+00 0. -1.
         23    2    1    2    0    0 -0.61248787413E+02 -0.34558053615E+02  0.23936120482E+03  0.26467368380E+03  0.88389476144E+02 0.  0.
         23    2    1    2    0    0  0.15342522238E+03  0.33568153353E+02 -0.44961669490E+02  0.18810557319E+03  0.93252534328E+02 0.  0.
        -11    1    4    4    0    0  0.12717980548E+03  0.46826194509E+02 -0.67168471916E+02  0.15125805444E+03  0.00000000000E+00 0. -1.
         11    1    4    4    0    0  0.26245416899E+02 -0.13258041157E+02  0.22206802426E+02  0.36847518743E+02  0.00000000000E+00 0.  1.
        -13    1    3    3    0    0 -0.63581083009E+01 -0.46521510442E+02  0.56966727019E+02  0.73823332776E+02  0.00000000000E+00 0.  1.
         13    1    3    3    0    0 -0.54890679113E+02  0.11963456827E+02  0.18239447780E+03  0.19085035102E+03  0.00000000000E+00 0. -1.
         21    1    1    2  502  501 -0.92176434967E+02  0.98990026272E+00 -0.38717681954E+00  0.92182563273E+02  0.00000000000E+00 0.  1.
<scales pt_clust_5="13000.00000" pt_clust_6="13000.00000" pt_clust_7="13000.00000" pt_clust_8="13000.00000" pt_clust_9="92.18175"></scales>
<clustering>
<clus scale="   88.389">  7  8 -1 -1</clus>
<clus scale="   92.182">  2  9  1 -1</clus>
<clus scale="   93.253">  5  6 -1 -1</clus>
<clus scale="  118.065">  1  7  2 -1</clus>
<clus scale="   92.182">  2  5  1 -1</clus>
</clustering>
</event>
<event>
 9    1  0.6202448E-006  0.1269972E+03  0.7546771E-02  0.1234731E+00
         -3   -1    0    0    0  501 -0.00000000000E+00  0.00000000000E+00  0.30809433684E+03  0.30809433684E+03  0.00000000000E+00 0.  1.
          3   -1    0    0  502    0  0.00000000000E+00 -0.00000000000E+00 -0.11632136718E+03  0.11632136718E+03  0.00000000000E+00 0. -1.
         23    2    1    2    0    0  0.77367636358E+02  0.44406783525E+02  0.12784792598E+03  0.18218509109E+03  0.94279380879E+02 0.  0.
         23    2    1    2    0    0 -0.69264054104E+02  0.40174605738E+02  0.83674466772E+02  0.15499690862E+03  0.10301027694E+03 0.  0.
        -13    1    3    3    0    0  0.54835455327E+02 -0.16546951815E+02  0.29825186520E+02  0.64577631780E+02  0.00000000000E+00 0. -1.
         13    1    3    3    0    0  0.22532181031E+02  0.60953735340E+02  0.98022739459E+02  0.11760745931E+03  0.00000000000E+00 0.  1.
        -13    1    4    4    0    0 -0.47557155261E+02  0.47147488068E+02 -0.13379744721E+01  0.66980286826E+02  0.00000000000E+00 0.  1.
         13    1    4    4    0    0 -0.21706898842E+02 -0.69728823299E+01  0.85012441245E+02  0.88016621792E+02  0.00000000000E+00 0. -1.
         21    1    1    2  502  501 -0.81035822546E+01 -0.84581389262E+02 -0.19749423091E+02  0.87233704308E+02  0.00000000000E+00 0. -1.
<scales pt_clust_5="13000.00000" pt_clust_6="13000.00000" pt_clust_7="13000.00000" pt_clust_8="13000.00000" pt_clust_9="84.96870"></scales>
<clustering>
<clus scale="   84.969">  2  9  1 -1</clus>
<clus scale="   94.279">  5  6 -1 -1</clus>
<clus scale="  103.010">  7  8 -1 -1</clus>
<clus scale="  120.024">  1  5  2 -1</clus>
<clus scale="   84.969">  2  5  1 -1</clus>
</clustering>
</event>
<event>
 9    1  0.6202448E-006  0.1235078E+03  0.7546771E-02  0.1253172E+00
          1   -1    0    0  502    0  0.00000000000E+00  0.00000000000E+00  0.24328196067E+03  0.24328196067E+03  0.00000000000E+00 0. -1.
         -1   -1    0    0    0  501 -0.00000000000E+00 -0.00000000000E+00 -0.13877258967E+03  0.13877258967E+03  0.00000000000E+00 0.  1.
         23    2    1    2    0    0  0.47360298335E+02 -0.41168106012E+02 -0.46762061229E+02  0.14198233019E+03  0.11846721447E+03 0.  0.
         23    2    1    2    0    0  0.38761826261E+02  0.15235248916E+02  0.52711021611E+02  0.10664175899E+03  0.82821621432E+02 0.  0.
        -11    1    4    4    0    0  0.10248374594E+02  0.48038350631E+02  0.25240722451E+02  0.55225052133E+02  0.00000000000E+00 0. -1.
         11    1    4    4    0    0  0.28513451667E+02 -0.32803101716E+02  0.27470299159E+02  0.51416706857E+02  0.00000000000E+00 0.  1.
        -13    1    3    3    0    0  0.44230984678E+02 -0.18241662246E+02  0.33528886638E+02  0.58423663753E+02  0.00000000000E+00 0. -1.
         13    1    3    3    0    0  0.31293136570E+01 -0.22926443765E+02 -0.80290947867E+02  0.83558666439E+02  0.00000000000E+00 0.  1.
         21    1    1    2  502  501 -0.86122124596E+02  0.25932857096E+02  0.98560410617E+02  0.13343046115E+03  0.00000000000E+00 0. -1.
<scales pt_clust_5="13000.00000" pt_clust_6="13000.00000" pt_clust_7="13000.00000" pt_clust_8="13000.00000" pt_clust_9="89.94183"></scales>
<clustering>
<clus scale="   82.822">  5  6 -1 -1</clus>
<clus scale="   89.942">  1  9  2 -1</clus>
<clus scale="   89.942">  1  5  2 -1</clus>
<clus scale="  118.467">  7  8 -1 -1</clus>
<clus scale="   89.942">  1  5  2 -1</clus>
</clustering>
</event>
<event>
 9    1  0.6202448E-006  0.3219763E+03  0.7546771E-02  0.1116223E+00
          2   -1    0    0  502    0  0.00000000000E+00  0.00000000000E+00  0.21570482088E+04  0.21570482088E+04  0.00000000000E+00 0. -1.
         -2   -1    0    0    0  501 -0.00000000000E+00 -0.00000000000E+00 -0.27697072032E+03  0.27697072032E+03  0.00000000000E+00 0.  1.
         23    2    1    2    0    0 -0.48588580926E+02  0.32446933223E+02 -0.21516304236E+03  0.24106844349E+03  0.91679910434E+02 0.  0.
         23    2    1    2    0    0 -0.27630896031E+02 -0.32231057707E+03  0.91082897927E+03  0.97120539592E+03  0.94778252183E+02 0.  0.
        -11    1    4    4    0    0  0.31924324520E+02 -0.61281933396E+02  0.17196671776E+03  0.18532994867E+03  0.00000000000E+00 0. -1.
         11    1    4    4    0    0 -0.59555220551E+02 -0.26102864367E+03  0.73886226151E+03  0.78587544725E+03  0.00000000000E+00 0.  1.
        -11    1    3    3    0    0 -0.13585474640E+00 -0.22635063313E+02 -0.13219565548E+02  0.26213001754E+02  0.00000000000E+00 0. -1.
         11    1    3    3    0    0 -0.48452726180E+02  0.55081996536E+02 -0.20194347682E+03  0.21485544174E+03  0.00000000000E+00 0.  1.
         21    1    1    2  502  501  0.76219476958E+02  0.28986364384E+03  0.11844115516E+04  0.12217450897E+04  0.00000000000E+00 0. -1.
<scales pt_clust_5="13000.00000" pt_clust_6="13000.00000" pt_clust_7="13000.00000" pt_clust_8="13000.00000" pt_clust_9="307.71064"></scales>
<clustering>
<clus scale="   91.680">  7  8 -1 -1</clus>
<clus scale="   94.778">  5  6 -1 -1</clus>
<clus scale="  108.715">  2  7  1 -1</clus>
<clus scale="  307.711">  1  9  2 -1</clus>
<clus scale="  307.711">  1  5  2 -1</clus>
</clustering>
</event>
<event>
 9    1  0.6202448E-006  0.9356714E+02  0.7546771E-02  0.1294570E+00
          1   -1    0    0  502    0  0.00000000000E+00  0.00000000000E+00  0.79429060614E+02  0.79429060614E+02  0.00000000000E+00 0. -1.
         -1   -1    0    0    0  501 -0.00000000000E+00 -0.00000000000E+00 -0.24580818714E+03  0.24580818714E+03  0.00000000000E+00 0.  1.
         23    2    1    2    0    0 -0.36834864754E+02  0.34711195577E+01 -0.16505353846E+03  0.19201795390E+03  0.90881065858E+02 0.  0.
         23    2    1    2    0    0  0.17722476873E+02  0.57652664712E+01  0.27897261581E+02  0.97100474116E+02  0.91120362081E+02 0.  0.
        -11    1    3    3    0    0 -0.65236197768E+02 -0.10503783673E+02 -0.11940868300E+03  0.13647169870E+03  0.00000000000E+00 0.  1.
         11    1    3    3    0    0  0.28401333013E+02  0.13974903230E+02 -0.45644855456E+02  0.55546255201E+02  0.00000000000E+00 0. -1.
        -11    1    4    4    0    0 -0.80064880116E+01  0.28062575569E+02 -0.22103860229E+02  0.36608641533E+02  0.00000000000E+00 0.  1.
         11    1    4    4    0    0  0.25728964885E+02 -0.22297309097E+02  0.50001121810E+02  0.60491832583E+02  0.00000000000E+00 0. -1.
         21    1    1    2  502  501  0.19112387881E+02 -0.92363860289E+01 -0.29222849653E+02  0.36118819738E+02  0.00000000000E+00 0. -1.
<scales pt_clust_5="13000.00000" pt_clust_6="13000.00000" pt_clust_7="13000.00000" pt_clust_8="13000.00000" pt_clust_9="21.22720"></scales>
<clustering>
<clus scale="   21.227">  2  9  1 -1</clus>
<clus scale="   90.881">  5  6 -1 -1</clus>
<clus scale="   91.120">  7  8 -1 -1</clus>
<clus scale="   93.334">  2  5  1 -1</clus>
<clus scale="   93.567">  1  5  2 -1</clus>
</clustering>
</event>
<event>
 9    1  0.6202448E-006  0.1608829E+03  0.7546771E-02  0.1188454E+00
         -1   -1    0    0    0  501 -0.00000000000E+00  0.00000000000E+00  0.65819742333E+02  0.65819742333E+02  0.00000000000E+00 0.  1.
          1   -1    0    0  502    0  0.00000000000E+00 -0.00000000000E+00 -0.11389866525E+04  0.11389866525E+04  0.00000000000E+00 0. -1.
         23    2    1    2    0    0 -0.31546655923E+02 -0.13790538443E+03 -0.11829515134E+03  0.20588896241E+03  0.91561102312E+02 0.  0.
         23    2    1    2    0    0 -0.56055102440E+02  0.11889211862E+03 -0.82626218913E+03  0.84215010878E+03  0.96073358195E+02 0.  0.
        -11    1    3    3    0    0 -0.35021212669E+02 -0.24926582491E+02 -0.71764875380E+02  0.83654152256E+02  0.00000000000E+00 0. -1.
         11    1    3    3    0    0  0.34745567458E+01 -0.11297880194E+03 -0.46530275957E+02  0.12223481015E+03  0.00000000000E+00 0.  1.
        -11    1    4    4    0    0 -0.75155188273E+02  0.48156650707E+02 -0.47831842329E+03  0.48657566666E+03  0.00000000000E+00 0.  1.
         11    1    4    4    0    0  0.19100085832E+02  0.70735467911E+02 -0.34794376584E+03  0.35557444211E+03  0.00000000000E+00 0. -1.
         21    1    1    2  502  501  0.87601758363E+02  0.19013265810E+02 -0.12860956970E+03  0.15676732365E+03  0.00000000000E+00 0.  1.
<scales pt_clust_5="13000.00000" pt_clust_6="13000.00000" pt_clust_7="13000.00000" pt_clust_8="13000.00000" pt_clust_9="89.64135"></scales>
<clustering>
<clus scale="   89.641">  1  9  2 -1</clus>
<clus scale="   91.561">  5  6 -1 -1</clus>
<clus scale="   96.073">  7  8 -1 -1</clus>
<clus scale="  158.230">  1  5  2 -1</clus>
<clus scale="  160.883">  2  5  1 -1</clus>
</clustering>
</event>
<event>
 9    1  0.6202448E-006  0.1029145E+03  0.7546771E-02  0.1276718E+00
         -3   -1    0    0    0  501 -0.00000000000E+00  0.00000000000E+00  0.19277829439E+03  0.19277829439E+03  0.00000000000E+00 0.  1.
          3   -1    0    0  502    0  0.00000000000E+00 -0.00000000000E+00 -0.76745273763E+02  0.76745273763E+02  0.00000000000E+00 0. -1.
         23    2    1    2    0    0 -0.41356655588E+02 -0.31600860123E+02  0.94712784940E+02  0.14306329390E+03  0.93742237592E+02 0.  0.
         23    2    1    2    0    0  0.10758734382E+02  0.28815750356E+02  0.18894051885E+02  0.95640216073E+02  0.88566178080E+02 0.  0.
        -11    1    4    4    0    0  0.35959703137E+02  0.32873363890E+02  0.39590292264E+02  0.62778575523E+02  0.00000000000E+00 0.  1.
         11    1    4    4    0    0 -0.25200968755E+02 -0.40576135342E+01 -0.20696240379E+02  0.32861640550E+02  0.00000000000E+00 0. -1.
        -13    1    3    3    0    0 -0.49938995432E+02 -0.59535697606E+02  0.64010110904E+02  0.10067619804E+03  0.00000000000E+00 0. -1.
         13    1    3    3    0    0  0.85823398442E+01  0.27934837483E+02  0.30702674036E+02  0.42387095859E+02  0.00000000000E+00 0.  1.
         21    1    1    2  502  501  0.30597921206E+02  0.27851097665E+01  0.24261838068E+01  0.30820058183E+02  0.00000000000E+00 0.  1.
<scales pt_clust_5="13000.00000" pt_clust_6="13000.00000" pt_clust_7="13000.00000" pt_clust_8="13000.00000" pt_clust_9="30.72441"></scales>
<clustering>
<clus scale="   30.724">  2  9  1 -1</clus>
<clus scale="   88.566">  5  6 -1 -1</clus>
<clus scale="   93.742">  7  8 -1 -1</clus>
<clus scale="   98.223">  2  5  1 -1</clus>
<clus scale="   30.724">  2  5  1 -1</clus>
</clustering>
</event>
<event>
 9    1  0.6202448E-006  0.1501009E+03  0.7546771E-02  0.1218697E+00
         -1   -1    0    0    0  501 -0.00000000000E+00  0.00000000000E+00  0.71507778993E+02  0.71507778993E+02  0.00000000000E+00 0.  1.
          1   -1    0    0  502    0  0.00000000000E+00 -0.00000000000E+00 -0.51004545043E+03  0.51004545043E+03  0.00000000000E+00 0. -1.
         23    2    1    2    0    0  0.98678368613E+02 -0.14817675722E+02 -0.18868684487E+03  0.23177017397E+03  0.90320009800E+02 0.  0.
         23    2    1    2    0    0  0.25666071114E+02 -0.31526856701E+02 -0.16033285946E+03  0.18971175318E+03  0.92904432461E+02 0.  0.
        -11    1    4    4    0    0  0.40386078715E+02 -0.55583812811E+02 -0.13638185012E+03  0.15271085306E+03  0.00000000000E+00 0. -1.
         11    1    4    4    0    0 -0.14720007601E+02  0.24056956110E+02 -0.23951009344E+02  0.37000900119E+02  0.00000000000E+00 0.  1.
        -11    1    3    3    0    0  0.61853924631E+02 -0.31559346799E+02 -0.17627210971E+03  0.18945647791E+03  0.00000000000E+00 0. -1.
         11    1    3    3    0    0  0.36824443982E+02  0.16741671077E+02 -0.12414735163E+02  0.42313696060E+02  0.00000000000E+00 0.  1.
         21    1    1    2  502  501 -0.12434443973E+03  0.46344532423E+02 -0.89517967106E+02  0.16007130227E+03  0.00000000000E+00 0.  1.
<scales pt_clust_5="13000.00000" pt_clust_6="13000.00000" pt_clust_7="13000.00000" pt_clust_8="13000.00000" pt_clust_9="119.88568"></scales>
<clustering>
<clus scale="   90.320">  7  8 -1 -1</clus>
<clus scale="   92.904">  5  6 -1 -1</clus>
<clus scale="  101.410">  2  5  1 -1</clus>
<clus scale="  119.886">  1  9  2 -1</clus>
<clus scale="  101.410">  2  5  1 -1</clus>
</clustering>
</event>
<event>
 9    1  0.6202448E-006  0.1276109E+03  0.7546771E-02  0.1231943E+00
          2   -1    0    0  502    0  0.00000000000E+00  0.00000000000E+00  0.96979682489E+03  0.96979682489E+03  0.00000000000E+00 0. -1.
         -2   -1    0    0    0  501 -0.00000000000E+00 -0.00000000000E+00 -0.27226869807E+02  0.27226869807E+02  0.00000000000E+00 0.  1.
         23    2    1    2    0    0  0.82957130353E+02 -0.58483374071E+02  0.28043084298E+03  0.31321640419E+03  0.95712421545E+02 0.  0.
         23    2    1    2    0    0 -0.63343558442E+02  0.20312553204E+02  0.33495174824E+03  0.35381748030E+03  0.92569592769E+02 0.  0.
        -11    1    4    4    0    0  0.24933760896E+01  0.41910508723E+02  0.16560155176E+03  0.17084080781E+03  0.00000000000E+00 0. -1.
         11    1    4    4    0    0 -0.65836934531E+02 -0.21597955519E+02  0.16935019648E+03  0.18297667250E+03  0.00000000000E+00 0.  1.
        -11    1    3    3    0    0  0.35626527316E+02 -0.58667616888E+02  0.71980964907E+02  0.99460535032E+02  0.00000000000E+00 0.  1.
         11    1    3    3    0    0  0.47330603038E+02  0.18424281782E+00  0.20844987807E+03  0.21375586916E+03  0.00000000000E+00 0. -1.
         21    1    1    2  502  501 -0.19613571912E+02  0.38170820867E+02  0.32718736387E+03  0.32998981021E+03  0.00000000000E+00 0. -1.
<scales pt_clust_5="13000.00000" pt_clust_6="13000.00000" pt_clust_7="13000.00000" pt_clust_8="13000.00000" pt_clust_9="42.91508"></scales>
<clustering>
<clus scale="   42.915">  1  9  2 -1</clus>
<clus scale="   92.570">  5  6 -1 -1</clus>
<clus scale="   95.712">  7  8 -1 -1</clus>
<clus scale="  125.271">  1  5  2 -1</clus>
<clus scale="   42.915">  1  5  2 -1</clus>
</clustering>
</event>
<event>
 9    1  0.6202448E-006  0.1039079E+03  0.7546771E-02  0.1277597E+00
          3   -1    0    0  502    0  0.00000000000E+00  0.00000000000E+00  0.11021924709E+03  0.11021924709E+03  0.00000000000E+00 0. -1.
         -3   -1    0    0    0  501 -0.00000000000E+00 -0.00000000000E+00 -0.13088991866E+03  0.13088991866E+03  0.00000000000E+00 0.  1.
         23    2    1    2    0    0  0.24770732717E+02 -0.37827427571E+01 -0.43329661538E+02  0.11429831847E+03  0.10275576720E+03 0.  0.
         23    2    1    2    0    0  0.95299943236E+00  0.11048226986E+02  0.23781632631E+01  0.93257761148E+02  0.92565559613E+02 0.  0.
        -11    1    4    4    0    0  0.31299655010E+01 -0.36166146652E+02  0.21591618286E+02  0.42237244558E+02  0.00000000000E+00 0.  1.
         11    1    4    4    0    0 -0.21769660686E+01  0.47214373637E+02 -0.19213455022E+02  0.51020516590E+02  0.00000000000E+00 0. -1.
        -13    1    3    3    0    0 -0.37652848596E+01 -0.23154168754E+02 -0.67974316301E+02  0.71908278921E+02  0.00000000000E+00 0.  1.
         13    1    3    3    0    0  0.28536017577E+02  0.19371425997E+02  0.24644654763E+02  0.42390039546E+02  0.00000000000E+00 0. -1.
         21    1    1    2  502  501 -0.25723732150E+02 -0.72654842285E+01  0.20280826708E+02  0.33553086129E+02  0.00000000000E+00 0.  1.
<scales pt_clust_5="13000.00000" pt_clust_6="13000.00000" pt_clust_7="13000.00000" pt_clust_8="13000.00000" pt_clust_9="26.73009"></scales>
<clustering>
<clus scale="   26.730">  1  9  2 -1</clus>
<clus scale="   92.566">  5  6 -1 -1</clus>
<clus scale="   93.843">  1  5  2 -1</clus>
<clus scale="  102.756">  7  8 -1 -1</clus>
<clus scale="   26.730">  1  5  2 -1</clus>
</clustering>
</event>
<event>
 9    1  0.6202448E-006  0.1544285E+03  0.7546771E-02  0.1195139E+00
         -1   -1    0    0    0  501 -0.00000000000E+00  0.00000000000E+00  0.85154588669E+03  0.85154588669E+03  0.00000000000E+00 0.  1.
          1   -1    0    0  502    0  0.00000000000E+00 -0.00000000000E+00 -0.11521773818E+03  0.11521773818E+03  0.00000000000E+00 0. -1.
         23    2    1    2    0    0 -0.11711871257E+03  0.10980897571E+03  0.13918968333E+03  0.23082221343E+03  0.90168299776E+02 0.  0.
         23    2    1    2    0    0 -0.48000879542E+01 -0.12509699645E+03  0.31976495533E+02  0.15757650116E+03  0.90197328608E+02 0.  0.
        -13    1    4    4    0    0  0.28079567692E+02 -0.10659911611E+02  0.23632410799E+02  0.38217622604E+02  0.00000000000E+00 0.  1.
         13    1    4    4    0    0 -0.32879655646E+02 -0.11443708484E+03  0.83440847339E+01  0.11935887856E+03  0.00000000000E+00 0. -1.
        -13    1    3    3    0    0 -0.10283394547E+03  0.43333631851E+02  0.60895344550E+02  0.12712539863E+03  0.00000000000E+00 0. -1.
         13    1    3    3    0    0 -0.14284767099E+02  0.66475343863E+02  0.78294338782E+02  0.10369681479E+03  0.00000000000E+00 0.  1.
         21    1    1    2  502  501  0.12191880052E+03  0.15288020734E+02  0.56516196965E+03  0.57836491028E+03  0.00000000000E+00 0.  1.
<scales pt_clust_5="13000.00000" pt_clust_6="13000.00000" pt_clust_7="13000.00000" pt_clust_8="13000.00000" pt_clust_9="122.87358"></scales>
<clustering>
<clus scale="   90.168">  7  8 -1 -1</clus>
<clus scale="   90.197">  5  6 -1 -1</clus>
<clus scale="  122.874">  1  9  2 -1</clus>
<clus scale="  154.412">  1  7  2 -1</clus>
<clus scale="  154.429">  2  5  1 -1</clus>
</clustering>
</event>
<event>
 9    1  0.6202448E-006  0.9885749E+02  0.7546771E-02  0.1285383E+00
         -2   -1    0    0    0  501 -0.00000000000E+00  0.00000000000E+00  0.44606137252E+02  0.44606137252E+02  0.00000000000E+00 0. -1.
          2   -1    0    0  502    0  0.00000000000E+00 -0.00000000000E+00 -0.32081497986E+03  0.32081497986E+03  0.00000000000E+00 0.  1.
         23    2    1    2    0    0 -0.10638640016E+02  0.31151071436E+02 -0.62471128239E+02  0.11525255876E+03  0.91087543184E+02 0.  0.
         23    2    1    2    0    0  0.91326988527E+01  0.86050654964E+00 -0.17532496422E+03  0.20014308127E+03  0.96095073965E+02 0.  0.
        -11    1    4    4    0    0 -0.13446948532E+01  0.47026494074E+02 -0.66416777912E+02  0.81390956115E+02  0.00000000000E+00 0.  1.
         11    1    4    4    0    0  0.10477393706E+02 -0.46165987525E+02 -0.10890818631E+03  0.11875212516E+03  0.00000000000E+00 0. -1.
        -11    1    3    3    0    0  0.24698552051E+02 -0.49776559379E+01 -0.59515734557E+02  0.64629081627E+02  0.00000000000E+00 0.  1.
         11    1    3    3    0    0 -0.35337192067E+02  0.36128727374E+02 -0.29553936820E+01  0.50623477129E+02  0.00000000000E+00 0. -1.
         21    1    1    2  502  501  0.15059411632E+01 -0.32011577986E+02 -0.38412750140E+02  0.50025477082E+02  0.00000000000E+00 0. -1.
<scales pt_clust_5="13000.00000" pt_clust_6="13000.00000" pt_clust_7="13000.00000" pt_clust_8="13000.00000" pt_clust_9="32.04698"></scales>
<clustering>
<clus scale="   32.047">  2  9  1 -1</clus>
<clus scale="   91.088">  7  8 -1 -1</clus>
<clus scale="   93.997">  1  7  2 -1</clus>
<clus scale="   96.095">  5  6 -1 -1</clus>
<clus scale="   32.047">  2  5  1 -1</clus>
</clustering>
</event>
<event>
 9    1  0.6202448E-006  0.1512523E+03  0.7546771E-02  0.1199314E+00
         -2   -1    0    0    0  501 -0.00000000000E+00  0.00000000000E+00  0.15682094759E+03  0.15682094759E+03  0.00000000000E+00 0.  1.
          2   -1    0    0  502    0  0.00000000000E+00 -0.00000000000E+00 -0.62325067242E+03  0.62325067242E+03  0.00000000000E+00 0. -1.
         23    2    1    2    0    0  0.12223151837E+03  0.23781892806E+02  0.50512624568E+02  0.16226701073E+03  0.90955676145E+02 0.  0.
         23    2    1    2    0    0 -0.48328359074E+02 -0.15535939794E+03 -0.28344083392E+03  0.33978073523E+03  0.92951970850E+02 0.  0.
        -11    1    3    3    0    0  0.97126858042E+01 -0.20512396184E+02 -0.12500328572E+02  0.25910478134E+02  0.00000000000E+00 0. -1.
         11    1    3    3    0    0  0.11251883256E+03  0.44294288989E+02  0.63012953140E+02  0.13635653260E+03  0.00000000000E+00 0.  1.
        -13    1    4    4    0    0  0.20031673227E+02 -0.87709431665E+02 -0.15655759031E+03  0.18056713826E+03  0.00000000000E+00 0.  1.
         13    1    4    4    0    0 -0.68360032301E+02 -0.67649966277E+02 -0.12688324360E+03  0.15921359697E+03  0.00000000000E+00 0. -1.
         21    1    1    2  502  501 -0.73903159293E+02  0.13157750514E+03 -0.23350151547E+03  0.27802387404E+03  0.00000000000E+00 0. -1.
<scales pt_clust_5="13000.00000" pt_clust_6="13000.00000" pt_clust_7="13000.00000" pt_clust_8="13000.00000" pt_clust_9="150.91162"></scales>
<clustering>
<clus scale="   90.956">  5  6 -1 -1</clus>
<clus scale="   92.952">  7  8 -1 -1</clus>
<clus scale="  150.912">  2  9  1 -1</clus>
<clus scale="  150.034">  1  5  2 -1</clus>
<clus scale="  150.912">  2  5  1 -1</clus>
</clustering>
</event>
<event>
 9    1  0.6202448E-006  0.1150794E+03  0.7546771E-02  0.1252065E+00
         -1   -1    0    0    0  501 -0.00000000000E+00  0.00000000000E+00  0.58048358074E+02  0.58048358074E+02  0.00000000000E+00 0.  1.
          1   -1    0    0  502    0  0.00000000000E+00 -0.00000000000E+00 -0.83973609075E+03  0.83973609075E+03  0.00000000000E+00 0. -1.
         23    2    1    2    0    0  0.28645325170E+02  0.86263749524E+02 -0.11231087926E+03  0.17114793982E+03  0.91738184888E+02 0.  0.
         23    2    1    2    0    0 -0.73104190161E+02 -0.98484607013E+00 -0.11953056061E+03  0.16844296931E+03  0.93489499141E+02 0.  0.
        -11    1    4    4    0    0 -0.57547700418E+02 -0.26936651218E+02 -0.12254251440E+03  0.13803618669E+03  0.00000000000E+00 0. -1.
         11    1    4    4    0    0 -0.15556489743E+02  0.25951805148E+02  0.30119537861E+01  0.30406782618E+02  0.00000000000E+00 0.  1.
        -11    1    3    3    0    0  0.47870912594E+02  0.76839320549E+02 -0.11825203994E+03  0.14892766836E+03  0.00000000000E+00 0.  1.
         11    1    3    3    0    0 -0.19225587424E+02  0.94244289752E+01  0.59411606728E+01  0.22220271453E+02  0.00000000000E+00 0. -1.
         21    1    1    2  502  501  0.44458864991E+02 -0.85278903454E+02 -0.54984629281E+03  0.55819353970E+03  0.00000000000E+00 0. -1.
<scales pt_clust_5="13000.00000" pt_clust_6="13000.00000" pt_clust_7="13000.00000" pt_clust_8="13000.00000" pt_clust_9="96.17215"></scales>
<clustering>
<clus scale="   91.738">  7  8 -1 -1</clus>
<clus scale="   93.489">  5  6 -1 -1</clus>
<clus scale="   96.172">  2  9  1 -1</clus>
<clus scale="  113.661">  1  7  2 -1</clus>
<clus scale="   96.172">  2  5  1 -1</clus>
</clustering>
</event>
<event>
 9    1  0.6202448E-006  0.1555116E+03  0.7546771E-02  0.1214701E+00
          2   -1    0    0  502    0  0.00000000000E+00  0.00000000000E+00  0.18653380990E+03  0.18653380990E+03  0.00000000000E+00 0. -1.
         -2   -1    0    0    0  501 -0.00000000000E+00 -0.00000000000E+00 -0.38727645735E+03  0.38727645735E+03  0.00000000000E+00 0.  1.
         23    2    1    2    0    0  0.87800394063E+02 -0.61170573994E+02  0.33528284628E+01  0.14036439283E+03  0.90775398617E+02 0.  0.
         23    2    1    2    0    0 -0.21283982443E+01 -0.37571942877E+02  0.75580270669E+02  0.12472545279E+03  0.91803487349E+02 0.  0.
        -11    1    3    3    0    0 -0.12099825684E+02 -0.18483443427E+02 -0.19363492529E+02  0.29376662598E+02  0.00000000000E+00 0.  1.
         11    1    3    3    0    0  0.99900219747E+02 -0.42687130567E+02  0.22716320992E+02  0.11098773023E+03  0.00000000000E+00 0. -1.
        -13    1    4    4    0    0 -0.37133249334E+01  0.22070967476E+02 -0.64499283589E+01  0.23292015010E+02  0.00000000000E+00 0.  1.
         13    1    4    4    0    0  0.15849266891E+01 -0.59642910353E+02  0.82030199028E+02  0.10143343778E+03  0.00000000000E+00 0. -1.
         21    1    1    2  502  501 -0.85671995819E+02  0.98742516871E+02 -0.27967574658E+03  0.30872042163E+03  0.00000000000E+00 0.  1.
<scales pt_clust_5="13000.00000" pt_clust_6="13000.00000" pt_clust_7="13000.00000" pt_clust_8="13000.00000" pt_clust_9="126.26830"></scales>
<clustering>
<clus scale="   90.775">  5  6 -1 -1</clus>
<clus scale="   91.803">  7  8 -1 -1</clus>
<clus scale="   99.217">  1  7  2 -1</clus>
<clus scale="  126.268">  2  9  1 -1</clus>
<clus scale="   99.217">  1  5  2 -1</clus>
</clustering>
</event>
<event>
 9    1  0.6202448E-006  0.1882662E+03  0.7546771E-02  0.1175082E+00
         -1   -1    0    0    0  501 -0.00000000000E+00  0.00000000000E+00  0.18143325786E+03  0.18143325786E+03  0.00000000000E+00 0.  1.
          1   -1    0    0  502    0  0.00000000000E+00 -0.00000000000E+00 -0.57989032819E+03  0.57989032819E+03  0.00000000000E+00 0. -1.
         23    2    1    2    0    0  0.62331701100E+02 -0.63936998014E+02  0.23726670247E+02  0.13533986878E+03  0.98897646707E+02 0.  0.
         23    2    1    2    0    0 -0.12281345168E+03 -0.94525339899E+02 -0.10567254127E+02  0.18079107738E+03  0.92496286428E+02 0.  0.
        -13    1    4    4    0    0 -0.96310503760E+02 -0.16549917587E+02 -0.11751637568E+02  0.98426184992E+02  0.00000000000E+00 0.  1.
         13    1    4    4    0    0 -0.26502947916E+02 -0.77975422313E+02  0.11843834405E+01  0.82364892383E+02  0.00000000000E+00 0. -1.
        -13    1    3    3    0    0  0.64699819889E+02 -0.84458994970E+02  0.34750962059E+02  0.11192416133E+03  0.00000000000E+00 0.  1.
         13    1    3    3    0    0 -0.23681187885E+01  0.20521996956E+02 -0.11024291811E+02  0.23415707455E+02  0.00000000000E+00 0. -1.
         21    1    1    2  502  501  0.60481750576E+02  0.15846233791E+03 -0.41161648646E+03  0.44519263989E+03  0.00000000000E+00 0. -1.
<scales pt_clust_5="13000.00000" pt_clust_6="13000.00000" pt_clust_7="13000.00000" pt_clust_8="13000.00000" pt_clust_9="163.97741"></scales>
<clustering>
<clus scale="   92.496">  5  6 -1 -1</clus>
<clus scale="   98.898">  7  8 -1 -1</clus>
<clus scale="  133.244">  1  7  2 -1</clus>
<clus scale="  163.977">  2  9  1 -1</clus>
<clus scale="  163.977">  2  5  1 -1</clus>
</clustering>
</event>
<event>
 9    1  0.6202448E-006  0.9142123E+02  0.7546771E-02  0.1299634E+00
         -2   -1    0    0    0  501 -0.00000000000E+00  0.00000000000E+00  0.42963479935E+02  0.42963479935E+02  0.00000000000E+00 0.  1.
          2   -1    0    0  502    0  0.00000000000E+00 -0.00000000000E+00 -0.28425841950E+03  0.28425841950E+03  0.00000000000E+00 0. -1.
         23    2    1    2    0    0  0.76268065185E+01 -0.15503861039E+02 -0.96266412750E+02  0.13386603775E+03  0.91402166025E+02 0.  0.
         23    2    1    2    0    0  0.76396948457E+01 -0.90412302830E+01 -0.13391442098E+03  0.16238731441E+03  0.91084899695E+02 0.  0.
        -13    1    3    3    0    0 -0.42053374728E+01  0.26024158402E+02 -0.85347732309E+02  0.89326239673E+02  0.00000000000E+00 0. -1.
         13    1    3    3    0    0  0.11832143991E+02 -0.41528019441E+02 -0.10918680441E+02  0.44539798077E+02  0.00000000000E+00 0.  1.
        -13    1    4    4    0    0 -0.18141343815E+02 -0.18729025092E+02 -0.13224995974E+03  0.13479590716E+03  0.00000000000E+00 0.  1.
         13    1    4    4    0    0  0.25781038661E+02  0.96877948091E+01 -0.16644612400E+01  0.27591407248E+02  0.00000000000E+00 0. -1.
         21    1    1    2  502  501 -0.15266501364E+02  0.24545091322E+02 -0.11114105836E+02  0.30968547277E+02  0.00000000000E+00 0.  1.
<scales pt_clust_5="13000.00000" pt_clust_6="13000.00000" pt_clust_7="13000.00000" pt_clust_8="13000.00000" pt_clust_9="28.90549"></scales>
<clustering>
<clus scale="   28.905">  1  9  2 -1</clus>
<clus scale="   91.085">  7  8 -1 -1</clus>
<clus scale="   91.104">  2  7  1 -1</clus>
<clus scale="   91.402">  5  6 -1 -1</clus>
<clus scale="   91.104">  2  5  1 -1</clus>
</clustering>
</event>
<event>
 9    1  0.6202448E-006  0.1357312E+03  0.7546771E-02  0.1233078E+00
         -2   -1    0    0    0  501 -0.00000000000E+00  0.00000000000E+00  0.16248159774E+03  0.16248159774E+03  0.00000000000E+00 0.  1.
          2   -1    0    0  502    0  0.00000000000E+00 -0.00000000000E+00 -0.29519090387E+03  0.29519090387E+03  0.00000000000E+00 0. -1.
         23    2    1    2    0    0  0.61873960261E+02 -0.51530307967E+01  0.83620815113E+02  0.13166647805E+03  0.80552343454E+02 0.  0.
         23    2    1    2    0    0  0.60342029877E+02 -0.14624376268E+02 -0.59122816556E+02  0.12590097434E+03  0.92198237252E+02 0.  0.
        -13    1    3    3    0    0  0.34110641821E+01 -0.33974288222E+02  0.15873632186E+02  0.37654479385E+02  0.00000000000E+00 0.  1.
         13    1    3    3    0    0  0.58462896079E+02  0.28821257425E+02  0.67747182927E+02  0.94011998660E+02  0.00000000000E+00 0. -1.
        -13    1    4    4    0    0 -0.34167294624E+00 -0.40582904139E+02 -0.56908117695E+01  0.40981388305E+02  0.00000000000E+00 0.  1.
         13    1    4    4    0    0  0.60683702823E+02  0.25958527871E+02 -0.53432004786E+02  0.84919586039E+02  0.00000000000E+00 0. -1.
         21    1    1    2  502  501 -0.12221599014E+03  0.19777407065E+02 -0.15720730469E+03  0.20010504922E+03  0.00000000000E+00 0.  1.
<scales pt_clust_5="13000.00000" pt_clust_6="13000.00000" pt_clust_7="13000.00000" pt_clust_8="13000.00000" pt_clust_9="99.61148"></scales>
<clustering>
<clus scale="   80.552">  5  6 -1 -1</clus>
<clus scale="   92.198">  7  8 -1 -1</clus>
<clus scale="  101.704">  1  5  2 -1</clus>
<clus scale="   99.611">  2  9  1 -1</clus>
<clus scale="   99.611">  2  5  1 -1</clus>
</clustering>
</event>
<event>
 9    1  0.6202448E-006  0.1288878E+03  0.7546771E-02  0.1244557E+00
         -2   -1    0    0    0  501 -0.00000000000E+00  0.00000000000E+00  0.32177311848E+02  0.32177311848E+02  0.00000000000E+00 0.  1.
          2   -1    0    0  502    0  0.00000000000E+00 -0.00000000000E+00 -0.80166351324E+03  0.80166351324E+03  0.00000000000E+00 0. -1.
         23    2    1    2    0    0  0.22289725639E+00 -0.21492919056E+02 -0.40203516623E+03  0.42230980057E+03  0.12748057703E+03 0.  0.
         23    2    1    2    0    0 -0.31279469720E+02 -0.11076180379E+02 -0.34971747452E+03  0.36316020579E+03  0.92097427142E+02 0.  0.
        -13    1    4    4    0    0 -0.38755085506E+02 -0.46705057507E+02 -0.24029747131E+03  0.24784308296E+03  0.00000000000E+00 0. -1.
         13    1    4    4    0    0  0.74756157862E+01  0.35628877128E+02 -0.10942000321E+03  0.11531712284E+03  0.00000000000E+00 0.  1.
        -13    1    3    3    0    0  0.59051388194E+02 -0.35347528180E+02 -0.21772606149E+03  0.22834437161E+03  0.00000000000E+00 0. -1.
         13    1    3    3    0    0 -0.58828490938E+02  0.13854609124E+02 -0.18430910474E+03  0.19396542895E+03  0.00000000000E+00 0.  1.
         21    1    1    2  502  501  0.31056572463E+02  0.32569099435E+02 -0.17733560638E+02  0.48370818725E+02  0.00000000000E+00 0. -1.
<scales pt_clust_5="13000.00000" pt_clust_6="13000.00000" pt_clust_7="13000.00000" pt_clust_8="13000.00000" pt_clust_9="45.00285"></scales>
<clustering>
<clus scale="   45.003">  1  9  2 -1</clus>
<clus scale="   92.097">  5  6 -1 -1</clus>
<clus scale="   94.036">  2  5  1 -1</clus>
<clus scale="  127.481">  7  8 -1 -1</clus>
<clus scale="   94.036">  2  5  1 -1</clus>
</clustering>
</event>
<event>
 9    1  0.6202448E-006  0.1002214E+03  0.7546771E-02  0.1280551E+00
          1   -1    0    0  502    0  0.00000000000E+00  0.00000000000E+00  0.39137001917E+03  0.39137001917E+03  0.00000000000E+00 0. -1.
         -1   -1    0    0    0  501 -0.00000000000E+00 -0.00000000000E+00 -0.50166149068E+02  0.50166149068E+02  0.00000000000E+00 0.  1.
         23    2    1    2    0    0 -0.36926005163E+01 -0.19825893828E+02  0.99930443414E+02  0.13756955399E+03  0.92372004963E+02 0.  0.
         23    2    1    2    0    0 -0.56257577392E+02  0.46510782651E+02  0.12855983793E+03  0.17354245922E+03  0.90891062853E+02 0.  0.
        -11    1    3    3    0    0 -0.46388780336E+02 -0.17436378145E+02  0.68275162202E+02  0.84364945313E+02  0.00000000000E+00 0. -1.
         11    1    3    3    0    0  0.42696179820E+02 -0.23895156826E+01  0.31655281212E+02  0.53204608682E+02  0.00000000000E+00 0.  1.
        -13    1    4    4    0    0  0.12841886542E+02  0.43404747172E+02  0.35144144865E+02  0.57306169347E+02  0.00000000000E+00 0.  1.
         13    1    4    4    0    0 -0.69099463934E+02  0.31060354791E+01  0.93415693070E+02  0.11623628988E+03  0.00000000000E+00 0. -1.
         21    1    1    2  502  501  0.59950177909E+02 -0.26684888823E+02  0.11271358875E+03  0.13042415502E+03  0.00000000000E+00 0. -1.
<scales pt_clust_5="13000.00000" pt_clust_6="13000.00000" pt_clust_7="13000.00000" pt_clust_8="13000.00000" pt_clust_9="65.62094"></scales>
<clustering>
<clus scale="   65.621">  1  9  2 -1</clus>
<clus scale="   90.891">  7  8 -1 -1</clus>
<clus scale="   92.372">  5  6 -1 -1</clus>
<clus scale="   98.858">  1  7  2 -1</clus>
<clus scale="   65.621">  1  5  2 -1</clus>
</clustering>
</event>
<event>
 9    1  0.6202448E-006  0.1308484E+03  0.7546771E-02  0.1227108E+00
         -1   -1    0    0    0  501 -0.00000000000E+00  0.00000000000E+00  0.89851721919E+02  0.89851721919E+02  0.00000000000E+00 0.  1.
          1   -1    0    0  502    0  0.00000000000E+00 -0.00000000000E+00 -0.44751447167E+03  0.44751447167E+03  0.00000000000E+00 0. -1.
         23    2    1    2    0    0 -0.87274858115E+02 -0.17608088208E+02 -0.15939958491E+00  0.12626214541E+03  0.89527416615E+02 0.  0.
         23    2    1    2    0    0  0.90149854168E+02  0.58500428416E+02 -0.18219236409E+03  0.23106407781E+03  0.92990613461E+02 0.  0.
        -11    1    4    4    0    0  0.12474532517E+02  0.62506775693E+02 -0.71611459582E+02  0.95869244873E+02  0.00000000000E+00 0. -1.
         11    1    4    4    0    0  0.77675321650E+02 -0.40063472769E+01 -0.11058090451E+03  0.13519483294E+03  0.00000000000E+00 0.  1.
        -13    1    3    3    0    0 -0.68516361422E+02 -0.54673053413E+01  0.40564147192E+02  0.79811235096E+02  0.00000000000E+00 0.  1.
         13    1    3    3    0    0 -0.18758496694E+02 -0.12140782866E+02 -0.40723546777E+02  0.46450910313E+02  0.00000000000E+00 0. -1.
         21    1    1    2  502  501 -0.28749960525E+01 -0.40892340209E+02 -0.17531098608E+03  0.18003997037E+03  0.00000000000E+00 0. -1.
<scales pt_clust_5="13000.00000" pt_clust_6="13000.00000" pt_clust_7="13000.00000" pt_clust_8="13000.00000" pt_clust_9="40.99328"></scales>
<clustering>
<clus scale="   40.993">  2  9  1 -1</clus>
<clus scale="   89.527">  7  8 -1 -1</clus>
<clus scale="   92.991">  5  6 -1 -1</clus>
<clus scale="  128.410">  1  7  2 -1</clus>
<clus scale="   40.993">  2  5  1 -1</clus>
</clustering>
</event>
<event>
 9    1  0.6202448E-006  0.1804766E+03  0.7546771E-02  0.1173074E+00
         -1   -1    0    0    0  501 -0.00000000000E+00  0.00000000000E+00  0.82367368852E+02  0.82367368852E+02  0.00000000000E+00 0.  1.
          1   -1    0    0  502    0  0.00000000000E+00 -0.00000000000E+00 -0.61281791098E+03  0.61281791098E+03  0.00000000000E+00 0. -1.
         23    2    1    2    0    0 -0.12086574122E+03  0.53326351883E+02 -0.24501471341E+03  0.29224665630E+03  0.89015005078E+02 0.  0.
         23    2    1    2    0    0  0.10373006937E+03 -0.81228237976E+02 -0.31202080437E+03  0.36076152753E+03  0.12423342325E+03 0.  0.
        -11    1    3    3    0    0 -0.11652766410E+03  0.73550135738E+02 -0.22212615851E+03  0.26139691900E+03  0.00000000000E+00 0.  1.
         11    1    3    3    0    0 -0.43380771157E+01 -0.20223783854E+02 -0.22888554902E+02  0.30849737307E+02  0.00000000000E+00 0. -1.
        -13    1    4    4    0    0  0.40603388480E+02 -0.10571959454E+03 -0.18871778614E+03  0.22009014206E+03  0.00000000000E+00 0.  1.
         13    1    4    4    0    0  0.63126680887E+02  0.24491356568E+02 -0.12330301823E+03  0.14067138547E+03  0.00000000000E+00 0. -1.
         21    1    1    2  502  501  0.17135671849E+02  0.27901886093E+02  0.26584975642E+02  0.42177096002E+02  0.00000000000E+00 0. -1.
<scales pt_clust_5="13000.00000" pt_clust_6="13000.00000" pt_clust_7="13000.00000" pt_clust_8="13000.00000" pt_clust_9="32.74365"></scales>
<clustering>
<clus scale="   32.744">  1  9  2 -1</clus>
<clus scale="   89.015">  5  6 -1 -1</clus>
<clus scale="  124.233">  7  8 -1 -1</clus>
<clus scale="  158.308">  1  5  2 -1</clus>
<clus scale="  180.477">  2  5  1 -1</clus>
</clustering>
</event>
<event>
 9    1  0.6202448E-006  0.1332785E+03  0.7546771E-02  0.1230858E+00
          1   -1    0    0  502    0  0.00000000000E+00  0.00000000000E+00  0.27512410481E+02  0.27512410481E+02  0.00000000000E+00 0. -1.
         -1   -1    0    0    0  501 -0.00000000000E+00 -0.00000000000E+00 -0.76580104448E+03  0.76580104448E+03  0.00000000000E+00 0.  1.
         23    2    1    2    0    0  0.27687759602E+02  0.54852559287E+02 -0.33107025948E+03  0.34874860382E+03  0.90789077874E+02 0.  0.
         23    2    1    2    0    0 -0.64547316132E+02 -0.39888645355E+02 -0.30507881397E+03  0.33495173397E+03  0.11559464220E+03 0.  0.
        -11    1    4    4    0    0 -0.52598253920E+02  0.15086212056E+02 -0.25107394200E+03  0.25696749690E+03  0.00000000000E+00 0.  1.
         11    1    4    4    0    0 -0.11949062212E+02 -0.54974857410E+02 -0.54004871970E+02  0.77984237071E+02  0.00000000000E+00 0. -1.
        -13    1    3    3    0    0 -0.23482715139E+02  0.47775804732E+02 -0.11712817853E+03  0.12865836791E+03  0.00000000000E+00 0.  1.
         13    1    3    3    0    0  0.51170474740E+02  0.70767545555E+01 -0.21394208095E+03  0.22009023591E+03  0.00000000000E+00 0. -1.
         21    1    1    2  502  501  0.36859556530E+02 -0.14963913932E+02 -0.10213956055E+03  0.10961311717E+03  0.00000000000E+00 0.  1.
<scales pt_clust_5="13000.00000" pt_clust_6="13000.00000" pt_clust_7="13000.00000" pt_clust_8="13000.00000" pt_clust_9="39.78122"></scales>
<clustering>
<clus scale="   39.781">  2  9  1 -1</clus>
<clus scale="   90.789">  7  8 -1 -1</clus>
<clus scale="  112.444">  2  7  1 -1</clus>
<clus scale="  115.595">  5  6 -1 -1</clus>
<clus scale="  133.278">  1  5  2 -1</clus>
</clustering>
</event>
<event>
 9    1  0.6202448E-006  0.1011401E+03  0.7546771E-02  0.1281717E+00
          4   -1    0    0  502    0  0.00000000000E+00  0.00000000000E+00  0.47304395117E+03  0.47304395117E+03  0.00000000000E+00 0. -1.
         -4   -1    0    0    0  501 -0.00000000000E+00 -0.00000000000E+00 -0.99671495719E+02  0.99671495719E+02  0.00000000000E+00 0.  1.
         23    2    1    2    0    0  0.71704722768E+02  0.58079889136E+02  0.41549189800E+01  0.13185674332E+03  0.94096209378E+02 0.  0.
         23    2    1    2    0    0  0.12554836562E+02 -0.34607824970E+02  0.33331477968E+03  0.34630914471E+03  0.86463610158E+02 0.  0.
        -11    1    3    3    0    0 -0.18372819194E+02  0.33786429247E+02  0.26232561015E+01  0.38548213434E+02  0.00000000000E+00 0.  1.
         11    1    3    3    0    0  0.90077541962E+02  0.24293459889E+02  0.15316628786E+01  0.93308529891E+02  0.00000000000E+00 0. -1.
        -13    1    4    4    0    0  0.62193845177E+01  0.27348677649E+02  0.63809184933E+02  0.69701097515E+02  0.00000000000E+00 0. -1.
         13    1    4    4    0    0  0.63354520446E+01 -0.61956502619E+02  0.26950559475E+03  0.27660804719E+03  0.00000000000E+00 0.  1.
         21    1    1    2  502  501 -0.84259559330E+02 -0.23472064166E+02  0.35902756785E+02  0.94549558854E+02  0.00000000000E+00 0.  1.
<scales pt_clust_5="13000.00000" pt_clust_6="13000.00000" pt_clust_7="13000.00000" pt_clust_8="13000.00000" pt_clust_9="87.46777"></scales>
<clustering>
<clus scale="   86.464">  7  8 -1 -1</clus>
<clus scale="   87.468">  2  9  1 -1</clus>
<clus scale="   94.081">  1  7  2 -1</clus>
<clus scale="   94.096">  5  6 -1 -1</clus>
<clus scale="   94.081">  1  5  2 -1</clus>
</clustering>
</event>
<event>
 9    1  0.6202448E-006  0.1225936E+03  0.7546771E-02  0.1240341E+00
          1   -1    0    0  502    0  0.00000000000E+00  0.00000000000E+00  0.40743447467E+02  0.40743447467E+02  0.00000000000E+00 0. -1.
         -1   -1    0    0    0  501 -0.00000000000E+00 -0.00000000000E+00 -0.90472875390E+03  0.90472875390E+03  0.00000000000E+00 0.  1.
         23    2    1    2    0    0 -0.12671754969E+03  0.27746643520E+01 -0.53495955213E+03  0.55808347432E+03  0.95970858764E+02 0.  0.
         23    2    1    2    0    0  0.54706488175E+02 -0.37656913376E+02 -0.12621007658E+03  0.16935991379E+03  0.91339772260E+02 0.  0.
        -13    1    4    4    0    0  0.21039722514E+02  0.28374147873E+02 -0.61716354840E+02  0.71110271028E+02  0.00000000000E+00 0.  1.
         13    1    4    4    0    0  0.33666765661E+02 -0.66031061249E+02 -0.64493721739E+02  0.98249642765E+02  0.00000000000E+00 0. -1.
        -13    1    3    3    0    0 -0.11927554066E+03  0.22306750547E+02 -0.51528089936E+03  0.52937571815E+03  0.00000000000E+00 0. -1.
         13    1    3    3    0    0 -0.74420090339E+01 -0.19532086195E+02 -0.19678652768E+02  0.28707756170E+02  0.00000000000E+00 0.  1.
         21    1    1    2  502  501  0.72011061518E+02  0.34882249024E+02 -0.20281567772E+03  0.21802881325E+03  0.00000000000E+00 0.  1.
<scales pt_clust_5="13000.00000" pt_clust_6="13000.00000" pt_clust_7="13000.00000" pt_clust_8="13000.00000" pt_clust_9="80.01478"></scales>
<clustering>
<clus scale="   80.015">  2  9  1 -1</clus>
<clus scale="   91.340">  5  6 -1 -1</clus>
<clus scale="   95.971">  7  8 -1 -1</clus>
<clus scale="  119.003">  1  5  2 -1</clus>
<clus scale="  119.003">  1  5  2 -1</clus>
</clustering>
</event>
<event>
 9    1  0.1184539E-005  0.1114225E+03  0.7546771E-02  0.1258048E+00
          1   -1    0    0  502    0  0.00000000000E+00  0.00000000000E+00  0.51222574120E+03  0.51222574120E+03  0.00000000000E+00 0. -1.
         -1   -1    0    0    0  501 -0.00000000000E+00 -0.00000000000E+00 -0.14270023731E+03  0.14270023731E+03  0.00000000000E+00 0.  1.
         23    2    1    2    0    0  0.58539615066E+01 -0.43301818225E+02 -0.95646852067E+02  0.14198091516E+03  0.95398865984E+02 0.  0.
         23    2    1    2    0    0 -0.56814924825E+02  0.18776058623E+02  0.43409132926E+03  0.44841163878E+03  0.95169530814E+02 0.  0.
        -11    1    4    4    0    0 -0.34326375385E+02  0.54577147956E+02  0.18885002227E+03  0.19955273999E+03  0.00000000000E+00 0.  1.
         11    1    4    4    0    0 -0.22488549440E+02 -0.35801089333E+02  0.24524130699E+03  0.24885889879E+03  0.00000000000E+00 0. -1.
        -11    1    3    3    0    0 -0.15375295979E+02  0.26482652139E+02 -0.18341494619E+02  0.35695111928E+02  0.00000000000E+00 0.  1.
         11    1    3    3    0    0  0.21229257486E+02 -0.69784470364E+02 -0.77305357449E+02  0.10628580323E+03  0.00000000000E+00 0. -1.
         21    1    1    2  502  501  0.50960963319E+02  0.24525759602E+02  0.31081026697E+02  0.64533424572E+02  0.00000000000E+00 0. -1.
<scales pt_clust_5="13000.00000" pt_clust_6="13000.00000" pt_clust_7="13000.00000" pt_clust_8="13000.00000" pt_clust_9="56.55557"></scales>
<clustering>
<clus scale="   56.556">  2  9  1 -1</clus>
<clus scale="   95.170">  5  6 -1 -1</clus>
<clus scale="   95.399">  7  8 -1 -1</clus>
<clus scale="  111.226">  1  5  2 -1</clus>
<clus scale="  111.226">  1  5  2 -1</clus>
</clustering>
</event>
<event>
 9    1  0.6202448E-006  0.9610003E+02  0.7546771E-02  0.1290306E+00
          2   -1    0    0  502    0  0.00000000000E+00  0.00000000000E+00  0.92931297631E+02  0.92931297631E+02  0.00000000000E+00 0. -1.
         -2   -1    0    0    0  501 -0.00000000000E+00 -0.00000000000E+00 -0.21322249127E+03  0.21322249127E+03  0.00000000000E+00 0.  1.
         23    2    1    2    0    0  0.21636185880E+02  0.13147172540E+02 -0.12215797477E+03  0.15390494550E+03  0.90128734395E+02 0.  0.
         23    2    1    2    0    0 -0.29533932230E+02  0.24352980328E+02 -0.27115681425E+02  0.10420075292E+03  0.93044161167E+02 0.  0.
        -11    1    3    3    0    0 -0.22750904060E+02 -0.39429267719E+01 -0.97758247758E+02  0.10044812249E+03  0.00000000000E+00 0.  1.
         11    1    3    3    0    0  0.44387089940E+02  0.17090099312E+02 -0.24399727013E+02  0.53456823008E+02  0.00000000000E+00 0. -1.
        -11    1    4    4    0    0 -0.51388189809E+02 -0.85609387185E+01 -0.36478185422E+02  0.63597906689E+02  0.00000000000E+00 0.  1.
         11    1    4    4    0    0  0.21854257579E+02  0.32913919046E+02  0.93625039971E+01  0.40602846236E+02  0.00000000000E+00 0. -1.
         21    1    1    2  502  501  0.78977463502E+01 -0.37500152868E+02  0.28982462558E+02  0.48048090477E+02  0.00000000000E+00 0. -1.
<scales pt_clust_5="13000.00000" pt_clust_6="13000.00000" pt_clust_7="13000.00000" pt_clust_8="13000.00000" pt_clust_9="38.32279"></scales>
<clustering>
<clus scale="   38.323">  1  9  2 -1</clus>
<clus scale="   90.129">  5  6 -1 -1</clus>
<clus scale="   93.044">  7  8 -1 -1</clus>
<clus scale="   93.280">  2  5  1 -1</clus>
<clus scale="   38.323">  1  5  2 -1</clus>
</clustering>
</event>
<event>
 9    1  0.6202448E-006  0.1165139E+03  0.7546771E-02  0.1255129E+00
          2   -1    0    0  502    0  0.00000000000E+00  0.00000000000E+00  0.34997075601E+03  0.34997075601E+03  0.00000000000E+00 0. -1.
         -2   -1    0    0    0  501 -0.00000000000E+00 -0.00000000000E+00 -0.18393890778E+03  0.18393890778E+03  0.00000000000E+00 0.  1.
         23    2    1    2    0    0 -0.23789974138E+02 -0.42342411564E+02  0.78952427932E+01  0.10335167955E+03  0.90886699359E+02 0.  0.
         23    2    1    2    0    0 -0.29002991177E+02 -0.62384813927E+02  0.25447457911E+03  0.27878218209E+03  0.90714690833E+02 0.  0.
        -13    1    4    4    0    0  0.17970946640E+02 -0.63092328342E+02  0.12733025152E+03  0.14323613291E+03  0.00000000000E+00 0.  1.
         13    1    4    4    0    0 -0.46973937818E+02  0.70751441473E+00  0.12714432759E+03  0.13554604918E+03  0.00000000000E+00 0. -1.
        -13    1    3    3    0    0  0.28989106201E+02 -0.35500277986E+02  0.17890133980E+02  0.49200558017E+02  0.00000000000E+00 0.  1.
         13    1    3    3    0    0 -0.52779080339E+02 -0.68421335780E+01 -0.99948911866E+01  0.54151121532E+02  0.00000000000E+00 0. -1.
         21    1    1    2  502  501  0.52792965315E+02  0.10472722549E+03 -0.96337973671E+02  0.15177580215E+03  0.00000000000E+00 0. -1.
<scales pt_clust_5="13000.00000" pt_clust_6="13000.00000" pt_clust_7="13000.00000" pt_clust_8="13000.00000" pt_clust_9="73.11871"></scales>
<clustering>
<clus scale="   90.715">  5  6 -1 -1</clus>
<clus scale="   90.887">  7  8 -1 -1</clus>
<clus scale="  103.050">  2  7  1 -1</clus>
<clus scale="   73.119">  2  9  1 -1</clus>
<clus scale="  116.514">  1  5  2 -1</clus>
</clustering>
</event>
<event>
 9    1  0.6202448E-006  0.9701332E+02  0.7546771E-02  0.1288092E+00
          1   -1    0    0  502    0  0.00000000000E+00  0.00000000000E+00  0.76725448790E+03  0.76725448790E+03  0.00000000000E+00 0. -1.
         -1   -1    0    0    0  501 -0.00000000000E+00 -0.00000000000E+00 -0.15613065619E+02  0.15613065619E+02  0.00000000000E+00 0.  1.
         23    2    1    2    0    0 -0.15920041263E+02 -0.43097580612E+02  0.32264895626E+03  0.33771419808E+03  0.88530680800E+02 0.  0.
         23    2    1    2    0    0  0.10909868146E+02  0.20444824254E+02  0.36964181076E+03  0.38142934516E+03  0.91193536112E+02 0.  0.
        -11    1    4    4    0    0 -0.39810996639E+02  0.70148745225E+01  0.19156082896E+03  0.19577965959E+03  0.00000000000E+00 0.  1.
         11    1    4    4    0    0  0.50720864785E+02  0.13429949731E+02  0.17808098180E+03  0.18564968557E+03  0.00000000000E+00 0. -1.
        -11    1    3    3    0    0 -0.18447814719E+02 -0.70042586643E+02  0.22392820967E+03  0.23535107584E+03  0.00000000000E+00 0.  1.
         11    1    3    3    0    0  0.25277734557E+01  0.26945006032E+02  0.98720746590E+02  0.10236312225E+03  0.00000000000E+00 0. -1.
         21    1    1    2  502  501  0.50101731174E+01  0.22652756358E+02  0.59350655263E+02  0.63724010274E+02  0.00000000000E+00 0.  1.
<scales pt_clust_5="13000.00000" pt_clust_6="13000.00000" pt_clust_7="13000.00000" pt_clust_8="13000.00000" pt_clust_9="23.20020"></scales>
<clustering>
<clus scale="   23.200">  2  9  1 -1</clus>
<clus scale="   88.531">  7  8 -1 -1</clus>
<clus scale="   91.194">  5  6 -1 -1</clus>
<clus scale="   94.515">  2  7  1 -1</clus>
<clus scale="   97.013">  1  5  2 -1</clus>
</clustering>
</event>
<event>
 9    1  0.6202448E-006  0.1790353E+03  0.7546771E-02  0.1190501E+00
          1   -1    0    0  502    0  0.00000000000E+00  0.00000000000E+00  0.21964865127E+03  0.21964865127E+03  0.00000000000E+00 0. -1.
         -1   -1    0    0    0  501 -0.00000000000E+00 -0.00000000000E+00 -0.34442645917E+03  0.34442645917E+03  0.00000000000E+00 0.  1.
         23    2    1    2    0    0 -0.35972661108E+02 -0.46865797126E+02 -0.80832373949E+02  0.13629216573E+03  0.92472949958E+02 0.  0.
         23    2    1    2    0    0 -0.91132415359E+01 -0.14326374738E+03  0.88772984225E+02  0.19157083487E+03  0.90615614324E+02 0.  0.
        -11    1    4    4    0    0  0.29647123908E+02 -0.99192201269E+02  0.28358980659E+02  0.10734186757E+03  0.00000000000E+00 0.  1.
         11    1    4    4    0    0 -0.38760365444E+02 -0.44071546113E+02  0.60414003565E+02  0.84228967303E+02  0.00000000000E+00 0. -1.
        -11    1    3    3    0    0 -0.21474301367E+02  0.24521926387E+02 -0.43732873054E+02  0.54543878470E+02  0.00000000000E+00 0. -1.
         11    1    3    3    0    0 -0.14498359742E+02 -0.71387723513E+02 -0.37099500895E+02  0.81748287261E+02  0.00000000000E+00 0.  1.
         21    1    1    2  502  501  0.45085902644E+02  0.19012954451E+03 -0.13271841818E+03  0.23621210984E+03  0.00000000000E+00 0.  1.
<scales pt_clust_5="13000.00000" pt_clust_6="13000.00000" pt_clust_7="13000.00000" pt_clust_8="13000.00000" pt_clust_9="154.41002"></scales>
<clustering>
<clus scale="   90.616">  5  6 -1 -1</clus>
<clus scale="   92.473">  7  8 -1 -1</clus>
<clus scale="  109.735">  2  7  1 -1</clus>
<clus scale="  154.410">  2  9  1 -1</clus>
<clus scale="  179.035">  1  5  2 -1</clus>
</clustering>
</event>
<event>
 9    1  0.6202448E-006  0.1942072E+03  0.7546771E-02  0.1178070E+00
         -2   -1    0    0    0  501 -0.00000000000E+00  0.00000000000E+00  0.92845635402E+02  0.92845635402E+02  0.00000000000E+00 0.  1.
          2   -1    0    0  502    0  0.00000000000E+00 -0.00000000000E+00 -0.86048063669E+03  0.86048063669E+03  0.00000000000E+00 0. -1.
         23    2    1    2    0    0  0.33062577352E+02  0.59162659492E+02 -0.33597273787E+02  0.11832553331E+03  0.90987915290E+02 0.  0.
         23    2    1    2    0    0 -0.19377427665E+03 -0.39959920579E+01 -0.28490536853E+03  0.35480131420E+03  0.84548597265E+02 0.  0.
        -11    1    4    4    0    0 -0.87376507416E+02 -0.79219852863E+01 -0.60958225684E+02  0.10683312772E+03  0.00000000000E+00 0.  1.
         11    1    4    4    0    0 -0.10639776923E+03  0.39259932284E+01 -0.22394714285E+03  0.24796818649E+03  0.00000000000E+00 0. -1.
        -13    1    3    3    0    0  0.49083131045E+02 -0.29392858003E+01 -0.11577572540E+02  0.50515674203E+02  0.00000000000E+00 0.  1.
         13    1    3    3    0    0 -0.16020553694E+02  0.62101945292E+02 -0.22019701246E+02  0.67809859111E+02  0.00000000000E+00 0. -1.
         21    1    1    2  502  501  0.16071169930E+03 -0.55166667434E+02 -0.44913235897E+03  0.48019942458E+03  0.00000000000E+00 0. -1.
<scales pt_clust_5="13000.00000" pt_clust_6="13000.00000" pt_clust_7="13000.00000" pt_clust_8="13000.00000" pt_clust_9="174.83697"></scales>
<clustering>
<clus scale="   84.549">  5  6 -1 -1</clus>
<clus scale="   90.988">  7  8 -1 -1</clus>
<clus scale="  113.456">  1  7  2 -1</clus>
<clus scale="  174.837">  2  9  1 -1</clus>
<clus scale="  174.837">  2  5  1 -1</clus>
</clustering>
</event>
<event>
 9    1  0.6202448E-006  0.9306995E+02  0.7546771E-02  0.1298026E+00
          1   -1    0    0  502    0  0.00000000000E+00  0.00000000000E+00  0.50614015688E+03  0.50614015688E+03  0.00000000000E+00 0. -1.
         -1   -1    0    0    0  501 -0.00000000000E+00 -0.00000000000E+00 -0.23169637031E+02  0.23169637031E+02  0.00000000000E+00 0.  1.
         23    2    1    2    0    0  0.23162999837E+02 -0.81354017611E+01  0.20741449064E+03  0.22616815084E+03  0.86767230018E+02 0.  0.
         23    2    1    2    0    0 -0.48922593072E+01  0.19683386142E+02  0.26083121554E+03  0.27698832511E+03  0.90984830352E+02 0.  0.
        -11    1    4    4    0    0 -0.25844357177E+02 -0.21880360754E+02  0.45695666644E+02  0.56875081844E+02  0.00000000000E+00 0. -1.
         11    1    4    4    0    0  0.20952097870E+02  0.41563746896E+02  0.21513554890E+03  0.22011324326E+03  0.00000000000E+00 0.  1.
        -13    1    3    3    0    0  0.21008876044E+01 -0.33462949228E+02  0.18062072639E+03  0.18370636761E+03  0.00000000000E+00 0. -1.
         13    1    3    3    0    0  0.21062112233E+02  0.25327547467E+02  0.26793764249E+02  0.42461783229E+02  0.00000000000E+00 0.  1.
         21    1    1    2  502  501 -0.18270740530E+02 -0.11547984381E+02  0.14724813667E+02  0.26153317960E+02  0.00000000000E+00 0.  1.
<scales pt_clust_5="13000.00000" pt_clust_6="13000.00000" pt_clust_7="13000.00000" pt_clust_8="13000.00000" pt_clust_9="21.61425"></scales>
<clustering>
<clus scale="   21.614">  2  9  1 -1</clus>
<clus scale="   86.767">  7  8 -1 -1</clus>
<clus scale="   88.951">  2  7  1 -1</clus>
<clus scale="   90.985">  5  6 -1 -1</clus>
<clus scale="   93.070">  1  5  2 -1</clus>
</clustering>
</event>
<event>
 9    1  0.6202448E-006  0.2612165E+03  0.7546771E-02  0.1135761E+00
          2   -1    0    0  502    0  0.00000000000E+00  0.00000000000E+00  0.13960370622E+04  0.13960370622E+04  0.00000000000E+00 0. -1.
         -2   -1    0    0    0  501 -0.00000000000E+00 -0.00000000000E+00 -0.18652414490E+03  0.18652414490E+03  0.00000000000E+00 0.  1.
         23    2    1    2    0    0 -0.62012331907E+02 -0.50932453648E+02 -0.75518135393E+02  0.14651686569E+03  0.96563756220E+02 0.  0.
         23    2    1    2    0    0 -0.41591341059E+02 -0.18557070320E+03  0.11955186299E+03  0.24230684687E+03  0.90849516014E+02 0.  0.
        -11    1    3    3    0    0  0.23447624111E+02 -0.34017565141E+01 -0.31142525185E+02  0.39130804985E+02  0.00000000000E+00 0. -1.
         11    1    3    3    0    0 -0.85459956018E+02 -0.47530697134E+02 -0.44375610208E+02  0.10738606071E+03  0.00000000000E+00 0.  1.
        -13    1    4    4    0    0 -0.69895300423E+01 -0.15672067766E+03  0.60744520178E+02  0.16822639825E+03  0.00000000000E+00 0.  1.
         13    1    4    4    0    0 -0.34601811017E+02 -0.28850025536E+02  0.58807342813E+02  0.74080448621E+02  0.00000000000E+00 0. -1.
         21    1    1    2  502  501  0.10360367297E+03  0.23650315685E+03  0.11654791897E+04  0.11937374945E+04  0.00000000000E+00 0. -1.
<scales pt_clust_5="13000.00000" pt_clust_6="13000.00000" pt_clust_7="13000.00000" pt_clust_8="13000.00000" pt_clust_9="244.90901"></scales>
<clustering>
<clus scale="   90.850">  7  8 -1 -1</clus>
<clus scale="   96.564">  5  6 -1 -1</clus>
<clus scale="  125.556">  2  5  1 -1</clus>
<clus scale="  244.909">  1  9  2 -1</clus>
<clus scale="  244.909">  1  5  2 -1</clus>
</clustering>
</event>
<event>
 9    1  0.6202448E-006  0.9651144E+02  0.7546771E-02  0.1287808E+00
         -1   -1    0    0    0  501 -0.00000000000E+00  0.00000000000E+00  0.24470701993E+03  0.24470701993E+03  0.00000000000E+00 0.  1.
          1   -1    0    0  502    0  0.00000000000E+00 -0.00000000000E+00 -0.92835736759E+02  0.92835736759E+02  0.00000000000E+00 0. -1.
         23    2    1    2    0    0  0.23889638937E+02  0.51623185656E+01  0.17522716625E+02  0.97296677287E+02  0.92532337221E+02 0.  0.
         23    2    1    2    0    0 -0.28020105554E+02  0.19140769317E+02 -0.50477146619E+01  0.98686819551E+02  0.92531689515E+02 0.  0.
        -11    1    3    3    0    0 -0.11317366647E+02 -0.28420631506E+02  0.34178690191E+02  0.45869357377E+02  0.00000000000E+00 0.  1.
         11    1    3    3    0    0  0.35207005584E+02  0.33582950071E+02 -0.16655973566E+02  0.51427319910E+02  0.00000000000E+00 0. -1.
        -11    1    4    4    0    0  0.87240581643E+01  0.20170084975E+02 -0.41474177565E+02  0.46936647979E+02  0.00000000000E+00 0. -1.
         11    1    4    4    0    0 -0.36744163718E+02 -0.10293156583E+01  0.36426462904E+02  0.51750171572E+02  0.00000000000E+00 0.  1.
         21    1    1    2  502  501  0.41304666166E+01 -0.24303087882E+02  0.13939628120E+03  0.14155925985E+03  0.00000000000E+00 0.  1.
<scales pt_clust_5="13000.00000" pt_clust_6="13000.00000" pt_clust_7="13000.00000" pt_clust_8="13000.00000" pt_clust_9="24.65159"></scales>
<clustering>
<clus scale="   24.652">  1  9  2 -1</clus>
<clus scale="   92.532">  7  8 -1 -1</clus>
<clus scale="   92.532">  5  6 -1 -1</clus>
<clus scale="   96.511">  2  7  1 -1</clus>
<clus scale="   96.511">  2  5  1 -1</clus>
</clustering>
</event>
<event>
 9    1  0.6202448E-006  0.3130187E+03  0.7546771E-02  0.1125400E+00
          3   -1    0    0  502    0  0.00000000000E+00  0.00000000000E+00  0.66369640019E+03  0.66369640019E+03  0.00000000000E+00 0. -1.
         -3   -1    0    0    0  501 -0.00000000000E+00 -0.00000000000E+00 -0.21852912339E+03  0.21852912339E+03  0.00000000000E+00 0.  1.
         23    2    1    2    0    0 -0.28241247808E+03  0.73966106243E+02  0.45089080092E+02  0.30939592211E+03  0.92005536907E+02 0.  0.
         23    2    1    2    0    0 -0.21561565799E+02  0.88167596668E+01  0.77058910031E+02  0.12161492772E+03  0.91156341839E+02 0.  0.
        -11    1    3    3    0    0 -0.24192577177E+03  0.52008193877E+02  0.69825474060E+02  0.25711578735E+03  0.00000000000E+00 0.  1.
         11    1    3    3    0    0 -0.40486706319E+02  0.21957912366E+02 -0.24736393968E+02  0.52280134760E+02  0.00000000000E+00 0. -1.
        -13    1    4    4    0    0  0.20121444925E+02  0.36603099917E+02  0.48283255817E+02  0.63843028293E+02  0.00000000000E+00 0.  1.
         13    1    4    4    0    0 -0.41683010724E+02 -0.27786340250E+02  0.28775654214E+02  0.57771899423E+02  0.00000000000E+00 0. -1.
         21    1    1    2  502  501  0.30397404388E+03 -0.82782865910E+02  0.32301928668E+03  0.45121467375E+03  0.00000000000E+00 0. -1.
<scales pt_clust_5="13000.00000" pt_clust_6="13000.00000" pt_clust_7="13000.00000" pt_clust_8="13000.00000" pt_clust_9="299.19177"></scales>
<clustering>
<clus scale="   91.156">  7  8 -1 -1</clus>
<clus scale="   92.006">  5  6 -1 -1</clus>
<clus scale="   94.086">  1  7  2 -1</clus>
<clus scale="  299.192">  1  9  2 -1</clus>
<clus scale="   94.086">  1  5  2 -1</clus>
</clustering>
</event>
<event>
 9    1  0.6202448E-006  0.1221564E+03  0.7546771E-02  0.1239960E+00
          1   -1    0    0  502    0  0.00000000000E+00  0.00000000000E+00  0.31702473234E+03  0.31702473234E+03  0.00000000000E+00 0. -1.
         -1   -1    0    0    0  501 -0.00000000000E+00 -0.00000000000E+00 -0.18776256268E+03  0.18776256268E+03  0.00000000000E+00 0.  1.
         23    2    1    2    0    0  0.69248596688E+02  0.47812070537E+02  0.11507917969E+03  0.17001808436E+03  0.92636759326E+02 0.  0.
         23    2    1    2    0    0 -0.88897211937E+02  0.30834986322E+02  0.13567198422E+03  0.18871783834E+03  0.91400353025E+02 0.  0.
        -11    1    4    4    0    0 -0.32561486936E+02 -0.17587879875E+02  0.99366277815E+02  0.10603415071E+03  0.00000000000E+00 0. -1.
         11    1    4    4    0    0 -0.56335725001E+02  0.48422866197E+02  0.36305706404E+02  0.82683687627E+02  0.00000000000E+00 0.  1.
        -13    1    3    3    0    0  0.65301483854E+02 -0.10652792357E+02  0.67692649045E+02  0.94657596173E+02  0.00000000000E+00 0. -1.
         13    1    3    3    0    0  0.39471128342E+01  0.58464862894E+02  0.47386530649E+02  0.75360488188E+02  0.00000000000E+00 0.  1.
         21    1    1    2  502  501  0.19648615249E+02 -0.78647056859E+02 -0.12148899425E+03  0.14605137232E+03  0.00000000000E+00 0. -1.
<scales pt_clust_5="13000.00000" pt_clust_6="13000.00000" pt_clust_7="13000.00000" pt_clust_8="13000.00000" pt_clust_9="81.06434"></scales>
<clustering>
<clus scale="   81.064">  2  9  1 -1</clus>
<clus scale="   91.400">  5  6 -1 -1</clus>
<clus scale="   92.637">  7  8 -1 -1</clus>
<clus scale="  121.221">  1  5  2 -1</clus>
<clus scale="  121.221">  1  5  2 -1</clus>
</clustering>
</event>
<event>
 9    1  0.6202448E-006  0.1069079E+03  0.7546771E-02  0.1267572E+00
         -1   -1    0    0    0  501 -0.00000000000E+00  0.00000000000E+00  0.12934994523E+03  0.12934994523E+03  0.00000000000E+00 0.  1.
          1   -1    0    0  502    0  0.00000000000E+00 -0.00000000000E+00 -0.37715086832E+03  0.37715086832E+03  0.00000000000E+00 0. -1.
         23    2    1    2    0    0  0.19691483548E+02  0.52004656516E+02  0.92297977942E+02  0.14222430008E+03  0.92825621345E+02 0.  0.
         23    2    1    2    0    0  0.57287259203E+01 -0.28200911075E+02 -0.26847816453E+03  0.28463773370E+03  0.90055565780E+02 0.  0.
        -11    1    3    3    0    0  0.16498139825E+02  0.72356290172E+02  0.95951114869E+02  0.12130225797E+03  0.00000000000E+00 0. -1.
         11    1    3    3    0    0  0.31933437227E+01 -0.20351633656E+02 -0.36531369262E+01  0.20922042109E+02  0.00000000000E+00 0.  1.
        -11    1    4    4    0    0  0.73812155743E+01  0.32647178169E+02 -0.86564398331E+02  0.92810105291E+02  0.00000000000E+00 0. -1.
         11    1    4    4    0    0 -0.16524896540E+01 -0.60848089244E+02 -0.18191376620E+03  0.19182762841E+03  0.00000000000E+00 0.  1.
         21    1    1    2  502  501 -0.25420209468E+02 -0.23803745441E+02 -0.71620736503E+02  0.79638779773E+02  0.00000000000E+00 0.  1.
<scales pt_clust_5="13000.00000" pt_clust_6="13000.00000" pt_clust_7="13000.00000" pt_clust_8="13000.00000" pt_clust_9="34.82535"></scales>
<clustering>
<clus scale="   34.825">  2  9  1 -1</clus>
<clus scale="   90.056">  7  8 -1 -1</clus>
<clus scale="   92.826">  5  6 -1 -1</clus>
<clus scale="  104.512">  2  7  1 -1</clus>
<clus scale="   34.825">  2  5  1 -1</clus>
</clustering>
</event>
<event>
 9    1  0.6202448E-006  0.1078215E+03  0.7546771E-02  0.1265643E+00
          1   -1    0    0  502    0  0.00000000000E+00  0.00000000000E+00  0.35002934695E+03  0.35002934695E+03  0.00000000000E+00 0. -1.
         -1   -1    0    0    0  501 -0.00000000000E+00 -0.00000000000E+00 -0.88586612798E+02  0.88586612798E+02  0.00000000000E+00 0.  1.
         23    2    1    2    0    0  0.42520077640E+02  0.39625711041E+02  0.55089576744E+02  0.12258257856E+03  0.92808798730E+02 0.  0.
         23    2    1    2    0    0  0.54205385195E+02 -0.73985817093E+02  0.73994560885E+02  0.14853642563E+03  0.90419852820E+02 0.  0.
        -11    1    4    4    0    0  0.54615743475E+02  0.15228999531E+00  0.33190766385E+02  0.63910324681E+02  0.00000000000E+00 0.  1.
         11    1    4    4    0    0 -0.41035828028E+00 -0.74138107089E+02  0.40803794500E+02  0.84626100951E+02  0.00000000000E+00 0. -1.
        -11    1    3    3    0    0  0.43542296364E+02  0.62537817116E+02  0.62420041781E+02  0.98504678864E+02  0.00000000000E+00 0.  1.
         11    1    3    3    0    0 -0.10222187245E+01 -0.22912106075E+02 -0.73304650367E+01  0.24077899692E+02  0.00000000000E+00 0. -1.
         21    1    1    2  502  501 -0.96725462835E+02  0.34360106053E+02  0.13235859653E+03  0.16749695556E+03  0.00000000000E+00 0. -1.
<scales pt_clust_5="13000.00000" pt_clust_6="13000.00000" pt_clust_7="13000.00000" pt_clust_8="13000.00000" pt_clust_9="102.64712"></scales>
<clustering>
<clus scale="   90.420">  5  6 -1 -1</clus>
<clus scale="   92.809">  7  8 -1 -1</clus>
<clus scale="  102.647">  1  9  2 -1</clus>
<clus scale="  105.772">  1  5  2 -1</clus>
<clus scale="  102.647">  1  5  2 -1</clus>
</clustering>
</event>
<event>
 9    1  0.6202448E-006  0.9579024E+02  0.7546771E-02  0.1290698E+00
          3   -1    0    0  502    0  0.00000000000E+00  0.00000000000E+00  0.18706962946E+03  0.18706962946E+03  0.00000000000E+00 0. -1.
         -3   -1    0    0    0  501 -0.00000000000E+00 -0.00000000000E+00 -0.13792275738E+03  0.13792275738E+03  0.00000000000E+00 0.  1.
         23    2    1    2    0    0 -0.29737441425E+02 -0.57478534119E+02 -0.35590837331E+02  0.11491451551E+03  0.88037156169E+02 0.  0.
         23    2    1    2    0    0 -0.30696879983E+02  0.17434839130E+02  0.96187127731E+02  0.13668240898E+03  0.90464608144E+02 0.  0.
        -11    1    4    4    0    0  0.19051642583E+02  0.36290267214E+02  0.25725970439E+02  0.48391880875E+02  0.00000000000E+00 0. -1.
         11    1    4    4    0    0 -0.49748522566E+02 -0.18855428084E+02  0.70461157292E+02  0.88290528103E+02  0.00000000000E+00 0.  1.
        -13    1    3    3    0    0 -0.15934215741E+02 -0.79938373195E+02 -0.34551672804E+02  0.88531693951E+02  0.00000000000E+00 0.  1.
         13    1    3    3    0    0 -0.13803225684E+02  0.22459839075E+02 -0.10391645277E+01  0.26382821561E+02  0.00000000000E+00 0. -1.
         21    1    1    2  502  501  0.60434321409E+02  0.40043694990E+02 -0.11449418320E+02  0.73395462342E+02  0.00000000000E+00 0. -1.
<scales pt_clust_5="13000.00000" pt_clust_6="13000.00000" pt_clust_7="13000.00000" pt_clust_8="13000.00000" pt_clust_9="72.49693"></scales>
<clustering>
<clus scale="   72.497">  2  9  1 -1</clus>
<clus scale="   88.037">  7  8 -1 -1</clus>
<clus scale="   90.465">  5  6 -1 -1</clus>
<clus scale="   93.501">  2  7  1 -1</clus>
<clus scale="   95.790">  1  5  2 -1</clus>
</clustering>
</event>
<event>
 9    1  0.6202448E-006  0.1078825E+03  0.7546771E-02  0.1265937E+00
          2   -1    0    0  502    0  0.00000000000E+00  0.00000000000E+00  0.33132697783E+03  0.33132697783E+03  0.00000000000E+00 0. -1.
         -2   -1    0    0    0  501 -0.00000000000E+00 -0.00000000000E+00 -0.33692921384E+03  0.33692921384E+03  0.00000000000E+00 0.  1.
         23    2    1    2    0    0  0.14402204887E+01 -0.22442578384E+02 -0.10074548181E+03  0.13879966301E+03  0.92789820486E+02 0.  0.
         23    2    1    2    0    0  0.62376525104E+02  0.71775457919E+02 -0.19145999693E+03  0.23171884417E+03  0.89409983072E+02 0.  0.
        -11    1    4    4    0    0  0.47685719470E+02  0.90527235579E+02 -0.12757666547E+03  0.16353872262E+03  0.00000000000E+00 0.  1.
         11    1    4    4    0    0  0.14690805633E+02 -0.18751777660E+02 -0.63883331465E+02  0.68180121551E+02  0.00000000000E+00 0. -1.
        -13    1    3    3    0    0 -0.19471881409E+02 -0.21058327050E+02  0.65972736797E+01  0.29430109136E+02  0.00000000000E+00 0. -1.
         13    1    3    3    0    0  0.20912101898E+02 -0.13842513343E+01 -0.10734275549E+03  0.10936955387E+03  0.00000000000E+00 0.  1.
         21    1    1    2  502  501 -0.63816745592E+02 -0.49332879535E+02  0.28660324274E+03  0.29773768449E+03  0.00000000000E+00 0. -1.
<scales pt_clust_5="13000.00000" pt_clust_6="13000.00000" pt_clust_7="13000.00000" pt_clust_8="13000.00000" pt_clust_9="80.66170"></scales>
<clustering>
<clus scale="   80.662">  1  9  2 -1</clus>
<clus scale="   89.410">  5  6 -1 -1</clus>
<clus scale="   92.790">  7  8 -1 -1</clus>
<clus scale="  104.990">  1  5  2 -1</clus>
<clus scale="   80.662">  1  5  2 -1</clus>
</clustering>
</event>
<event>
 9    1  0.6202448E-006  0.9678862E+02  0.7546771E-02  0.1289229E+00
          2   -1    0    0  502    0  0.00000000000E+00  0.00000000000E+00  0.10168614300E+04  0.10168614300E+04  0.00000000000E+00 0. -1.
         -2   -1    0    0    0  501 -0.00000000000E+00 -0.00000000000E+00 -0.30248847418E+02  0.30248847418E+02  0.00000000000E+00 0.  1.
         23    2    1    2    0    0  0.28932335740E+02  0.11973231455E+02  0.91009301170E+02  0.12945535121E+03  0.86576883377E+02 0.  0.
         23    2    1    2    0    0 -0.60156913022E+02  0.57504095486E+02  0.51041183782E+03  0.52500429090E+03  0.90463728094E+02 0.  0.
        -13    1    3    3    0    0  0.17102441532E+01 -0.31330146958E+02  0.64767249641E+02  0.71967351414E+02  0.00000000000E+00 0.  1.
         13    1    3    3    0    0  0.27222091587E+02  0.43303378413E+02  0.26242051529E+02  0.57487999798E+02  0.00000000000E+00 0. -1.
        -13    1    4    4    0    0 -0.26300747217E+02 -0.21632448203E+02  0.99260063601E+02  0.10493927933E+03  0.00000000000E+00 0. -1.
         13    1    4    4    0    0 -0.33856165805E+02  0.79136543689E+02  0.41115177421E+03  0.42006501158E+03  0.00000000000E+00 0.  1.
         21    1    1    2  502  501  0.31224577282E+02 -0.69477326941E+02  0.38519144363E+03  0.39265063534E+03  0.00000000000E+00 0. -1.
<scales pt_clust_5="13000.00000" pt_clust_6="13000.00000" pt_clust_7="13000.00000" pt_clust_8="13000.00000" pt_clust_9="76.17134"></scales>
<clustering>
<clus scale="   76.171">  1  9  2 -1</clus>
<clus scale="   86.577">  5  6 -1 -1</clus>
<clus scale="   90.464">  7  8 -1 -1</clus>
<clus scale="   93.166">  2  5  1 -1</clus>
<clus scale="   76.171">  1  5  2 -1</clus>
</clustering>
</event>
<event>
 9    1  0.6202448E-006  0.2087079E+03  0.7546771E-02  0.1169798E+00
          1   -1    0    0  502    0  0.00000000000E+00  0.00000000000E+00  0.36636584006E+03  0.36636584006E+03  0.00000000000E+00 0. -1.
         -1   -1    0    0    0  501 -0.00000000000E+00 -0.00000000000E+00 -0.20665683883E+03  0.20665683883E+03  0.00000000000E+00 0.  1.
         23    2    1    2    0    0 -0.15267739419E+02  0.55560293461E+02 -0.47138348221E+02  0.11995962068E+03  0.94065066008E+02 0.  0.
         23    2    1    2    0    0  0.36537031486E+02  0.15982832413E+03  0.79595743551E+02  0.20199013937E+03  0.87088955380E+02 0.  0.
        -11    1    4    4    0    0 -0.90670477758E+01  0.11694626353E+03  0.27326056013E+02  0.12043817188E+03  0.00000000000E+00 0.  1.
         11    1    4    4    0    0  0.45604079262E+02  0.42882060599E+02  0.52269687537E+02  0.81551967492E+02  0.00000000000E+00 0. -1.
        -13    1    3    3    0    0 -0.31509679604E+02 -0.17103995005E+02 -0.15283700211E+02  0.38974325472E+02  0.00000000000E+00 0.  1.
         13    1    3    3    0    0  0.16241940185E+02  0.72664288466E+02 -0.31854648010E+02  0.80985295203E+02  0.00000000000E+00 0. -1.
         21    1    1    2  502  501 -0.21269292067E+02 -0.21538861759E+03  0.12725160590E+03  0.25107291884E+03  0.00000000000E+00 0.  1.
<scales pt_clust_5="13000.00000" pt_clust_6="13000.00000" pt_clust_7="13000.00000" pt_clust_8="13000.00000" pt_clust_9="189.66947"></scales>
<clustering>
<clus scale="   87.089">  5  6 -1 -1</clus>
<clus scale="   94.065">  7  8 -1 -1</clus>
<clus scale="  110.310">  2  7  1 -1</clus>
<clus scale="  189.669">  2  9  1 -1</clus>
<clus scale="  208.708">  1  5  2 -1</clus>
</clustering>
</event>
<event>
 9    1  0.6202448E-006  0.1211833E+03  0.7546771E-02  0.1249474E+00
         -1   -1    0    0    0  501 -0.00000000000E+00  0.00000000000E+00  0.11699610101E+03  0.11699610101E+03  0.00000000000E+00 0.  1.
          1   -1    0    0  502    0  0.00000000000E+00 -0.00000000000E+00 -0.41254042500E+03  0.41254042500E+03  0.00000000000E+00 0. -1.
         23    2    1    2    0    0  0.25375475863E+02  0.26053252329E+02  0.47539392276E+02  0.11298869350E+03  0.95831958704E+02 0.  0.
         23    2    1    2    0    0  0.44761684579E+02  0.52218799240E+02 -0.25593626535E+03  0.28001793274E+03  0.90422670460E+02 0.  0.
        -11    1    3    3    0    0 -0.35761137356E+02  0.19458991836E+02  0.14755295608E+02  0.43303926575E+02  0.00000000000E+00 0.  1.
         11    1    3    3    0    0  0.61136613219E+02  0.65942604930E+01  0.32784096668E+02  0.69684766927E+02  0.00000000000E+00 0. -1.
        -11    1    4    4    0    0 -0.23742613312E+02  0.31027114288E+02 -0.62367880966E+02  0.73594470473E+02  0.00000000000E+00 0.  1.
         11    1    4    4    0    0  0.68504297892E+02  0.21191684952E+02 -0.19356838438E+03  0.20642346226E+03  0.00000000000E+00 0. -1.
         21    1    1    2  502  501 -0.70137160442E+02 -0.78272051569E+02 -0.87147450916E+02  0.13652989978E+03  0.00000000000E+00 0. -1.
<scales pt_clust_5="13000.00000" pt_clust_6="13000.00000" pt_clust_7="13000.00000" pt_clust_8="13000.00000" pt_clust_9="80.67921"></scales>
<clustering>
<clus scale="   90.423">  7  8 -1 -1</clus>
<clus scale="   95.832">  5  6 -1 -1</clus>
<clus scale="  102.501">  1  5  2 -1</clus>
<clus scale="   80.679">  1  9  2 -1</clus>
<clus scale="  121.183">  2  5  1 -1</clus>
</clustering>
</event>
<event>
 9    1  0.6202448E-006  0.1440764E+03  0.7546771E-02  0.1227742E+00
          2   -1    0    0  502    0  0.00000000000E+00  0.00000000000E+00  0.97042531786E+03  0.97042531786E+03  0.00000000000E+00 0.  1.
         -2   -1    0    0    0  501 -0.00000000000E+00 -0.00000000000E+00 -0.37669444775E+02  0.37669444775E+02  0.00000000000E+00 0. -1.
         23    2    1    2    0    0  0.19848114683E+02  0.11660345237E+03  0.21694807802E+03  0.26352290078E+03  0.91583502432E+02 0.  0.
         23    2    1    2    0    0 -0.17664823849E+02 -0.13210925996E+02  0.43724768675E+03  0.44743466255E+03  0.92334517436E+02 0.  0.
        -11    1    3    3    0    0  0.20529249286E+02 -0.68101407845E+01  0.60536224936E+02  0.64284233084E+02  0.00000000000E+00 0.  1.
         11    1    3    3    0    0 -0.68113460284E+00  0.12341359316E+03  0.15641185308E+03  0.19923866770E+03  0.00000000000E+00 0. -1.
        -13    1    4    4    0    0  0.46064258926E+01  0.38393115154E+02  0.18604615339E+03  0.19002216093E+03  0.00000000000E+00 0. -1.
         13    1    4    4    0    0 -0.22271249741E+02 -0.51604041151E+02  0.25120153336E+03  0.25741250162E+03  0.00000000000E+00 0.  1.
         21    1    1    2  502  501 -0.21832908345E+01 -0.10339252638E+03  0.27856010831E+03  0.29713719931E+03  0.00000000000E+00 0.  1.
<scales pt_clust_5="13000.00000" pt_clust_6="13000.00000" pt_clust_7="13000.00000" pt_clust_8="13000.00000" pt_clust_9="111.22256"></scales>
<clustering>
<clus scale="   91.584">  5  6 -1 -1</clus>
<clus scale="   92.335">  7  8 -1 -1</clus>
<clus scale="   94.933">  1  7  2 -1</clus>
<clus scale="  111.223">  1  9  2 -1</clus>
<clus scale="   94.933">  1  5  2 -1</clus>
</clustering>
</event>
<event>
 9    1  0.6202448E-006  0.1752908E+03  0.7546771E-02  0.1172629E+00
          1   -1    0    0  502    0  0.00000000000E+00  0.00000000000E+00  0.32969167621E+03  0.32969167621E+03  0.00000000000E+00 0. -1.
         -1   -1    0    0    0  501 -0.00000000000E+00 -0.00000000000E+00 -0.13679490451E+03  0.13679490451E+03  0.00000000000E+00 0.  1.
         23    2    1    2    0    0 -0.46769275480E+02 -0.15368098826E+03  0.53651901338E+02  0.19238925949E+03  0.91268227595E+02 0.  0.
         23    2    1    2    0    0  0.20305260792E+02  0.14172552409E+03  0.16349314489E+03  0.23626537687E+03  0.92697853716E+02 0.  0.
        -11    1    3    3    0    0 -0.60398216308E+02 -0.85039562616E+02  0.62893818531E+02  0.12180026335E+03  0.00000000000E+00 0. -1.
         11    1    3    3    0    0  0.13628940828E+02 -0.68641425640E+02 -0.92419171929E+01  0.70588996135E+02  0.00000000000E+00 0.  1.
        -13    1    4    4    0    0  0.54393562568E+02  0.98954579664E+02  0.88609887233E+02  0.14353529392E+03  0.00000000000E+00 0. -1.
         13    1    4    4    0    0 -0.34088301776E+02  0.42770944427E+02  0.74883257661E+02  0.92730082946E+02  0.00000000000E+00 0.  1.
         21    1    1    2  502  501  0.26464014688E+02  0.11955464165E+02 -0.24248274536E+02  0.37831944369E+02  0.00000000000E+00 0.  1.
<scales pt_clust_5="13000.00000" pt_clust_6="13000.00000" pt_clust_7="13000.00000" pt_clust_8="13000.00000" pt_clust_9="29.03924"></scales>
<clustering>
<clus scale="   29.039">  2  9  1 -1</clus>
<clus scale="   91.268">  5  6 -1 -1</clus>
<clus scale="   92.698">  7  8 -1 -1</clus>
<clus scale="  174.539">  2  5  1 -1</clus>
<clus scale="  175.291">  1  5  2 -1</clus>
</clustering>
</event>
<event>
 9    1  0.6202448E-006  0.1915119E+03  0.7546771E-02  0.1186441E+00
         -2   -1    0    0    0  501 -0.00000000000E+00  0.00000000000E+00  0.76459951150E+02  0.76459951150E+02  0.00000000000E+00 0.  1.
          2   -1    0    0  502    0  0.00000000000E+00 -0.00000000000E+00 -0.88068875403E+03  0.88068875403E+03  0.00000000000E+00 0. -1.
         23    2    1    2    0    0 -0.17537619328E+03  0.42213061592E+02 -0.53871077238E+03  0.57545642569E+03  0.91662696072E+02 0.  0.
         23    2    1    2    0    0  0.24698658217E+02  0.26014404122E+02 -0.15264567492E+03  0.18144524380E+03  0.91295681635E+02 0.  0.
        -11    1    4    4    0    0 -0.97264722523E+01  0.40755797329E+02 -0.13240505316E+03  0.13887669848E+03  0.00000000000E+00 0. -1.
         11    1    4    4    0    0  0.34425130469E+02 -0.14741393207E+02 -0.20240621769E+02  0.42568545325E+02  0.00000000000E+00 0.  1.
        -11    1    3    3    0    0 -0.78296199077E+02 -0.19920915749E+02 -0.29501688890E+03  0.30587922847E+03  0.00000000000E+00 0.  1.
         11    1    3    3    0    0 -0.97079994200E+02  0.62133977341E+02 -0.24369388348E+03  0.26957719722E+03  0.00000000000E+00 0. -1.
         21    1    1    2  502  501  0.15067753506E+03 -0.68227465715E+02 -0.11287235557E+03  0.20024703569E+03  0.00000000000E+00 0.  1.
<scales pt_clust_5="13000.00000" pt_clust_6="13000.00000" pt_clust_7="13000.00000" pt_clust_8="13000.00000" pt_clust_9="168.15096"></scales>
<clustering>
<clus scale="   91.296">  5  6 -1 -1</clus>
<clus scale="   91.663">  7  8 -1 -1</clus>
<clus scale="   98.090">  2  5  1 -1</clus>
<clus scale="  168.151">  1  9  2 -1</clus>
<clus scale="   98.090">  2  5  1 -1</clus>
</clustering>
</event>
<event>
 9    1  0.6202448E-006  0.9800533E+02  0.7546771E-02  0.1284762E+00
          2   -1    0    0  502    0  0.00000000000E+00  0.00000000000E+00  0.23796186078E+03  0.23796186078E+03  0.00000000000E+00 0. -1.
         -2   -1    0    0    0  501 -0.00000000000E+00 -0.00000000000E+00 -0.82557695818E+02  0.82557695818E+02  0.00000000000E+00 0.  1.
         23    2    1    2    0    0  0.88560917286E+00  0.64068073429E+00  0.98451963748E+01  0.91119848869E+02  0.90579822206E+02 0.  0.
         23    2    1    2    0    0 -0.33393135951E+02  0.39257946928E+02  0.14391936405E+03  0.17790865909E+03  0.91007800249E+02 0.  0.
        -11    1    3    3    0    0 -0.43678017584E+02 -0.63276856810E+00 -0.53738594202E+01  0.44011907266E+02  0.00000000000E+00 0. -1.
         11    1    3    3    0    0  0.44563626756E+02  0.12734493024E+01  0.15219055795E+02  0.47107941603E+02  0.00000000000E+00 0.  1.
        -13    1    4    4    0    0 -0.23856066789E+02  0.67985733928E+02  0.11697631393E+03  0.13738496992E+03  0.00000000000E+00 0. -1.
         13    1    4    4    0    0 -0.95370691615E+01 -0.28727787000E+02  0.26943050120E+02  0.40523689169E+02  0.00000000000E+00 0.  1.
         21    1    1    2  502  501  0.32507526778E+02 -0.39898627663E+02  0.16396045384E+01  0.51491048636E+02  0.00000000000E+00 0.  1.
<scales pt_clust_5="13000.00000" pt_clust_6="13000.00000" pt_clust_7="13000.00000" pt_clust_8="13000.00000" pt_clust_9="51.46494"></scales>
<clustering>
<clus scale="   51.465">  2  9  1 -1</clus>
<clus scale="   90.580">  5  6 -1 -1</clus>
<clus scale="   91.008">  7  8 -1 -1</clus>
<clus scale="   97.608">  2  5  1 -1</clus>
<clus scale="   98.005">  1  5  2 -1</clus>
</clustering>
</event>
<event>
 9    1  0.6202448E-006  0.1566534E+03  0.7546771E-02  0.1208261E+00
          2   -1    0    0  502    0  0.00000000000E+00  0.00000000000E+00  0.38474142563E+03  0.38474142563E+03  0.00000000000E+00 0. -1.
         -2   -1    0    0    0  501 -0.00000000000E+00 -0.00000000000E+00 -0.44376107209E+03  0.44376107209E+03  0.00000000000E+00 0.  1.
         23    2    1    2    0    0 -0.58952725275E+02 -0.26598047419E+02 -0.36137276142E+02  0.11705279066E+03  0.90623248291E+02 0.  0.
         23    2    1    2    0    0 -0.37575078115E+02 -0.11775482449E+03  0.30406984836E+03  0.34124284358E+03  0.93328025942E+02 0.  0.
        -11    1    3    3    0    0 -0.56893625354E+01  0.21930672085E+02 -0.38819174526E+02  0.44947208312E+02  0.00000000000E+00 0.  1.
         11    1    3    3    0    0 -0.53263362740E+02 -0.48528719504E+02  0.26818983842E+01  0.72105582350E+02  0.00000000000E+00 0. -1.
        -13    1    4    4    0    0 -0.51955843381E+02 -0.20216132271E+02  0.12377746558E+03  0.13575331543E+03  0.00000000000E+00 0.  1.
         13    1    4    4    0    0  0.14380765266E+02 -0.97538692222E+02  0.18029238279E+03  0.20548952815E+03  0.00000000000E+00 0. -1.
         21    1    1    2  502  501  0.96527803391E+02  0.14435287191E+03 -0.32695221868E+03  0.37020686347E+03  0.00000000000E+00 0.  1.
<scales pt_clust_5="13000.00000" pt_clust_6="13000.00000" pt_clust_7="13000.00000" pt_clust_8="13000.00000" pt_clust_9="125.81801"></scales>
<clustering>
<clus scale="   90.623">  5  6 -1 -1</clus>
<clus scale="   93.328">  7  8 -1 -1</clus>
<clus scale="  111.335">  2  5  1 -1</clus>
<clus scale="  125.818">  2  9  1 -1</clus>
<clus scale="  156.653">  1  5  2 -1</clus>
</clustering>
</event>
<event>
 9    1  0.6202448E-006  0.2079047E+03  0.7546771E-02  0.1143611E+00
         -1   -1    0    0    0  501 -0.00000000000E+00  0.00000000000E+00  0.12504278954E+03  0.12504278954E+03  0.00000000000E+00 0.  1.
          1   -1    0    0  502    0  0.00000000000E+00 -0.00000000000E+00 -0.79367463777E+03  0.79367463777E+03  0.00000000000E+00 0. -1.
         23    2    1    2    0    0 -0.10730524728E+03  0.27788803579E+02 -0.90650000984E+01  0.14423777983E+03  0.91846225862E+02 0.  0.
         23    2    1    2    0    0  0.15893339956E+03 -0.14565524401E+03 -0.57554315626E+03  0.62079833865E+03  0.87552138492E+02 0.  0.
        -11    1    3    3    0    0 -0.98904891681E+02  0.47915409430E+01  0.25150270871E+02  0.10216492837E+03  0.00000000000E+00 0.  1.
         11    1    3    3    0    0 -0.84003556018E+01  0.22997262636E+02 -0.34215270969E+02  0.42072851466E+02  0.00000000000E+00 0. -1.
        -13    1    4    4    0    0  0.11527382201E+03 -0.13430761214E+03 -0.36723581212E+03  0.40766252026E+03  0.00000000000E+00 0. -1.
         13    1    4    4    0    0  0.43659577542E+02 -0.11347631873E+02 -0.20830734414E+03  0.21313581839E+03  0.00000000000E+00 0.  1.
         21    1    1    2  502  501 -0.51628152274E+02  0.11786644043E+03 -0.84023691879E+02  0.15368130883E+03  0.00000000000E+00 0.  1.
<scales pt_clust_5="13000.00000" pt_clust_6="13000.00000" pt_clust_7="13000.00000" pt_clust_8="13000.00000" pt_clust_9="128.67775"></scales>
<clustering>
<clus scale="   87.552">  7  8 -1 -1</clus>
<clus scale="   91.846">  5  6 -1 -1</clus>
<clus scale="  128.678">  1  9  2 -1</clus>
<clus scale="  206.044">  2  7  1 -1</clus>
<clus scale="  206.044">  2  5  1 -1</clus>
</clustering>
</event>
<event>
 9    1  0.6202448E-006  0.1270762E+03  0.7546771E-02  0.1245893E+00
         -1   -1    0    0    0  501 -0.00000000000E+00  0.00000000000E+00  0.24369630244E+03  0.24369630244E+03  0.00000000000E+00 0.  1.
          1   -1    0    0  502    0  0.00000000000E+00 -0.00000000000E+00 -0.10333114826E+03  0.10333114826E+03  0.00000000000E+00 0. -1.
         23    2    1    2    0    0 -0.14097180077E+02  0.25794779358E+02  0.61594756446E+02  0.11364944606E+03  0.90874536806E+02 0.  0.
         23    2    1    2    0    0 -0.81063159210E+02 -0.67409278031E+01  0.35615479922E+02  0.12716648754E+03  0.91028442009E+02 0.  0.
        -13    1    3    3    0    0 -0.15142907135E+02 -0.25325131818E+02 -0.47511469169E+01  0.29887176768E+02  0.00000000000E+00 0.  1.
         13    1    3    3    0    0  0.10457270585E+01  0.51119911176E+02  0.66345903363E+02  0.83762269291E+02  0.00000000000E+00 0. -1.
        -13    1    4    4    0    0 -0.57559690389E+02  0.19887006864E+01 -0.24075572714E+02  0.62423602023E+02  0.00000000000E+00 0. -1.
         13    1    4    4    0    0 -0.23503468821E+02 -0.87296284895E+01  0.59691052637E+02  0.64742885517E+02  0.00000000000E+00 0.  1.
         21    1    1    2  502  501  0.95160339287E+02 -0.19053851555E+02  0.43154917815E+02  0.10621151710E+03  0.00000000000E+00 0.  1.
<scales pt_clust_5="13000.00000" pt_clust_6="13000.00000" pt_clust_7="13000.00000" pt_clust_8="13000.00000" pt_clust_9="88.66900"></scales>
<clustering>
<clus scale="   90.875">  5  6 -1 -1</clus>
<clus scale="   91.028">  7  8 -1 -1</clus>
<clus scale="   95.511">  1  5  2 -1</clus>
<clus scale="   88.669">  1  9  2 -1</clus>
<clus scale="  127.076">  2  5  1 -1</clus>
</clustering>
</event>
<event>
 9    1  0.6202448E-006  0.1141020E+03  0.7546771E-02  0.1255665E+00
         -2   -1    0    0    0  501 -0.00000000000E+00  0.00000000000E+00  0.18615907084E+03  0.18615907084E+03  0.00000000000E+00 0.  1.
          2   -1    0    0  502    0  0.00000000000E+00 -0.00000000000E+00 -0.14862984649E+03  0.14862984649E+03  0.00000000000E+00 0. -1.
         23    2    1    2    0    0  0.38303746628E+01 -0.70364323193E+02  0.99557857885E+02  0.14808255817E+03  0.83969442166E+02 0.  0.
         23    2    1    2    0    0 -0.57017512320E+02  0.55286863567E+02 -0.41148111943E+02  0.12761154058E+03  0.91015955627E+02 0.  0.
        -11    1    3    3    0    0 -0.33478179659E+02 -0.38787560317E+02  0.80909041044E+02  0.95768138080E+02  0.00000000000E+00 0.  1.
         11    1    3    3    0    0  0.37308554322E+02 -0.31576762876E+02  0.18648816841E+02  0.52314420086E+02  0.00000000000E+00 0. -1.
        -11    1    4    4    0    0 -0.27865906643E+02 -0.22924804408E+02 -0.20986779361E+02  0.41743266740E+02  0.00000000000E+00 0.  1.
         11    1    4    4    0    0 -0.29151605677E+02  0.78211667975E+02 -0.20161332581E+02  0.85868273841E+02  0.00000000000E+00 0. -1.
         21    1    1    2  502  501  0.53187137658E+02  0.15077459626E+02 -0.20880521596E+02  0.59094818581E+02  0.00000000000E+00 0. -1.
<scales pt_clust_5="13000.00000" pt_clust_6="13000.00000" pt_clust_7="13000.00000" pt_clust_8="13000.00000" pt_clust_9="55.28292"></scales>
<clustering>
<clus scale="   55.283">  2  9  1 -1</clus>
<clus scale="   83.969">  5  6 -1 -1</clus>
<clus scale="   91.016">  7  8 -1 -1</clus>
<clus scale="  108.564">  1  5  2 -1</clus>
<clus scale="   55.283">  2  5  1 -1</clus>
</clustering>
</event>
<event>
 9    1  0.6202448E-006  0.2340100E+03  0.7546771E-02  0.1156227E+00
          1   -1    0    0  502    0  0.00000000000E+00  0.00000000000E+00  0.62030959889E+03  0.62030959889E+03  0.00000000000E+00 0. -1.
         -1   -1    0    0    0  501 -0.00000000000E+00 -0.00000000000E+00 -0.14061009806E+03  0.14061009806E+03  0.00000000000E+00 0.  1.
         23    2    1    2    0    0 -0.17514096122E+02  0.54656754625E+02  0.12597509045E+02  0.10789155331E+03  0.90486383797E+02 0.  0.
         23    2    1    2    0    0 -0.81160448721E+02 -0.22797596131E+03  0.26952298756E+03  0.37229040818E+03  0.86008428795E+02 0.  0.
        -11    1    4    4    0    0 -0.47357247185E+02 -0.50516944894E+02  0.39185644049E+02  0.79562461512E+02  0.00000000000E+00 0. -1.
         11    1    4    4    0    0 -0.33803201536E+02 -0.17745901642E+03  0.23033734351E+03  0.29272794667E+03  0.00000000000E+00 0.  1.
        -13    1    3    3    0    0  0.30292741797E+02  0.50625570595E+02  0.10058603361E+02  0.59847924820E+02  0.00000000000E+00 0.  1.
         13    1    3    3    0    0 -0.47806837919E+02  0.40311840299E+01  0.25389056836E+01  0.48043628491E+02  0.00000000000E+00 0. -1.
         21    1    1    2  502  501  0.98674544844E+02  0.17331920668E+03  0.19757900422E+03  0.28073773547E+03  0.00000000000E+00 0. -1.
<scales pt_clust_5="13000.00000" pt_clust_6="13000.00000" pt_clust_7="13000.00000" pt_clust_8="13000.00000" pt_clust_9="217.63100"></scales>
<clustering>
<clus scale="   86.008">  5  6 -1 -1</clus>
<clus scale="   90.486">  7  8 -1 -1</clus>
<clus scale="  107.154">  2  7  1 -1</clus>
<clus scale="  217.631">  1  9  2 -1</clus>
<clus scale="  217.631">  1  5  2 -1</clus>
</clustering>
</event>
<event>
 9    1  0.6202448E-006  0.9083873E+02  0.7546771E-02  0.1302776E+00
          3   -1    0    0  502    0  0.00000000000E+00  0.00000000000E+00  0.29912577551E+03  0.29912577551E+03  0.00000000000E+00 0. -1.
         -3   -1    0    0    0  501 -0.00000000000E+00 -0.00000000000E+00 -0.64300316229E+02  0.64300316229E+02  0.00000000000E+00 0.  1.
         23    2    1    2    0    0 -0.11331587326E+02 -0.13062995319E+02 -0.57049235688E+01  0.91805340757E+02  0.89981263164E+02 0.  0.
         23    2    1    2    0    0 -0.20023586530E+02  0.53152953256E+00  0.19958671865E+03  0.21854940089E+03  0.86762640738E+02 0.  0.
        -11    1    4    4    0    0  0.18225897145E+02  0.33708694684E+02  0.90896792216E+02  0.98644240882E+02  0.00000000000E+00 0. -1.
         11    1    4    4    0    0 -0.38249483676E+02 -0.33177165151E+02  0.10868992643E+03  0.11990516001E+03  0.00000000000E+00 0.  1.
        -11    1    3    3    0    0  0.13173354555E+02 -0.44330955929E+02  0.12792815406E+02  0.47983612305E+02  0.00000000000E+00 0. -1.
         11    1    3    3    0    0 -0.24504941881E+02  0.31267960610E+02 -0.18497738975E+02  0.43821728452E+02  0.00000000000E+00 0.  1.
         21    1    1    2  502  501  0.31355173857E+02  0.12531465786E+02  0.40943664207E+02  0.53071350096E+02  0.00000000000E+00 0. -1.
<scales pt_clust_5="13000.00000" pt_clust_6="13000.00000" pt_clust_7="13000.00000" pt_clust_8="13000.00000" pt_clust_9="33.76662"></scales>
<clustering>
<clus scale="   33.767">  1  9  2 -1</clus>
<clus scale="   86.763">  5  6 -1 -1</clus>
<clus scale="   87.652">  1  5  2 -1</clus>
<clus scale="   89.981">  7  8 -1 -1</clus>
<clus scale="   33.767">  1  5  2 -1</clus>
</clustering>
</event>
<event>
 9    1  0.6202448E-006  0.1107539E+03  0.7546771E-02  0.1263850E+00
          2   -1    0    0  502    0  0.00000000000E+00  0.00000000000E+00  0.98961597809E+02  0.98961597809E+02  0.00000000000E+00 0. -1.
         -2   -1    0    0    0  501 -0.00000000000E+00 -0.00000000000E+00 -0.32165197205E+03  0.32165197205E+03  0.00000000000E+00 0.  1.
         23    2    1    2    0    0 -0.43179491722E+02  0.14728561811E+02 -0.26106400452E+03  0.28401835273E+03  0.10213036372E+03 0.  0.
         23    2    1    2    0    0  0.15672033048E+02 -0.30132053756E+02  0.38823917818E+02  0.10506538038E+03  0.91530783211E+02 0.  0.
        -11    1    4    4    0    0 -0.18863499232E+02 -0.41942128003E+02  0.48973239161E+02  0.67181484492E+02  0.00000000000E+00 0. -1.
         11    1    4    4    0    0  0.34535532280E+02  0.11810074247E+02 -0.10149321343E+02  0.37883895883E+02  0.00000000000E+00 0.  1.
        -11    1    3    3    0    0 -0.35913793766E+02  0.54295664284E+02 -0.20447320618E+03  0.21458590771E+03  0.00000000000E+00 0.  1.
         11    1    3    3    0    0 -0.72656979560E+01 -0.39567102473E+02 -0.56590798345E+02  0.69432445026E+02  0.00000000000E+00 0. -1.
         21    1    1    2  502  501  0.27507458674E+02  0.15403491945E+02 -0.45028753942E+00  0.31529836753E+02  0.00000000000E+00 0.  1.
<scales pt_clust_5="13000.00000" pt_clust_6="13000.00000" pt_clust_7="13000.00000" pt_clust_8="13000.00000" pt_clust_9="31.52662"></scales>
<clustering>
<clus scale="   31.527">  1  9  2 -1</clus>
<clus scale="   91.531">  5  6 -1 -1</clus>
<clus scale="  101.063">  1  5  2 -1</clus>
<clus scale="  102.130">  7  8 -1 -1</clus>
<clus scale="   31.527">  1  5  2 -1</clus>
</clustering>
</event>
<event>
 9    1  0.6202448E-006  0.1435672E+03  0.7546771E-02  0.1224547E+00
         -1   -1    0    0    0  501 -0.00000000000E+00  0.00000000000E+00  0.22717877956E+03  0.22717877956E+03  0.00000000000E+00 0.  1.
          1   -1    0    0  502    0  0.00000000000E+00 -0.00000000000E+00 -0.19536429292E+03  0.19536429292E+03  0.00000000000E+00 0. -1.
         23    2    1    2    0    0  0.27021865293E+02  0.34425781259E+02  0.21238105693E+02  0.10471090087E+03  0.92725401098E+02 0.  0.
         23    2    1    2    0    0 -0.55492304021E+02  0.85735697382E+02 -0.82615984430E+02  0.16312546912E+03  0.96718727150E+02 0.  0.
        -13    1    4    4    0    0 -0.24923050255E+02  0.10132028116E+03 -0.73479092427E+02  0.12761714161E+03  0.00000000000E+00 0. -1.
         13    1    4    4    0    0 -0.30569253766E+02 -0.15584583777E+02 -0.91368920032E+01  0.35508327513E+02  0.00000000000E+00 0.  1.
        -13    1    3    3    0    0  0.59750108032E+01  0.64036807048E+02  0.38361616241E+01  0.64429260022E+02  0.00000000000E+00 0. -1.
         13    1    3    3    0    0  0.21046854490E+02 -0.29611025789E+02  0.17401944069E+02  0.40281640850E+02  0.00000000000E+00 0.  1.
         21    1    1    2  502  501  0.28470438728E+02 -0.12016147864E+03  0.93192365381E+02  0.15470670249E+03  0.00000000000E+00 0.  1.
<scales pt_clust_5="13000.00000" pt_clust_6="13000.00000" pt_clust_7="13000.00000" pt_clust_8="13000.00000" pt_clust_9="106.09918"></scales>
<clustering>
<clus scale="   92.725">  7  8 -1 -1</clus>
<clus scale="   96.719">  5  6 -1 -1</clus>
<clus scale="  102.534">  1  7  2 -1</clus>
<clus scale="  106.099">  1  9  2 -1</clus>
<clus scale="  143.567">  2  5  1 -1</clus>
</clustering>
</event>
<event>
 9    1  0.6202448E-006  0.1899863E+03  0.7546771E-02  0.1179522E+00
         -1   -1    0    0    0  501 -0.00000000000E+00  0.00000000000E+00  0.21183433582E+03  0.21183433582E+03  0.00000000000E+00 0.  1.
          1   -1    0    0  502    0  0.00000000000E+00 -0.00000000000E+00 -0.39039773425E+03  0.39039773425E+03  0.00000000000E+00 0. -1.
         23    2    1    2    0    0  0.60286797939E+02  0.34324587550E+02  0.91731677379E+02  0.14889931981E+03  0.94570775028E+02 0.  0.
         23    2    1    2    0    0 -0.16150972528E+03 -0.12621109386E+03 -0.19564530662E+03  0.29757075521E+03  0.90866037555E+02 0.  0.
        -11    1    3    3    0    0  0.63838893701E+01 -0.27547466542E+02  0.36429299480E+01  0.28511188944E+02  0.00000000000E+00 0. -1.
         11    1    3    3    0    0  0.53902908569E+02  0.61872054093E+02  0.88088747431E+02  0.12038813087E+03  0.00000000000E+00 0.  1.
        -11    1    4    4    0    0 -0.20498419860E+02 -0.52940006964E+02 -0.91142938814E+02  0.10737720824E+03  0.00000000000E+00 0.  1.
         11    1    4    4    0    0 -0.14101130542E+03 -0.73271086894E+02 -0.10450236780E+03  0.19019354697E+03  0.00000000000E+00 0. -1.
         21    1    1    2  502  501  0.10122292735E+03  0.91886506308E+02 -0.74649769194E+02  0.15576199505E+03  0.00000000000E+00 0.  1.
<scales pt_clust_5="13000.00000" pt_clust_6="13000.00000" pt_clust_7="13000.00000" pt_clust_8="13000.00000" pt_clust_9="166.84766"></scales>
<clustering>
<clus scale="   90.866">  7  8 -1 -1</clus>
<clus scale="   94.571">  5  6 -1 -1</clus>
<clus scale="  117.287">  1  5  2 -1</clus>
<clus scale="  166.848">  2  9  1 -1</clus>
<clus scale="  166.848">  2  5  1 -1</clus>
</clustering>
</event>
<event>
 9    1  0.6202448E-006  0.9462713E+02  0.7546771E-02  0.1294393E+00
          1   -1    0    0  502    0  0.00000000000E+00  0.00000000000E+00  0.45730310668E+03  0.45730310668E+03  0.00000000000E+00 0. -1.
         -1   -1    0    0    0  501 -0.00000000000E+00 -0.00000000000E+00 -0.33324954334E+02  0.33324954334E+02  0.00000000000E+00 0.  1.
         23    2    1    2    0    0  0.39279212166E+01 -0.10283876482E+02  0.82414906484E+02  0.12466477428E+03  0.92886503084E+02 0.  0.
         23    2    1    2    0    0  0.11106203370E+02  0.39322678027E+02  0.27438382464E+03  0.29124815083E+03  0.88709533749E+02 0.  0.
        -11    1    3    3    0    0 -0.37759546663E+02  0.16233374015E+02  0.53338541621E+02  0.67337254312E+02  0.00000000000E+00 0. -1.
         11    1    3    3    0    0  0.41687467879E+02 -0.26517250497E+02  0.29076364863E+02  0.57327519968E+02  0.00000000000E+00 0.  1.
        -13    1    4    4    0    0  0.14283025906E+02 -0.27083680788E+02  0.10167412004E+03  0.10618454351E+03  0.00000000000E+00 0.  1.
         13    1    4    4    0    0 -0.31768225366E+01  0.66406358815E+02  0.17270970460E+03  0.18506360732E+03  0.00000000000E+00 0. -1.
         21    1    1    2  502  501 -0.15034124586E+02 -0.29038801545E+02  0.67179421224E+02  0.74715135905E+02  0.00000000000E+00 0. -1.
<scales pt_clust_5="13000.00000" pt_clust_6="13000.00000" pt_clust_7="13000.00000" pt_clust_8="13000.00000" pt_clust_9="32.69980"></scales>
<clustering>
<clus scale="   32.700">  1  9  2 -1</clus>
<clus scale="   88.710">  7  8 -1 -1</clus>
<clus scale="   90.531">  1  7  2 -1</clus>
<clus scale="   92.887">  5  6 -1 -1</clus>
<clus scale="   32.700">  1  5  2 -1</clus>
</clustering>
</event>
<event>
 9    1  0.6202448E-006  0.1172966E+03  0.7546771E-02  0.1247673E+00
         -1   -1    0    0    0  501 -0.00000000000E+00  0.00000000000E+00  0.36025685209E+02  0.36025685209E+02  0.00000000000E+00 0.  1.
          1   -1    0    0  502    0  0.00000000000E+00 -0.00000000000E+00 -0.54840535688E+03  0.54840535688E+03  0.00000000000E+00 0. -1.
         23    2    1    2    0    0 -0.80351054730E+02  0.21108037893E+02 -0.15115001770E+03  0.19477714255E+03  0.90498431744E+02 0.  0.
         23    2    1    2    0    0  0.71611854077E+02 -0.14156068354E+01 -0.34150731596E+03  0.36044540616E+03  0.90351438167E+02 0.  0.
        -11    1    4    4    0    0  0.26142038663E+02  0.43804421196E+02 -0.14197626182E+03  0.15086249508E+03  0.00000000000E+00 0.  1.
         11    1    4    4    0    0  0.45469815414E+02 -0.45220028032E+02 -0.19953105414E+03  0.20958291108E+03  0.00000000000E+00 0. -1.
        -11    1    3    3    0    0 -0.46483693486E+02  0.24546605710E+02 -0.15330670505E+02  0.54756726255E+02  0.00000000000E+00 0.  1.
         11    1    3    3    0    0 -0.33867361244E+02 -0.34385678177E+01 -0.13581934719E+03  0.14002041629E+03  0.00000000000E+00 0. -1.
         21    1    1    2  502  501  0.87392006534E+01 -0.19692431057E+02 -0.19722338005E+02  0.29208493378E+02  0.00000000000E+00 0. -1.
<scales pt_clust_5="13000.00000" pt_clust_6="13000.00000" pt_clust_7="13000.00000" pt_clust_8="13000.00000" pt_clust_9="21.54450"></scales>
<clustering>
<clus scale="   21.544">  1  9  2 -1</clus>
<clus scale="   90.351">  5  6 -1 -1</clus>
<clus scale="   90.498">  7  8 -1 -1</clus>
<clus scale="  117.183">  2  5  1 -1</clus>
<clus scale="  117.183">  2  5  1 -1</clus>
</clustering>
</event>
<event>
 9    1  0.6202448E-006  0.1935899E+03  0.7546771E-02  0.1170749E+00
         -2   -1    0    0    0  501 -0.00000000000E+00  0.00000000000E+00  0.52781854884E+02  0.52781854884E+02  0.00000000000E+00 0.  1.
          2   -1    0    0  502    0  0.00000000000E+00 -0.00000000000E+00 -0.14719858194E+04  0.14719858194E+04  0.00000000000E+00 0. -1.
         23    2    1    2    0    0  0.87814810940E+02 -0.45362467372E+02 -0.17715045845E+03  0.22287823772E+03  0.92321338014E+02 0.  0.
         23    2    1    2    0    0 -0.14386944315E+03 -0.10617468144E+03 -0.90745801989E+03  0.93032548698E+03  0.10026950785E+03 0.  0.
        -11    1    3    3    0    0  0.67337560005E+02  0.17047477263E+02 -0.95416670566E+02  0.11802247451E+03  0.00000000000E+00 0.  1.
         11    1    3    3    0    0  0.20477250935E+02 -0.62409944635E+02 -0.81733787885E+02  0.10485576320E+03  0.00000000000E+00 0. -1.
        -13    1    4    4    0    0 -0.23940715670E+02 -0.76854969369E+02 -0.40494297659E+03  0.41286639300E+03  0.00000000000E+00 0. -1.
         13    1    4    4    0    0 -0.11992872748E+03 -0.29319712070E+02 -0.50251504330E+03  0.51745909398E+03  0.00000000000E+00 0.  1.
         21    1    1    2  502  501  0.56054632211E+02  0.15153714881E+03 -0.33459548613E+03  0.37156394955E+03  0.00000000000E+00 0.  1.
<scales pt_clust_5="13000.00000" pt_clust_6="13000.00000" pt_clust_7="13000.00000" pt_clust_8="13000.00000" pt_clust_9="165.59912"></scales>
<clustering>
<clus scale="   92.321">  5  6 -1 -1</clus>
<clus scale="  100.270">  7  8 -1 -1</clus>
<clus scale="  135.249">  1  5  2 -1</clus>
<clus scale="  165.599">  1  9  2 -1</clus>
<clus scale="  193.590">  2  5  1 -1</clus>
</clustering>
</event>
<event>
 9    1  0.6202448E-006  0.1039398E+03  0.7546771E-02  0.1275429E+00
         -1   -1    0    0    0  501 -0.00000000000E+00  0.00000000000E+00  0.32777760676E+02  0.32777760676E+02  0.00000000000E+00 0.  1.
          1   -1    0    0  502    0  0.00000000000E+00 -0.00000000000E+00 -0.47544198964E+03  0.47544198964E+03  0.00000000000E+00 0. -1.
         23    2    1    2    0    0  0.25141562962E+02  0.54507552567E+02 -0.17761117112E+03  0.21116578353E+03  0.97170409860E+02 0.  0.
         23    2    1    2    0    0 -0.16232135382E+02 -0.17722590294E+02 -0.21322801861E+03  0.23287962580E+03  0.90493976417E+02 0.  0.
        -11    1    3    3    0    0  0.44723522304E+02  0.59674352114E+02 -0.17564272772E+03  0.19081821074E+03  0.00000000000E+00 0. -1.
         11    1    3    3    0    0 -0.19581959342E+02 -0.51667995465E+01 -0.19684434002E+01  0.20347572795E+02  0.00000000000E+00 0.  1.
        -13    1    4    4    0    0 -0.13676162253E+02  0.36686023176E+02 -0.87503298796E+02  0.95863074282E+02  0.00000000000E+00 0.  1.
         13    1    4    4    0    0 -0.25559731291E+01 -0.54408613471E+02 -0.12572471981E+03  0.13701655152E+03  0.00000000000E+00 0. -1.
         21    1    1    2  502  501 -0.89094275799E+01 -0.36784962273E+02 -0.51825039238E+02  0.64174340988E+02  0.00000000000E+00 0.  1.
<scales pt_clust_5="13000.00000" pt_clust_6="13000.00000" pt_clust_7="13000.00000" pt_clust_8="13000.00000" pt_clust_9="37.84853"></scales>
<clustering>
<clus scale="   37.849">  1  9  2 -1</clus>
<clus scale="   90.494">  7  8 -1 -1</clus>
<clus scale="   97.170">  5  6 -1 -1</clus>
<clus scale="   97.727">  2  7  1 -1</clus>
<clus scale="   97.727">  2  5  1 -1</clus>
</clustering>
</event>
<event>
 9    1  0.6202448E-006  0.1088450E+03  0.7546771E-02  0.1265101E+00
          2   -1    0    0  502    0  0.00000000000E+00  0.00000000000E+00  0.34661891218E+03  0.34661891218E+03  0.00000000000E+00 0. -1.
         -2   -1    0    0    0  501 -0.00000000000E+00 -0.00000000000E+00 -0.88463725937E+02  0.88463725937E+02  0.00000000000E+00 0.  1.
         23    2    1    2    0    0 -0.43081130809E+02 -0.93927131152E+01  0.52713303882E+02  0.10926825447E+03  0.84950880737E+02 0.  0.
         23    2    1    2    0    0 -0.13606551500E+01  0.90031877863E+02  0.19487829230E+03  0.23313570937E+03  0.90923702966E+02 0.  0.
        -11    1    3    3    0    0  0.69296563679E+01 -0.31427625170E+02 -0.15959573677E+01  0.32222086231E+02  0.00000000000E+00 0.  1.
         11    1    3    3    0    0 -0.50010787176E+02  0.22034912055E+02  0.54309261249E+02  0.77046168242E+02  0.00000000000E+00 0. -1.
        -13    1    4    4    0    0 -0.23709021999E+02  0.98299602712E+02  0.17495818332E+03  0.20207744933E+03  0.00000000000E+00 0. -1.
         13    1    4    4    0    0  0.22348366849E+02 -0.82677248487E+01  0.19920108974E+02  0.31058260037E+02  0.00000000000E+00 0.  1.
         21    1    1    2  502  501  0.44441785959E+02 -0.80639164748E+02  0.10563590066E+02  0.92678674276E+02  0.00000000000E+00 0.  1.
<scales pt_clust_5="13000.00000" pt_clust_6="13000.00000" pt_clust_7="13000.00000" pt_clust_8="13000.00000" pt_clust_9="92.07468"></scales>
<clustering>
<clus scale="   84.951">  5  6 -1 -1</clus>
<clus scale="   90.924">  7  8 -1 -1</clus>
<clus scale="   92.075">  2  9  1 -1</clus>
<clus scale="  103.908">  2  5  1 -1</clus>
<clus scale="  108.845">  1  5  2 -1</clus>
</clustering>
</event>
<event>
 9    1  0.6202448E-006  0.1022444E+03  0.7546771E-02  0.1275783E+00
          1   -1    0    0  502    0  0.00000000000E+00  0.00000000000E+00  0.23028223532E+03  0.23028223532E+03  0.00000000000E+00 0. -1.
         -1   -1    0    0    0  501 -0.00000000000E+00 -0.00000000000E+00 -0.10247359700E+03  0.10247359700E+03  0.00000000000E+00 0.  1.
         23    2    1    2    0    0  0.39659611799E+02 -0.84788125058E+01 -0.86033004550E+01  0.10048820589E+03  0.91537356715E+02 0.  0.
         23    2    1    2    0    0 -0.29094285935E+02  0.58428968797E+02  0.33756690649E+02  0.11761709571E+03  0.91835968834E+02 0.  0.
        -11    1    3    3    0    0  0.43843240330E+02  0.13272668161E+02  0.30860092452E+02  0.55233493000E+02  0.00000000000E+00 0.  1.
         11    1    3    3    0    0 -0.41836285310E+01 -0.21751480667E+02 -0.39463392907E+02  0.45254712889E+02  0.00000000000E+00 0. -1.
        -13    1    4    4    0    0  0.27654933934E+02 -0.81239960017E+00 -0.27916024386E+01  0.27807344501E+02  0.00000000000E+00 0.  1.
         13    1    4    4    0    0 -0.56749219868E+02  0.59241368398E+02  0.36548293087E+02  0.89809751213E+02  0.00000000000E+00 0. -1.
         21    1    1    2  502  501 -0.10565325865E+02 -0.49950156292E+02  0.10265524814E+03  0.11465053072E+03  0.00000000000E+00 0.  1.
<scales pt_clust_5="13000.00000" pt_clust_6="13000.00000" pt_clust_7="13000.00000" pt_clust_8="13000.00000" pt_clust_9="51.05531"></scales>
<clustering>
<clus scale="   51.055">  1  9  2 -1</clus>
<clus scale="   91.537">  5  6 -1 -1</clus>
<clus scale="   91.836">  7  8 -1 -1</clus>
<clus scale="  101.976">  2  5  1 -1</clus>
<clus scale="   51.055">  1  5  2 -1</clus>
</clustering>
</event>
<event>
 9    1  0.6202448E-006  0.1088341E+03  0.7546771E-02  0.1262991E+00
         -1   -1    0    0    0  501 -0.00000000000E+00  0.00000000000E+00  0.32229500069E+03  0.32229500069E+03  0.00000000000E+00 0.  1.
          1   -1    0    0  502    0  0.00000000000E+00 -0.00000000000E+00 -0.99270998779E+02  0.99270998779E+02  0.00000000000E+00 0. -1.
         23    2    1    2    0    0  0.65134695785E+02 -0.37143750709E+02  0.12030722891E+03  0.16806001584E+03  0.90267119061E+02 0.  0.
         23    2    1    2    0    0  0.17747380966E+02  0.74892865037E+02  0.11093192735E+03  0.16206243252E+03  0.89634975124E+02 0.  0.
        -13    1    3    3    0    0  0.36258898376E+02 -0.10593383777E+01 -0.29786038869E+01  0.36396455739E+02  0.00000000000E+00 0. -1.
         13    1    3    3    0    0  0.28875797408E+02 -0.36084412331E+02  0.12328583280E+03  0.13166356010E+03  0.00000000000E+00 0.  1.
        -13    1    4    4    0    0 -0.35966096402E+02  0.31638698156E+02  0.57387839593E+02  0.74752467816E+02  0.00000000000E+00 0. -1.
         13    1    4    4    0    0  0.53713477369E+02  0.43254166881E+02  0.53544087752E+02  0.87309964705E+02  0.00000000000E+00 0.  1.
         21    1    1    2  502  501 -0.82882076751E+02 -0.37749114328E+02 -0.82151543429E+01  0.91443551112E+02  0.00000000000E+00 0. -1.
<scales pt_clust_5="13000.00000" pt_clust_6="13000.00000" pt_clust_7="13000.00000" pt_clust_8="13000.00000" pt_clust_9="91.07378"></scales>
<clustering>
<clus scale="   89.635">  7  8 -1 -1</clus>
<clus scale="   90.267">  5  6 -1 -1</clus>
<clus scale="   91.074">  2  9  1 -1</clus>
<clus scale="  108.310">  2  7  1 -1</clus>
<clus scale="   91.074">  2  5  1 -1</clus>
</clustering>
</event>
<event>
 9    1  0.6202448E-006  0.1736895E+03  0.7546771E-02  0.1189565E+00
          2   -1    0    0  502    0  0.00000000000E+00  0.00000000000E+00  0.87711681021E+03  0.87711681021E+03  0.00000000000E+00 0. -1.
         -2   -1    0    0    0  501 -0.00000000000E+00 -0.00000000000E+00 -0.78891479302E+02  0.78891479302E+02  0.00000000000E+00 0.  1.
         23    2    1    2    0    0 -0.14930703473E+03 -0.83704487036E+02  0.38670025154E+03  0.43260621451E+03  0.91170283109E+02 0.  0.
         23    2    1    2    0    0  0.62155628395E+02 -0.31328789782E+02  0.34173836029E+03  0.36309546702E+03  0.10103660755E+03 0.  0.
        -13    1    3    3    0    0 -0.11174207564E+03 -0.25732002828E+02  0.16915906143E+03  0.20436050377E+03  0.00000000000E+00 0.  1.
         13    1    3    3    0    0 -0.37564959092E+02 -0.57972484208E+02  0.21754119011E+03  0.22824571074E+03  0.00000000000E+00 0. -1.
        -13    1    4    4    0    0  0.81899309726E+02 -0.49624140032E+02  0.26900387090E+03  0.28554007559E+03  0.00000000000E+00 0.  1.
         13    1    4    4    0    0 -0.19743681331E+02  0.18295350249E+02  0.72734489391E+02  0.77555391432E+02  0.00000000000E+00 0. -1.
         21    1    1    2  502  501  0.87151406336E+02  0.11503327682E+03  0.69786719072E+02  0.16030660798E+03  0.00000000000E+00 0.  1.
<scales pt_clust_5="13000.00000" pt_clust_6="13000.00000" pt_clust_7="13000.00000" pt_clust_8="13000.00000" pt_clust_9="147.83784"></scales>
<clustering>
<clus scale="   91.170">  5  6 -1 -1</clus>
<clus scale="  101.037">  7  8 -1 -1</clus>
<clus scale="  122.692">  1  7  2 -1</clus>
<clus scale="  147.838">  2  9  1 -1</clus>
<clus scale="  122.692">  1  5  2 -1</clus>
</clustering>
</event>
<event>
 9    1  0.6202448E-006  0.9636669E+02  0.7546771E-02  0.1289311E+00
          2   -1    0    0  502    0  0.00000000000E+00  0.00000000000E+00  0.32236588900E+03  0.32236588900E+03  0.00000000000E+00 0. -1.
         -2   -1    0    0    0  501 -0.00000000000E+00 -0.00000000000E+00 -0.10865750998E+03  0.10865750998E+03  0.00000000000E+00 0.  1.
         23    2    1    2    0    0  0.45459792966E+02  0.18323834409E+02 -0.81898033659E+01  0.10473280942E+03  0.92192910825E+02 0.  0.
         23    2    1    2    0    0 -0.10824009046E+02  0.29956383840E+02  0.24469217156E+03  0.26264954192E+03  0.89977658042E+02 0.  0.
        -11    1    4    4    0    0  0.19970634225E+02  0.48243501915E+02  0.91719913275E+02  0.10554053344E+03  0.00000000000E+00 0.  1.
         11    1    4    4    0    0 -0.30794643270E+02 -0.18287118075E+02  0.15297225828E+03  0.15710900848E+03  0.00000000000E+00 0. -1.
        -11    1    3    3    0    0  0.12682305872E+02  0.32438220456E+02  0.34545772803E+02  0.49055982787E+02  0.00000000000E+00 0.  1.
         11    1    3    3    0    0  0.32777487094E+02 -0.14114386047E+02 -0.42735576169E+02  0.55676826636E+02  0.00000000000E+00 0. -1.
         21    1    1    2  502  501 -0.34635783920E+02 -0.48280218249E+02 -0.22793989174E+02  0.63641047638E+02  0.00000000000E+00 0. -1.
<scales pt_clust_5="13000.00000" pt_clust_6="13000.00000" pt_clust_7="13000.00000" pt_clust_8="13000.00000" pt_clust_9="59.41900"></scales>
<clustering>
<clus scale="   59.419">  2  9  1 -1</clus>
<clus scale="   89.978">  5  6 -1 -1</clus>
<clus scale="   92.193">  7  8 -1 -1</clus>
<clus scale="   94.250">  1  5  2 -1</clus>
<clus scale="   94.250">  1  5  2 -1</clus>
</clustering>
</event>
<event>
 9    1  0.6202448E-006  0.9545759E+02  0.7546771E-02  0.1298994E+00
          1   -1    0    0  502    0  0.00000000000E+00  0.00000000000E+00  0.90618891067E+02  0.90618891067E+02  0.00000000000E+00 0. -1.
         -1   -1    0    0    0  501 -0.00000000000E+00 -0.00000000000E+00 -0.24230707764E+03  0.24230707764E+03  0.00000000000E+00 0.  1.
         23    2    1    2    0    0  0.13047004021E+02 -0.67758425782E+01 -0.17432600701E+03  0.19839852901E+03  0.93575013944E+02 0.  0.
         23    2    1    2    0    0 -0.12142431842E+02  0.46778727499E+02  0.19149629045E+02  0.94362572812E+02  0.78752135575E+02 0.  0.
        -11    1    3    3    0    0 -0.40496819874E+02 -0.72068013434E+01 -0.72741958187E+02  0.83566278404E+02  0.00000000000E+00 0.  1.
         11    1    3    3    0    0  0.53543823894E+02  0.43095876526E+00 -0.10158404882E+03  0.11483225060E+03  0.00000000000E+00 0. -1.
        -13    1    4    4    0    0  0.18074505171E+02 -0.11058431001E+02  0.19949817092E+02  0.29102780544E+02  0.00000000000E+00 0.  1.
         13    1    4    4    0    0 -0.30216937014E+02  0.57837158500E+02 -0.80018804741E+00  0.65259792267E+02  0.00000000000E+00 0. -1.
         21    1    1    2  502  501 -0.90457217831E+00 -0.40002884921E+02  0.34881913964E+01  0.40164866887E+02  0.00000000000E+00 0. -1.
<scales pt_clust_5="13000.00000" pt_clust_6="13000.00000" pt_clust_7="13000.00000" pt_clust_8="13000.00000" pt_clust_9="40.01311"></scales>
<clustering>
<clus scale="   40.013">  1  9  2 -1</clus>
<clus scale="   78.752">  7  8 -1 -1</clus>
<clus scale="   80.980">  1  7  2 -1</clus>
<clus scale="   93.575">  5  6 -1 -1</clus>
<clus scale="   40.013">  1  5  2 -1</clus>
</clustering>
</event>
<event>
 9    1  0.6202448E-006  0.2236083E+03  0.7546771E-02  0.1152977E+00
          2   -1    0    0  502    0  0.00000000000E+00  0.00000000000E+00  0.13812935712E+04  0.13812935712E+04  0.00000000000E+00 0. -1.
         -2   -1    0    0    0  501 -0.00000000000E+00 -0.00000000000E+00 -0.72540888443E+02  0.72540888443E+02  0.00000000000E+00 0.  1.
         23    2    1    2    0    0 -0.15171381518E+03 -0.16245755121E+03  0.49801981813E+03  0.55306012911E+03  0.91881605909E+02 0.  0.
         23    2    1    2    0    0  0.90525591124E+02 -0.29515655308E+02  0.57769310661E+03  0.59270739040E+03  0.92231603312E+02 0.  0.
        -13    1    4    4    0    0  0.85173582696E+02 -0.48830715639E+02  0.54898581675E+03  0.55769562036E+03  0.00000000000E+00 0.  1.
         13    1    4    4    0    0  0.53520084275E+01  0.19315060331E+02  0.28707289861E+02  0.35011770035E+02  0.00000000000E+00 0. -1.
        -13    1    3    3    0    0 -0.34311340424E+02  0.60031989723E+01  0.62136490897E+02  0.71233769945E+02  0.00000000000E+00 0. -1.
         13    1    3    3    0    0 -0.11740247475E+03 -0.16846075018E+03  0.43588332723E+03  0.48182635917E+03  0.00000000000E+00 0.  1.
         21    1    1    2  502  501  0.61188224053E+02  0.19197320652E+03  0.23303975800E+03  0.30806694012E+03  0.00000000000E+00 0. -1.
<scales pt_clust_5="13000.00000" pt_clust_6="13000.00000" pt_clust_7="13000.00000" pt_clust_8="13000.00000" pt_clust_9="203.85885"></scales>
<clustering>
<clus scale="   91.882">  7  8 -1 -1</clus>
<clus scale="   92.232">  5  6 -1 -1</clus>
<clus scale="  132.562">  1  5  2 -1</clus>
<clus scale="  203.859">  2  9  1 -1</clus>
<clus scale="  132.562">  1  5  2 -1</clus>
</clustering>
</event>
<event>
 9    1  0.6202448E-006  0.9226389E+02  0.7546771E-02  0.1298356E+00
         -2   -1    0    0    0  501 -0.00000000000E+00  0.00000000000E+00  0.37930941216E+02  0.37930941216E+02  0.00000000000E+00 0.  1.
          2   -1    0    0  502    0  0.00000000000E+00 -0.00000000000E+00 -0.39423319629E+03  0.39423319629E+03  0.00000000000E+00 0. -1.
         23    2    1    2    0    0  0.10034243061E+02 -0.14290867587E+02 -0.60888168135E+02  0.11161433669E+03  0.91899272065E+02 0.  0.
         23    2    1    2    0    0  0.72691753999E+01 -0.12618957597E+02 -0.20104950410E+03  0.22090933977E+03  0.90376735389E+02 0.  0.
        -11    1    3    3    0    0  0.49891264585E+02 -0.16280278438E+01 -0.22157913228E+02  0.54614667216E+02  0.00000000000E+00 0.  1.
         11    1    3    3    0    0 -0.39857021524E+02 -0.12662839743E+02 -0.38730254907E+02  0.56999669475E+02  0.00000000000E+00 0. -1.
        -13    1    4    4    0    0 -0.19278539119E+02  0.31676913945E+02 -0.58178451718E+02  0.68991457384E+02  0.00000000000E+00 0.  1.
         13    1    4    4    0    0  0.26547714519E+02 -0.44295871541E+02 -0.14287105238E+03  0.15191788239E+03  0.00000000000E+00 0. -1.
         21    1    1    2  502  501 -0.17303418461E+02  0.26909825184E+02 -0.94364582844E+02  0.99640461044E+02  0.00000000000E+00 0.  1.
<scales pt_clust_5="13000.00000" pt_clust_6="13000.00000" pt_clust_7="13000.00000" pt_clust_8="13000.00000" pt_clust_9="31.99292"></scales>
<clustering>
<clus scale="   31.993">  2  9  1 -1</clus>
<clus scale="   90.377">  7  8 -1 -1</clus>
<clus scale="   90.747">  2  7  1 -1</clus>
<clus scale="   91.899">  5  6 -1 -1</clus>
<clus scale="   31.993">  2  5  1 -1</clus>
</clustering>
</event>
<event>
 9    1  0.6202448E-006  0.9878188E+02  0.7546771E-02  0.1284950E+00
          1   -1    0    0  502    0  0.00000000000E+00  0.00000000000E+00  0.54320531459E+03  0.54320531459E+03  0.00000000000E+00 0. -1.
         -1   -1    0    0    0  501 -0.00000000000E+00 -0.00000000000E+00 -0.62050843160E+02  0.62050843160E+02  0.00000000000E+00 0.  1.
         23    2    1    2    0    0  0.58211623869E+02 -0.23454518125E+02  0.28604765944E+02  0.11430582459E+03  0.91153065373E+02 0.  0.
         23    2    1    2    0    0  0.13339765052E+02  0.39988729680E+02  0.36023902558E+03  0.37299168348E+03  0.87026390045E+02 0.  0.
        -11    1    4    4    0    0  0.26114970793E+01  0.61314726933E+02  0.32285186354E+03  0.32863298898E+03  0.00000000000E+00 0. -1.
         11    1    4    4    0    0  0.10728267972E+02 -0.21325997253E+02  0.37387162040E+02  0.44358694502E+02  0.00000000000E+00 0.  1.
        -13    1    3    3    0    0  0.56303964515E+02 -0.50171355208E+02  0.39803876100E+02  0.85273969394E+02  0.00000000000E+00 0.  1.
         13    1    3    3    0    0  0.19076593539E+01  0.26716837083E+02 -0.11199110157E+02  0.29031855198E+02  0.00000000000E+00 0. -1.
         21    1    1    2  502  501 -0.71551388920E+02 -0.16534211555E+02  0.92310679905E+02  0.11795864967E+03  0.00000000000E+00 0.  1.
<scales pt_clust_5="13000.00000" pt_clust_6="13000.00000" pt_clust_7="13000.00000" pt_clust_8="13000.00000" pt_clust_9="73.43692"></scales>
<clustering>
<clus scale="   73.437">  2  9  1 -1</clus>
<clus scale="   87.026">  5  6 -1 -1</clus>
<clus scale="   91.153">  7  8 -1 -1</clus>
<clus scale="   94.987">  1  5  2 -1</clus>
<clus scale="   94.987">  1  5  2 -1</clus>
</clustering>
</event>
<event>
 9    1  0.6202448E-006  0.1146040E+03  0.7546771E-02  0.1252424E+00
          1   -1    0    0  502    0  0.00000000000E+00  0.00000000000E+00  0.38878215577E+03  0.38878215577E+03  0.00000000000E+00 0. -1.
         -1   -1    0    0    0  501 -0.00000000000E+00 -0.00000000000E+00 -0.20713356943E+03  0.20713356943E+03  0.00000000000E+00 0.  1.
         23    2    1    2    0    0  0.57567352786E+02  0.31682595599E+02 -0.16549677880E+03  0.20143216573E+03  0.94169775545E+02 0.  0.
         23    2    1    2    0    0 -0.79936190718E+02  0.24299000685E+02  0.21018152511E+03  0.24483932299E+03  0.93753850932E+02 0.  0.
        -13    1    4    4    0    0 -0.18877968343E+02  0.51110426802E+02  0.12723706291E+03  0.13841215118E+03  0.00000000000E+00 0.  1.
         13    1    4    4    0    0 -0.61058222375E+02 -0.26811426117E+02  0.82944462199E+02  0.10642717181E+03  0.00000000000E+00 0. -1.
        -13    1    3    3    0    0  0.20502353840E+01  0.34126751357E+02 -0.13242015225E+03  0.13676233160E+03  0.00000000000E+00 0. -1.
         13    1    3    3    0    0  0.55517117402E+02 -0.24441557584E+01 -0.33076626550E+02  0.64669834127E+02  0.00000000000E+00 0.  1.
         21    1    1    2  502  501  0.22368837932E+02 -0.55981596283E+02  0.13696384004E+03  0.14964423647E+03  0.00000000000E+00 0. -1.
<scales pt_clust_5="13000.00000" pt_clust_6="13000.00000" pt_clust_7="13000.00000" pt_clust_8="13000.00000" pt_clust_9="60.28519"></scales>
<clustering>
<clus scale="   60.285">  1  9  2 -1</clus>
<clus scale="   93.754">  5  6 -1 -1</clus>
<clus scale="   94.170">  7  8 -1 -1</clus>
<clus scale="  114.262">  1  5  2 -1</clus>
<clus scale="   60.285">  1  5  2 -1</clus>
</clustering>
</event>
<event>
 9    1  0.6202448E-006  0.1065248E+03  0.7546771E-02  0.1267564E+00
          2   -1    0    0  502    0  0.00000000000E+00  0.00000000000E+00  0.11571460500E+03  0.11571460500E+03  0.00000000000E+00 0. -1.
         -2   -1    0    0    0  501 -0.00000000000E+00 -0.00000000000E+00 -0.23912703319E+03  0.23912703319E+03  0.00000000000E+00 0.  1.
         23    2    1    2    0    0 -0.37683619352E+02 -0.55923423994E+02 -0.16454305417E+03  0.20004432913E+03  0.91628775084E+02 0.  0.
         23    2    1    2    0    0  0.10711500974E+01  0.11026730289E+02  0.25760941879E+02  0.94860565739E+02  0.90620994601E+02 0.  0.
        -11    1    3    3    0    0  0.17788462991E+02 -0.23685657590E+02 -0.77299496461E+01  0.30613590325E+02  0.00000000000E+00 0. -1.
         11    1    3    3    0    0 -0.55472082343E+02 -0.32237766404E+02 -0.15681310452E+03  0.16943073880E+03  0.00000000000E+00 0.  1.
        -13    1    4    4    0    0 -0.30641021953E+02  0.27399537528E+02  0.39127700350E+02  0.56750187821E+02  0.00000000000E+00 0. -1.
         13    1    4    4    0    0  0.31712172050E+02 -0.16372807239E+02 -0.13366758471E+02  0.38110377918E+02  0.00000000000E+00 0.  1.
         21    1    1    2  502  501  0.36612469254E+02  0.44896693705E+02  0.15369684106E+02  0.59936743322E+02  0.00000000000E+00 0. -1.
<scales pt_clust_5="13000.00000" pt_clust_6="13000.00000" pt_clust_7="13000.00000" pt_clust_8="13000.00000" pt_clust_9="57.93260"></scales>
<clustering>
<clus scale="   57.933">  1  9  2 -1</clus>
<clus scale="   90.621">  7  8 -1 -1</clus>
<clus scale="   91.629">  5  6 -1 -1</clus>
<clus scale="  105.659">  1  7  2 -1</clus>
<clus scale="   57.933">  1  5  2 -1</clus>
</clustering>
</event>
<event>
 9    1  0.6202448E-006  0.1080991E+03  0.7546771E-02  0.1264520E+00
          3   -1    0    0  502    0  0.00000000000E+00  0.00000000000E+00  0.10720147802E+04  0.10720147802E+04  0.00000000000E+00 0. -1.
         -3   -1    0    0    0  501 -0.00000000000E+00 -0.00000000000E+00 -0.23445094193E+02  0.23445094193E+02  0.00000000000E+00 0.  1.
         23    2    1    2    0    0  0.44662355706E+02  0.21631225930E+01  0.25610463005E+03  0.27569101382E+03  0.91741748686E+02 0.  0.
         23    2    1    2    0    0 -0.47626262606E+02 -0.72283714920E+02  0.36096702577E+03  0.38260043506E+03  0.92696833166E+02 0.  0.
        -11    1    3    3    0    0 -0.22598434819E+02 -0.72762128532E+01  0.23624662553E+02  0.33492644125E+02  0.00000000000E+00 0.  1.
         11    1    3    3    0    0  0.67260790525E+02  0.94393354462E+01  0.23247996749E+03  0.24219836969E+03  0.00000000000E+00 0. -1.
        -11    1    4    4    0    0 -0.33577943440E+02  0.55297965147E+01  0.42402708927E+02  0.54369537974E+02  0.00000000000E+00 0. -1.
         11    1    4    4    0    0 -0.14048319166E+02 -0.77813511435E+02  0.31856431684E+03  0.32823089708E+03  0.00000000000E+00 0.  1.
         21    1    1    2  502  501  0.29639068999E+01  0.70120592327E+02  0.43149803018E+03  0.43716842551E+03  0.00000000000E+00 0. -1.
<scales pt_clust_5="13000.00000" pt_clust_6="13000.00000" pt_clust_7="13000.00000" pt_clust_8="13000.00000" pt_clust_9="70.18320"></scales>
<clustering>
<clus scale="   70.183">  1  9  2 -1</clus>
<clus scale="   91.742">  5  6 -1 -1</clus>
<clus scale="   92.697">  7  8 -1 -1</clus>
<clus scale="  107.281">  2  5  1 -1</clus>
<clus scale="   70.183">  1  5  2 -1</clus>
</clustering>
</event>
<event>
 9    1  0.6202448E-006  0.1088591E+03  0.7546771E-02  0.1270412E+00
          1   -1    0    0  502    0  0.00000000000E+00  0.00000000000E+00  0.80926247700E+02  0.80926247700E+02  0.00000000000E+00 0. -1.
         -1   -1    0    0    0  501 -0.00000000000E+00 -0.00000000000E+00 -0.63057760874E+03  0.63057760874E+03  0.00000000000E+00 0.  1.
         23    2    1    2    0    0 -0.48483462136E+02  0.17510558699E+02 -0.53491613234E+03  0.54639054158E+03  0.98742541632E+02 0.  0.
         23    2    1    2    0    0 -0.16717986698E+02 -0.12992730601E+02  0.25717960043E+02  0.88249147782E+02  0.81720233037E+02 0.  0.
        -11    1    4    4    0    0 -0.33262825806E+02 -0.27055810735E+02 -0.12178160729E+02  0.44572862527E+02  0.00000000000E+00 0.  1.
         11    1    4    4    0    0  0.16544839108E+02  0.14063080135E+02  0.37896120773E+02  0.43676285254E+02  0.00000000000E+00 0. -1.
        -13    1    3    3    0    0  0.22665835956E+02 -0.20576213088E+02 -0.15614745455E+03  0.15911991776E+03  0.00000000000E+00 0. -1.
         13    1    3    3    0    0 -0.71149298093E+02  0.38086771787E+02 -0.37876867779E+03  0.38727062383E+03  0.00000000000E+00 0.  1.
         21    1    1    2  502  501  0.65201448834E+02 -0.45178280984E+01 -0.40453188746E+02  0.76864167078E+02  0.00000000000E+00 0. -1.
<scales pt_clust_5="13000.00000" pt_clust_6="13000.00000" pt_clust_7="13000.00000" pt_clust_8="13000.00000" pt_clust_9="65.35778"></scales>
<clustering>
<clus scale="   65.358">  1  9  2 -1</clus>
<clus scale="   81.720">  5  6 -1 -1</clus>
<clus scale="   93.693">  1  5  2 -1</clus>
<clus scale="   98.743">  7  8 -1 -1</clus>
<clus scale="   65.358">  1  5  2 -1</clus>
</clustering>
</event>
<event>
 9    1  0.6202448E-006  0.9182842E+02  0.7546771E-02  0.1301433E+00
          1   -1    0    0  502    0  0.00000000000E+00  0.00000000000E+00  0.47466537369E+03  0.47466537369E+03  0.00000000000E+00 0. -1.
         -1   -1    0    0    0  501 -0.00000000000E+00 -0.00000000000E+00 -0.26108469206E+02  0.26108469206E+02  0.00000000000E+00 0.  1.
         23    2    1    2    0    0 -0.27102520190E+02  0.42545658882E+01  0.11383063819E+03  0.14402119543E+03  0.83857275242E+02 0.  0.
         23    2    1    2    0    0  0.57905680476E+01 -0.24818922615E+02  0.27414083678E+03  0.28931611181E+03  0.88888157619E+02 0.  0.
        -13    1    3    3    0    0 -0.41599705638E+02  0.20204587893E+02  0.11339485474E+03  0.12246286769E+03  0.00000000000E+00 0. -1.
         13    1    3    3    0    0  0.14497185448E+02 -0.15950022005E+02  0.43578345168E+00  0.21558327743E+02  0.00000000000E+00 0.  1.
        -13    1    4    4    0    0  0.44705080371E+02 -0.31879280483E+01  0.17480469891E+03  0.18045883147E+03  0.00000000000E+00 0.  1.
         13    1    4    4    0    0 -0.38914512323E+02 -0.21630994567E+02  0.99336137875E+02  0.10885728034E+03  0.00000000000E+00 0. -1.
         21    1    1    2  502  501  0.21311952142E+02  0.20564356727E+02  0.60585429511E+02  0.67436535652E+02  0.00000000000E+00 0. -1.
<scales pt_clust_5="13000.00000" pt_clust_6="13000.00000" pt_clust_7="13000.00000" pt_clust_8="13000.00000" pt_clust_9="29.61574"></scales>
<clustering>
<clus scale="   29.616">  1  9  2 -1</clus>
<clus scale="   83.857">  5  6 -1 -1</clus>
<clus scale="   86.968">  2  5  1 -1</clus>
<clus scale="   88.888">  7  8 -1 -1</clus>
<clus scale="   29.616">  1  5  2 -1</clus>
</clustering>
</event>
<event>
 9    1  0.6202448E-006  0.2545538E+03  0.7546771E-02  0.1121363E+00
          1   -1    0    0  502    0  0.00000000000E+00  0.00000000000E+00  0.43933156564E+03  0.43933156564E+03  0.00000000000E+00 0. -1.
         -1   -1    0    0    0  501 -0.00000000000E+00 -0.00000000000E+00 -0.48729134795E+03  0.48729134795E+03  0.00000000000E+00 0.  1.
         23    2    1    2    0    0 -0.21085698270E+03  0.33570053799E+02 -0.23666038137E+03  0.33144551138E+03  0.90886606482E+02 0.  0.
         23    2    1    2    0    0 -0.15245572675E+03 -0.76902443817E+02  0.10407374816E+03  0.21963043475E+03  0.90826473719E+02 0.  0.
        -11    1    4    4    0    0 -0.12998845450E+03 -0.25156843858E+02  0.50117315190E+02  0.14156839470E+03  0.00000000000E+00 0.  1.
         11    1    4    4    0    0 -0.22467272245E+02 -0.51745599960E+02  0.53956432967E+02  0.78062040044E+02  0.00000000000E+00 0. -1.
        -11    1    3    3    0    0 -0.16125010842E+03 -0.14865521488E+02 -0.17789037748E+03  0.24055678663E+03  0.00000000000E+00 0.  1.
         11    1    3    3    0    0 -0.49606874283E+02  0.48435575287E+02 -0.58770003898E+02  0.90888724755E+02  0.00000000000E+00 0. -1.
         21    1    1    2  502  501  0.36331270945E+03  0.43332390019E+02  0.84626850910E+02  0.37554696746E+03  0.00000000000E+00 0. -1.
<scales pt_clust_5="13000.00000" pt_clust_6="13000.00000" pt_clust_7="13000.00000" pt_clust_8="13000.00000" pt_clust_9="237.77569"></scales>
<clustering>
<clus scale="   90.826">  5  6 -1 -1</clus>
<clus scale="   90.887">  7  8 -1 -1</clus>
<clus scale="  193.407">  1  5  2 -1</clus>
<clus scale="  237.776">  1  9  2 -1</clus>
<clus scale="  193.407">  1  5  2 -1</clus>
</clustering>
</event>
<event>
 9    1  0.6202448E-006  0.1163197E+03  0.7546771E-02  0.1250257E+00
         -1   -1    0    0    0  501 -0.00000000000E+00  0.00000000000E+00  0.10938827752E+03  0.10938827752E+03  0.00000000000E+00 0.  1.
          1   -1    0    0  502    0  0.00000000000E+00 -0.00000000000E+00 -0.71381020422E+03  0.71381020422E+03  0.00000000000E+00 0. -1.
         23    2    1    2    0    0  0.87876904735E+02  0.29453306650E+02 -0.12240141449E+03  0.17946633035E+03  0.92931210044E+02 0.  0.
         23    2    1    2    0    0 -0.40864474628E+02  0.67826023568E+02 -0.51655266341E+03  0.53030417363E+03  0.90142041971E+02 0.  0.
        -11    1    4    4    0    0 -0.69213671501E+02  0.46752661098E+02 -0.39436590617E+03  0.40311389407E+03  0.00000000000E+00 0. -1.
         11    1    4    4    0    0  0.28349196874E+02  0.21073362470E+02 -0.12218675724E+03  0.12719027956E+03  0.00000000000E+00 0.  1.
        -13    1    3    3    0    0  0.71675634656E+02  0.42617105226E+02 -0.13228139370E+03  0.15637129334E+03  0.00000000000E+00 0. -1.
         13    1    3    3    0    0  0.16201270079E+02 -0.13163798576E+02  0.98799792106E+01  0.23095037006E+02  0.00000000000E+00 0.  1.
         21    1    1    2  502  501 -0.47012430107E+02 -0.97279330218E+02  0.34532151206E+02  0.11342797776E+03  0.00000000000E+00 0.  1.
<scales pt_clust_5="13000.00000" pt_clust_6="13000.00000" pt_clust_7="13000.00000" pt_clust_8="13000.00000" pt_clust_9="108.04368"></scales>
<clustering>
<clus scale="   90.142">  5  6 -1 -1</clus>
<clus scale="   92.931">  7  8 -1 -1</clus>
<clus scale="  108.044">  1  9  2 -1</clus>
<clus scale="  114.104">  2  5  1 -1</clus>
<clus scale="  114.104">  2  5  1 -1</clus>
</clustering>
</event>
<event>
 9    1  0.6202448E-006  0.9687527E+02  0.7546771E-02  0.1288085E+00
          1   -1    0    0  502    0  0.00000000000E+00  0.00000000000E+00  0.96714666721E+03  0.96714666721E+03  0.00000000000E+00 0. -1.
         -1   -1    0    0    0  501 -0.00000000000E+00 -0.00000000000E+00 -0.15259154954E+02  0.15259154954E+02  0.00000000000E+00 0.  1.
         23    2    1    2    0    0 -0.22141420673E+02 -0.57638257194E-01  0.27455739944E+03  0.29039960014E+03  0.91977803511E+02 0.  0.
         23    2    1    2    0    0  0.35744092018E+02 -0.34861217885E+02  0.44984806488E+03  0.46145808971E+03  0.89929652835E+02 0.  0.
        -13    1    4    4    0    0 -0.12601583004E+02  0.22941325088E+02  0.15126158993E+03  0.15350952049E+03  0.00000000000E+00 0.  1.
         13    1    4    4    0    0  0.48345675022E+02 -0.57802542972E+02  0.29858647494E+03  0.30794856922E+03  0.00000000000E+00 0. -1.
        -13    1    3    3    0    0 -0.37800459836E+02 -0.37966623617E+02  0.15797143909E+03  0.16680921689E+03  0.00000000000E+00 0. -1.
         13    1    3    3    0    0  0.15659039162E+02  0.37908985360E+02  0.11658596035E+03  0.12359038324E+03  0.00000000000E+00 0.  1.
         21    1    1    2  502  501 -0.13602671344E+02  0.34918856142E+02  0.22748204793E+03  0.23054813232E+03  0.00000000000E+00 0.  1.
<scales pt_clust_5="13000.00000" pt_clust_6="13000.00000" pt_clust_7="13000.00000" pt_clust_8="13000.00000" pt_clust_9="37.47478"></scales>
<clustering>
<clus scale="   37.475">  1  9  2 -1</clus>
<clus scale="   89.930">  5  6 -1 -1</clus>
<clus scale="   91.978">  7  8 -1 -1</clus>
<clus scale="   94.933">  1  5  2 -1</clus>
<clus scale="   37.475">  1  5  2 -1</clus>
</clustering>
</event>
<event>
 9    1  0.6202448E-006  0.1389953E+03  0.7546771E-02  0.1215219E+00
         -1   -1    0    0    0  501 -0.00000000000E+00  0.00000000000E+00  0.70733271413E+03  0.70733271413E+03  0.00000000000E+00 0.  1.
          1   -1    0    0  502    0  0.00000000000E+00 -0.00000000000E+00 -0.80191035151E+02  0.80191035151E+02  0.00000000000E+00 0. -1.
         23    2    1    2    0    0 -0.68083252339E+02  0.10223568929E+03  0.49774982094E+03  0.52125908601E+03  0.94173696423E+02 0.  0.
         23    2    1    2    0    0  0.76033259405E+02  0.10440407749E+02  0.63736704075E+02  0.13561358330E+03  0.91861950112E+02 0.  0.
        -13    1    3    3    0    0  0.12778377908E+02  0.64123187326E+02  0.21085691912E+03  0.22076165979E+03  0.00000000000E+00 0.  1.
         13    1    3    3    0    0 -0.80861630247E+02  0.38112501960E+02  0.28689290182E+03  0.30049742622E+03  0.00000000000E+00 0. -1.
        -13    1    4    4    0    0  0.11098151719E+02  0.44675491545E+02  0.28961281428E+02  0.54385883630E+02  0.00000000000E+00 0.  1.
         13    1    4    4    0    0  0.64935107687E+02 -0.34235083795E+02  0.34775422647E+02  0.81227699666E+02  0.00000000000E+00 0. -1.
         21    1    1    2  502  501 -0.79500070662E+01 -0.11267609704E+03  0.65655153972E+02  0.13065107997E+03  0.00000000000E+00 0. -1.
<scales pt_clust_5="13000.00000" pt_clust_6="13000.00000" pt_clust_7="13000.00000" pt_clust_8="13000.00000" pt_clust_9="112.95621"></scales>
<clustering>
<clus scale="   91.862">  7  8 -1 -1</clus>
<clus scale="   94.174">  5  6 -1 -1</clus>
<clus scale="  112.956">  2  9  1 -1</clus>
<clus scale="  137.440">  2  7  1 -1</clus>
<clus scale="  112.956">  2  5  1 -1</clus>
</clustering>
</event>
<event>
 9    1  0.6202448E-006  0.1437396E+03  0.7546771E-02  0.1232880E+00
         -1   -1    0    0    0  501 -0.00000000000E+00  0.00000000000E+00  0.17391120801E+03  0.17391120801E+03  0.00000000000E+00 0.  1.
          1   -1    0    0  502    0  0.00000000000E+00 -0.00000000000E+00 -0.21626960395E+03  0.21626960395E+03  0.00000000000E+00 0. -1.
         23    2    1    2    0    0 -0.15003723162E+02 -0.14861380207E+02  0.33270705878E+02  0.92195484644E+02  0.83349236282E+02 0.  0.
         23    2    1    2    0    0 -0.89571136608E+02 -0.54080671063E+02 -0.99210685387E+02  0.17052945725E+03  0.91048493675E+02 0.  0.
        -13    1    3    3    0    0  0.19352534741E+02 -0.37751458586E+02  0.63127359746E+01  0.42889903960E+02  0.00000000000E+00 0. -1.
         13    1    3    3    0    0 -0.34356257903E+02  0.22890078378E+02  0.26957969903E+02  0.49305580684E+02  0.00000000000E+00 0.  1.
        -13    1    4    4    0    0 -0.75724100164E+01 -0.47111893542E+02 -0.92475848051E+01  0.48604420903E+02  0.00000000000E+00 0.  1.
         13    1    4    4    0    0 -0.81998726592E+02 -0.69687775205E+01 -0.89963100582E+02  0.12192503635E+03  0.00000000000E+00 0. -1.
         21    1    1    2  502  501  0.10457485977E+03  0.68942051270E+02  0.23581583566E+02  0.12745587006E+03  0.00000000000E+00 0.  1.
<scales pt_clust_5="13000.00000" pt_clust_6="13000.00000" pt_clust_7="13000.00000" pt_clust_8="13000.00000" pt_clust_9="111.22609"></scales>
<clustering>
<clus scale="   83.349">  5  6 -1 -1</clus>
<clus scale="   85.983">  1  5  2 -1</clus>
<clus scale="   91.048">  7  8 -1 -1</clus>
<clus scale="  111.226">  1  9  2 -1</clus>
<clus scale="  143.740">  2  5  1 -1</clus>
</clustering>
</event>
<event>
 9    1  0.6202448E-006  0.9927031E+02  0.7546771E-02  0.1283071E+00
         -2   -1    0    0    0  501 -0.00000000000E+00  0.00000000000E+00  0.29901530135E+02  0.29901530135E+02  0.00000000000E+00 0.  1.
          2   -1    0    0  502    0  0.00000000000E+00 -0.00000000000E+00 -0.67420849226E+03  0.67420849226E+03  0.00000000000E+00 0. -1.
         23    2    1    2    0    0 -0.21877558171E+02 -0.24564012114E+02 -0.95038131079E+02  0.13703932397E+03  0.93088730313E+02 0.  0.
         23    2    1    2    0    0  0.24082522359E+02 -0.16407824471E+02 -0.39956932211E+03  0.41184990010E+03  0.95475192846E+02 0.  0.
        -11    1    4    4    0    0  0.14437159780E+02  0.39377262414E+02 -0.13840431552E+03  0.14461934494E+03  0.00000000000E+00 0.  1.
         11    1    4    4    0    0  0.96453625782E+01 -0.55785086885E+02 -0.26116500659E+03  0.26723055515E+03  0.00000000000E+00 0. -1.
        -11    1    3    3    0    0 -0.42114069152E+02 -0.20561633468E+02 -0.79420802250E+01  0.47533695730E+02  0.00000000000E+00 0.  1.
         11    1    3    3    0    0  0.20236510981E+02 -0.40023786458E+01 -0.87096050854E+02  0.89505628236E+02  0.00000000000E+00 0. -1.
         21    1    1    2  502  501 -0.22049641880E+01  0.40971836585E+02 -0.14969950894E+03  0.15522079834E+03  0.00000000000E+00 0. -1.
<scales pt_clust_5="13000.00000" pt_clust_6="13000.00000" pt_clust_7="13000.00000" pt_clust_8="13000.00000" pt_clust_9="41.03113"></scales>
<clustering>
<clus scale="   41.031">  2  9  1 -1</clus>
<clus scale="   93.089">  7  8 -1 -1</clus>
<clus scale="   95.475">  5  6 -1 -1</clus>
<clus scale="   96.977">  1  7  2 -1</clus>
<clus scale="   41.031">  2  5  1 -1</clus>
</clustering>
</event>
<event>
 9    1  0.6202448E-006  0.1043010E+03  0.7546771E-02  0.1271859E+00
         -1   -1    0    0    0  501 -0.00000000000E+00  0.00000000000E+00  0.13076254185E+03  0.13076254185E+03  0.00000000000E+00 0.  1.
          1   -1    0    0  502    0  0.00000000000E+00 -0.00000000000E+00 -0.19035622221E+03  0.19035622221E+03  0.00000000000E+00 0. -1.
         23    2    1    2    0    0  0.11071576229E+02 -0.31890279062E+01  0.22740402165E+02  0.94425582285E+02  0.90919277384E+02 0.  0.
         23    2    1    2    0    0 -0.55233341271E+02 -0.37130776311E+02 -0.11252414758E+03  0.15970521173E+03  0.91731424969E+02 0.  0.
        -11    1    4    4    0    0  0.69947967420E+01 -0.26814571847E+02  0.32107623328E+01  0.27897265808E+02  0.00000000000E+00 0.  1.
         11    1    4    4    0    0 -0.62228138013E+02 -0.10316204464E+02 -0.11573490991E+03  0.13180794592E+03  0.00000000000E+00 0. -1.
        -11    1    3    3    0    0 -0.35176816166E+02  0.11732315543E+02  0.26661802494E+02  0.45671734540E+02  0.00000000000E+00 0. -1.
         11    1    3    3    0    0  0.46248392395E+02 -0.14921343449E+02 -0.39214003294E+01  0.48753847746E+02  0.00000000000E+00 0.  1.
         21    1    1    2  502  501  0.44161765043E+02  0.40319804217E+02  0.30190065057E+02  0.66987970054E+02  0.00000000000E+00 0.  1.
<scales pt_clust_5="13000.00000" pt_clust_6="13000.00000" pt_clust_7="13000.00000" pt_clust_8="13000.00000" pt_clust_9="59.79923"></scales>
<clustering>
<clus scale="   59.799">  1  9  2 -1</clus>
<clus scale="   90.919">  7  8 -1 -1</clus>
<clus scale="   91.731">  5  6 -1 -1</clus>
<clus scale="  103.587">  1  7  2 -1</clus>
<clus scale="  104.301">  2  5  1 -1</clus>
</clustering>
</event>
<event>
 9    1  0.6202448E-006  0.1043629E+03  0.7546771E-02  0.1273230E+00
         -1   -1    0    0    0  501 -0.00000000000E+00  0.00000000000E+00  0.28681967947E+03  0.28681967947E+03  0.00000000000E+00 0.  1.
          1   -1    0    0  502    0  0.00000000000E+00 -0.00000000000E+00 -0.53304316421E+02  0.53304316421E+02  0.00000000000E+00 0. -1.
         23    2    1    2    0    0  0.60011342865E+02 -0.19824022895E+02  0.13036215483E+03  0.17101659788E+03  0.90873715566E+02 0.  0.
         23    2    1    2    0    0 -0.28058256505E+02  0.14048409264E+02  0.66094021107E+02  0.11983528836E+03  0.94907603219E+02 0.  0.
        -11    1    4    4    0    0 -0.38086546906E+02 -0.31627097202E+02  0.17795033984E+02  0.52607238733E+02  0.00000000000E+00 0. -1.
         11    1    4    4    0    0  0.10028290401E+02  0.45675506465E+02  0.48298987123E+02  0.67228049625E+02  0.00000000000E+00 0.  1.
        -13    1    3    3    0    0  0.25953284846E+02  0.28961109477E+02  0.15897789087E+02  0.42012599947E+02  0.00000000000E+00 0.  1.
         13    1    3    3    0    0  0.34058058019E+02 -0.48785132372E+02  0.11446436574E+03  0.12900399793E+03  0.00000000000E+00 0. -1.
         21    1    1    2  502  501 -0.31953086359E+02  0.57756136310E+01  0.37059187109E+02  0.49272109655E+02  0.00000000000E+00 0.  1.
<scales pt_clust_5="13000.00000" pt_clust_6="13000.00000" pt_clust_7="13000.00000" pt_clust_8="13000.00000" pt_clust_9="32.47087"></scales>
<clustering>
<clus scale="   32.471">  1  9  2 -1</clus>
<clus scale="   90.874">  7  8 -1 -1</clus>
<clus scale="   94.908">  5  6 -1 -1</clus>
<clus scale="  100.709">  1  7  2 -1</clus>
<clus scale="  104.363">  2  5  1 -1</clus>
</clustering>
</event>
<event>
 9    1  0.6202448E-006  0.1286191E+03  0.7546771E-02  0.1229826E+00
          2   -1    0    0  502    0  0.00000000000E+00  0.00000000000E+00  0.29124802065E+03  0.29124802065E+03  0.00000000000E+00 0. -1.
         -2   -1    0    0    0  501 -0.00000000000E+00 -0.00000000000E+00 -0.18956316714E+03  0.18956316714E+03  0.00000000000E+00 0.  1.
         23    2    1    2    0    0  0.86873352880E+02  0.72587733374E+02 -0.90287901300E+02  0.17170980540E+03  0.92284308908E+02 0.  0.
         23    2    1    2    0    0 -0.66981816452E+02  0.38151948314E+02  0.53863242766E+02  0.13096326846E+03  0.91148197285E+02 0.  0.
        -13    1    4    4    0    0  0.20136380785E+01 -0.25310698536E+02  0.81424310966E+01  0.26664309158E+02  0.00000000000E+00 0.  1.
         13    1    4    4    0    0 -0.68995454530E+02  0.63462646850E+02  0.45720811669E+02  0.10429895930E+03  0.00000000000E+00 0. -1.
        -13    1    3    3    0    0  0.33167342848E+02 -0.13314887816E+02 -0.52650098576E+02  0.63634831258E+02  0.00000000000E+00 0. -1.
         13    1    3    3    0    0  0.53706010032E+02  0.85902621190E+02 -0.37637802725E+02  0.10807497414E+03  0.00000000000E+00 0.  1.
         21    1    1    2  502  501 -0.19891536429E+02 -0.11073968169E+03  0.13810951205E+03  0.17813811394E+03  0.00000000000E+00 0. -1.
<scales pt_clust_5="13000.00000" pt_clust_6="13000.00000" pt_clust_7="13000.00000" pt_clust_8="13000.00000" pt_clust_9="112.51200"></scales>
<clustering>
<clus scale="   91.148">  5  6 -1 -1</clus>
<clus scale="   92.284">  7  8 -1 -1</clus>
<clus scale="  112.512">  1  9  2 -1</clus>
<clus scale="  127.806">  1  5  2 -1</clus>
<clus scale="  112.512">  1  5  2 -1</clus>
</clustering>
</event>
<event>
 9    1  0.6202448E-006  0.1277235E+03  0.7546771E-02  0.1232453E+00
         -2   -1    0    0    0  501 -0.00000000000E+00  0.00000000000E+00  0.58504559724E+02  0.58504559724E+02  0.00000000000E+00 0.  1.
          2   -1    0    0  502    0  0.00000000000E+00 -0.00000000000E+00 -0.80935120474E+03  0.80935120474E+03  0.00000000000E+00 0. -1.
         23    2    1    2    0    0 -0.58790628276E+02 -0.70889013296E+02 -0.41718932423E+02  0.13969107589E+03  0.96392619947E+02 0.  0.
         23    2    1    2    0    0  0.77977380899E+01  0.55318899650E+02 -0.37795631189E+03  0.39272885279E+03  0.90906505477E+02 0.  0.
        -13    1    3    3    0    0 -0.82278049679E+02 -0.60328656504E+02 -0.15958620152E+02  0.10326616973E+03  0.00000000000E+00 0.  1.
         13    1    3    3    0    0  0.23487421404E+02 -0.10560356792E+02 -0.25760312271E+02  0.36424906150E+02  0.00000000000E+00 0. -1.
        -13    1    4    4    0    0 -0.13876704269E+02  0.74828822845E+02 -0.29981327188E+03  0.30932169928E+03  0.00000000000E+00 0. -1.
         13    1    4    4    0    0  0.21674442359E+02 -0.19509923195E+02 -0.78143040012E+02  0.83407153512E+02  0.00000000000E+00 0.  1.
         21    1    1    2  502  501  0.50992890186E+02  0.15570113646E+02 -0.33117140070E+03  0.33543583579E+03  0.00000000000E+00 0. -1.
<scales pt_clust_5="13000.00000" pt_clust_6="13000.00000" pt_clust_7="13000.00000" pt_clust_8="13000.00000" pt_clust_9="53.31701"></scales>
<clustering>
<clus scale="   53.317">  2  9  1 -1</clus>
<clus scale="   90.907">  7  8 -1 -1</clus>
<clus scale="   96.393">  5  6 -1 -1</clus>
<clus scale="  123.636">  2  7  1 -1</clus>
<clus scale="   53.317">  2  5  1 -1</clus>
</clustering>
</event>
<event>
 9    1  0.6202448E-006  0.1651900E+03  0.7546771E-02  0.1206162E+00
          1   -1    0    0  502    0  0.00000000000E+00  0.00000000000E+00  0.42764623351E+03  0.42764623351E+03  0.00000000000E+00 0. -1.
         -1   -1    0    0    0  501 -0.00000000000E+00 -0.00000000000E+00 -0.21649181463E+03  0.21649181463E+03  0.00000000000E+00 0.  1.
         23    2    1    2    0    0 -0.38792729883E+02 -0.44623676177E+01 -0.95347238314E+02  0.13768173758E+03  0.91325661195E+02 0.  0.
         23    2    1    2    0    0  0.12636322603E+03 -0.67735329477E+02  0.34647229826E+03  0.38612862709E+03  0.92176588375E+02 0.  0.
        -11    1    4    4    0    0  0.99770613635E+02 -0.90747927064E+02  0.26344345867E+03  0.29595914841E+03  0.00000000000E+00 0. -1.
         11    1    4    4    0    0  0.26592612397E+02  0.23012597587E+02  0.83028839597E+02  0.90169478686E+02  0.00000000000E+00 0.  1.
        -11    1    3    3    0    0  0.26666797431E+02  0.16594802434E+01 -0.71171918554E+01  0.27650070160E+02  0.00000000000E+00 0. -1.
         11    1    3    3    0    0 -0.65459527314E+02 -0.61218478611E+01 -0.88230046458E+02  0.11003166742E+03  0.00000000000E+00 0.  1.
         21    1    1    2  502  501 -0.87570496149E+02  0.72197697095E+02 -0.39970641063E+02  0.12032768347E+03  0.00000000000E+00 0.  1.
<scales pt_clust_5="13000.00000" pt_clust_6="13000.00000" pt_clust_7="13000.00000" pt_clust_8="13000.00000" pt_clust_9="137.08108"></scales>
<clustering>
<clus scale="   91.326">  7  8 -1 -1</clus>
<clus scale="   92.177">  5  6 -1 -1</clus>
<clus scale="   99.324">  2  7  1 -1</clus>
<clus scale="  137.081">  2  9  1 -1</clus>
<clus scale="  165.190">  1  5  2 -1</clus>
</clustering>
</event>
<event>
 9    1  0.6202448E-006  0.9663745E+02  0.7546771E-02  0.1289172E+00
          2   -1    0    0  502    0  0.00000000000E+00  0.00000000000E+00  0.53951134016E+03  0.53951134016E+03  0.00000000000E+00 0. -1.
         -2   -1    0    0    0  501 -0.00000000000E+00 -0.00000000000E+00 -0.28736097821E+03  0.28736097821E+03  0.00000000000E+00 0.  1.
         23    2    1    2    0    0  0.21911012312E+02 -0.88612527463E+01 -0.27156366026E+03  0.28826804380E+03  0.93771153568E+02 0.  0.
         23    2    1    2    0    0 -0.93920699988E+00  0.16952989647E+02  0.48607029530E+03  0.49475974240E+03  0.90744612872E+02 0.  0.
        -11    1    3    3    0    0  0.14852285497E+02 -0.49173390090E+02 -0.19255763769E+03  0.19929138594E+03  0.00000000000E+00 0.  1.
         11    1    3    3    0    0  0.70587268150E+01  0.40312137343E+02 -0.79006022570E+02  0.88976657859E+02  0.00000000000E+00 0. -1.
        -11    1    4    4    0    0  0.14803016234E+02  0.51632791897E+02  0.30980836588E+03  0.31443011633E+03  0.00000000000E+00 0. -1.
         11    1    4    4    0    0 -0.15742223234E+02 -0.34679802250E+02  0.17626192942E+03  0.18032962607E+03  0.00000000000E+00 0.  1.
         21    1    1    2  502  501 -0.20971805312E+02 -0.80917369005E+01  0.37643726924E+02  0.43844532166E+02  0.00000000000E+00 0. -1.
<scales pt_clust_5="13000.00000" pt_clust_6="13000.00000" pt_clust_7="13000.00000" pt_clust_8="13000.00000" pt_clust_9="22.47872"></scales>
<clustering>
<clus scale="   22.479">  1  9  2 -1</clus>
<clus scale="   90.745">  7  8 -1 -1</clus>
<clus scale="   93.704">  1  7  2 -1</clus>
<clus scale="   93.771">  5  6 -1 -1</clus>
<clus scale="   22.479">  1  5  2 -1</clus>
</clustering>
</event>
<event>
 9    1  0.6202448E-006  0.3572717E+03  0.7546771E-02  0.1089583E+00
          1   -1    0    0  502    0  0.00000000000E+00  0.00000000000E+00  0.17680889601E+04  0.17680889601E+04  0.00000000000E+00 0. -1.
         -1   -1    0    0    0  501 -0.00000000000E+00 -0.00000000000E+00 -0.13984506583E+03  0.13984506583E+03  0.00000000000E+00 0.  1.
         23    2    1    2    0    0  0.14445469699E+03 -0.33133312870E+03  0.24843446798E+03  0.44861650760E+03  0.94277698046E+02 0.  0.
         23    2    1    2    0    0  0.76182859254E+02  0.10496111309E+03  0.49940299034E+03  0.52388140980E+03  0.90706788455E+02 0.  0.
        -11    1    4    4    0    0 -0.85457455812E+01  0.29993472674E+02  0.39824416544E+02  0.50582826371E+02  0.00000000000E+00 0. -1.
         11    1    4    4    0    0  0.84728604835E+02  0.74967640414E+02  0.45957857380E+03  0.47329858343E+03  0.00000000000E+00 0.  1.
        -11    1    3    3    0    0  0.11594807913E+03 -0.25399982716E+03  0.13980388731E+03  0.31225790007E+03  0.00000000000E+00 0.  1.
         11    1    3    3    0    0  0.28506617859E+02 -0.77333301546E+02  0.10863058067E+03  0.13635860753E+03  0.00000000000E+00 0. -1.
         21    1    1    2  502  501 -0.22063755624E+03  0.22637201561E+03  0.88040643596E+03  0.93543610854E+03  0.00000000000E+00 0. -1.
<scales pt_clust_5="13000.00000" pt_clust_6="13000.00000" pt_clust_7="13000.00000" pt_clust_8="13000.00000" pt_clust_9="344.60816"></scales>
<clustering>
<clus scale="   90.707">  5  6 -1 -1</clus>
<clus scale="   94.278">  7  8 -1 -1</clus>
<clus scale="  158.267">  1  5  2 -1</clus>
<clus scale="  344.608">  1  9  2 -1</clus>
<clus scale="  158.267">  1  5  2 -1</clus>
</clustering>
</event>
<event>
 9    1  0.6202448E-006  0.1138930E+03  0.7546771E-02  0.1255621E+00
          2   -1    0    0  502    0  0.00000000000E+00  0.00000000000E+00  0.37660026174E+03  0.37660026174E+03  0.00000000000E+00 0. -1.
         -2   -1    0    0    0  501 -0.00000000000E+00 -0.00000000000E+00 -0.17406442156E+03  0.17406442156E+03  0.00000000000E+00 0.  1.
         23    2    1    2    0    0 -0.44071466797E+02 -0.53854590736E+02 -0.10857180438E+03  0.15941543950E+03  0.93716778200E+02 0.  0.
         23    2    1    2    0    0 -0.71607131491E+02  0.42008143277E+02  0.16693206138E+03  0.20602377255E+03  0.87676772047E+02 0.  0.
        -11    1    3    3    0    0 -0.91274859786E+01 -0.73871099971E+02 -0.55764779048E+02  0.93005166488E+02  0.00000000000E+00 0.  1.
         11    1    3    3    0    0 -0.34943980818E+02  0.20016509235E+02 -0.52807025329E+02  0.66410273012E+02  0.00000000000E+00 0. -1.
        -11    1    4    4    0    0 -0.57551508731E+02 -0.13952484841E+02  0.11021408226E+03  0.12511591393E+03  0.00000000000E+00 0.  1.
         11    1    4    4    0    0 -0.14055622760E+02  0.55960628118E+02  0.56717979118E+02  0.80907858615E+02  0.00000000000E+00 0. -1.
         21    1    1    2  502  501  0.11567859829E+03  0.11846447459E+02  0.14417558317E+03  0.18522547126E+03  0.00000000000E+00 0.  1.
<scales pt_clust_5="13000.00000" pt_clust_6="13000.00000" pt_clust_7="13000.00000" pt_clust_8="13000.00000" pt_clust_9="116.28360"></scales>
<clustering>
<clus scale="   87.677">  7  8 -1 -1</clus>
<clus scale="   93.717">  5  6 -1 -1</clus>
<clus scale="  116.284">  1  9  2 -1</clus>
<clus scale="  116.284">  1  7  2 -1</clus>
<clus scale="  113.893">  1  5  2 -1</clus>
</clustering>
</event>
<event>
 9    1  0.6202448E-006  0.1002532E+03  0.7546771E-02  0.1280953E+00
         -2   -1    0    0    0  501 -0.00000000000E+00  0.00000000000E+00  0.82085925191E+02  0.82085925191E+02  0.00000000000E+00 0.  1.
          2   -1    0    0  502    0  0.00000000000E+00 -0.00000000000E+00 -0.32906973475E+03  0.32906973475E+03  0.00000000000E+00 0. -1.
         23    2    1    2    0    0  0.28892310342E+02 -0.26530980693E+02  0.12200365884E+02  0.98825639100E+02  0.89883254739E+02 0.  0.
         23    2    1    2    0    0 -0.58849243175E+02 -0.20190089100E+02 -0.12653534533E+03  0.16853854572E+03  0.92321041237E+02 0.  0.
        -11    1    3    3    0    0  0.11140116704E+02 -0.37390383634E+02  0.45264315271E+02  0.59757854926E+02  0.00000000000E+00 0.  1.
         11    1    3    3    0    0  0.17752193638E+02  0.10859402940E+02 -0.33063949387E+02  0.39067784174E+02  0.00000000000E+00 0. -1.
        -13    1    4    4    0    0  0.24294254303E+02 -0.13786340202E+02 -0.31031808097E+02  0.41752210506E+02  0.00000000000E+00 0.  1.
         13    1    4    4    0    0 -0.83143497478E+02 -0.64037488984E+01 -0.95503537235E+02  0.12678633521E+03  0.00000000000E+00 0. -1.
         21    1    1    2  502  501  0.29956932833E+02  0.46721069794E+02 -0.13264883011E+03  0.14379147512E+03  0.00000000000E+00 0. -1.
<scales pt_clust_5="13000.00000" pt_clust_6="13000.00000" pt_clust_7="13000.00000" pt_clust_8="13000.00000" pt_clust_9="55.50024"></scales>
<clustering>
<clus scale="   55.500">  2  9  1 -1</clus>
<clus scale="   89.883">  5  6 -1 -1</clus>
<clus scale="   92.321">  7  8 -1 -1</clus>
<clus scale="   98.013">  1  5  2 -1</clus>
<clus scale="   55.500">  2  5  1 -1</clus>
</clustering>
</event>
<event>
 9    1  0.6202448E-006  0.1236367E+03  0.7546771E-02  0.1245726E+00
          2   -1    0    0  502    0  0.00000000000E+00  0.00000000000E+00  0.87297148819E+03  0.87297148819E+03  0.00000000000E+00 0. -1.
         -2   -1    0    0    0  501 -0.00000000000E+00 -0.00000000000E+00 -0.35359223981E+02  0.35359223981E+02  0.00000000000E+00 0.  1.
         23    2    1    2    0    0 -0.79152678187E+01 -0.66090156542E+02  0.16036608974E+03  0.19636830104E+03  0.91720590164E+02 0.  0.
         23    2    1    2    0    0  0.72666409917E+01 -0.49242049421E+02  0.33715224385E+03  0.35284429672E+03  0.91377670651E+02 0.  0.
        -13    1    4    4    0    0 -0.15748335601E+02 -0.69964064825E+02  0.20744838828E+03  0.21949445150E+03  0.00000000000E+00 0.  1.
         13    1    4    4    0    0  0.23014976593E+02  0.20722015404E+02  0.12970385557E+03  0.13334984522E+03  0.00000000000E+00 0. -1.
        -13    1    3    3    0    0 -0.79934690356E+01 -0.89418671768E+02  0.13210223877E+03  0.15972036782E+03  0.00000000000E+00 0.  1.
         13    1    3    3    0    0  0.78201216843E-01  0.23328515226E+02  0.28263850965E+02  0.36647933221E+02  0.00000000000E+00 0. -1.
         21    1    1    2  502  501  0.64862682698E+00  0.11533220596E+03  0.34009393062E+03  0.35911811440E+03  0.00000000000E+00 0. -1.
<scales pt_clust_5="13000.00000" pt_clust_6="13000.00000" pt_clust_7="13000.00000" pt_clust_8="13000.00000" pt_clust_9="82.90580"></scales>
<clustering>
<clus scale="   91.378">  5  6 -1 -1</clus>
<clus scale="   91.721">  7  8 -1 -1</clus>
<clus scale="  104.055">  1  5  2 -1</clus>
<clus scale="   82.906">  1  9  2 -1</clus>
<clus scale="  104.055">  1  5  2 -1</clus>
</clustering>
</event>
<event>
 9    1  0.6202448E-006  0.1032453E+03  0.7546771E-02  0.1274781E+00
         -2   -1    0    0    0  501 -0.00000000000E+00  0.00000000000E+00  0.79408139577E+02  0.79408139577E+02  0.00000000000E+00 0.  1.
          2   -1    0    0  502    0  0.00000000000E+00 -0.00000000000E+00 -0.24611812484E+03  0.24611812484E+03  0.00000000000E+00 0. -1.
         23    2    1    2    0    0  0.33836274469E+01 -0.36679592109E+02 -0.21468485981E+02  0.10027079327E+03  0.90755135842E+02 0.  0.
         23    2    1    2    0    0  0.45203201867E+02  0.31046839029E+02 -0.13868025476E+03  0.17590511329E+03  0.93290729181E+02 0.  0.
        -11    1    3    3    0    0 -0.31179546234E+02 -0.22979816906E+02 -0.42543143098E+02  0.57533947484E+02  0.00000000000E+00 0. -1.
         11    1    3    3    0    0  0.34563173681E+02 -0.13699775204E+02  0.21074657117E+02  0.42736845791E+02  0.00000000000E+00 0.  1.
        -13    1    4    4    0    0  0.15250921415E+02 -0.33553044820E+02 -0.51783254381E+02  0.63560230136E+02  0.00000000000E+00 0. -1.
         13    1    4    4    0    0  0.29952280453E+02  0.64599883849E+02 -0.86897000374E+02  0.11234488316E+03  0.00000000000E+00 0.  1.
         21    1    1    2  502  501 -0.48586829314E+02  0.56327530802E+01 -0.65612445280E+01  0.49350357849E+02  0.00000000000E+00 0. -1.
<scales pt_clust_5="13000.00000" pt_clust_6="13000.00000" pt_clust_7="13000.00000" pt_clust_8="13000.00000" pt_clust_9="48.91225"></scales>
<clustering>
<clus scale="   48.912">  1  9  2 -1</clus>
<clus scale="   90.755">  5  6 -1 -1</clus>
<clus scale="   93.291">  7  8 -1 -1</clus>
<clus scale="  100.960">  1  5  2 -1</clus>
<clus scale="  103.245">  2  5  1 -1</clus>
</clustering>
</event>
<event>
 9    1  0.6202448E-006  0.1113795E+03  0.7546771E-02  0.1262059E+00
          4   -1    0    0  502    0  0.00000000000E+00  0.00000000000E+00  0.20549691327E+03  0.20549691327E+03  0.00000000000E+00 0. -1.
         -4   -1    0    0    0  501 -0.00000000000E+00 -0.00000000000E+00 -0.16334442390E+03  0.16334442390E+03  0.00000000000E+00 0.  1.
         23    2    1    2    0    0 -0.23848426904E+02 -0.64388488996E+02  0.35680635318E+01  0.12012645821E+03  0.98503857302E+02 0.  0.
         23    2    1    2    0    0  0.63819783597E+02 -0.39571547878E+02  0.64778020726E+02  0.13429677272E+03  0.90556937967E+02 0.  0.
        -13    1    4    4    0    0  0.75828293363E+02 -0.18563444053E+01  0.54508774771E+02  0.93405474229E+02  0.00000000000E+00 0. -1.
         13    1    4    4    0    0 -0.12008509766E+02 -0.37715203473E+02  0.10269245955E+02  0.40891298491E+02  0.00000000000E+00 0.  1.
        -13    1    3    3    0    0  0.21401019145E+02 -0.48993719585E+01  0.33134794505E+02  0.39748233583E+02  0.00000000000E+00 0. -1.
         13    1    3    3    0    0 -0.45249446048E+02 -0.59489117037E+02 -0.29566730974E+02  0.80378224626E+02  0.00000000000E+00 0.  1.
         21    1    1    2  502  501 -0.39971356693E+02  0.10396003687E+03 -0.26193594894E+02  0.11441810624E+03  0.00000000000E+00 0. -1.
<scales pt_clust_5="13000.00000" pt_clust_6="13000.00000" pt_clust_7="13000.00000" pt_clust_8="13000.00000" pt_clust_9="111.37953"></scales>
<clustering>
<clus scale="   90.557">  5  6 -1 -1</clus>
<clus scale="   98.504">  7  8 -1 -1</clus>
<clus scale="  111.380">  2  9  1 -1</clus>
<clus scale="  102.912">  1  5  2 -1</clus>
<clus scale="  102.912">  1  5  2 -1</clus>
</clustering>
</event>
<event>
 9    1  0.6202448E-006  0.1232701E+03  0.7546771E-02  0.1242011E+00
         -1   -1    0    0    0  501 -0.00000000000E+00  0.00000000000E+00  0.53895063428E+02  0.53895063428E+02  0.00000000000E+00 0.  1.
          1   -1    0    0  502    0  0.00000000000E+00 -0.00000000000E+00 -0.41136413559E+03  0.41136413559E+03  0.00000000000E+00 0. -1.
         23    2    1    2    0    0 -0.61308523543E+01 -0.48687840607E+02 -0.97737575996E+02  0.14278423597E+03  0.91796574587E+02 0.  0.
         23    2    1    2    0    0 -0.37907453369E+02  0.76803247098E+02 -0.21482862146E+03  0.25358289812E+03  0.10400594135E+03 0.  0.
        -11    1    3    3    0    0  0.28729074754E+02  0.11703105712E+02 -0.14628741909E+02  0.34297558359E+02  0.00000000000E+00 0.  1.
         11    1    3    3    0    0 -0.34859927109E+02 -0.60390946319E+02 -0.83108834087E+02  0.10848667761E+03  0.00000000000E+00 0. -1.
        -11    1    4    4    0    0 -0.54392171352E+01  0.66642976283E+02 -0.45516223898E+02  0.80886327700E+02  0.00000000000E+00 0.  1.
         11    1    4    4    0    0 -0.32468236234E+02  0.10160270815E+02 -0.16931239756E+03  0.17269657042E+03  0.00000000000E+00 0. -1.
         21    1    1    2  502  501  0.44038305724E+02 -0.28115406491E+02 -0.44902874710E+02  0.68892064930E+02  0.00000000000E+00 0. -1.
<scales pt_clust_5="13000.00000" pt_clust_6="13000.00000" pt_clust_7="13000.00000" pt_clust_8="13000.00000" pt_clust_9="52.24795"></scales>
<clustering>
<clus scale="   52.248">  1  9  2 -1</clus>
<clus scale="   91.797">  5  6 -1 -1</clus>
<clus scale="  104.006">  7  8 -1 -1</clus>
<clus scale="  113.159">  1  5  2 -1</clus>
<clus scale="  123.270">  2  5  1 -1</clus>
</clustering>
</event>
<event>
 9    1  0.6202448E-006  0.9543568E+02  0.7546771E-02  0.1291430E+00
          2   -1    0    0  502    0  0.00000000000E+00  0.00000000000E+00  0.50272767139E+03  0.50272767139E+03  0.00000000000E+00 0. -1.
         -2   -1    0    0    0  501 -0.00000000000E+00 -0.00000000000E+00 -0.33277227902E+02  0.33277227902E+02  0.00000000000E+00 0.  1.
         23    2    1    2    0    0  0.12045875880E+02 -0.45224309206E+02  0.23471450496E+03  0.25599548678E+03  0.90842991728E+02 0.  0.
         23    2    1    2    0    0 -0.27548377245E+02 -0.17299544908E+01  0.19721008627E+03  0.21793510208E+03  0.88554981555E+02 0.  0.
        -11    1    4    4    0    0  0.83488163217E+01 -0.35382677948E+02  0.44322942888E+02  0.57325037279E+02  0.00000000000E+00 0. -1.
         11    1    4    4    0    0 -0.35897193567E+02  0.33652723458E+02  0.15288714339E+03  0.16061006480E+03  0.00000000000E+00 0.  1.
        -13    1    3    3    0    0 -0.26156929600E+02 -0.16298009468E+02  0.21786234738E+02  0.37741887907E+02  0.00000000000E+00 0.  1.
         13    1    3    3    0    0  0.38202805480E+02 -0.28926299737E+02  0.21292827022E+03  0.21825359887E+03  0.00000000000E+00 0. -1.
         21    1    1    2  502  501  0.15502501365E+02  0.46954263697E+02  0.37525852254E+02  0.62074310429E+02  0.00000000000E+00 0. -1.
<scales pt_clust_5="13000.00000" pt_clust_6="13000.00000" pt_clust_7="13000.00000" pt_clust_8="13000.00000" pt_clust_9="49.44725"></scales>
<clustering>
<clus scale="   49.447">  2  9  1 -1</clus>
<clus scale="   88.555">  5  6 -1 -1</clus>
<clus scale="   90.843">  7  8 -1 -1</clus>
<clus scale="   93.260">  1  5  2 -1</clus>
<clus scale="   93.260">  1  5  2 -1</clus>
</clustering>
</event>
<event>
 9    1  0.6202448E-006  0.1726401E+03  0.7546771E-02  0.1196421E+00
         -2   -1    0    0    0  501 -0.00000000000E+00  0.00000000000E+00  0.21848737931E+03  0.21848737931E+03  0.00000000000E+00 0.  1.
          2   -1    0    0  502    0  0.00000000000E+00 -0.00000000000E+00 -0.52851836586E+03  0.52851836586E+03  0.00000000000E+00 0. -1.
         23    2    1    2    0    0 -0.16302334525E+02  0.50938287003E+02  0.11625215166E+01  0.10747095593E+03  0.93210405632E+02 0.  0.
         23    2    1    2    0    0 -0.13171453647E+03 -0.42966430772E+02  0.10607210162E+03  0.19672203693E+03  0.90848422010E+02 0.  0.
        -13    1    4    4    0    0 -0.95680776966E+02  0.11801411926E+02  0.42350860435E+02  0.10529805214E+03  0.00000000000E+00 0. -1.
         13    1    4    4    0    0 -0.36033759506E+02 -0.54767842698E+02  0.63721241182E+02  0.91423984794E+02  0.00000000000E+00 0.  1.
        -13    1    3    3    0    0 -0.35459057818E+02  0.67270210508E+02 -0.15063338507E+02  0.77521159499E+02  0.00000000000E+00 0. -1.
         13    1    3    3    0    0  0.19156723292E+02 -0.16331923505E+02  0.16225860024E+02  0.29949796430E+02  0.00000000000E+00 0.  1.
         21    1    1    2  502  501  0.14801687100E+03 -0.79718562313E+01 -0.41726560968E+03  0.44281275232E+03  0.00000000000E+00 0. -1.
<scales pt_clust_5="13000.00000" pt_clust_6="13000.00000" pt_clust_7="13000.00000" pt_clust_8="13000.00000" pt_clust_9="146.80318"></scales>
<clustering>
<clus scale="   90.848">  5  6 -1 -1</clus>
<clus scale="   93.210">  7  8 -1 -1</clus>
<clus scale="  107.465">  1  7  2 -1</clus>
<clus scale="  146.803">  2  9  1 -1</clus>
<clus scale="  146.803">  2  5  1 -1</clus>
</clustering>
</event>
<event>
 9    1  0.6202448E-006  0.9444705E+02  0.7546771E-02  0.1293696E+00
         -1   -1    0    0    0  501 -0.00000000000E+00  0.00000000000E+00  0.27368890755E+03  0.27368890755E+03  0.00000000000E+00 0.  1.
          1   -1    0    0  502    0  0.00000000000E+00 -0.00000000000E+00 -0.21955087895E+03  0.21955087895E+03  0.00000000000E+00 0. -1.
         23    2    1    2    0    0 -0.26259345803E+01 -0.71913104465E+01  0.22355306687E+03  0.24253651049E+03  0.93751665242E+02 0.  0.
         23    2    1    2    0    0  0.23152334733E+02  0.29431709530E+02 -0.23447789572E+02  0.10163146060E+03  0.91525399856E+02 0.  0.
        -11    1    3    3    0    0 -0.19269215527E+01  0.38226200421E+02  0.49036890881E+02  0.62205884710E+02  0.00000000000E+00 0. -1.
         11    1    3    3    0    0 -0.69901302761E+00 -0.45417510867E+02  0.17451617599E+03  0.18033062578E+03  0.00000000000E+00 0.  1.
        -13    1    4    4    0    0 -0.89098303449E+01 -0.29239987691E+02  0.61230192093E+00  0.30573466774E+02  0.00000000000E+00 0.  1.
         13    1    4    4    0    0  0.32062165078E+02  0.58671697221E+02 -0.24060091493E+02  0.71057993828E+02  0.00000000000E+00 0. -1.
         21    1    1    2  502  501 -0.20526400153E+02 -0.22240399084E+02 -0.14596724870E+03  0.14907181541E+03  0.00000000000E+00 0. -1.
<scales pt_clust_5="13000.00000" pt_clust_6="13000.00000" pt_clust_7="13000.00000" pt_clust_8="13000.00000" pt_clust_9="30.26497"></scales>
<clustering>
<clus scale="   30.265">  2  9  1 -1</clus>
<clus scale="   91.525">  7  8 -1 -1</clus>
<clus scale="   92.238">  2  7  1 -1</clus>
<clus scale="   93.752">  5  6 -1 -1</clus>
<clus scale="   30.265">  2  5  1 -1</clus>
</clustering>
</event>
<event>
 9    1  0.6202448E-006  0.1060284E+03  0.7546771E-02  0.1269550E+00
         -1   -1    0    0    0  501 -0.00000000000E+00  0.00000000000E+00  0.10810040025E+04  0.10810040025E+04  0.00000000000E+00 0.  1.
          1   -1    0    0  502    0  0.00000000000E+00 -0.00000000000E+00 -0.17127041554E+02  0.17127041554E+02  0.00000000000E+00 0. -1.
         23    2    1    2    0    0  0.50722624753E+02  0.76873657575E+01  0.44962021921E+03  0.46280391242E+03  0.96939360317E+02 0.  0.
         23    2    1    2    0    0 -0.27629205390E+02  0.42832714938E+02  0.39920030758E+03  0.41321262413E+03  0.93732452785E+02 0.  0.
        -11    1    4    4    0    0  0.28548889734E+02 -0.83276654145E+01  0.88783705221E+02  0.93631914586E+02  0.00000000000E+00 0. -1.
         11    1    4    4    0    0 -0.56178095124E+02  0.51160380353E+02  0.31041660236E+03  0.31958070954E+03  0.00000000000E+00 0.  1.
        -13    1    3    3    0    0  0.60768465516E+02  0.39419583058E+02  0.35971129830E+03  0.36693177575E+03  0.00000000000E+00 0. -1.
         13    1    3    3    0    0 -0.10045840764E+02 -0.31732217301E+02  0.89908920910E+02  0.95872136675E+02  0.00000000000E+00 0.  1.
         21    1    1    2  502  501 -0.23093419363E+02 -0.50520080696E+02  0.21505643414E+03  0.22211450749E+03  0.00000000000E+00 0.  1.
<scales pt_clust_5="13000.00000" pt_clust_6="13000.00000" pt_clust_7="13000.00000" pt_clust_8="13000.00000" pt_clust_9="55.54804"></scales>
<clustering>
<clus scale="   55.548">  2  9  1 -1</clus>
<clus scale="   93.732">  5  6 -1 -1</clus>
<clus scale="   96.939">  7  8 -1 -1</clus>
<clus scale="  103.105">  2  5  1 -1</clus>
<clus scale="   55.548">  2  5  1 -1</clus>
</clustering>
</event>
<event>
 9    1  0.6202448E-006  0.1421879E+03  0.7546771E-02  0.1211020E+00
         -2   -1    0    0    0  501 -0.00000000000E+00  0.00000000000E+00  0.40192918286E+03  0.40192918286E+03  0.00000000000E+00 0.  1.
          2   -1    0    0  502    0  0.00000000000E+00 -0.00000000000E+00 -0.15004744015E+03  0.15004744015E+03  0.00000000000E+00 0. -1.
         23    2    1    2    0    0  0.84133876533E+02 -0.55039178993E+02  0.27406399506E+03  0.30578299391E+03  0.91018380422E+02 0.  0.
         23    2    1    2    0    0 -0.10971351143E+03  0.70560895842E+02  0.49823968142E+02  0.16821839453E+03  0.93803549214E+02 0.  0.
        -11    1    3    3    0    0  0.28569607989E+02 -0.39821985412E+02  0.22449564872E+03  0.22978317893E+03  0.00000000000E+00 0.  1.
         11    1    3    3    0    0  0.55564268544E+02 -0.15217193581E+02  0.49568346335E+02  0.75999814984E+02  0.00000000000E+00 0. -1.
        -11    1    4    4    0    0 -0.71328882781E+01  0.50237616483E+02 -0.34449554262E+01  0.50858272906E+02  0.00000000000E+00 0.  1.
         11    1    4    4    0    0 -0.10258062315E+03  0.20323279359E+02  0.53268923568E+02  0.11736012162E+03  0.00000000000E+00 0. -1.
         21    1    1    2  502  501  0.25579634894E+02 -0.15521716850E+02 -0.72006220494E+02  0.77975234563E+02  0.00000000000E+00 0. -1.
<scales pt_clust_5="13000.00000" pt_clust_6="13000.00000" pt_clust_7="13000.00000" pt_clust_8="13000.00000" pt_clust_9="29.92059"></scales>
<clustering>
<clus scale="   29.921">  2  9  1 -1</clus>
<clus scale="   91.018">  5  6 -1 -1</clus>
<clus scale="   93.804">  7  8 -1 -1</clus>
<clus scale="  140.366">  1  5  2 -1</clus>
<clus scale="   29.921">  2  5  1 -1</clus>
</clustering>
</event>
<event>
 9    1  0.6202448E-006  0.1566737E+03  0.7546771E-02  0.1213982E+00
          2   -1    0    0  502    0  0.00000000000E+00  0.00000000000E+00  0.70930494862E+03  0.70930494862E+03  0.00000000000E+00 0. -1.
         -2   -1    0    0    0  501 -0.00000000000E+00 -0.00000000000E+00 -0.52985262070E+02  0.52985262070E+02  0.00000000000E+00 0.  1.
         23    2    1    2    0    0  0.11558570073E+02  0.11494176338E+03  0.22330847214E+03  0.26749032253E+03  0.91319162326E+02 0.  0.
         23    2    1    2    0    0  0.17661445858E+01  0.25209420976E+02  0.17016272293E+03  0.19662337673E+03  0.95219566412E+02 0.  0.
        -13    1    3    3    0    0  0.48340107825E+02  0.60971810157E+02  0.89506553477E+02  0.11859911793E+03  0.00000000000E+00 0.  1.
         13    1    3    3    0    0 -0.36781537752E+02  0.53969953221E+02  0.13380191866E+03  0.14889120460E+03  0.00000000000E+00 0. -1.
        -13    1    4    4    0    0  0.28894606970E+02  0.43632274563E+02  0.14816643509E+03  0.15713677540E+03  0.00000000000E+00 0. -1.
         13    1    4    4    0    0 -0.27128462384E+02 -0.18422853586E+02  0.21996287837E+02  0.39486601325E+02  0.00000000000E+00 0.  1.
         21    1    1    2  502  501 -0.13324714659E+02 -0.14015118435E+03  0.26284849149E+03  0.29817651144E+03  0.00000000000E+00 0.  1.
<scales pt_clust_5="13000.00000" pt_clust_6="13000.00000" pt_clust_7="13000.00000" pt_clust_8="13000.00000" pt_clust_9="127.30854"></scales>
<clustering>
<clus scale="   91.319">  5  6 -1 -1</clus>
<clus scale="   95.220">  7  8 -1 -1</clus>
<clus scale="   98.516">  1  7  2 -1</clus>
<clus scale="  127.309">  1  9  2 -1</clus>
<clus scale="   98.516">  1  5  2 -1</clus>
</clustering>
</event>
<event>
 9    1  0.6202448E-006  0.1088963E+03  0.7546771E-02  0.1262754E+00
          1   -1    0    0  502    0  0.00000000000E+00  0.00000000000E+00  0.59224476221E+03  0.59224476221E+03  0.00000000000E+00 0. -1.
         -1   -1    0    0    0  501 -0.00000000000E+00 -0.00000000000E+00 -0.51429661567E+02  0.51429661567E+02  0.00000000000E+00 0.  1.
         23    2    1    2    0    0 -0.35776752119E+01  0.15624764304E+02  0.51783772988E+02  0.10697224799E+03  0.92220223793E+02 0.  0.
         23    2    1    2    0    0  0.67070403816E+02  0.45616466322E+02  0.36083489058E+03  0.38108681217E+03  0.91902334464E+02 0.  0.
        -11    1    3    3    0    0  0.84536584688E+01 -0.18711683648E+02  0.65074847080E+02  0.68237285767E+02  0.00000000000E+00 0. -1.
         11    1    3    3    0    0 -0.12031333681E+02  0.34336447953E+02 -0.13291074092E+02  0.38734962226E+02  0.00000000000E+00 0.  1.
        -11    1    4    4    0    0 -0.81803179844E+01 -0.20551677193E+02  0.75172204671E+02  0.78359105360E+02  0.00000000000E+00 0.  1.
         11    1    4    4    0    0  0.75250721800E+02  0.66168143515E+02  0.28566268591E+03  0.30272770681E+03  0.00000000000E+00 0. -1.
         21    1    1    2  502  501 -0.63492728604E+02 -0.61241230627E+02  0.12819643707E+03  0.15561536361E+03  0.00000000000E+00 0.  1.
<scales pt_clust_5="13000.00000" pt_clust_6="13000.00000" pt_clust_7="13000.00000" pt_clust_8="13000.00000" pt_clust_9="88.21460"></scales>
<clustering>
<clus scale="   88.215">  2  9  1 -1</clus>
<clus scale="   91.902">  7  8 -1 -1</clus>
<clus scale="   92.220">  5  6 -1 -1</clus>
<clus scale="  108.627">  1  7  2 -1</clus>
<clus scale="  108.627">  1  5  2 -1</clus>
</clustering>
</event>
<event>
 9    1  0.6202448E-006  0.9355988E+02  0.7546771E-02  0.1294739E+00
         -2   -1    0    0    0  501 -0.00000000000E+00  0.00000000000E+00  0.12940510006E+03  0.12940510006E+03  0.00000000000E+00 0.  1.
          2   -1    0    0  502    0  0.00000000000E+00 -0.00000000000E+00 -0.26071241527E+03  0.26071241527E+03  0.00000000000E+00 0. -1.
         23    2    1    2    0    0  0.38548648588E+02  0.84528603425E+01  0.29398752311E+02  0.10460181012E+03  0.92302778323E+02 0.  0.
         23    2    1    2    0    0  0.28026352278E+02 -0.10574733537E+02  0.14023789303E+02  0.98520368499E+02  0.92802451106E+02 0.  0.
        -11    1    4    4    0    0  0.13624841919E+02 -0.27268073467E+02  0.48685599472E+02  0.57441028402E+02  0.00000000000E+00 0.  1.
         11    1    4    4    0    0  0.14401510359E+02  0.16693339929E+02 -0.34661810169E+02  0.41079340097E+02  0.00000000000E+00 0. -1.
        -13    1    3    3    0    0 -0.27749126585E+02 -0.65770679132E+01  0.22398103223E+02  0.36262196245E+02  0.00000000000E+00 0.  1.
         13    1    3    3    0    0  0.66297775173E+02  0.15029928256E+02  0.70006490884E+01  0.68339613870E+02  0.00000000000E+00 0. -1.
         21    1    1    2  502  501 -0.66575000866E+02  0.21218731949E+01 -0.17472985682E+03  0.18699533671E+03  0.00000000000E+00 0.  1.
<scales pt_clust_5="13000.00000" pt_clust_6="13000.00000" pt_clust_7="13000.00000" pt_clust_8="13000.00000" pt_clust_9="66.60881"></scales>
<clustering>
<clus scale="   66.609">  2  9  1 -1</clus>
<clus scale="   92.303">  7  8 -1 -1</clus>
<clus scale="   92.802">  5  6 -1 -1</clus>
<clus scale="   93.064">  1  7  2 -1</clus>
<clus scale="   66.609">  2  5  1 -1</clus>
</clustering>
</event>
<event>
 9    1  0.6202448E-006  0.1322209E+03  0.7546771E-02  0.1240686E+00
          2   -1    0    0  502    0  0.00000000000E+00  0.00000000000E+00  0.34747943116E+03  0.34747943116E+03  0.00000000000E+00 0. -1.
         -2   -1    0    0    0  501 -0.00000000000E+00 -0.00000000000E+00 -0.82280611357E+02  0.82280611357E+02  0.00000000000E+00 0.  1.
         23    2    1    2    0    0 -0.11320757668E+02  0.31103745803E+02  0.30968091447E+02  0.99153387124E+02  0.88185990572E+02 0.  0.
         23    2    1    2    0    0 -0.35978121022E+02  0.71464083092E+02  0.12141619512E+03  0.17096811882E+03  0.89925885323E+02 0.  0.
        -11    1    3    3    0    0  0.36244306259E+02  0.23429473223E+00  0.20004505502E+02  0.41399092630E+02  0.00000000000E+00 0.  1.
         11    1    3    3    0    0 -0.47565063927E+02  0.30869451071E+02  0.10963585946E+02  0.57754294495E+02  0.00000000000E+00 0. -1.
        -13    1    4    4    0    0  0.27826984798E+02  0.51063226447E+01  0.29827156457E+02  0.41110520262E+02  0.00000000000E+00 0.  1.
         13    1    4    4    0    0 -0.63805105820E+02  0.66357760447E+02  0.91589038663E+02  0.12985759856E+03  0.00000000000E+00 0. -1.
         21    1    1    2  502  501  0.47298878690E+02 -0.10256782889E+03  0.11281453323E+03  0.15963853657E+03  0.00000000000E+00 0.  1.
<scales pt_clust_5="13000.00000" pt_clust_6="13000.00000" pt_clust_7="13000.00000" pt_clust_8="13000.00000" pt_clust_9="96.93148"></scales>
<clustering>
<clus scale="   88.186">  5  6 -1 -1</clus>
<clus scale="   89.926">  7  8 -1 -1</clus>
<clus scale="   94.193">  2  5  1 -1</clus>
<clus scale="   96.931">  2  9  1 -1</clus>
<clus scale="  132.221">  1  5  2 -1</clus>
</clustering>
</event>
<event>
 9    1  0.6202448E-006  0.9973858E+02  0.7546771E-02  0.1281400E+00
          3   -1    0    0  502    0  0.00000000000E+00  0.00000000000E+00  0.14465346344E+03  0.14465346344E+03  0.00000000000E+00 0. -1.
         -3   -1    0    0    0  501 -0.00000000000E+00 -0.00000000000E+00 -0.31260582483E+03  0.31260582483E+03  0.00000000000E+00 0.  1.
         23    2    1    2    0    0 -0.98465039615E+01 -0.70703980649E+02 -0.55223774623E+02  0.12814251604E+03  0.90966106948E+02 0.  0.
         23    2    1    2    0    0 -0.21966461371E+02  0.25988030275E+02  0.81302661838E+02  0.12747425087E+03  0.92095921034E+02 0.  0.
        -11    1    4    4    0    0 -0.54398019022E+02  0.18820591378E+02  0.26446599226E+02  0.63346521167E+02  0.00000000000E+00 0. -1.
         11    1    4    4    0    0  0.32431557652E+02  0.71674388967E+01  0.54856062612E+02  0.64127729706E+02  0.00000000000E+00 0.  1.
        -13    1    3    3    0    0  0.20856429801E+02 -0.61417599788E+02 -0.67670378902E+02  0.93735758430E+02  0.00000000000E+00 0.  1.
         13    1    3    3    0    0 -0.30702933762E+02 -0.92863808608E+01  0.12446604279E+02  0.34406757609E+02  0.00000000000E+00 0. -1.
         21    1    1    2  502  501  0.31812965332E+02  0.44715950374E+02 -0.19403124861E+03  0.20164252136E+03  0.00000000000E+00 0. -1.
<scales pt_clust_5="13000.00000" pt_clust_6="13000.00000" pt_clust_7="13000.00000" pt_clust_8="13000.00000" pt_clust_9="54.87787"></scales>
<clustering>
<clus scale="   54.878">  2  9  1 -1</clus>
<clus scale="   90.966">  7  8 -1 -1</clus>
<clus scale="   92.096">  5  6 -1 -1</clus>
<clus scale="   98.696">  2  7  1 -1</clus>
<clus scale="   99.739">  1  5  2 -1</clus>
</clustering>
</event>
<event>
 9    1  0.6202448E-006  0.1136532E+03  0.7546771E-02  0.1254185E+00
          3   -1    0    0  502    0  0.00000000000E+00  0.00000000000E+00  0.20279018714E+03  0.20279018714E+03  0.00000000000E+00 0. -1.
         -3   -1    0    0    0  501 -0.00000000000E+00 -0.00000000000E+00 -0.89457951743E+02  0.89457951743E+02  0.00000000000E+00 0.  1.
         23    2    1    2    0    0  0.15586890937E+02 -0.44672040259E+02  0.27605786220E+02  0.10714467468E+03  0.92083437868E+02 0.  0.
         23    2    1    2    0    0 -0.41823883126E+02  0.73303244239E+02  0.72878462826E+02  0.14419874132E+03  0.91429775455E+02 0.  0.
        -11    1    4    4    0    0 -0.19325247967E+02  0.91391760865E+02  0.66413495731E+02  0.11461532000E+03  0.00000000000E+00 0. -1.
         11    1    4    4    0    0 -0.22498635160E+02 -0.18088516626E+02  0.64649670946E+01  0.29583421326E+02  0.00000000000E+00 0.  1.
        -13    1    3    3    0    0 -0.26218408005E+02 -0.54434473649E+02  0.19223591767E+02  0.63403969278E+02  0.00000000000E+00 0.  1.
         13    1    3    3    0    0  0.41805298941E+02  0.97624333897E+01  0.83821944530E+01  0.43740705403E+02  0.00000000000E+00 0. -1.
         21    1    1    2  502  501  0.26236992190E+02 -0.28631203979E+02  0.12847986348E+02  0.40904722877E+02  0.00000000000E+00 0.  1.
<scales pt_clust_5="13000.00000" pt_clust_6="13000.00000" pt_clust_7="13000.00000" pt_clust_8="13000.00000" pt_clust_9="38.83459"></scales>
<clustering>
<clus scale="   38.835">  2  9  1 -1</clus>
<clus scale="   91.430">  5  6 -1 -1</clus>
<clus scale="   92.083">  7  8 -1 -1</clus>
<clus scale="  113.124">  1  5  2 -1</clus>
<clus scale="  113.124">  1  5  2 -1</clus>
</clustering>
</event>
<event>
 9    1  0.6202448E-006  0.9668157E+02  0.7546771E-02  0.1298549E+00
         -1   -1    0    0    0  501 -0.00000000000E+00  0.00000000000E+00  0.15193304231E+03  0.15193304231E+03  0.00000000000E+00 0.  1.
          1   -1    0    0  502    0  0.00000000000E+00 -0.00000000000E+00 -0.11818040630E+03  0.11818040630E+03  0.00000000000E+00 0. -1.
         23    2    1    2    0    0 -0.24676591998E+02  0.29412577349E+02  0.31273099482E+02  0.10353305967E+03  0.90923340203E+02 0.  0.
         23    2    1    2    0    0  0.34817505845E+02  0.22302211915E+01 -0.57455043530E+02  0.98051134456E+02  0.71384244350E+02 0.  0.
        -13    1    4    4    0    0 -0.19092281087E+02 -0.13394342209E+02 -0.17286099996E+02  0.29029861408E+02  0.00000000000E+00 0.  1.
         13    1    4    4    0    0  0.53909786932E+02  0.15624563400E+02 -0.40168943534E+02  0.69021273048E+02  0.00000000000E+00 0. -1.
        -13    1    3    3    0    0 -0.12509064843E+02  0.58093632709E+02  0.50426104351E-01  0.59425158034E+02  0.00000000000E+00 0.  1.
         13    1    3    3    0    0 -0.12167527155E+02 -0.28681055359E+02  0.31222673378E+02  0.44107901633E+02  0.00000000000E+00 0. -1.
         21    1    1    2  502  501 -0.10140913847E+02 -0.31642798541E+02  0.59934580058E+02  0.68529254482E+02  0.00000000000E+00 0.  1.
<scales pt_clust_5="13000.00000" pt_clust_6="13000.00000" pt_clust_7="13000.00000" pt_clust_8="13000.00000" pt_clust_9="33.22807"></scales>
<clustering>
<clus scale="   33.228">  1  9  2 -1</clus>
<clus scale="   71.384">  5  6 -1 -1</clus>
<clus scale="   78.587">  2  5  1 -1</clus>
<clus scale="   90.923">  7  8 -1 -1</clus>
<clus scale="   78.587">  2  5  1 -1</clus>
</clustering>
</event>
<event>
 9    1  0.6202448E-006  0.1454341E+03  0.7546771E-02  0.1226803E+00
         -1   -1    0    0    0  501 -0.00000000000E+00  0.00000000000E+00  0.10253415615E+03  0.10253415615E+03  0.00000000000E+00 0.  1.
          1   -1    0    0  502    0  0.00000000000E+00 -0.00000000000E+00 -0.34773276147E+03  0.34773276147E+03  0.00000000000E+00 0. -1.
         23    2    1    2    0    0 -0.14920133064E+02 -0.24977249810E+02 -0.55999463362E+02  0.10951557188E+03  0.89505570827E+02 0.  0.
         23    2    1    2    0    0  0.11865704438E+03  0.52992804877E+02 -0.54018428960E+02  0.16806653673E+03  0.91872947873E+02 0.  0.
        -11    1    3    3    0    0  0.13978429508E+02 -0.17935693503E+02  0.18489381697E+02  0.29307726430E+02  0.00000000000E+00 0.  1.
         11    1    3    3    0    0 -0.28898562572E+02 -0.70415563068E+01 -0.74488845058E+02  0.80207845452E+02  0.00000000000E+00 0. -1.
        -13    1    4    4    0    0  0.48666809402E+02  0.12471531627E+02 -0.69467078263E+02  0.85730230379E+02  0.00000000000E+00 0. -1.
         13    1    4    4    0    0  0.69990234974E+02  0.40521273250E+02  0.15448649303E+02  0.82336306347E+02  0.00000000000E+00 0.  1.
         21    1    1    2  502  501 -0.10373691131E+03 -0.28015555068E+02 -0.13518071301E+03  0.17268480901E+03  0.00000000000E+00 0. -1.
<scales pt_clust_5="13000.00000" pt_clust_6="13000.00000" pt_clust_7="13000.00000" pt_clust_8="13000.00000" pt_clust_9="112.74053"></scales>
<clustering>
<clus scale="   89.506">  5  6 -1 -1</clus>
<clus scale="   91.873">  7  8 -1 -1</clus>
<clus scale="   94.115">  1  5  2 -1</clus>
<clus scale="  112.741">  2  9  1 -1</clus>
<clus scale="  112.741">  2  5  1 -1</clus>
</clustering>
</event>
<event>
 9    1  0.6202448E-006  0.9924910E+02  0.7546771E-02  0.1285026E+00
          1   -1    0    0  502    0  0.00000000000E+00  0.00000000000E+00  0.53097399537E+03  0.53097399537E+03  0.00000000000E+00 0. -1.
         -1   -1    0    0    0  501 -0.00000000000E+00 -0.00000000000E+00 -0.28619499286E+02  0.28619499286E+02  0.00000000000E+00 0.  1.
         23    2    1    2    0    0  0.39969867187E+01  0.10801876916E+02  0.12092554528E+03  0.15572988370E+03  0.97448205355E+02 0.  0.
         23    2    1    2    0    0 -0.35184772405E+02 -0.13361376725E+02  0.25336958676E+03  0.27203633861E+03  0.91603097298E+02 0.  0.
        -11    1    3    3    0    0  0.17185470224E+02  0.51774570279E+02  0.59480230560E+02  0.80708390777E+02  0.00000000000E+00 0.  1.
         11    1    3    3    0    0 -0.13188483505E+02 -0.40972693363E+02  0.61445314724E+02  0.75021492922E+02  0.00000000000E+00 0. -1.
        -11    1    4    4    0    0  0.10486098322E+02 -0.41487728185E+02  0.14397756261E+03  0.15020229154E+03  0.00000000000E+00 0. -1.
         11    1    4    4    0    0 -0.45670870728E+02  0.28126351460E+02  0.10939202415E+03  0.12183404707E+03  0.00000000000E+00 0.  1.
         21    1    1    2  502  501  0.31187785687E+02  0.25594998095E+01  0.12805936404E+03  0.13182727234E+03  0.00000000000E+00 0. -1.
<scales pt_clust_5="13000.00000" pt_clust_6="13000.00000" pt_clust_7="13000.00000" pt_clust_8="13000.00000" pt_clust_9="31.29264"></scales>
<clustering>
<clus scale="   31.293">  1  9  2 -1</clus>
<clus scale="   91.603">  7  8 -1 -1</clus>
<clus scale="   93.517">  1  7  2 -1</clus>
<clus scale="   97.448">  5  6 -1 -1</clus>
<clus scale="   31.293">  1  5  2 -1</clus>
</clustering>
</event>
<event>
 9    1  0.6202448E-006  0.1829554E+03  0.7546771E-02  0.1194033E+00
          1   -1    0    0  502    0  0.00000000000E+00  0.00000000000E+00  0.70888725047E+03  0.70888725047E+03  0.00000000000E+00 0. -1.
         -1   -1    0    0    0  501 -0.00000000000E+00 -0.00000000000E+00 -0.66101044710E+02  0.66101044710E+02  0.00000000000E+00 0.  1.
         23    2    1    2    0    0 -0.83146372781E+02  0.11657730024E+03  0.26690553257E+03  0.31891986853E+03  0.99838534590E+02 0.  0.
         23    2    1    2    0    0 -0.24309907870E+02  0.48101708872E+01  0.15905749431E+03  0.18533966701E+03  0.91855300910E+02 0.  0.
        -11    1    3    3    0    0  0.80672838447E+01  0.60671834868E+02  0.14092835792E+03  0.15364554885E+03  0.00000000000E+00 0.  1.
         11    1    3    3    0    0 -0.91213656625E+02  0.55905465371E+02  0.12597717465E+03  0.16527431968E+03  0.00000000000E+00 0. -1.
        -13    1    4    4    0    0  0.24133650739E+02  0.31036952459E+02  0.55099406657E+02  0.67688035353E+02  0.00000000000E+00 0.  1.
         13    1    4    4    0    0 -0.48443558609E+02 -0.26226781572E+02  0.10395808765E+03  0.11765163166E+03  0.00000000000E+00 0. -1.
         21    1    1    2  502  501  0.10745628065E+03 -0.12138747113E+03  0.21682317887E+03  0.27072875964E+03  0.00000000000E+00 0. -1.
<scales pt_clust_5="13000.00000" pt_clust_6="13000.00000" pt_clust_7="13000.00000" pt_clust_8="13000.00000" pt_clust_9="153.31324"></scales>
<clustering>
<clus scale="   91.855">  7  8 -1 -1</clus>
<clus scale="   95.139">  1  7  2 -1</clus>
<clus scale="   99.839">  5  6 -1 -1</clus>
<clus scale="  153.313">  2  9  1 -1</clus>
<clus scale="   95.139">  1  5  2 -1</clus>
</clustering>
</event>
<event>
 9    1  0.6202448E-006  0.2807875E+03  0.7546771E-02  0.1137140E+00
          2   -1    0    0  502    0  0.00000000000E+00  0.00000000000E+00  0.47252186148E+03  0.47252186148E+03  0.00000000000E+00 0. -1.
         -2   -1    0    0    0  501 -0.00000000000E+00 -0.00000000000E+00 -0.46158179527E+03  0.46158179527E+03  0.00000000000E+00 0.  1.
         23    2    1    2    0    0  0.21450692827E+03 -0.11067693508E+03  0.27040991221E+03  0.37335049787E+03  0.89478865673E+02 0.  0.
         23    2    1    2    0    0  0.41091074413E+02  0.23322663628E+02  0.80431216173E+02  0.12659438633E+03  0.85583497708E+02 0.  0.
        -11    1    4    4    0    0  0.78855283719E+01  0.40734222404E+02  0.78811548650E+02  0.89065810686E+02  0.00000000000E+00 0. -1.
         11    1    4    4    0    0  0.33205546041E+02 -0.17411558776E+02  0.16196675226E+01  0.37528575643E+02  0.00000000000E+00 0.  1.
        -13    1    3    3    0    0  0.33541798398E+02 -0.19539870488E+02  0.10448314134E+03  0.11146113943E+03  0.00000000000E+00 0.  1.
         13    1    3    3    0    0  0.18096512987E+03 -0.91137064597E+02  0.16592677087E+03  0.26188935844E+03  0.00000000000E+00 0. -1.
         21    1    1    2  502  501 -0.25559800269E+03  0.87354271457E+02 -0.33990106217E+03  0.43415877255E+03  0.00000000000E+00 0.  1.
<scales pt_clust_5="13000.00000" pt_clust_6="13000.00000" pt_clust_7="13000.00000" pt_clust_8="13000.00000" pt_clust_9="266.14874"></scales>
<clustering>
<clus scale="   85.583">  5  6 -1 -1</clus>
<clus scale="   89.479">  7  8 -1 -1</clus>
<clus scale="   97.760">  1  5  2 -1</clus>
<clus scale="  266.149">  2  9  1 -1</clus>
<clus scale="   97.760">  1  5  2 -1</clus>
</clustering>
</event>
<event>
 9    1  0.6202448E-006  0.9525982E+02  0.7546771E-02  0.1292772E+00
         -2   -1    0    0    0  501 -0.00000000000E+00  0.00000000000E+00  0.14495967973E+03  0.14495967973E+03  0.00000000000E+00 0.  1.
          2   -1    0    0  502    0  0.00000000000E+00 -0.00000000000E+00 -0.31844252542E+03  0.31844252542E+03  0.00000000000E+00 0. -1.
         23    2    1    2    0    0  0.14205821895E+02 -0.37170943603E+02  0.83579230927E+02  0.13110859782E+03  0.92846605518E+02 0.  0.
         23    2    1    2    0    0  0.14177929746E+02 -0.40757025144E+02 -0.53323939614E+02  0.11232171334E+03  0.88941418709E+02 0.  0.
        -11    1    4    4    0    0 -0.30030574823E+02 -0.36134654129E+02 -0.59499852257E+01  0.47359803393E+02  0.00000000000E+00 0.  1.
         11    1    4    4    0    0  0.44208504568E+02 -0.46223710146E+01 -0.47373954388E+02  0.64961909950E+02  0.00000000000E+00 0. -1.
        -11    1    3    3    0    0  0.29636399539E+02 -0.10670508877E+02 -0.96674113819E+01  0.32948972369E+02  0.00000000000E+00 0. -1.
         11    1    3    3    0    0 -0.15430577644E+02 -0.26500434726E+02  0.93246642309E+02  0.98159625453E+02  0.00000000000E+00 0.  1.
         21    1    1    2  502  501 -0.28383751641E+02  0.77927968747E+02 -0.20373813700E+03  0.21997189398E+03  0.00000000000E+00 0. -1.
<scales pt_clust_5="13000.00000" pt_clust_6="13000.00000" pt_clust_7="13000.00000" pt_clust_8="13000.00000" pt_clust_9="82.93615"></scales>
<clustering>
<clus scale="   82.936">  2  9  1 -1</clus>
<clus scale="   88.941">  5  6 -1 -1</clus>
<clus scale="   91.458">  2  5  1 -1</clus>
<clus scale="   92.847">  7  8 -1 -1</clus>
<clus scale="   82.936">  2  5  1 -1</clus>
</clustering>
</event>
<event>
 9    1  0.6202448E-006  0.1495774E+03  0.7546771E-02  0.1219689E+00
          1   -1    0    0  502    0  0.00000000000E+00  0.00000000000E+00  0.10111217024E+03  0.10111217024E+03  0.00000000000E+00 0. -1.
         -1   -1    0    0    0  501 -0.00000000000E+00 -0.00000000000E+00 -0.36947713206E+03  0.36947713206E+03  0.00000000000E+00 0.  1.
         23    2    1    2    0    0 -0.26257891643E+02 -0.25951252168E+02 -0.86156307918E+02  0.13227212317E+03  0.93327706562E+02 0.  0.
         23    2    1    2    0    0 -0.10404388324E+03  0.45224511191E+02 -0.53596798590E+02  0.15422203965E+03  0.89674046648E+02 0.  0.
        -13    1    3    3    0    0 -0.22163231254E+02  0.29760923985E+02 -0.60098397486E+02  0.70631004498E+02  0.00000000000E+00 0. -1.
         13    1    3    3    0    0 -0.40946603897E+01 -0.55712176154E+02 -0.26057910432E+02  0.61641118675E+02  0.00000000000E+00 0.  1.
        -13    1    4    4    0    0  0.12446027554E+01  0.29262295174E+02 -0.35798663443E+02  0.46253381057E+02  0.00000000000E+00 0. -1.
         13    1    4    4    0    0 -0.10528848600E+03  0.15962216017E+02 -0.17798135147E+02  0.10796865859E+03  0.00000000000E+00 0.  1.
         21    1    1    2  502  501  0.13030177488E+03 -0.19273259023E+02 -0.12861185531E+03  0.18409513947E+03  0.00000000000E+00 0. -1.
<scales pt_clust_5="13000.00000" pt_clust_6="13000.00000" pt_clust_7="13000.00000" pt_clust_8="13000.00000" pt_clust_9="119.71619"></scales>
<clustering>
<clus scale="   89.674">  7  8 -1 -1</clus>
<clus scale="   93.328">  5  6 -1 -1</clus>
<clus scale="  100.364">  2  5  1 -1</clus>
<clus scale="  119.716">  2  9  1 -1</clus>
<clus scale="  149.577">  1  5  2 -1</clus>
</clustering>
</event>
<event>
 9    1  0.6202448E-006  0.1021371E+03  0.7546771E-02  0.1277856E+00
         -2   -1    0    0    0  501 -0.00000000000E+00  0.00000000000E+00  0.15465997047E+03  0.15465997047E+03  0.00000000000E+00 0. -1.
          2   -1    0    0  502    0  0.00000000000E+00 -0.00000000000E+00 -0.20137369059E+03  0.20137369059E+03  0.00000000000E+00 0.  1.
         23    2    1    2    0    0 -0.18975433315E+02 -0.23613018733E+02  0.51529655712E+02  0.10679790711E+03  0.88503366165E+02 0.  0.
         23    2    1    2    0    0  0.47708491571E+02 -0.77189033804E+01 -0.14962897062E+03  0.18254424525E+03  0.92724813210E+02 0.  0.
        -11    1    3    3    0    0 -0.36489890190E+01  0.26414969416E+02 -0.77116091492E+01  0.27758505828E+02  0.00000000000E+00 0.  1.
         11    1    3    3    0    0 -0.15326444296E+02 -0.50027988149E+02  0.59241264861E+02  0.79039401284E+02  0.00000000000E+00 0. -1.
        -11    1    4    4    0    0 -0.23366616183E+02 -0.20942371245E+02 -0.34847093785E+02  0.46892447265E+02  0.00000000000E+00 0. -1.
         11    1    4    4    0    0  0.71075107754E+02  0.13223467864E+02 -0.11478187684E+03  0.13565179798E+03  0.00000000000E+00 0.  1.
         21    1    1    2  502  501 -0.28733058256E+02  0.31331922113E+02  0.51385594793E+02  0.66691508697E+02  0.00000000000E+00 0. -1.
<scales pt_clust_5="13000.00000" pt_clust_6="13000.00000" pt_clust_7="13000.00000" pt_clust_8="13000.00000" pt_clust_9="42.51209"></scales>
<clustering>
<clus scale="   42.512">  1  9  2 -1</clus>
<clus scale="   88.503">  5  6 -1 -1</clus>
<clus scale="   92.725">  7  8 -1 -1</clus>
<clus scale="   98.321">  1  5  2 -1</clus>
<clus scale="  102.137">  2  5  1 -1</clus>
</clustering>
</event>
<event>
 9    1  0.6202448E-006  0.1272564E+03  0.7546771E-02  0.1243633E+00
          2   -1    0    0  502    0  0.00000000000E+00  0.00000000000E+00  0.30232478744E+02  0.30232478744E+02  0.00000000000E+00 0. -1.
         -2   -1    0    0    0  501 -0.00000000000E+00 -0.00000000000E+00 -0.91847571811E+03  0.91847571811E+03  0.00000000000E+00 0.  1.
         23    2    1    2    0    0  0.37913991708E+02 -0.11925105979E+02 -0.31317541759E+03  0.32861268766E+03  0.91256656673E+02 0.  0.
         23    2    1    2    0    0  0.63138938808E+02  0.17735491513E+02 -0.42459886341E+03  0.43874953384E+03  0.88971261556E+02 0.  0.
        -11    1    3    3    0    0  0.64202439409E+02  0.42330853906E+01 -0.16179253018E+03  0.17411690056E+03  0.00000000000E+00 0.  1.
         11    1    3    3    0    0 -0.26288447701E+02 -0.16158191370E+02 -0.15138288741E+03  0.15449578710E+03  0.00000000000E+00 0. -1.
        -11    1    4    4    0    0  0.52369674393E+02 -0.24459504465E+02 -0.32421465440E+03  0.32932657391E+03  0.00000000000E+00 0.  1.
         11    1    4    4    0    0  0.10769264416E+02  0.42194995978E+02 -0.10038420901E+03  0.10942295993E+03  0.00000000000E+00 0. -1.
         21    1    1    2  502  501 -0.10105293052E+03 -0.58103855337E+01 -0.15046895837E+03  0.18134597536E+03  0.00000000000E+00 0. -1.
<scales pt_clust_5="13000.00000" pt_clust_6="13000.00000" pt_clust_7="13000.00000" pt_clust_8="13000.00000" pt_clust_9="90.98516"></scales>
<clustering>
<clus scale="   88.971">  7  8 -1 -1</clus>
<clus scale="   91.257">  5  6 -1 -1</clus>
<clus scale="   99.536">  2  5  1 -1</clus>
<clus scale="   90.985">  1  9  2 -1</clus>
<clus scale="   90.985">  1  5  2 -1</clus>
</clustering>
</event>
<event>
 9    1  0.6202448E-006  0.1818041E+03  0.7546771E-02  0.1191965E+00
         -3   -1    0    0    0  501 -0.00000000000E+00  0.00000000000E+00  0.59230297745E+02  0.59230297745E+02  0.00000000000E+00 0.  1.
          3   -1    0    0  502    0  0.00000000000E+00 -0.00000000000E+00 -0.93405199873E+03  0.93405199873E+03  0.00000000000E+00 0. -1.
         23    2    1    2    0    0  0.35314728837E+02 -0.83345154553E+01 -0.82985809248E+02  0.13108106612E+03  0.94757623106E+02 0.  0.
         23    2    1    2    0    0  0.13339104148E+03  0.45575882624E+02 -0.37493898229E+03  0.41092350050E+03  0.91698155900E+02 0.  0.
        -11    1    4    4    0    0  0.34149629184E+02 -0.48079214289E+01 -0.20433612721E+03  0.20722588199E+03  0.00000000000E+00 0. -1.
         11    1    4    4    0    0  0.99241412291E+02  0.50383804053E+02 -0.17060285508E+03  0.20369761851E+03  0.00000000000E+00 0.  1.
        -11    1    3    3    0    0  0.46736421306E+02 -0.38083858930E+02 -0.25718735354E+02  0.65544845226E+02  0.00000000000E+00 0.  1.
         11    1    3    3    0    0 -0.11421692469E+02  0.29749343475E+02 -0.57267073894E+02  0.65536220889E+02  0.00000000000E+00 0. -1.
         21    1    1    2  502  501 -0.16870577031E+03 -0.37241367169E+02 -0.41689690945E+03  0.45127772986E+03  0.00000000000E+00 0. -1.
<scales pt_clust_5="13000.00000" pt_clust_6="13000.00000" pt_clust_7="13000.00000" pt_clust_8="13000.00000" pt_clust_9="156.98463"></scales>
<clustering>
<clus scale="   91.698">  5  6 -1 -1</clus>
<clus scale="   94.758">  7  8 -1 -1</clus>
<clus scale="  101.467">  1  7  2 -1</clus>
<clus scale="  156.985">  1  9  2 -1</clus>
<clus scale="  181.804">  2  5  1 -1</clus>
</clustering>
</event>
<event>
 9    1  0.6202448E-006  0.1039690E+03  0.7546771E-02  0.1273599E+00
          3   -1    0    0  502    0  0.00000000000E+00  0.00000000000E+00  0.85296665212E+02  0.85296665212E+02  0.00000000000E+00 0. -1.
         -3   -1    0    0    0  501 -0.00000000000E+00 -0.00000000000E+00 -0.24884630700E+03  0.24884630700E+03  0.00000000000E+00 0.  1.
         23    2    1    2    0    0 -0.30194865524E+02 -0.32731623705E+02 -0.11081308600E+03  0.15008086281E+03  0.90893543544E+02 0.  0.
         23    2    1    2    0    0  0.58714125408E+02 -0.16046617495E+02  0.99053399317E-01  0.10670406782E+03  0.87640777169E+02 0.  0.
        -11    1    3    3    0    0 -0.62423648308E+02 -0.24848711399E+02 -0.64727358699E+02  0.93294165361E+02  0.00000000000E+00 0.  1.
         11    1    3    3    0    0  0.32228782784E+02 -0.78829123063E+01 -0.46085727297E+02  0.56786697445E+02  0.00000000000E+00 0. -1.
        -13    1    4    4    0    0  0.32347897056E+02  0.34352688313E+01  0.42239381325E+02  0.53313721035E+02  0.00000000000E+00 0. -1.
         13    1    4    4    0    0  0.26366228353E+02 -0.19481886327E+02 -0.42140327926E+02  0.53390346788E+02  0.00000000000E+00 0.  1.
         21    1    1    2  502  501 -0.28519259884E+02  0.48778241200E+02 -0.52835609187E+02  0.77358041580E+02  0.00000000000E+00 0.  1.
<scales pt_clust_5="13000.00000" pt_clust_6="13000.00000" pt_clust_7="13000.00000" pt_clust_8="13000.00000" pt_clust_9="56.50367"></scales>
<clustering>
<clus scale="   56.504">  2  9  1 -1</clus>
<clus scale="   87.641">  7  8 -1 -1</clus>
<clus scale="   90.894">  5  6 -1 -1</clus>
<clus scale="  101.138">  1  7  2 -1</clus>
<clus scale="  101.138">  1  5  2 -1</clus>
</clustering>
</event>
<event>
 9    1  0.6202448E-006  0.2200385E+03  0.7546771E-02  0.1161297E+00
         -2   -1    0    0    0  501 -0.00000000000E+00  0.00000000000E+00  0.11833400044E+03  0.11833400044E+03  0.00000000000E+00 0.  1.
          2   -1    0    0  502    0  0.00000000000E+00 -0.00000000000E+00 -0.16362282421E+04  0.16362282421E+04  0.00000000000E+00 0. -1.
         23    2    1    2    0    0 -0.17401421391E+02 -0.67606927444E+02  0.50702274570E+02  0.12523226483E+03  0.90768350221E+02 0.  0.
         23    2    1    2    0    0  0.19793982588E+03 -0.29343017304E+02 -0.59147129911E+03  0.63094773767E+03  0.90639741131E+02 0.  0.
        -11    1    3    3    0    0 -0.40657749944E+02 -0.81588088369E+01 -0.33270067784E+01  0.41601535624E+02  0.00000000000E+00 0. -1.
         11    1    3    3    0    0  0.23256328554E+02 -0.59448118607E+02  0.54029281348E+02  0.83630729201E+02  0.00000000000E+00 0.  1.
        -11    1    4    4    0    0  0.18678196607E+03 -0.90277105454E+01 -0.56787529459E+03  0.59787235478E+03  0.00000000000E+00 0.  1.
         11    1    4    4    0    0  0.11157859808E+02 -0.20315306758E+02 -0.23596004520E+02  0.33075382893E+02  0.00000000000E+00 0. -1.
         21    1    1    2  502  501 -0.18053840449E+03  0.96949944748E+02 -0.97712521712E+03  0.99838224003E+03  0.00000000000E+00 0. -1.
<scales pt_clust_5="13000.00000" pt_clust_6="13000.00000" pt_clust_7="13000.00000" pt_clust_8="13000.00000" pt_clust_9="200.50284"></scales>
<clustering>
<clus scale="   90.640">  7  8 -1 -1</clus>
<clus scale="   90.768">  5  6 -1 -1</clus>
<clus scale="  114.509">  1  5  2 -1</clus>
<clus scale="  200.503">  2  9  1 -1</clus>
<clus scale="  200.503">  2  5  1 -1</clus>
</clustering>
</event>
<event>
 9    1  0.6202448E-006  0.9929754E+02  0.7546771E-02  0.1282295E+00
          2   -1    0    0  502    0  0.00000000000E+00  0.00000000000E+00  0.24719550919E+03  0.24719550919E+03  0.00000000000E+00 0. -1.
         -2   -1    0    0    0  501 -0.00000000000E+00 -0.00000000000E+00 -0.70913139455E+02  0.70913139455E+02  0.00000000000E+00 0.  1.
         23    2    1    2    0    0  0.13000303257E+02  0.47937140529E+02  0.69475780765E+01  0.10206491143E+03  0.88893194209E+02 0.  0.
         23    2    1    2    0    0  0.17420792023E+02 -0.35896979184E+02  0.97694593462E+02  0.13728634696E+03  0.87813611472E+02 0.  0.
        -13    1    4    4    0    0  0.44727494943E+02  0.49924290488E+01  0.31967744461E+02  0.55203349877E+02  0.00000000000E+00 0.  1.
         13    1    4    4    0    0 -0.27306702920E+02 -0.40889408233E+02  0.65726849000E+02  0.82082997079E+02  0.00000000000E+00 0. -1.
        -13    1    3    3    0    0 -0.18873681765E+02 -0.18207494056E+02  0.11204209362E+02  0.28517766578E+02  0.00000000000E+00 0. -1.
         13    1    3    3    0    0  0.31873985022E+02  0.66144634584E+02 -0.42566312859E+01  0.73547144849E+02  0.00000000000E+00 0.  1.
         21    1    1    2  502  501 -0.30421095279E+02 -0.12040161344E+02  0.71640198194E+02  0.78757390259E+02  0.00000000000E+00 0. -1.
<scales pt_clust_5="13000.00000" pt_clust_6="13000.00000" pt_clust_7="13000.00000" pt_clust_8="13000.00000" pt_clust_9="32.71710"></scales>
<clustering>
<clus scale="   32.717">  1  9  2 -1</clus>
<clus scale="   87.814">  5  6 -1 -1</clus>
<clus scale="   88.893">  7  8 -1 -1</clus>
<clus scale="   98.332">  1  5  2 -1</clus>
<clus scale="   32.717">  1  5  2 -1</clus>
</clustering>
</event>
<event>
 9    1  0.6202448E-006  0.1299362E+03  0.7546771E-02  0.1228979E+00
          1   -1    0    0  502    0  0.00000000000E+00  0.00000000000E+00  0.15664268670E+03  0.15664268670E+03  0.00000000000E+00 0. -1.
         -1   -1    0    0    0  501 -0.00000000000E+00 -0.00000000000E+00 -0.34465987366E+03  0.34465987366E+03  0.00000000000E+00 0.  1.
         23    2    1    2    0    0 -0.14600328589E+02  0.42518766460E+02 -0.22322808787E+03  0.24526197985E+03  0.91113360439E+02 0.  0.
         23    2    1    2    0    0  0.85647341668E+02 -0.42395957559E+02  0.92981816692E+02  0.16446999647E+03  0.96290587034E+02 0.  0.
        -11    1    4    4    0    0  0.27643564510E+01 -0.26552060140E+02 -0.12426275862E+02  0.29445982681E+02  0.00000000000E+00 0.  1.
         11    1    4    4    0    0  0.82882985217E+02 -0.15843897419E+02  0.10540809255E+03  0.13502401379E+03  0.00000000000E+00 0. -1.
        -13    1    3    3    0    0 -0.50157122955E+02  0.11263291725E+02 -0.87120288438E+02  0.10115603482E+03  0.00000000000E+00 0. -1.
         13    1    3    3    0    0  0.35556794365E+02  0.31255474735E+02 -0.13610779943E+03  0.14410594503E+03  0.00000000000E+00 0.  1.
         21    1    1    2  502  501 -0.71047013079E+02 -0.12280890064E+00 -0.57770915785E+02  0.91570584033E+02  0.00000000000E+00 0.  1.
<scales pt_clust_5="13000.00000" pt_clust_6="13000.00000" pt_clust_7="13000.00000" pt_clust_8="13000.00000" pt_clust_9="71.04712"></scales>
<clustering>
<clus scale="   71.047">  2  9  1 -1</clus>
<clus scale="   91.113">  7  8 -1 -1</clus>
<clus scale="   96.291">  5  6 -1 -1</clus>
<clus scale="  126.147">  2  7  1 -1</clus>
<clus scale="  129.936">  1  5  2 -1</clus>
</clustering>
</event>
<event>
 9    1  0.6202448E-006  0.1036453E+03  0.7546771E-02  0.1275293E+00
         -2   -1    0    0    0  501 -0.00000000000E+00  0.00000000000E+00  0.13315832136E+03  0.13315832136E+03  0.00000000000E+00 0.  1.
          2   -1    0    0  502    0  0.00000000000E+00 -0.00000000000E+00 -0.18817430650E+03  0.18817430650E+03  0.00000000000E+00 0. -1.
         23    2    1    2    0    0 -0.38563927884E+02  0.34070208500E+02  0.78687537356E+02  0.12864351741E+03  0.87803589879E+02 0.  0.
         23    2    1    2    0    0  0.20921681504E+02 -0.12986699558E+02 -0.58838850870E+02  0.11293647873E+03  0.93200143425E+02 0.  0.
        -13    1    4    4    0    0 -0.26764470289E+02  0.51761337824E+01  0.84018286018E+01  0.28525777021E+02  0.00000000000E+00 0.  1.
         13    1    4    4    0    0  0.47686151793E+02 -0.18162833340E+02 -0.67240679472E+02  0.84410701712E+02  0.00000000000E+00 0. -1.
        -13    1    3    3    0    0  0.25178395525E+01  0.39278910067E+02 -0.40992003023E+00  0.39361660617E+02  0.00000000000E+00 0. -1.
         13    1    3    3    0    0 -0.41081767437E+02 -0.52087015670E+01  0.79097457386E+02  0.89281856795E+02  0.00000000000E+00 0.  1.
         21    1    1    2  502  501  0.17642246381E+02 -0.21083508942E+02 -0.74864671635E+02  0.79752631716E+02  0.00000000000E+00 0. -1.
<scales pt_clust_5="13000.00000" pt_clust_6="13000.00000" pt_clust_7="13000.00000" pt_clust_8="13000.00000" pt_clust_9="27.49115"></scales>
<clustering>
<clus scale="   27.491">  2  9  1 -1</clus>
<clus scale="   87.804">  7  8 -1 -1</clus>
<clus scale="   93.200">  5  6 -1 -1</clus>
<clus scale="   98.821">  1  7  2 -1</clus>
<clus scale="   27.491">  2  5  1 -1</clus>
</clustering>
</event>
<event>
 9    1  0.6202448E-006  0.9611160E+02  0.7546771E-02  0.1290201E+00
         -2   -1    0    0    0  501 -0.00000000000E+00  0.00000000000E+00  0.16739105066E+03  0.16739105066E+03  0.00000000000E+00 0.  1.
          2   -1    0    0  502    0  0.00000000000E+00 -0.00000000000E+00 -0.14997806400E+03  0.14997806400E+03  0.00000000000E+00 0. -1.
         23    2    1    2    0    0 -0.15376853764E+02 -0.61748250767E+01  0.10984692645E+03  0.14600629884E+03  0.94746588086E+02 0.  0.
         23    2    1    2    0    0 -0.20177845321E+02  0.40246583992E+01 -0.97200148962E+02  0.13542569583E+03  0.92026663609E+02 0.  0.
        -11    1    3    3    0    0  0.20700424014E+02  0.33008063877E+02  0.67596194189E+02  0.78021056800E+02  0.00000000000E+00 0.  1.
         11    1    3    3    0    0 -0.36077277778E+02 -0.39182888954E+02  0.42250732258E+02  0.67985242038E+02  0.00000000000E+00 0. -1.
        -13    1    4    4    0    0 -0.32491656924E+02 -0.32917750761E+02 -0.80946980024E+02  0.93229285419E+02  0.00000000000E+00 0.  1.
         13    1    4    4    0    0  0.12313811603E+02  0.36942409160E+02 -0.16253168938E+02  0.42196410408E+02  0.00000000000E+00 0. -1.
         21    1    1    2  502  501  0.35554699084E+02  0.21501666775E+01  0.47662091729E+01  0.35937119996E+02  0.00000000000E+00 0. -1.
<scales pt_clust_5="13000.00000" pt_clust_6="13000.00000" pt_clust_7="13000.00000" pt_clust_8="13000.00000" pt_clust_9="35.61966"></scales>
<clustering>
<clus scale="   35.620">  1  9  2 -1</clus>
<clus scale="   92.027">  7  8 -1 -1</clus>
<clus scale="   93.431">  2  7  1 -1</clus>
<clus scale="   94.747">  5  6 -1 -1</clus>
<clus scale="   93.431">  2  5  1 -1</clus>
</clustering>
</event>
<event>
 9    1  0.6202448E-006  0.9100415E+02  0.7546771E-02  0.1300998E+00
         -1   -1    0    0    0  501 -0.00000000000E+00  0.00000000000E+00  0.14467963582E+03  0.14467963582E+03  0.00000000000E+00 0.  1.
          1   -1    0    0  502    0  0.00000000000E+00 -0.00000000000E+00 -0.13903691232E+03  0.13903691232E+03  0.00000000000E+00 0. -1.
         23    2    1    2    0    0 -0.87495166620E+01  0.12582472858E+01  0.68360350300E+02  0.11389135251E+03  0.90664025139E+02 0.  0.
         23    2    1    2    0    0 -0.26045082036E+02  0.28175786383E+02 -0.69914374396E+01  0.97836067170E+02  0.89726220277E+02 0.  0.
        -11    1    4    4    0    0 -0.52787267373E+02  0.39524528374E+02 -0.15148220418E+02  0.67662046391E+02  0.00000000000E+00 0.  1.
         11    1    4    4    0    0  0.26742185338E+02 -0.11348741991E+02  0.81567829784E+01  0.30174020779E+02  0.00000000000E+00 0. -1.
        -13    1    3    3    0    0 -0.87651234783E+01 -0.18938914056E+02  0.85123262993E+02  0.87644051468E+02  0.00000000000E+00 0.  1.
         13    1    3    3    0    0  0.15606816341E-01  0.20197161342E+02 -0.16762912693E+02  0.26247301038E+02  0.00000000000E+00 0. -1.
         21    1    1    2  502  501  0.34794598698E+02 -0.29434033669E+02 -0.55726189357E+02  0.71989128462E+02  0.00000000000E+00 0. -1.
<scales pt_clust_5="13000.00000" pt_clust_6="13000.00000" pt_clust_7="13000.00000" pt_clust_8="13000.00000" pt_clust_9="45.57441"></scales>
<clustering>
<clus scale="   45.574">  2  9  1 -1</clus>
<clus scale="   89.726">  5  6 -1 -1</clus>
<clus scale="   90.070">  2  5  1 -1</clus>
<clus scale="   90.664">  7  8 -1 -1</clus>
<clus scale="   45.574">  2  5  1 -1</clus>
</clustering>
</event>
<event>
 9    1  0.6202448E-006  0.4657155E+03  0.7546771E-02  0.1049668E+00
         -1   -1    0    0    0  501 -0.00000000000E+00  0.00000000000E+00  0.47650105989E+03  0.47650105989E+03  0.00000000000E+00 0.  1.
          1   -1    0    0  502    0  0.00000000000E+00 -0.00000000000E+00 -0.74018806197E+03  0.74018806197E+03  0.00000000000E+00 0. -1.
         23    2    1    2    0    0 -0.29831538537E+02 -0.18998195227E+03  0.53657666004E+02  0.22064303331E+03  0.93920924969E+02 0.  0.
         23    2    1    2    0    0  0.32877704944E+03 -0.23158486681E+03 -0.52622561311E+02  0.41538715660E+03  0.89729912156E+02 0.  0.
        -11    1    4    4    0    0  0.27048350058E+03 -0.20923740758E+03 -0.14577520189E+02  0.34227784169E+03  0.00000000000E+00 0.  1.
         11    1    4    4    0    0  0.58293548862E+02 -0.22347459230E+02 -0.38045041121E+02  0.73109314912E+02  0.00000000000E+00 0. -1.
        -13    1    3    3    0    0  0.29880211322E+02 -0.80057996238E+02  0.24920418243E+01  0.85488713073E+02  0.00000000000E+00 0.  1.
         13    1    3    3    0    0 -0.59711749860E+02 -0.10992395603E+03  0.51165624180E+02  0.13515432024E+03  0.00000000000E+00 0. -1.
         21    1    1    2  502  501 -0.29894551090E+03  0.42156681909E+03 -0.26472210678E+03  0.58065893195E+03  0.00000000000E+00 0. -1.
<scales pt_clust_5="13000.00000" pt_clust_6="13000.00000" pt_clust_7="13000.00000" pt_clust_8="13000.00000" pt_clust_9="456.98955"></scales>
<clustering>
<clus scale="   89.730">  5  6 -1 -1</clus>
<clus scale="   93.921">  7  8 -1 -1</clus>
<clus scale="  214.019">  1  7  2 -1</clus>
<clus scale="  456.990">  2  9  1 -1</clus>
<clus scale="  456.990">  2  5  1 -1</clus>
</clustering>
</event>
<event>
 9    1  0.6202448E-006  0.1080076E+03  0.7546771E-02  0.1264428E+00
          2   -1    0    0  502    0  0.00000000000E+00  0.00000000000E+00  0.90082263236E+03  0.90082263236E+03  0.00000000000E+00 0. -1.
         -2   -1    0    0    0  501 -0.00000000000E+00 -0.00000000000E+00 -0.35334527475E+02  0.35334527475E+02  0.00000000000E+00 0.  1.
         23    2    1    2    0    0 -0.79398875598E+02 -0.17913260837E+02  0.30193990245E+03  0.32571089314E+03  0.91075874177E+02 0.  0.
         23    2    1    2    0    0  0.26509876799E+02 -0.67180708379E+02  0.41765407356E+03  0.43346229389E+03  0.90766810647E+02 0.  0.
        -11    1    3    3    0    0 -0.61988186448E+02 -0.53803495052E+02  0.19485843484E+03  0.21144067954E+03  0.00000000000E+00 0.  1.
         11    1    3    3    0    0 -0.17410689150E+02  0.35890234214E+02  0.10708146762E+03  0.11427021360E+03  0.00000000000E+00 0. -1.
        -13    1    4    4    0    0  0.29717393012E+02 -0.38193971792E+01  0.37251862080E+02  0.47805987812E+02  0.00000000000E+00 0.  1.
         13    1    4    4    0    0 -0.32075162130E+01 -0.63361311200E+02  0.38040221148E+03  0.38565630607E+03  0.00000000000E+00 0. -1.
         21    1    1    2  502  501  0.52888998799E+02  0.85093969217E+02  0.14589412888E+03  0.17698397281E+03  0.00000000000E+00 0.  1.
<scales pt_clust_5="13000.00000" pt_clust_6="13000.00000" pt_clust_7="13000.00000" pt_clust_8="13000.00000" pt_clust_9="100.19097"></scales>
<clustering>
<clus scale="   90.767">  7  8 -1 -1</clus>
<clus scale="   91.076">  5  6 -1 -1</clus>
<clus scale="  100.191">  2  9  1 -1</clus>
<clus scale="  107.747">  1  7  2 -1</clus>
<clus scale="  107.747">  1  5  2 -1</clus>
</clustering>
</event>
<event>
 9    1  0.6202448E-006  0.2091884E+03  0.7546771E-02  0.1162017E+00
         -2   -1    0    0    0  501 -0.00000000000E+00  0.00000000000E+00  0.73371899657E+03  0.73371899657E+03  0.00000000000E+00 0.  1.
          2   -1    0    0  502    0  0.00000000000E+00 -0.00000000000E+00 -0.17177409123E+03  0.17177409123E+03  0.00000000000E+00 0. -1.
         23    2    1    2    0    0  0.75817473700E+02  0.62207199979E+02  0.22832457916E+03  0.26326579424E+03  0.86941014018E+02 0.  0.
         23    2    1    2    0    0  0.17447793571E+03  0.51843189291E+01 -0.26556800256E+02  0.19847401616E+03  0.90649016762E+02 0.  0.
        -11    1    3    3    0    0 -0.20151471638E+01  0.50866609165E+02  0.70865523180E+02  0.87254771341E+02  0.00000000000E+00 0.  1.
         11    1    3    3    0    0  0.77832620864E+02  0.11340590813E+02  0.15745905598E+03  0.17601102290E+03  0.00000000000E+00 0. -1.
        -11    1    4    4    0    0  0.12659661188E+03  0.41864525645E+02 -0.34253520585E+02  0.13766860324E+03  0.00000000000E+00 0. -1.
         11    1    4    4    0    0  0.47881323831E+02 -0.36680206716E+02  0.76967203290E+01  0.60805412920E+02  0.00000000000E+00 0.  1.
         21    1    1    2  502  501 -0.25029540941E+03 -0.67391518908E+02  0.36017712643E+03  0.44375327739E+03  0.00000000000E+00 0.  1.
<scales pt_clust_5="13000.00000" pt_clust_6="13000.00000" pt_clust_7="13000.00000" pt_clust_8="13000.00000" pt_clust_9="188.52732"></scales>
<clustering>
<clus scale="   86.941">  5  6 -1 -1</clus>
<clus scale="   90.649">  7  8 -1 -1</clus>
<clus scale="  131.060">  1  5  2 -1</clus>
<clus scale="  188.527">  1  9  2 -1</clus>
<clus scale="  209.188">  2  5  1 -1</clus>
</clustering>
</event>
<event>
 9    1  0.6202448E-006  0.1313668E+03  0.7546771E-02  0.1249614E+00
          1   -1    0    0  502    0  0.00000000000E+00  0.00000000000E+00  0.50641459767E+02  0.50641459767E+02  0.00000000000E+00 0. -1.
         -1   -1    0    0    0  501 -0.00000000000E+00 -0.00000000000E+00 -0.71691095251E+03  0.71691095251E+03  0.00000000000E+00 0.  1.
         23    2    1    2    0    0  0.67323245971E+02 -0.54908277540E+02 -0.19578933923E+03  0.23338288535E+03  0.92664812237E+02 0.  0.
         23    2    1    2    0    0  0.37244295334E+01 -0.78817437081E+01 -0.33383478505E+02  0.86906894614E+02  0.79764393279E+02 0.  0.
        -11    1    3    3    0    0 -0.86352051499E+01 -0.48232585747E+02 -0.58226876507E+02  0.76100711190E+02  0.00000000000E+00 0.  1.
         11    1    3    3    0    0  0.75958451121E+02 -0.66756917933E+01 -0.13756246273E+03  0.15728217416E+03  0.00000000000E+00 0. -1.
        -13    1    4    4    0    0  0.40983258659E+02 -0.93487097877E+01 -0.11133875445E+02  0.43485503876E+02  0.00000000000E+00 0. -1.
         13    1    4    4    0    0 -0.37258829125E+02  0.14669660797E+01 -0.22249603060E+02  0.43421390738E+02  0.00000000000E+00 0.  1.
         21    1    1    2  502  501 -0.71047675504E+02  0.62790021248E+02 -0.43709667500E+03  0.44726263231E+03  0.00000000000E+00 0. -1.
<scales pt_clust_5="13000.00000" pt_clust_6="13000.00000" pt_clust_7="13000.00000" pt_clust_8="13000.00000" pt_clust_9="93.11535"></scales>
<clustering>
<clus scale="   79.764">  7  8 -1 -1</clus>
<clus scale="   80.239">  1  7  2 -1</clus>
<clus scale="   92.665">  5  6 -1 -1</clus>
<clus scale="   93.115">  2  9  1 -1</clus>
<clus scale="   80.239">  1  5  2 -1</clus>
</clustering>
</event>
<event>
 9    1  0.6202448E-006  0.1432427E+03  0.7546771E-02  0.1230372E+00
          2   -1    0    0  502    0  0.00000000000E+00  0.00000000000E+00  0.11323667548E+03  0.11323667548E+03  0.00000000000E+00 0. -1.
         -2   -1    0    0    0  501 -0.00000000000E+00 -0.00000000000E+00 -0.35274108896E+03  0.35274108896E+03  0.00000000000E+00 0.  1.
         23    2    1    2    0    0 -0.74468649443E+00  0.51683896555E+01 -0.17382645591E+03  0.19643173766E+03  0.91337418270E+02 0.  0.
         23    2    1    2    0    0  0.73449506948E+02  0.81552786850E+02 -0.66596469879E+02  0.15637625591E+03  0.89290293423E+02 0.  0.
        -13    1    3    3    0    0 -0.17698507375E+02 -0.31273948890E+02 -0.13795825941E+03  0.14256148983E+03  0.00000000000E+00 0. -1.
         13    1    3    3    0    0  0.16953820881E+02  0.36442338546E+02 -0.35868196494E+02  0.53870247826E+02  0.00000000000E+00 0.  1.
        -13    1    4    4    0    0  0.90055310029E+02  0.62278094573E+02 -0.71082831983E+02  0.13054228790E+03  0.00000000000E+00 0.  1.
         13    1    4    4    0    0 -0.16605803081E+02  0.19274692277E+02  0.44863621033E+01  0.25833968012E+02  0.00000000000E+00 0. -1.
         21    1    1    2  502  501 -0.72704820453E+02 -0.86721176506E+02  0.91851230630E+00  0.11316977086E+03  0.00000000000E+00 0. -1.
<scales pt_clust_5="13000.00000" pt_clust_6="13000.00000" pt_clust_7="13000.00000" pt_clust_8="13000.00000" pt_clust_9="112.00759"></scales>
<clustering>
<clus scale="   89.290">  7  8 -1 -1</clus>
<clus scale="   91.337">  5  6 -1 -1</clus>
<clus scale="   91.487">  2  5  1 -1</clus>
<clus scale="  112.008">  1  9  2 -1</clus>
<clus scale="  112.008">  1  5  2 -1</clus>
</clustering>
</event>
<event>
 9    1  0.6202448E-006  0.1172449E+03  0.7546771E-02  0.1249441E+00
         -3   -1    0    0    0  501 -0.00000000000E+00  0.00000000000E+00  0.70780307685E+02  0.70780307685E+02  0.00000000000E+00 0.  1.
          3   -1    0    0  502    0  0.00000000000E+00 -0.00000000000E+00 -0.29595259587E+03  0.29595259587E+03  0.00000000000E+00 0. -1.
         23    2    1    2    0    0  0.72544140074E+02  0.13171001267E+02 -0.55911900328E+02  0.12767018675E+03  0.87962540062E+02 0.  0.
         23    2    1    2    0    0 -0.69958022966E+02  0.11029743065E+02 -0.68741229908E+02  0.13563900026E+03  0.93041934056E+02 0.  0.
        -11    1    4    4    0    0  0.74528533508E+01 -0.28422648224E+02 -0.23837607046E+02  0.37836800404E+02  0.00000000000E+00 0.  1.
         11    1    4    4    0    0 -0.77410876317E+02  0.39452391289E+02 -0.44903622862E+02  0.97802199856E+02  0.00000000000E+00 0. -1.
        -13    1    3    3    0    0  0.86576799610E+02  0.31098225814E+02 -0.43933836382E+02  0.10194520027E+03  0.00000000000E+00 0.  1.
         13    1    3    3    0    0 -0.14032659536E+02 -0.17927224546E+02 -0.11978063946E+02  0.25724986481E+02  0.00000000000E+00 0. -1.
         21    1    1    2  502  501 -0.25861171083E+01 -0.24200744333E+02 -0.10051915795E+03  0.10342371654E+03  0.00000000000E+00 0.  1.
<scales pt_clust_5="13000.00000" pt_clust_6="13000.00000" pt_clust_7="13000.00000" pt_clust_8="13000.00000" pt_clust_9="24.33853"></scales>
<clustering>
<clus scale="   24.339">  2  9  1 -1</clus>
<clus scale="   87.963">  7  8 -1 -1</clus>
<clus scale="   93.042">  5  6 -1 -1</clus>
<clus scale="  113.256">  1  7  2 -1</clus>
<clus scale="   24.339">  2  5  1 -1</clus>
</clustering>
</event>
<event>
 9    1  0.6202448E-006  0.1087807E+03  0.7546771E-02  0.1276649E+00
          1   -1    0    0  502    0  0.00000000000E+00  0.00000000000E+00  0.30327186922E+03  0.30327186922E+03  0.00000000000E+00 0. -1.
         -1   -1    0    0    0  501 -0.00000000000E+00 -0.00000000000E+00 -0.42177803067E+02  0.42177803067E+02  0.00000000000E+00 0.  1.
         23    2    1    2    0    0 -0.10081128610E+02 -0.26844706319E+02  0.12461650298E+03  0.16612194996E+03  0.10604226532E+03 0.  0.
         23    2    1    2    0    0  0.25784451303E+02  0.61027680677E+01  0.12570829871E+03  0.15117102857E+03  0.79674473990E+02 0.  0.
        -11    1    3    3    0    0 -0.14565921504E+02 -0.66737330633E+02  0.90850445783E+02  0.11366547791E+03  0.00000000000E+00 0. -1.
         11    1    3    3    0    0  0.44847928940E+01  0.39892624314E+02  0.33766057195E+02  0.52456472055E+02  0.00000000000E+00 0.  1.
        -13    1    4    4    0    0  0.16406188853E+02  0.31831597294E+02  0.18084984802E+02  0.40118328658E+02  0.00000000000E+00 0.  1.
         13    1    4    4    0    0  0.93782624496E+01 -0.25728829227E+02  0.10762331391E+03  0.11105269991E+03  0.00000000000E+00 0. -1.
         21    1    1    2  502  501 -0.15703322693E+02  0.20741938252E+02  0.10769264458E+02  0.28156693751E+02  0.00000000000E+00 0. -1.
<scales pt_clust_5="13000.00000" pt_clust_6="13000.00000" pt_clust_7="13000.00000" pt_clust_8="13000.00000" pt_clust_9="26.01581"></scales>
<clustering>
<clus scale="   26.016">  2  9  1 -1</clus>
<clus scale="   79.674">  7  8 -1 -1</clus>
<clus scale="   83.284">  1  7  2 -1</clus>
<clus scale="  106.042">  5  6 -1 -1</clus>
<clus scale="   83.284">  1  5  2 -1</clus>
</clustering>
</event>
<event>
 9    1  0.6202448E-006  0.1952059E+03  0.7546771E-02  0.1189208E+00
          2   -1    0    0  502    0  0.00000000000E+00  0.00000000000E+00  0.99978935917E+03  0.99978935917E+03  0.00000000000E+00 0. -1.
         -2   -1    0    0    0  501 -0.00000000000E+00 -0.00000000000E+00 -0.75502478129E+02  0.75502478129E+02  0.00000000000E+00 0.  1.
         23    2    1    2    0    0 -0.14291495256E+03  0.21162131600E+02  0.37847812100E+03  0.41525435237E+03  0.91202903521E+02 0.  0.
         23    2    1    2    0    0 -0.39383231742E+02  0.33359884753E+01  0.43853684243E+03  0.44710545305E+03  0.77630897304E+02 0.  0.
        -11    1    3    3    0    0 -0.13444578262E+03  0.47135285535E+02  0.33308008874E+03  0.36227027082E+03  0.00000000000E+00 0. -1.
         11    1    3    3    0    0 -0.84691699422E+01 -0.25973153935E+02  0.45398032259E+02  0.52984081552E+02  0.00000000000E+00 0.  1.
        -11    1    4    4    0    0 -0.35240550461E+02  0.37272551018E+02  0.30372715760E+03  0.30802812489E+03  0.00000000000E+00 0. -1.
         11    1    4    4    0    0 -0.41426812813E+01 -0.33936562542E+02  0.13480968483E+03  0.13907732816E+03  0.00000000000E+00 0.  1.
         21    1    1    2  502  501  0.18229818431E+03 -0.24498120075E+02  0.10727191760E+03  0.21293203187E+03  0.00000000000E+00 0.  1.
<scales pt_clust_5="13000.00000" pt_clust_6="13000.00000" pt_clust_7="13000.00000" pt_clust_8="13000.00000" pt_clust_9="172.59013"></scales>
<clustering>
<clus scale="   77.631">  7  8 -1 -1</clus>
<clus scale="   87.113">  1  7  2 -1</clus>
<clus scale="   91.203">  5  6 -1 -1</clus>
<clus scale="  172.590">  2  9  1 -1</clus>
<clus scale="   87.113">  1  5  2 -1</clus>
</clustering>
</event>
<event>
 9    1  0.6202448E-006  0.1777631E+03  0.7546771E-02  0.1199902E+00
          1   -1    0    0  502    0  0.00000000000E+00  0.00000000000E+00  0.32879139712E+03  0.32879139712E+03  0.00000000000E+00 0. -1.
         -1   -1    0    0    0  501 -0.00000000000E+00 -0.00000000000E+00 -0.15222015891E+03  0.15222015891E+03  0.00000000000E+00 0.  1.
         23    2    1    2    0    0  0.13816514213E+03 -0.55883881254E+02  0.40446270241E+02  0.17928834214E+03  0.91081250355E+02 0.  0.
         23    2    1    2    0    0  0.52777990464E+00 -0.15426184382E+02  0.11111221080E+03  0.14377863468E+03  0.89934012951E+02 0.  0.
        -11    1    3    3    0    0  0.21505152911E+02 -0.53839225636E+02  0.14471722249E+02  0.59754201222E+02  0.00000000000E+00 0.  1.
         11    1    3    3    0    0  0.11665998922E+03 -0.20446556186E+01  0.25974547992E+02  0.11953414092E+03  0.00000000000E+00 0. -1.
        -13    1    4    4    0    0  0.41850329169E+02 -0.23548196125E+02  0.70290644901E+02  0.85127800118E+02  0.00000000000E+00 0. -1.
         13    1    4    4    0    0 -0.41322549264E+02  0.81220117437E+01  0.40821565898E+02  0.58650834562E+02  0.00000000000E+00 0.  1.
         21    1    1    2  502  501 -0.13869292203E+03  0.71310065636E+02  0.25012757168E+02  0.15794457922E+03  0.00000000000E+00 0.  1.
<scales pt_clust_5="13000.00000" pt_clust_6="13000.00000" pt_clust_7="13000.00000" pt_clust_8="13000.00000" pt_clust_9="152.65628"></scales>
<clustering>
<clus scale="   89.934">  7  8 -1 -1</clus>
<clus scale="   91.081">  5  6 -1 -1</clus>
<clus scale="   91.249">  1  7  2 -1</clus>
<clus scale="  152.656">  2  9  1 -1</clus>
<clus scale="   91.249">  1  5  2 -1</clus>
</clustering>
</event>
<event>
 9    1  0.6202448E-006  0.1600208E+03  0.7546771E-02  0.1200484E+00
          2   -1    0    0  502    0  0.00000000000E+00  0.00000000000E+00  0.87954425027E+03  0.87954425027E+03  0.00000000000E+00 0. -1.
         -2   -1    0    0    0  501 -0.00000000000E+00 -0.00000000000E+00 -0.10820339953E+03  0.10820339953E+03  0.00000000000E+00 0.  1.
         23    2    1    2    0    0  0.52065484368E+02 -0.61847793020E+02 -0.15253935265E+02  0.12445625647E+03  0.93384758226E+02 0.  0.
         23    2    1    2    0    0 -0.72386091673E+02 -0.76498202318E+02  0.12848852318E+03  0.19049395377E+03  0.93203672730E+02 0.  0.
        -13    1    4    4    0    0 -0.75655801992E+02 -0.14843466616E+02  0.86256572944E+02  0.11569064462E+03  0.00000000000E+00 0. -1.
         13    1    4    4    0    0  0.32697103188E+01 -0.61654735701E+02  0.42231950235E+02  0.74803309156E+02  0.00000000000E+00 0.  1.
        -13    1    3    3    0    0  0.10704398196E+01 -0.63882474694E+02 -0.31043538955E+02  0.71033919541E+02  0.00000000000E+00 0.  1.
         13    1    3    3    0    0  0.50995044549E+02  0.20346816739E+01  0.15789603690E+02  0.53422336927E+02  0.00000000000E+00 0. -1.
         21    1    1    2  502  501  0.20320607305E+02  0.13834599534E+03  0.65810626282E+03  0.67279743956E+03  0.00000000000E+00 0. -1.
<scales pt_clust_5="13000.00000" pt_clust_6="13000.00000" pt_clust_7="13000.00000" pt_clust_8="13000.00000" pt_clust_9="130.07586"></scales>
<clustering>
<clus scale="   93.204">  5  6 -1 -1</clus>
<clus scale="   93.385">  7  8 -1 -1</clus>
<clus scale="  123.518">  2  7  1 -1</clus>
<clus scale="  130.076">  1  9  2 -1</clus>
<clus scale="  130.076">  1  5  2 -1</clus>
</clustering>
</event>
<event>
 9    1  0.6202448E-006  0.1018036E+03  0.7546771E-02  0.1278133E+00
          4   -1    0    0  502    0  0.00000000000E+00  0.00000000000E+00  0.25928584479E+03  0.25928584479E+03  0.00000000000E+00 0. -1.
         -4   -1    0    0    0  501 -0.00000000000E+00 -0.00000000000E+00 -0.12441254318E+03  0.12441254318E+03  0.00000000000E+00 0.  1.
         23    2    1    2    0    0 -0.20941533366E+02  0.18073502139E+02 -0.67757558721E+01  0.92910702344E+02  0.88438048617E+02 0.  0.
         23    2    1    2    0    0  0.47618740707E+02 -0.10883498864E+02  0.20044725015E+03  0.22582156369E+03  0.91816575412E+02 0.  0.
        -11    1    3    3    0    0 -0.25679095589E+02 -0.32549228532E+02  0.10246024365E+01  0.41471894561E+02  0.00000000000E+00 0.  1.
         11    1    3    3    0    0  0.47375622230E+01  0.50622730671E+02 -0.78003583086E+01  0.51438807783E+02  0.00000000000E+00 0. -1.
        -13    1    4    4    0    0  0.18336088213E+02 -0.37447711691E+02  0.31357750239E+02  0.52171368986E+02  0.00000000000E+00 0.  1.
         13    1    4    4    0    0  0.29282652494E+02  0.26564212827E+02  0.16908949991E+03  0.17365019470E+03  0.00000000000E+00 0. -1.
         21    1    1    2  502  501 -0.26677207341E+02 -0.71900032749E+01 -0.58798192669E+02  0.64966121939E+02  0.00000000000E+00 0.  1.
<scales pt_clust_5="13000.00000" pt_clust_6="13000.00000" pt_clust_7="13000.00000" pt_clust_8="13000.00000" pt_clust_9="27.62914"></scales>
<clustering>
<clus scale="   27.629">  2  9  1 -1</clus>
<clus scale="   88.438">  5  6 -1 -1</clus>
<clus scale="   91.817">  7  8 -1 -1</clus>
<clus scale="   98.767">  2  5  1 -1</clus>
<clus scale="  101.804">  1  5  2 -1</clus>
</clustering>
</event>
<event>
 9    1  0.6202448E-006  0.1043045E+03  0.7546771E-02  0.1273004E+00
          3   -1    0    0  502    0  0.00000000000E+00  0.00000000000E+00  0.71028695312E+02  0.71028695312E+02  0.00000000000E+00 0. -1.
         -3   -1    0    0    0  501 -0.00000000000E+00 -0.00000000000E+00 -0.26875707790E+03  0.26875707790E+03  0.00000000000E+00 0.  1.
         23    2    1    2    0    0  0.13656702029E+02 -0.55680320661E+02 -0.14264699491E+03  0.17890730200E+03  0.91503300129E+02 0.  0.
         23    2    1    2    0    0  0.13871337452E+02  0.38566678591E+02 -0.78278500840E+01  0.10357605836E+03  0.94799377260E+02 0.  0.
        -13    1    4    4    0    0  0.39849585985E+02  0.17905534681E+02  0.30192401887E+02  0.53105355729E+02  0.00000000000E+00 0.  1.
         13    1    4    4    0    0 -0.25978248533E+02  0.20661143910E+02 -0.38020251971E+02  0.50470702635E+02  0.00000000000E+00 0. -1.
        -13    1    3    3    0    0  0.65040571788E+01 -0.78997103782E+02 -0.12770661193E+03  0.15030576801E+03  0.00000000000E+00 0.  1.
         13    1    3    3    0    0  0.71526448504E+01  0.23316783120E+02 -0.14940382981E+02  0.28601533998E+02  0.00000000000E+00 0. -1.
         21    1    1    2  502  501 -0.27528039481E+02  0.17113642070E+02 -0.47253537592E+02  0.57302412843E+02  0.00000000000E+00 0. -1.
<scales pt_clust_5="13000.00000" pt_clust_6="13000.00000" pt_clust_7="13000.00000" pt_clust_8="13000.00000" pt_clust_9="32.41404"></scales>
<clustering>
<clus scale="   32.414">  2  9  1 -1</clus>
<clus scale="   91.503">  7  8 -1 -1</clus>
<clus scale="   94.799">  5  6 -1 -1</clus>
<clus scale="  101.318">  2  7  1 -1</clus>
<clus scale="  104.305">  1  5  2 -1</clus>
</clustering>
</event>
<event>
 9    1  0.6202448E-006  0.2138675E+03  0.7546771E-02  0.1170940E+00
          1   -1    0    0  502    0  0.00000000000E+00  0.00000000000E+00  0.58847065401E+03  0.58847065401E+03  0.00000000000E+00 0. -1.
         -1   -1    0    0    0  501 -0.00000000000E+00 -0.00000000000E+00 -0.14578231650E+03  0.14578231650E+03  0.00000000000E+00 0.  1.
         23    2    1    2    0    0  0.12606203617E+03 -0.15864834940E+03  0.37537488488E+02  0.22506391741E+03  0.90464181574E+02 0.  0.
         23    2    1    2    0    0 -0.38429548288E+02 -0.11699865571E+01  0.25217704647E+03  0.27123456647E+03  0.92177699201E+02 0.  0.
        -11    1    4    4    0    0 -0.32873118999E+01  0.27964797872E+02  0.19814190556E+02  0.34430197312E+02  0.00000000000E+00 0.  1.
         11    1    4    4    0    0 -0.35142236388E+02 -0.29134784429E+02  0.23236285592E+03  0.23680436916E+03  0.00000000000E+00 0. -1.
        -13    1    3    3    0    0  0.11715395974E+03 -0.11849820110E+03  0.61317136129E+02  0.17755749810E+03  0.00000000000E+00 0.  1.
         13    1    3    3    0    0  0.89080764268E+01 -0.40150148302E+02 -0.23779647640E+02  0.47506419316E+02  0.00000000000E+00 0. -1.
         21    1    1    2  502  501 -0.87632487884E+02  0.15981833596E+03  0.15297380254E+03  0.23795448663E+03  0.00000000000E+00 0. -1.
<scales pt_clust_5="13000.00000" pt_clust_6="13000.00000" pt_clust_7="13000.00000" pt_clust_8="13000.00000" pt_clust_9="193.79250"></scales>
<clustering>
<clus scale="   90.464">  7  8 -1 -1</clus>
<clus scale="   92.178">  5  6 -1 -1</clus>
<clus scale="   99.875">  1  5  2 -1</clus>
<clus scale="  193.792">  1  9  2 -1</clus>
<clus scale="   99.875">  1  5  2 -1</clus>
</clustering>
</event>
<event>
 9    1  0.6202448E-006  0.1589949E+03  0.7546771E-02  0.1209095E+00
         -4   -1    0    0    0  501 -0.00000000000E+00  0.00000000000E+00  0.19125757263E+03  0.19125757263E+03  0.00000000000E+00 0.  1.
          4   -1    0    0  502    0  0.00000000000E+00 -0.00000000000E+00 -0.23315563851E+03  0.23315563851E+03  0.00000000000E+00 0. -1.
         23    2    1    2    0    0  0.54236591024E+02  0.12191010848E+03 -0.24815477276E+02  0.16296548283E+03  0.90212295865E+02 0.  0.
         23    2    1    2    0    0 -0.48301055205E+02  0.10733397587E+02 -0.61616560217E+02  0.12140200394E+03  0.92160991254E+02 0.  0.
        -11    1    4    4    0    0 -0.65574254425E+02 -0.20676775846E+02 -0.40514430708E+02  0.79805582501E+02  0.00000000000E+00 0.  1.
         11    1    4    4    0    0  0.17273199219E+02  0.31410173433E+02 -0.21102129509E+02  0.41596421435E+02  0.00000000000E+00 0. -1.
        -11    1    3    3    0    0  0.32704446129E+02  0.63130322579E+00  0.11295502453E+02  0.34605891349E+02  0.00000000000E+00 0.  1.
         11    1    3    3    0    0  0.21532144895E+02  0.12127880525E+03 -0.36110979728E+02  0.12835959148E+03  0.00000000000E+00 0. -1.
         21    1    1    2  502  501 -0.59355358184E+01 -0.13264350607E+03  0.44533971611E+02  0.14004572437E+03  0.00000000000E+00 0.  1.
<scales pt_clust_5="13000.00000" pt_clust_6="13000.00000" pt_clust_7="13000.00000" pt_clust_8="13000.00000" pt_clust_9="130.92411"></scales>
<clustering>
<clus scale="   90.212">  7  8 -1 -1</clus>
<clus scale="   92.161">  5  6 -1 -1</clus>
<clus scale="  104.603">  2  5  1 -1</clus>
<clus scale="  130.924">  1  9  2 -1</clus>
<clus scale="  104.603">  2  5  1 -1</clus>
</clustering>
</event>
<event>
 9    1  0.6202448E-006  0.9516765E+02  0.7546771E-02  0.1291204E+00
          2   -1    0    0  502    0  0.00000000000E+00  0.00000000000E+00  0.29326781408E+03  0.29326781408E+03  0.00000000000E+00 0. -1.
         -2   -1    0    0    0  501 -0.00000000000E+00 -0.00000000000E+00 -0.39124596711E+02  0.39124596711E+02  0.00000000000E+00 0.  1.
         23    2    1    2    0    0  0.36953540440E+02  0.92507658645E+00  0.11862525982E+03  0.15434507684E+03  0.91564352008E+02 0.  0.
         23    2    1    2    0    0 -0.16405257850E+02 -0.19721572992E+01  0.12361514116E+03  0.15427749312E+03  0.90817508606E+02 0.  0.
        -11    1    3    3    0    0  0.25507619813E+02 -0.19886011422E+02 -0.10256681386E+01  0.32359606208E+02  0.00000000000E+00 0.  1.
         11    1    3    3    0    0  0.11445920627E+02  0.20811088008E+02  0.11965092796E+03  0.12198547063E+03  0.00000000000E+00 0. -1.
        -11    1    4    4    0    0  0.34412778242E+02  0.15881609456E+02  0.59423593888E+02  0.70481404184E+02  0.00000000000E+00 0. -1.
         11    1    4    4    0    0 -0.50818036091E+02 -0.17853766755E+02  0.64191547268E+02  0.83796088931E+02  0.00000000000E+00 0.  1.
         21    1    1    2  502  501 -0.20548282590E+02  0.10470807128E+01  0.11902816390E+02  0.23769840837E+02  0.00000000000E+00 0.  1.
<scales pt_clust_5="13000.00000" pt_clust_6="13000.00000" pt_clust_7="13000.00000" pt_clust_8="13000.00000" pt_clust_9="20.57494"></scales>
<clustering>
<clus scale="   20.575">  2  9  1 -1</clus>
<clus scale="   90.818">  7  8 -1 -1</clus>
<clus scale="   91.564">  5  6 -1 -1</clus>
<clus scale="   94.449">  1  7  2 -1</clus>
<clus scale="   94.449">  1  5  2 -1</clus>
</clustering>
</event>
<event>
 9    1  0.6202448E-006  0.9728727E+02  0.7546771E-02  0.1288636E+00
          2   -1    0    0  502    0  0.00000000000E+00  0.00000000000E+00  0.85710386953E+02  0.85710386953E+02  0.00000000000E+00 0. -1.
         -2   -1    0    0    0  501 -0.00000000000E+00 -0.00000000000E+00 -0.39913180115E+03  0.39913180115E+03  0.00000000000E+00 0.  1.
         23    2    1    2    0    0 -0.18279894655E+02 -0.37988328846E+02 -0.24460969613E+03  0.26374298713E+03  0.89158242163E+02 0.  0.
         23    2    1    2    0    0  0.21896027915E+02 -0.28018786254E+02 -0.10540228158E+03  0.14554203717E+03  0.93852837997E+02 0.  0.
        -11    1    3    3    0    0 -0.45649354289E+02  0.57381198678E+01 -0.96495906974E+02  0.10690299168E+03  0.00000000000E+00 0.  1.
         11    1    3    3    0    0  0.27369459634E+02 -0.43726448714E+02 -0.14811378915E+03  0.15683999546E+03  0.00000000000E+00 0. -1.
        -13    1    4    4    0    0  0.24133751112E+02 -0.52149492078E+02 -0.10678929646E+03  0.12126813804E+03  0.00000000000E+00 0.  1.
         13    1    4    4    0    0 -0.22377231973E+01  0.24130705823E+02  0.13870148761E+01  0.24273899129E+02  0.00000000000E+00 0. -1.
         21    1    1    2  502  501 -0.36161332599E+01  0.66007115101E+02  0.36590563509E+02  0.75557163800E+02  0.00000000000E+00 0. -1.
<scales pt_clust_5="13000.00000" pt_clust_6="13000.00000" pt_clust_7="13000.00000" pt_clust_8="13000.00000" pt_clust_9="66.10609"></scales>
<clustering>
<clus scale="   66.106">  1  9  2 -1</clus>
<clus scale="   89.158">  5  6 -1 -1</clus>
<clus scale="   92.767">  2  5  1 -1</clus>
<clus scale="   93.853">  7  8 -1 -1</clus>
<clus scale="   66.106">  1  5  2 -1</clus>
</clustering>
</event>
<event>
 9    1  0.6202448E-006  0.1028219E+03  0.7546771E-02  0.1279959E+00
         -2   -1    0    0    0  501 -0.00000000000E+00  0.00000000000E+00  0.11067586407E+03  0.11067586407E+03  0.00000000000E+00 0.  1.
          2   -1    0    0  502    0  0.00000000000E+00 -0.00000000000E+00 -0.14561574673E+03  0.14561574673E+03  0.00000000000E+00 0. -1.
         23    2    1    2    0    0  0.11965066505E+02 -0.35250342246E+02  0.11793271227E+02  0.91121648446E+02  0.82330578307E+02 0.  0.
         23    2    1    2    0    0  0.72038648089E+01  0.46028428888E+02 -0.75445662854E+02  0.12900335827E+03  0.93697953382E+02 0.  0.
        -13    1    3    3    0    0  0.33709421314E+02  0.41672480269E+01  0.27227541286E+02  0.43531942823E+02  0.00000000000E+00 0.  1.
         13    1    3    3    0    0 -0.21744354810E+02 -0.39417590273E+02 -0.15434270059E+02  0.47589705623E+02  0.00000000000E+00 0. -1.
        -13    1    4    4    0    0  0.22239845073E+02  0.68264013611E+02 -0.33552813213E+02  0.79248833037E+02  0.00000000000E+00 0.  1.
         13    1    4    4    0    0 -0.15035980264E+02 -0.22235584723E+02 -0.41892849641E+02  0.49754525236E+02  0.00000000000E+00 0. -1.
         21    1    1    2  502  501 -0.19168931314E+02 -0.10778086642E+02  0.28712508966E+02  0.36166604078E+02  0.00000000000E+00 0. -1.
<scales pt_clust_5="13000.00000" pt_clust_6="13000.00000" pt_clust_7="13000.00000" pt_clust_8="13000.00000" pt_clust_9="21.99125"></scales>
<clustering>
<clus scale="   21.991">  1  9  2 -1</clus>
<clus scale="   82.331">  5  6 -1 -1</clus>
<clus scale="   92.582">  1  5  2 -1</clus>
<clus scale="   93.698">  7  8 -1 -1</clus>
<clus scale="  102.822">  2  5  1 -1</clus>
</clustering>
</event>
<event>
 9    1  0.6202448E-006  0.1038806E+03  0.7546771E-02  0.1272540E+00
          1   -1    0    0  502    0  0.00000000000E+00  0.00000000000E+00  0.18253197159E+03  0.18253197159E+03  0.00000000000E+00 0. -1.
         -1   -1    0    0    0  501 -0.00000000000E+00 -0.00000000000E+00 -0.84087240825E+02  0.84087240825E+02  0.00000000000E+00 0.  1.
         23    2    1    2    0    0 -0.39558597608E+02  0.11181943771E+02 -0.98646447486E+00  0.10088816630E+03  0.92127794269E+02 0.  0.
         23    2    1    2    0    0  0.60661682161E+02 -0.60069848502E+01  0.82032965819E+02  0.13789547957E+03  0.92573388489E+02 0.  0.
        -11    1    3    3    0    0 -0.20773633236E+02 -0.36361842487E+02  0.19017387669E+02  0.45993352353E+02  0.00000000000E+00 0. -1.
         11    1    3    3    0    0 -0.18784964371E+02  0.47543786257E+02 -0.20003852144E+02  0.54894813951E+02  0.00000000000E+00 0.  1.
        -13    1    4    4    0    0  0.13918368721E+02 -0.37278098368E+02  0.69793667472E+02  0.80340112179E+02  0.00000000000E+00 0. -1.
         13    1    4    4    0    0  0.46743313440E+02  0.31271113518E+02  0.12239298348E+02  0.57555367396E+02  0.00000000000E+00 0.  1.
         21    1    1    2  502  501 -0.21103084553E+02 -0.51749589203E+01  0.17398229424E+02  0.27835566539E+02  0.00000000000E+00 0.  1.
<scales pt_clust_5="13000.00000" pt_clust_6="13000.00000" pt_clust_7="13000.00000" pt_clust_8="13000.00000" pt_clust_9="21.72833"></scales>
<clustering>
<clus scale="   21.728">  1  9  2 -1</clus>
<clus scale="   92.128">  5  6 -1 -1</clus>
<clus scale="   92.573">  7  8 -1 -1</clus>
<clus scale="  103.484">  2  5  1 -1</clus>
<clus scale="   21.728">  1  5  2 -1</clus>
</clustering>
</event>
<event>
 9    1  0.6202448E-006  0.1315730E+03  0.7546771E-02  0.1226476E+00
          1   -1    0    0  502    0  0.00000000000E+00  0.00000000000E+00  0.72618801973E+03  0.72618801973E+03  0.00000000000E+00 0. -1.
         -1   -1    0    0    0  501 -0.00000000000E+00 -0.00000000000E+00 -0.13939164261E+03  0.13939164261E+03  0.00000000000E+00 0.  1.
         23    2    1    2    0    0  0.11433219633E+03 -0.21559514657E+02 -0.36627565424E+02  0.15089404773E+03  0.88830013519E+02 0.  0.
         23    2    1    2    0    0 -0.25907586363E+02  0.79156253861E+02  0.55901372656E+02  0.13743509417E+03  0.93949593333E+02 0.  0.
        -13    1    4    4    0    0  0.20064184562E+02  0.70405892709E+02  0.53317553279E+02  0.90566675538E+02  0.00000000000E+00 0.  1.
         13    1    4    4    0    0 -0.45971770925E+02  0.87503611526E+01  0.25838193767E+01  0.46868418629E+02  0.00000000000E+00 0. -1.
        -13    1    3    3    0    0  0.92005349937E+02 -0.27855002971E+02 -0.63641259124E+02  0.11528701345E+03  0.00000000000E+00 0.  1.
         13    1    3    3    0    0  0.22326846396E+02  0.62954883141E+01  0.27013693700E+02  0.35607034283E+02  0.00000000000E+00 0. -1.
         21    1    1    2  502  501 -0.88424609971E+02 -0.57596739205E+02  0.56752256989E+03  0.57725052044E+03  0.00000000000E+00 0. -1.
<scales pt_clust_5="13000.00000" pt_clust_6="13000.00000" pt_clust_7="13000.00000" pt_clust_8="13000.00000" pt_clust_9="105.52865"></scales>
<clustering>
<clus scale="   88.830">  7  8 -1 -1</clus>
<clus scale="   93.950">  5  6 -1 -1</clus>
<clus scale="  105.529">  1  9  2 -1</clus>
<clus scale="  127.968">  2  7  1 -1</clus>
<clus scale="  105.529">  1  5  2 -1</clus>
</clustering>
</event>
<event>
 9    1  0.6202448E-006  0.2273928E+03  0.7546771E-02  0.1160968E+00
          2   -1    0    0  502    0  0.00000000000E+00  0.00000000000E+00  0.98056537096E+03  0.98056537096E+03  0.00000000000E+00 0. -1.
         -2   -1    0    0    0  501 -0.00000000000E+00 -0.00000000000E+00 -0.81509349345E+02  0.81509349345E+02  0.00000000000E+00 0.  1.
         23    2    1    2    0    0 -0.30678886564E+02  0.44098784472E+02  0.91779981508E+02  0.13912092033E+03  0.89694863814E+02 0.  0.
         23    2    1    2    0    0  0.11812971067E+03  0.16057941410E+03  0.47043290574E+03  0.51921612675E+03  0.92400707258E+02 0.  0.
        -13    1    3    3    0    0  0.15102707952E+01  0.61935479544E+02  0.34147999632E+02  0.70741574927E+02  0.00000000000E+00 0.  1.
         13    1    3    3    0    0 -0.32189157360E+02 -0.17836695072E+02  0.57631981876E+02  0.68379345401E+02  0.00000000000E+00 0. -1.
        -13    1    4    4    0    0  0.75664338222E+02  0.15984181486E+03  0.39127207598E+03  0.42938134019E+03  0.00000000000E+00 0.  1.
         13    1    4    4    0    0  0.42465372450E+02  0.73759924423E+00  0.79160829755E+02  0.89834786567E+02  0.00000000000E+00 0. -1.
         21    1    1    2  502  501 -0.87450824108E+02 -0.20467819858E+03  0.33684313437E+03  0.40373767322E+03  0.00000000000E+00 0. -1.
<scales pt_clust_5="13000.00000" pt_clust_6="13000.00000" pt_clust_7="13000.00000" pt_clust_8="13000.00000" pt_clust_9="207.77294"></scales>
<clustering>
<clus scale="   89.695">  5  6 -1 -1</clus>
<clus scale="   92.401">  7  8 -1 -1</clus>
<clus scale="  104.552">  2  5  1 -1</clus>
<clus scale="  207.773">  2  9  1 -1</clus>
<clus scale="  227.393">  1  5  2 -1</clus>
</clustering>
</event>
<event>
 9    1  0.6202448E-006  0.2458174E+03  0.7546771E-02  0.1149876E+00
         -1   -1    0    0    0  501 -0.00000000000E+00  0.00000000000E+00  0.50480084955E+03  0.50480084955E+03  0.00000000000E+00 0.  1.
          1   -1    0    0  502    0  0.00000000000E+00 -0.00000000000E+00 -0.34519849496E+03  0.34519849496E+03  0.00000000000E+00 0. -1.
         23    2    1    2    0    0  0.33638216155E+00 -0.56216861975E+02  0.29634780449E+03  0.31519779413E+03  0.91472288014E+02 0.  0.
         23    2    1    2    0    0  0.11035087769E+03 -0.15986316560E+03  0.59432853548E+02  0.22266668441E+03  0.91184649714E+02 0.  0.
        -11    1    4    4    0    0  0.66883795864E+02 -0.91030603378E+02 -0.12992009272E+02  0.11370490405E+03  0.00000000000E+00 0. -1.
         11    1    4    4    0    0  0.43467081823E+02 -0.68832562219E+02  0.72424862820E+02  0.10896178036E+03  0.00000000000E+00 0.  1.
        -13    1    3    3    0    0 -0.45025864463E+02 -0.31513126750E+02  0.17136170583E+03  0.17995899492E+03  0.00000000000E+00 0.  1.
         13    1    3    3    0    0  0.45362246624E+02 -0.24703735226E+02  0.12498609866E+03  0.13523879921E+03  0.00000000000E+00 0. -1.
         21    1    1    2  502  501 -0.11068725985E+03  0.21608002757E+03 -0.19617830345E+03  0.31213486597E+03  0.00000000000E+00 0. -1.
<scales pt_clust_5="13000.00000" pt_clust_6="13000.00000" pt_clust_7="13000.00000" pt_clust_8="13000.00000" pt_clust_9="228.27952"></scales>
<clustering>
<clus scale="   91.185">  5  6 -1 -1</clus>
<clus scale="   91.472">  7  8 -1 -1</clus>
<clus scale="  107.367">  1  7  2 -1</clus>
<clus scale="  228.280">  2  9  1 -1</clus>
<clus scale="  228.280">  2  5  1 -1</clus>
</clustering>
</event>
<event>
 9    1  0.6202448E-006  0.1693898E+03  0.7546771E-02  0.1204963E+00
         -1   -1    0    0    0  501 -0.00000000000E+00  0.00000000000E+00  0.53796901594E+03  0.53796901594E+03  0.00000000000E+00 0.  1.
          1   -1    0    0  502    0  0.00000000000E+00 -0.00000000000E+00 -0.10097183604E+03  0.10097183604E+03  0.00000000000E+00 0. -1.
         23    2    1    2    0    0 -0.23082646441E+02  0.11097649747E+02  0.26447463199E+03  0.28085915936E+03  0.90989395173E+02 0.  0.
         23    2    1    2    0    0  0.90212394591E+02  0.11196693971E+03  0.11460356590E+03  0.20640471763E+03  0.93776641106E+02 0.  0.
        -11    1    3    3    0    0 -0.15901426762E+02  0.50720484220E+02  0.12887094493E+03  0.13940280966E+03  0.00000000000E+00 0. -1.
         11    1    3    3    0    0 -0.71812196795E+01 -0.39622834473E+02  0.13560368705E+03  0.14145634970E+03  0.00000000000E+00 0.  1.
        -11    1    4    4    0    0 -0.18892497524E+02  0.67896826082E+01  0.11928521504E+02  0.23351999441E+02  0.00000000000E+00 0.  1.
         11    1    4    4    0    0  0.10910489211E+03  0.10517725711E+03  0.10267504440E+03  0.18305271819E+03  0.00000000000E+00 0. -1.
         21    1    1    2  502  501 -0.67129748150E+02 -0.12306458946E+03  0.57918982012E+02  0.15167697499E+03  0.00000000000E+00 0.  1.
<scales pt_clust_5="13000.00000" pt_clust_6="13000.00000" pt_clust_7="13000.00000" pt_clust_8="13000.00000" pt_clust_9="141.06332"></scales>
<clustering>
<clus scale="   90.989">  5  6 -1 -1</clus>
<clus scale="   93.777">  7  8 -1 -1</clus>
<clus scale="   94.525">  1  5  2 -1</clus>
<clus scale="  141.063">  2  9  1 -1</clus>
<clus scale="  141.063">  2  5  1 -1</clus>
</clustering>
</event>
<event>
 9    1  0.6202448E-006  0.9335641E+02  0.7546771E-02  0.1295222E+00
          3   -1    0    0  502    0  0.00000000000E+00  0.00000000000E+00  0.56487932366E+02  0.56487932366E+02  0.00000000000E+00 0. -1.
         -3   -1    0    0    0  501 -0.00000000000E+00 -0.00000000000E+00 -0.31251942025E+03  0.31251942025E+03  0.00000000000E+00 0.  1.
         23    2    1    2    0    0  0.40444932389E+01  0.60972986010E+02 -0.13401206153E+03  0.17256470698E+03  0.89918198999E+02 0.  0.
         23    2    1    2    0    0  0.12425004939E+02 -0.62820481984E+01 -0.46359130710E+02  0.10164378812E+03  0.89378105744E+02 0.  0.
        -11    1    3    3    0    0 -0.23821996313E+02  0.23138267986E+01 -0.32222118826E+00  0.23936272251E+02  0.00000000000E+00 0. -1.
         11    1    3    3    0    0  0.27866489552E+02  0.58659159211E+02 -0.13368984035E+03  0.14862843473E+03  0.00000000000E+00 0.  1.
        -13    1    4    4    0    0  0.92946665671E+01  0.38228099558E+02 -0.40800892507E+02  0.56678843070E+02  0.00000000000E+00 0.  1.
         13    1    4    4    0    0  0.31303383722E+01 -0.44510147756E+02 -0.55582382023E+01  0.44964945052E+02  0.00000000000E+00 0. -1.
         21    1    1    2  502  501 -0.16469498178E+02 -0.54690937811E+02 -0.75660295644E+02  0.94798857514E+02  0.00000000000E+00 0. -1.
<scales pt_clust_5="13000.00000" pt_clust_6="13000.00000" pt_clust_7="13000.00000" pt_clust_8="13000.00000" pt_clust_9="57.11692"></scales>
<clustering>
<clus scale="   57.117">  2  9  1 -1</clus>
<clus scale="   89.378">  7  8 -1 -1</clus>
<clus scale="   89.918">  5  6 -1 -1</clus>
<clus scale="   92.836">  1  7  2 -1</clus>
<clus scale="   92.836">  1  5  2 -1</clus>
</clustering>
</event>
<event>
 9    1  0.6202448E-006  0.2580832E+03  0.7546771E-02  0.1149218E+00
         -2   -1    0    0    0  501 -0.00000000000E+00  0.00000000000E+00  0.67659474293E+02  0.67659474293E+02  0.00000000000E+00 0.  1.
          2   -1    0    0  502    0  0.00000000000E+00 -0.00000000000E+00 -0.13154045771E+04  0.13154045771E+04  0.00000000000E+00 0. -1.
         23    2    1    2    0    0  0.24073999101E+02  0.33570954852E+02 -0.18162630322E+03  0.20461655397E+03  0.84695063002E+02 0.  0.
         23    2    1    2    0    0  0.56173191165E+02 -0.24970852398E+03 -0.57332214259E+03  0.63438536358E+03  0.90756465258E+02 0.  0.
        -11    1    3    3    0    0  0.41422732344E+02 -0.10647959759E+02 -0.57125010851E+02  0.71361675054E+02  0.00000000000E+00 0.  1.
         11    1    3    3    0    0 -0.17348733243E+02  0.44218914611E+02 -0.12450129237E+03  0.13325487892E+03  0.00000000000E+00 0. -1.
        -13    1    4    4    0    0  0.79268487895E+01 -0.13643412179E+03 -0.20805160398E+03  0.24892282828E+03  0.00000000000E+00 0.  1.
         13    1    4    4    0    0  0.48246342376E+02 -0.11327440219E+03 -0.36527053860E+03  0.38546253529E+03  0.00000000000E+00 0. -1.
         21    1    1    2  502  501 -0.80247190266E+02  0.21613756913E+03 -0.49279665703E+03  0.54406213387E+03  0.00000000000E+00 0. -1.
<scales pt_clust_5="13000.00000" pt_clust_6="13000.00000" pt_clust_7="13000.00000" pt_clust_8="13000.00000" pt_clust_9="241.59927"></scales>
<clustering>
<clus scale="   84.695">  5  6 -1 -1</clus>
<clus scale="   90.756">  7  8 -1 -1</clus>
<clus scale="   94.233">  1  5  2 -1</clus>
<clus scale="  241.599">  2  9  1 -1</clus>
<clus scale="  241.599">  2  5  1 -1</clus>
</clustering>
</event>
<event>
 9    1  0.6202448E-006  0.2204879E+03  0.7546771E-02  0.1145174E+00
         -1   -1    0    0    0  501 -0.00000000000E+00  0.00000000000E+00  0.73121224448E+02  0.73121224448E+02  0.00000000000E+00 0.  1.
          1   -1    0    0  502    0  0.00000000000E+00 -0.00000000000E+00 -0.14130058777E+04  0.14130058777E+04  0.00000000000E+00 0. -1.
         23    2    1    2    0    0 -0.76455384280E+02  0.15554091489E+03 -0.44712900440E+03  0.48731520909E+03  0.86679665739E+02 0.  0.
         23    2    1    2    0    0  0.11235554827E+03  0.81608034261E+02 -0.58743541989E+03  0.61054795182E+03  0.91677633291E+02 0.  0.
        -11    1    4    4    0    0  0.27373567701E+02 -0.19477552081E+02 -0.97487295370E+02  0.10311382062E+03  0.00000000000E+00 0.  1.
         11    1    4    4    0    0  0.84981980564E+02  0.10108558634E+03 -0.48994812452E+03  0.50743413120E+03  0.00000000000E+00 0. -1.
        -13    1    3    3    0    0 -0.34233447029E+02  0.13625424281E+03 -0.27200186507E+03  0.30614075551E+03  0.00000000000E+00 0. -1.
         13    1    3    3    0    0 -0.42221937251E+02  0.19286672078E+02 -0.17512713932E+03  0.18117445359E+03  0.00000000000E+00 0.  1.
         21    1    1    2  502  501 -0.35900163986E+02 -0.23714894915E+03 -0.30532022901E+03  0.38826394128E+03  0.00000000000E+00 0.  1.
<scales pt_clust_5="13000.00000" pt_clust_6="13000.00000" pt_clust_7="13000.00000" pt_clust_8="13000.00000" pt_clust_9="202.73518"></scales>
<clustering>
<clus scale="   86.680">  7  8 -1 -1</clus>
<clus scale="   91.678">  5  6 -1 -1</clus>
<clus scale="  166.398">  2  5  1 -1</clus>
<clus scale="  202.735">  1  9  2 -1</clus>
<clus scale="  166.398">  2  5  1 -1</clus>
</clustering>
</event>
<event>
 9    1  0.6202448E-006  0.9567050E+02  0.7546771E-02  0.1290505E+00
          2   -1    0    0  502    0  0.00000000000E+00  0.00000000000E+00  0.53951216041E+03  0.53951216041E+03  0.00000000000E+00 0. -1.
         -2   -1    0    0    0  501 -0.00000000000E+00 -0.00000000000E+00 -0.32137887213E+02  0.32137887213E+02  0.00000000000E+00 0.  1.
         23    2    1    2    0    0 -0.32404602488E+02 -0.37340140844E+00  0.75145263524E+02  0.12207876599E+03  0.90588171332E+02 0.  0.
         23    2    1    2    0    0  0.37270504461E+01  0.10969606852E+02  0.31269070517E+03  0.32618535130E+03  0.92125909060E+02 0.  0.
        -13    1    4    4    0    0 -0.13773470497E+02 -0.29209797814E+02  0.47755687043E+02  0.57650034023E+02  0.00000000000E+00 0.  1.
         13    1    4    4    0    0  0.17500520943E+02  0.40179404666E+02  0.26493501813E+03  0.26853531727E+03  0.00000000000E+00 0. -1.
        -13    1    3    3    0    0 -0.23565902416E+02 -0.42141650685E+02  0.19812450399E+02  0.52190072523E+02  0.00000000000E+00 0.  1.
         13    1    3    3    0    0 -0.88387000719E+01  0.41768249277E+02  0.55332813125E+02  0.69888693470E+02  0.00000000000E+00 0. -1.
         21    1    1    2  502  501  0.28677552042E+02 -0.10596205443E+02  0.11953830450E+03  0.12338593033E+03  0.00000000000E+00 0. -1.
<scales pt_clust_5="13000.00000" pt_clust_6="13000.00000" pt_clust_7="13000.00000" pt_clust_8="13000.00000" pt_clust_9="30.57256"></scales>
<clustering>
<clus scale="   30.573">  1  9  2 -1</clus>
<clus scale="   90.588">  7  8 -1 -1</clus>
<clus scale="   92.126">  5  6 -1 -1</clus>
<clus scale="   94.191">  2  7  1 -1</clus>
<clus scale="   30.573">  1  5  2 -1</clus>
</clustering>
</event>
<event>
 9    1  0.6202448E-006  0.2017455E+03  0.7546771E-02  0.1179255E+00
          2   -1    0    0  502    0  0.00000000000E+00  0.00000000000E+00  0.10497656312E+03  0.10497656312E+03  0.00000000000E+00 0. -1.
         -2   -1    0    0    0  501 -0.00000000000E+00 -0.00000000000E+00 -0.12598894914E+04  0.12598894914E+04  0.00000000000E+00 0.  1.
         23    2    1    2    0    0  0.18140169224E+03  0.13886228826E+03 -0.40450489529E+03  0.47247120141E+03  0.86113395035E+02 0.  0.
         23    2    1    2    0    0 -0.43108202596E+02 -0.40050791784E+02  0.22453142968E+02  0.10106483445E+03  0.79041597152E+02 0.  0.
        -11    1    3    3    0    0  0.16567160506E+03  0.12145308376E+03 -0.39837698798E+03  0.44822110261E+03  0.00000000000E+00 0.  1.
         11    1    3    3    0    0  0.15730087180E+02  0.17409204491E+02 -0.61279073116E+01  0.24250098798E+02  0.00000000000E+00 0. -1.
        -13    1    4    4    0    0 -0.49471888178E+02  0.78551300321E+01  0.89269248687E+01  0.50880848807E+02  0.00000000000E+00 0.  1.
         13    1    4    4    0    0  0.63636855824E+01 -0.47905921816E+02  0.13526218099E+02  0.50183985646E+02  0.00000000000E+00 0. -1.
         21    1    1    2  502  501 -0.13829348964E+03 -0.98811496472E+02 -0.77286117599E+03  0.79133001868E+03  0.00000000000E+00 0.  1.
<scales pt_clust_5="13000.00000" pt_clust_6="13000.00000" pt_clust_7="13000.00000" pt_clust_8="13000.00000" pt_clust_9="182.44382"></scales>
<clustering>
<clus scale="   79.042">  7  8 -1 -1</clus>
<clus scale="   86.113">  5  6 -1 -1</clus>
<clus scale="   98.539">  1  7  2 -1</clus>
<clus scale="  182.444">  2  9  1 -1</clus>
<clus scale="   98.539">  1  5  2 -1</clus>
</clustering>
</event>
<event>
 9    1  0.6202448E-006  0.1050647E+03  0.7546771E-02  0.1270339E+00
         -1   -1    0    0    0  501 -0.00000000000E+00  0.00000000000E+00  0.69845422333E+02  0.69845422333E+02  0.00000000000E+00 0.  1.
          1   -1    0    0  502    0  0.00000000000E+00 -0.00000000000E+00 -0.42033348489E+03  0.42033348489E+03  0.00000000000E+00 0. -1.
         23    2    1    2    0    0  0.30524022314E+02 -0.34247709465E+02 -0.10469400808E+03  0.14597996217E+03  0.90800289005E+02 0.  0.
         23    2    1    2    0    0  0.30846656992E+02  0.60719781799E+02 -0.25242396180E+03  0.27703432220E+03  0.91606501069E+02 0.  0.
        -11    1    3    3    0    0  0.25340574008E+02  0.18592965832E+02 -0.82771281204E+02  0.88537721123E+02  0.00000000000E+00 0. -1.
         11    1    3    3    0    0  0.51834483064E+01 -0.52840675297E+02 -0.21922726879E+02  0.57442241042E+02  0.00000000000E+00 0.  1.
        -13    1    4    4    0    0  0.27984780755E+01 -0.20933729748E+02 -0.19975892527E+02  0.29070411124E+02  0.00000000000E+00 0.  1.
         13    1    4    4    0    0  0.28048178917E+02  0.81653511546E+02 -0.23244806927E+03  0.24796391108E+03  0.00000000000E+00 0. -1.
         21    1    1    2  502  501 -0.61370679307E+02 -0.26472072333E+02  0.66299073259E+01  0.67164622856E+02  0.00000000000E+00 0.  1.
<scales pt_clust_5="13000.00000" pt_clust_6="13000.00000" pt_clust_7="13000.00000" pt_clust_8="13000.00000" pt_clust_9="66.83660"></scales>
<clustering>
<clus scale="   66.837">  1  9  2 -1</clus>
<clus scale="   90.800">  5  6 -1 -1</clus>
<clus scale="   91.607">  7  8 -1 -1</clus>
<clus scale="  104.363">  1  5  2 -1</clus>
<clus scale="  105.065">  2  5  1 -1</clus>
</clustering>
</event>
<event>
 9    1  0.6202448E-006  0.1329134E+03  0.7546771E-02  0.1231059E+00
          1   -1    0    0  502    0  0.00000000000E+00  0.00000000000E+00  0.27822957191E+03  0.27822957191E+03  0.00000000000E+00 0. -1.
         -1   -1    0    0    0  501 -0.00000000000E+00 -0.00000000000E+00 -0.23588181261E+03  0.23588181261E+03  0.00000000000E+00 0.  1.
         23    2    1    2    0    0 -0.59185329569E+02  0.39640648266E+01 -0.19649793444E+03  0.22681524905E+03  0.96514775633E+02 0.  0.
         23    2    1    2    0    0  0.49861827827E+02  0.21975670099E+02  0.18462606684E+03  0.22647208206E+03  0.11930501852E+03 0.  0.
        -11    1    4    4    0    0  0.43525046048E+02 -0.41927076933E+02  0.54568964609E+02  0.81425311250E+02  0.00000000000E+00 0.  1.
         11    1    4    4    0    0  0.63367817784E+01  0.63902747032E+02  0.13005710223E+03  0.14504677081E+03  0.00000000000E+00 0. -1.
        -13    1    3    3    0    0 -0.63840196011E+02 -0.33838590840E+02 -0.10261966544E+03  0.12550464769E+03  0.00000000000E+00 0.  1.
         13    1    3    3    0    0  0.46548664418E+01  0.37802655667E+02 -0.93878269003E+02  0.10131060136E+03  0.00000000000E+00 0. -1.
         21    1    1    2  502  501  0.93235017425E+01 -0.25939734926E+02  0.54219626899E+02  0.60824053415E+02  0.00000000000E+00 0. -1.
<scales pt_clust_5="13000.00000" pt_clust_6="13000.00000" pt_clust_7="13000.00000" pt_clust_8="13000.00000" pt_clust_9="27.56443"></scales>
<clustering>
<clus scale="   27.564">  1  9  2 -1</clus>
<clus scale="   96.515">  7  8 -1 -1</clus>
<clus scale="  112.904">  2  7  1 -1</clus>
<clus scale="  119.305">  5  6 -1 -1</clus>
<clus scale="   27.564">  1  5  2 -1</clus>
</clustering>
</event>
<event>
 9    1  0.6202448E-006  0.1654356E+03  0.7546771E-02  0.1182909E+00
         -2   -1    0    0    0  501 -0.00000000000E+00  0.00000000000E+00  0.50008004241E+02  0.50008004241E+02  0.00000000000E+00 0.  1.
          2   -1    0    0  502    0  0.00000000000E+00 -0.00000000000E+00 -0.78467992825E+03  0.78467992825E+03  0.00000000000E+00 0. -1.
         23    2    1    2    0    0 -0.11143742028E+03 -0.85276261330E+02 -0.23663531221E+03  0.29076614473E+03  0.94118757714E+02 0.  0.
         23    2    1    2    0    0  0.11922908317E+03  0.58198839795E+02 -0.27487716970E+03  0.31899061303E+03  0.92708540870E+02 0.  0.
        -11    1    4    4    0    0  0.50073460863E+02  0.74563003739E+02 -0.13590448710E+03  0.16290188036E+03  0.00000000000E+00 0.  1.
         11    1    4    4    0    0  0.69155622302E+02 -0.16364163944E+02 -0.13897268260E+03  0.15608873267E+03  0.00000000000E+00 0. -1.
        -11    1    3    3    0    0 -0.72929291193E+02  0.23302216612E+01 -0.11102156610E+03  0.13285292464E+03  0.00000000000E+00 0.  1.
         11    1    3    3    0    0 -0.38508129090E+02 -0.87606482991E+02 -0.12561374611E+03  0.15791322009E+03  0.00000000000E+00 0. -1.
         21    1    1    2  502  501 -0.77916628826E+01  0.27077421535E+02 -0.22315944211E+03  0.22493117474E+03  0.00000000000E+00 0.  1.
<scales pt_clust_5="13000.00000" pt_clust_6="13000.00000" pt_clust_7="13000.00000" pt_clust_8="13000.00000" pt_clust_9="28.17617"></scales>
<clustering>
<clus scale="   28.176">  2  9  1 -1</clus>
<clus scale="   92.709">  5  6 -1 -1</clus>
<clus scale="   94.119">  7  8 -1 -1</clus>
<clus scale="  164.637">  2  5  1 -1</clus>
<clus scale="   28.176">  2  5  1 -1</clus>
</clustering>
</event>
<event>
 9    1  0.6202448E-006  0.2237698E+03  0.7546771E-02  0.1153919E+00
          1   -1    0    0  502    0  0.00000000000E+00  0.00000000000E+00  0.88434750090E+03  0.88434750090E+03  0.00000000000E+00 0. -1.
         -1   -1    0    0    0  501 -0.00000000000E+00 -0.00000000000E+00 -0.13868015057E+03  0.13868015057E+03  0.00000000000E+00 0.  1.
         23    2    1    2    0    0 -0.35949932750E+02  0.21456585062E+03  0.12209763439E+02  0.24173517744E+03  0.10467051050E+03 0.  0.
         23    2    1    2    0    0  0.55451681140E+02 -0.76354502368E+02  0.33685298815E+03  0.36084283054E+03  0.88502620012E+02 0.  0.
        -13    1    3    3    0    0 -0.70523947606E+01  0.15640506422E+03  0.52708551689E+02  0.16519828028E+03  0.00000000000E+00 0. -1.
         13    1    3    3    0    0 -0.28897537989E+02  0.58160786405E+02 -0.40498788251E+02  0.76536897160E+02  0.00000000000E+00 0.  1.
        -13    1    4    4    0    0  0.36453841942E+02 -0.93500642458E+02  0.29684742886E+03  0.31335227581E+03  0.00000000000E+00 0.  1.
         13    1    4    4    0    0  0.18997839198E+02  0.17146140090E+02  0.40005559290E+02  0.47490554727E+02  0.00000000000E+00 0. -1.
         21    1    1    2  502  501 -0.19501748391E+02 -0.13821134826E+03  0.39660459874E+03  0.42044964350E+03  0.00000000000E+00 0. -1.
<scales pt_clust_5="13000.00000" pt_clust_6="13000.00000" pt_clust_7="13000.00000" pt_clust_8="13000.00000" pt_clust_9="197.78020"></scales>
<clustering>
<clus scale="   88.503">  7  8 -1 -1</clus>
<clus scale="  104.671">  5  6 -1 -1</clus>
<clus scale="  129.374">  1  7  2 -1</clus>
<clus scale="  197.780">  1  9  2 -1</clus>
<clus scale="  129.374">  1  5  2 -1</clus>
</clustering>
</event>
<event>
 9    1  0.6202448E-006  0.9891738E+02  0.7546771E-02  0.1282722E+00
         -1   -1    0    0    0  501 -0.00000000000E+00  0.00000000000E+00  0.11233747547E+03  0.11233747547E+03  0.00000000000E+00 0.  1.
          1   -1    0    0  502    0  0.00000000000E+00 -0.00000000000E+00 -0.19603187684E+03  0.19603187684E+03  0.00000000000E+00 0. -1.
         23    2    1    2    0    0 -0.57838618910E+02 -0.53774179308E+01  0.48327833805E+02  0.11932473520E+03  0.92350367884E+02 0.  0.
         23    2    1    2    0    0  0.31088396131E+02 -0.65403408711E-01 -0.12909452107E+03  0.16158974081E+03  0.92083420412E+02 0.  0.
        -11    1    4    4    0    0 -0.18997164135E+02 -0.18605833713E+02 -0.57870155647E+01  0.27213210808E+02  0.00000000000E+00 0.  1.
         11    1    4    4    0    0  0.50085560266E+02  0.18540430304E+02 -0.12330750550E+03  0.13437653000E+03  0.00000000000E+00 0. -1.
        -13    1    3    3    0    0 -0.17001398363E+02  0.42621576345E+02  0.16879900124E+02  0.48893530703E+02  0.00000000000E+00 0.  1.
         13    1    3    3    0    0 -0.40837220547E+02 -0.47998994276E+02  0.31447933682E+02  0.70431204493E+02  0.00000000000E+00 0. -1.
         21    1    1    2  502  501  0.26750222779E+02  0.54428213396E+01 -0.29277141002E+01  0.27454876301E+02  0.00000000000E+00 0.  1.
<scales pt_clust_5="13000.00000" pt_clust_6="13000.00000" pt_clust_7="13000.00000" pt_clust_8="13000.00000" pt_clust_9="27.29833"></scales>
<clustering>
<clus scale="   27.298">  1  9  2 -1</clus>
<clus scale="   92.083">  5  6 -1 -1</clus>
<clus scale="   92.350">  7  8 -1 -1</clus>
<clus scale="   98.668">  2  5  1 -1</clus>
<clus scale="   98.668">  2  5  1 -1</clus>
</clustering>
</event>
<event>
 9    1  0.6202448E-006  0.1033660E+03  0.7546771E-02  0.1274293E+00
         -1   -1    0    0    0  501 -0.00000000000E+00  0.00000000000E+00  0.55937033123E+03  0.55937033123E+03  0.00000000000E+00 0.  1.
          1   -1    0    0  502    0  0.00000000000E+00 -0.00000000000E+00 -0.40160377914E+02  0.40160377914E+02  0.00000000000E+00 0. -1.
         23    2    1    2    0    0 -0.24868313589E+02  0.41892669274E+02  0.16290739590E+03  0.19234002662E+03  0.89902377292E+02 0.  0.
         23    2    1    2    0    0  0.64634149694E+02  0.15338311227E+02  0.14142517998E+03  0.18129470163E+03  0.91944821539E+02 0.  0.
        -13    1    4    4    0    0  0.27902295398E+02 -0.16211024426E+02  0.48993106245E+00  0.32273447815E+02  0.00000000000E+00 0. -1.
         13    1    4    4    0    0  0.36731854296E+02  0.31549335653E+02  0.14093524892E+03  0.14902125381E+03  0.00000000000E+00 0.  1.
        -13    1    3    3    0    0 -0.54569584448E+02  0.17225056021E+02  0.12833284349E+03  0.14051284931E+03  0.00000000000E+00 0.  1.
         13    1    3    3    0    0  0.29701270860E+02  0.24667613253E+02  0.34574552408E+02  0.51827177316E+02  0.00000000000E+00 0. -1.
         21    1    1    2  502  501 -0.39765836106E+02 -0.57230980502E+02  0.21487737744E+03  0.22589598089E+03  0.00000000000E+00 0. -1.
<scales pt_clust_5="13000.00000" pt_clust_6="13000.00000" pt_clust_7="13000.00000" pt_clust_8="13000.00000" pt_clust_9="69.69008"></scales>
<clustering>
<clus scale="   69.690">  1  9  2 -1</clus>
<clus scale="   89.902">  7  8 -1 -1</clus>
<clus scale="   91.945">  5  6 -1 -1</clus>
<clus scale="  101.553">  1  7  2 -1</clus>
<clus scale="  103.366">  2  5  1 -1</clus>
</clustering>
</event>
<event>
 9    1  0.6202448E-006  0.9898252E+02  0.7546771E-02  0.1283538E+00
         -1   -1    0    0    0  501 -0.00000000000E+00  0.00000000000E+00  0.31359340413E+03  0.31359340413E+03  0.00000000000E+00 0.  1.
          1   -1    0    0  502    0  0.00000000000E+00 -0.00000000000E+00 -0.84848071918E+02  0.84848071918E+02  0.00000000000E+00 0. -1.
         23    2    1    2    0    0  0.38668690336E+02  0.18030968746E+02  0.19637204588E+03  0.22147514904E+03  0.93106808502E+02 0.  0.
         23    2    1    2    0    0  0.86789854126E+01 -0.36587759256E+02  0.63698019721E+02  0.11723864670E+03  0.90958637024E+02 0.  0.
        -11    1    3    3    0    0 -0.27360769675E+02  0.16183756370E+01  0.98743316629E+02  0.10247669704E+03  0.00000000000E+00 0.  1.
         11    1    3    3    0    0  0.66029460011E+02  0.16412593109E+02  0.97628729255E+02  0.11899845200E+03  0.00000000000E+00 0. -1.
        -13    1    4    4    0    0 -0.23812208920E+02  0.17850084240E+02  0.39328989882E+02  0.49319532096E+02  0.00000000000E+00 0.  1.
         13    1    4    4    0    0  0.32491194332E+02 -0.54437843497E+02  0.24369029839E+02  0.67919114607E+02  0.00000000000E+00 0. -1.
         21    1    1    2  502  501 -0.47347675749E+02  0.18556790511E+02 -0.31324733394E+02  0.59727680309E+02  0.00000000000E+00 0.  1.
<scales pt_clust_5="13000.00000" pt_clust_6="13000.00000" pt_clust_7="13000.00000" pt_clust_8="13000.00000" pt_clust_9="50.85427"></scales>
<clustering>
<clus scale="   50.854">  2  9  1 -1</clus>
<clus scale="   90.959">  7  8 -1 -1</clus>
<clus scale="   93.107">  5  6 -1 -1</clus>
<clus scale="   96.965">  2  7  1 -1</clus>
<clus scale="   50.854">  2  5  1 -1</clus>
</clustering>
</event>
<event>
 9    1  0.6202448E-006  0.2915827E+03  0.7546771E-02  0.1107139E+00
         -2   -1    0    0    0  501 -0.00000000000E+00  0.00000000000E+00  0.63157932115E+02  0.63157932115E+02  0.00000000000E+00 0.  1.
          2   -1    0    0  502    0  0.00000000000E+00 -0.00000000000E+00 -0.25785140454E+04  0.25785140454E+04  0.00000000000E+00 0. -1.
         23    2    1    2    0    0 -0.24654108134E+03 -0.12511302882E+03 -0.64140394950E+03  0.70446681396E+03  0.91862346831E+02 0.  0.
         23    2    1    2    0    0  0.85038729756E+02 -0.13405504759E+03 -0.63935297690E+03  0.66540083361E+03  0.93721390088E+02 0.  0.
        -13    1    3    3    0    0 -0.45973851053E+02 -0.20989122280E+02 -0.22589991241E+03  0.23148414343E+03  0.00000000000E+00 0.  1.
         13    1    3    3    0    0 -0.20056723029E+03 -0.10412390654E+03 -0.41550403710E+03  0.47298267053E+03  0.00000000000E+00 0. -1.
        -13    1    4    4    0    0  0.54012155862E+02 -0.18783836732E+02 -0.12629198046E+03  0.13863552875E+03  0.00000000000E+00 0.  1.
         13    1    4    4    0    0  0.31026573894E+02 -0.11527121086E+03 -0.51306099644E+03  0.52676530486E+03  0.00000000000E+00 0. -1.
         21    1    1    2  502  501  0.16150235159E+03  0.25916807641E+03 -0.12345991869E+04  0.12718043299E+04  0.00000000000E+00 0.  1.
<scales pt_clust_5="13000.00000" pt_clust_6="13000.00000" pt_clust_7="13000.00000" pt_clust_8="13000.00000" pt_clust_9="276.73415"></scales>
<clustering>
<clus scale="   91.862">  5  6 -1 -1</clus>
<clus scale="   93.721">  7  8 -1 -1</clus>
<clus scale="  184.353">  2  7  1 -1</clus>
<clus scale="  276.734">  2  9  1 -1</clus>
<clus scale="  184.353">  2  5  1 -1</clus>
</clustering>
</event>
<event>
 9    1  0.6202448E-006  0.1225639E+03  0.7546771E-02  0.1239451E+00
         -1   -1    0    0    0  501 -0.00000000000E+00  0.00000000000E+00  0.35974030850E+02  0.35974030850E+02  0.00000000000E+00 0.  1.
          1   -1    0    0  502    0  0.00000000000E+00 -0.00000000000E+00 -0.63274453567E+03  0.63274453567E+03  0.00000000000E+00 0. -1.
         23    2    1    2    0    0  0.50938326970E+02 -0.55191937615E+02 -0.20507710851E+03  0.23725463651E+03  0.92694546659E+02 0.  0.
         23    2    1    2    0    0 -0.27962660840E+02  0.84559101311E+02 -0.20677233940E+03  0.24282112249E+03  0.90967824926E+02 0.  0.
        -11    1    3    3    0    0  0.20535663846E+02  0.15067890367E+02 -0.12055470856E+03  0.12321604021E+03  0.00000000000E+00 0. -1.
         11    1    3    3    0    0  0.30402663124E+02 -0.70259827982E+02 -0.84522399950E+02  0.11403859630E+03  0.00000000000E+00 0.  1.
        -13    1    4    4    0    0  0.31858344136E+02  0.26656426533E+02 -0.47494205088E+02  0.63096899160E+02  0.00000000000E+00 0.  1.
         13    1    4    4    0    0 -0.59821004976E+02  0.57902674777E+02 -0.15927813431E+03  0.17972422333E+03  0.00000000000E+00 0. -1.
         21    1    1    2  502  501 -0.22975666130E+02 -0.29367163696E+02 -0.18492105692E+03  0.18864280752E+03  0.00000000000E+00 0. -1.
<scales pt_clust_5="13000.00000" pt_clust_6="13000.00000" pt_clust_7="13000.00000" pt_clust_8="13000.00000" pt_clust_9="37.28688"></scales>
<clustering>
<clus scale="   37.287">  2  9  1 -1</clus>
<clus scale="   90.968">  7  8 -1 -1</clus>
<clus scale="   92.695">  5  6 -1 -1</clus>
<clus scale="  121.263">  2  7  1 -1</clus>
<clus scale="   37.287">  2  5  1 -1</clus>
</clustering>
</event>
<event>
 9    1  0.6202448E-006  0.9869941E+02  0.7546771E-02  0.1285333E+00
          1   -1    0    0  502    0  0.00000000000E+00  0.00000000000E+00  0.19996552729E+03  0.19996552729E+03  0.00000000000E+00 0. -1.
         -1   -1    0    0    0  501 -0.00000000000E+00 -0.00000000000E+00 -0.12616952512E+03  0.12616952512E+03  0.00000000000E+00 0.  1.
         23    2    1    2    0    0  0.14287863611E+02 -0.27214601791E+01 -0.91758176985E+01  0.98398349490E+02  0.96883900416E+02 0.  0.
         23    2    1    2    0    0  0.69764021128E+02 -0.29836327050E+02  0.31027508964E+02  0.12370334158E+03  0.92642243877E+02 0.  0.
        -11    1    4    4    0    0  0.77552517140E+02 -0.50217439986E+02  0.39255147090E+02  0.10038501266E+03  0.00000000000E+00 0.  1.
         11    1    4    4    0    0 -0.77884960122E+01  0.20381112937E+02 -0.82276381263E+01  0.23318328924E+02  0.00000000000E+00 0. -1.
        -13    1    3    3    0    0 -0.31269887831E+02  0.11451822580E+02  0.23335281081E+02  0.40663072541E+02  0.00000000000E+00 0. -1.
         13    1    3    3    0    0  0.45557751442E+02 -0.14173282759E+02 -0.32511098779E+02  0.57735276949E+02  0.00000000000E+00 0.  1.
         21    1    1    2  502  501 -0.84051884739E+02  0.32557787229E+02  0.51944310905E+02  0.10403336135E+03  0.00000000000E+00 0. -1.
<scales pt_clust_5="13000.00000" pt_clust_6="13000.00000" pt_clust_7="13000.00000" pt_clust_8="13000.00000" pt_clust_9="90.13728"></scales>
<clustering>
<clus scale="   90.137">  1  9  2 -1</clus>
<clus scale="   92.642">  5  6 -1 -1</clus>
<clus scale="   94.539">  1  5  2 -1</clus>
<clus scale="   96.884">  7  8 -1 -1</clus>
<clus scale="   90.137">  1  5  2 -1</clus>
</clustering>
</event>
<event>
 9    1  0.6202448E-006  0.1256622E+03  0.7546771E-02  0.1234215E+00
          1   -1    0    0  502    0  0.00000000000E+00  0.00000000000E+00  0.19257108044E+03  0.19257108044E+03  0.00000000000E+00 0. -1.
         -1   -1    0    0    0  501 -0.00000000000E+00 -0.00000000000E+00 -0.16368683349E+03  0.16368683349E+03  0.00000000000E+00 0.  1.
         23    2    1    2    0    0  0.40126909284E+02  0.55891514740E+02 -0.35154199424E+02  0.11955496728E+03  0.91233448889E+02 0.  0.
         23    2    1    2    0    0 -0.41554140698E+02 -0.11182646618E+03 -0.24245473975E+01  0.14982322908E+03  0.90604726111E+02 0.  0.
        -11    1    4    4    0    0 -0.29075510546E+01 -0.11110669643E+03 -0.23649335935E+01  0.11116989141E+03  0.00000000000E+00 0. -1.
         11    1    4    4    0    0 -0.38646589644E+02 -0.71976975626E+00 -0.59613804065E-01  0.38653337675E+02  0.00000000000E+00 0.  1.
        -13    1    3    3    0    0  0.57042056172E+02  0.67928517844E+02 -0.13794785130E+02  0.89768456629E+02  0.00000000000E+00 0.  1.
         13    1    3    3    0    0 -0.16915146888E+02 -0.12037003103E+02 -0.21359414294E+02  0.29786510654E+02  0.00000000000E+00 0. -1.
         21    1    1    2  502  501  0.14272314141E+01  0.55934951445E+02  0.66462993772E+02  0.86879717563E+02  0.00000000000E+00 0. -1.
<scales pt_clust_5="13000.00000" pt_clust_6="13000.00000" pt_clust_7="13000.00000" pt_clust_8="13000.00000" pt_clust_9="55.95316"></scales>
<clustering>
<clus scale="   55.953">  1  9  2 -1</clus>
<clus scale="   90.605">  5  6 -1 -1</clus>
<clus scale="   91.233">  7  8 -1 -1</clus>
<clus scale="  125.206">  1  5  2 -1</clus>
<clus scale="   55.953">  1  5  2 -1</clus>
</clustering>
</event>
<event>
 9    1  0.6202448E-006  0.1296223E+03  0.7546771E-02  0.1228566E+00
          4   -1    0    0  502    0  0.00000000000E+00  0.00000000000E+00  0.18551534699E+03  0.18551534699E+03  0.00000000000E+00 0. -1.
         -4   -1    0    0    0  501 -0.00000000000E+00 -0.00000000000E+00 -0.26397258619E+03  0.26397258619E+03  0.00000000000E+00 0.  1.
         23    2    1    2    0    0  0.63886982369E+02 -0.62710661350E+02 -0.13922633315E+03  0.18922069387E+03  0.91686016302E+02 0.  0.
         23    2    1    2    0    0 -0.87045048975E+02  0.35606166275E+02 -0.51547689906E+02  0.14242832538E+03  0.93723123658E+02 0.  0.
        -13    1    3    3    0    0 -0.20977651990E+02  0.18386453109E+01 -0.29263502023E+02  0.36052670501E+02  0.00000000000E+00 0.  1.
         13    1    3    3    0    0  0.84864634359E+02 -0.64549306661E+02 -0.10996283112E+03  0.15316802337E+03  0.00000000000E+00 0. -1.
        -13    1    4    4    0    0 -0.83142858841E+02  0.57730353054E+02 -0.19169322724E+02  0.10301937475E+03  0.00000000000E+00 0.  1.
         13    1    4    4    0    0 -0.39021901343E+01 -0.22124186779E+02 -0.32378367182E+02  0.39408950631E+02  0.00000000000E+00 0. -1.
         21    1    1    2  502  501  0.23158066606E+02  0.27104495074E+02  0.11231678385E+03  0.11783891393E+03  0.00000000000E+00 0. -1.
<scales pt_clust_5="13000.00000" pt_clust_6="13000.00000" pt_clust_7="13000.00000" pt_clust_8="13000.00000" pt_clust_9="35.65038"></scales>
<clustering>
<clus scale="   35.650">  1  9  2 -1</clus>
<clus scale="   91.686">  5  6 -1 -1</clus>
<clus scale="   93.723">  7  8 -1 -1</clus>
<clus scale="  128.157">  2  5  1 -1</clus>
<clus scale="   35.650">  1  5  2 -1</clus>
</clustering>
</event>
<event>
 9    1  0.6202448E-006  0.1568908E+03  0.7546771E-02  0.1192386E+00
          1   -1    0    0  502    0  0.00000000000E+00  0.00000000000E+00  0.29872909115E+03  0.29872909115E+03  0.00000000000E+00 0. -1.
         -1   -1    0    0    0  501 -0.00000000000E+00 -0.00000000000E+00 -0.15747154916E+03  0.15747154916E+03  0.00000000000E+00 0.  1.
         23    2    1    2    0    0  0.10447345913E+03 -0.82788277814E+02  0.23235710263E+02  0.16302430479E+03  0.90930869979E+02 0.  0.
         23    2    1    2    0    0 -0.81420868013E+02  0.96577823777E+02  0.17274902332E+03  0.23221209162E+03  0.90130997137E+02 0.  0.
        -13    1    4    4    0    0 -0.39269144090E+02  0.80767555880E+02  0.53001089468E+02  0.10428125069E+03  0.00000000000E+00 0.  1.
         13    1    4    4    0    0 -0.42151723923E+02  0.15810267897E+02  0.11974793385E+03  0.12793084093E+03  0.00000000000E+00 0. -1.
        -13    1    3    3    0    0  0.63522095029E+02 -0.96792744801E+02  0.29027655552E+02  0.11935868963E+03  0.00000000000E+00 0. -1.
         13    1    3    3    0    0  0.40951364100E+02  0.14004466987E+02 -0.57919452896E+01  0.43665615162E+02  0.00000000000E+00 0.  1.
         21    1    1    2  502  501 -0.23052591116E+02 -0.13789545964E+02 -0.54727191592E+02  0.60964243902E+02  0.00000000000E+00 0.  1.
<scales pt_clust_5="13000.00000" pt_clust_6="13000.00000" pt_clust_7="13000.00000" pt_clust_8="13000.00000" pt_clust_9="26.86212"></scales>
<clustering>
<clus scale="   26.862">  2  9  1 -1</clus>
<clus scale="   90.131">  5  6 -1 -1</clus>
<clus scale="   90.931">  7  8 -1 -1</clus>
<clus scale="  156.429">  1  5  2 -1</clus>
<clus scale="  156.429">  1  5  2 -1</clus>
</clustering>
</event>
<event>
 9    1  0.6202448E-006  0.1009048E+03  0.7546771E-02  0.1279686E+00
          1   -1    0    0  502    0  0.00000000000E+00  0.00000000000E+00  0.68679581718E+02  0.68679581718E+02  0.00000000000E+00 0. -1.
         -1   -1    0    0    0  501 -0.00000000000E+00 -0.00000000000E+00 -0.33674720242E+03  0.33674720242E+03  0.00000000000E+00 0.  1.
         23    2    1    2    0    0  0.14686432913E+02  0.98533406122E+01 -0.19194809029E+03  0.21472072711E+03  0.94594617453E+02 0.  0.
         23    2    1    2    0    0  0.39460406925E+02  0.58842670190E+01 -0.12575925213E+02  0.10575111415E+03  0.97125670835E+02 0.  0.
        -11    1    3    3    0    0 -0.34295021355E+02 -0.53497481388E+01 -0.12866617981E+03  0.13326572748E+03  0.00000000000E+00 0.  1.
         11    1    3    3    0    0  0.48981454269E+02  0.15203088751E+02 -0.63281910481E+02  0.81454999625E+02  0.00000000000E+00 0. -1.
        -13    1    4    4    0    0 -0.60292756683E+00 -0.30807659598E+02 -0.35305821886E+02  0.46861247002E+02  0.00000000000E+00 0.  1.
         13    1    4    4    0    0  0.40063334492E+02  0.36691926617E+02  0.22729896673E+02  0.58889867144E+02  0.00000000000E+00 0. -1.
         21    1    1    2  502  501 -0.54146839838E+02 -0.15737607631E+02 -0.63543605196E+02  0.84954942880E+02  0.00000000000E+00 0.  1.
<scales pt_clust_5="13000.00000" pt_clust_6="13000.00000" pt_clust_7="13000.00000" pt_clust_8="13000.00000" pt_clust_9="56.38752"></scales>
<clustering>
<clus scale="   56.388">  2  9  1 -1</clus>
<clus scale="   94.595">  5  6 -1 -1</clus>
<clus scale="   97.126">  7  8 -1 -1</clus>
<clus scale="   98.471">  2  5  1 -1</clus>
<clus scale="  100.905">  1  5  2 -1</clus>
</clustering>
</event>
<event>
 9    1  0.6202448E-006  0.1318339E+03  0.7546771E-02  0.1225116E+00
         -1   -1    0    0    0  501 -0.00000000000E+00  0.00000000000E+00  0.14165067642E+03  0.14165067642E+03  0.00000000000E+00 0.  1.
          1   -1    0    0  502    0  0.00000000000E+00 -0.00000000000E+00 -0.23927014090E+03  0.23927014090E+03  0.00000000000E+00 0. -1.
         23    2    1    2    0    0  0.76783602498E+02 -0.17362997860E+02  0.17905447155E+02  0.12223961043E+03  0.91786284452E+02 0.  0.
         23    2    1    2    0    0 -0.65477735786E+02  0.86259643301E+02 -0.12468580518E+03  0.18826464389E+03  0.90382333329E+02 0.  0.
        -11    1    4    4    0    0 -0.71271919085E+02  0.24613541207E+02 -0.46720300942E+02  0.88703435001E+02  0.00000000000E+00 0.  1.
         11    1    4    4    0    0  0.57941832995E+01  0.61646102094E+02 -0.77965504241E+02  0.99561208887E+02  0.00000000000E+00 0. -1.
        -11    1    3    3    0    0 -0.68856248336E+01 -0.26649884870E+02  0.25749748181E+02  0.37691878758E+02  0.00000000000E+00 0. -1.
         11    1    3    3    0    0  0.83669227331E+02  0.92868870097E+01 -0.78443010260E+01  0.84547731673E+02  0.00000000000E+00 0.  1.
         21    1    1    2  502  501 -0.11305866712E+02 -0.68896645441E+02  0.91608935443E+01  0.70416563007E+02  0.00000000000E+00 0.  1.
<scales pt_clust_5="13000.00000" pt_clust_6="13000.00000" pt_clust_7="13000.00000" pt_clust_8="13000.00000" pt_clust_9="69.81812"></scales>
<clustering>
<clus scale="   69.818">  1  9  2 -1</clus>
<clus scale="   90.382">  5  6 -1 -1</clus>
<clus scale="   91.786">  7  8 -1 -1</clus>
<clus scale="  130.860">  2  5  1 -1</clus>
<clus scale="  130.860">  2  5  1 -1</clus>
</clustering>
</event>
<event>
 9    1  0.6202448E-006  0.1277155E+03  0.7546771E-02  0.1231043E+00
         -2   -1    0    0    0  501 -0.00000000000E+00  0.00000000000E+00  0.65885366288E+02  0.65885366288E+02  0.00000000000E+00 0.  1.
          2   -1    0    0  502    0  0.00000000000E+00 -0.00000000000E+00 -0.67986340873E+03  0.67986340873E+03  0.00000000000E+00 0. -1.
         23    2    1    2    0    0 -0.64796312038E+02  0.97580046741E+02 -0.11766768903E+03  0.18951364571E+03  0.91374554954E+02 0.  0.
         23    2    1    2    0    0 -0.47868551672E+02 -0.73064220880E+02 -0.18535665590E+03  0.22459285331E+03  0.91951515811E+02 0.  0.
        -11    1    4    4    0    0 -0.72027596763E+02 -0.64344941440E+02 -0.11788491898E+03  0.15239783564E+03  0.00000000000E+00 0.  1.
         11    1    4    4    0    0  0.24159045090E+02 -0.87192794396E+01 -0.67471736923E+02  0.72195017675E+02  0.00000000000E+00 0. -1.
        -11    1    3    3    0    0  0.19082832563E+02  0.39676154884E+02 -0.52586060746E+02  0.68583128755E+02  0.00000000000E+00 0. -1.
         11    1    3    3    0    0 -0.83879144600E+02  0.57903891856E+02 -0.65081628284E+02  0.12093051696E+03  0.00000000000E+00 0.  1.
         21    1    1    2  502  501  0.11266486371E+03 -0.24515825861E+02 -0.31095369751E+03  0.33164227600E+03  0.00000000000E+00 0. -1.
<scales pt_clust_5="13000.00000" pt_clust_6="13000.00000" pt_clust_7="13000.00000" pt_clust_8="13000.00000" pt_clust_9="115.30133"></scales>
<clustering>
<clus scale="   91.375">  7  8 -1 -1</clus>
<clus scale="   91.952">  5  6 -1 -1</clus>
<clus scale="  115.301">  2  9  1 -1</clus>
<clus scale="  127.301">  1  7  2 -1</clus>
<clus scale="  115.301">  2  5  1 -1</clus>
</clustering>
</event>
<event>
 9    1  0.6202448E-006  0.1474409E+03  0.7546771E-02  0.1223811E+00
         -1   -1    0    0    0  501 -0.00000000000E+00  0.00000000000E+00  0.87529142557E+03  0.87529142557E+03  0.00000000000E+00 0.  1.
          1   -1    0    0  502    0  0.00000000000E+00 -0.00000000000E+00 -0.92265673592E+02  0.92265673592E+02  0.00000000000E+00 0. -1.
         23    2    1    2    0    0  0.64650028022E+02 -0.95032803603E+02  0.59673145617E+03  0.61491262653E+03  0.93905524808E+02 0.  0.
         23    2    1    2    0    0  0.19228615575E+02  0.18392111881E+02 -0.36282042193E+02  0.10274519550E+03  0.92369795796E+02 0.  0.
        -11    1    3    3    0    0 -0.16730163166E+02 -0.50293327346E+02  0.16492613182E+03  0.17323379027E+03  0.00000000000E+00 0.  1.
         11    1    3    3    0    0  0.81380191188E+02 -0.44739476257E+02  0.43180532436E+03  0.44167883626E+03  0.00000000000E+00 0. -1.
        -11    1    4    4    0    0 -0.16396212360E+02  0.21375790140E+02  0.21723939084E+02  0.34607653969E+02  0.00000000000E+00 0.  1.
         11    1    4    4    0    0  0.35624827935E+02 -0.29836782590E+01 -0.58005981278E+02  0.68137541527E+02  0.00000000000E+00 0. -1.
         21    1    1    2  502  501 -0.83878643597E+02  0.76640691722E+02  0.22257633800E+03  0.24989927714E+03  0.00000000000E+00 0.  1.
<scales pt_clust_5="13000.00000" pt_clust_6="13000.00000" pt_clust_7="13000.00000" pt_clust_8="13000.00000" pt_clust_9="113.66865"></scales>
<clustering>
<clus scale="   92.370">  7  8 -1 -1</clus>
<clus scale="   93.906">  5  6 -1 -1</clus>
<clus scale="   96.126">  2  7  1 -1</clus>
<clus scale="  113.669">  2  9  1 -1</clus>
<clus scale="   96.126">  2  5  1 -1</clus>
</clustering>
</event>
<event>
 9    1  0.6202448E-006  0.1011136E+03  0.7546771E-02  0.1278440E+00
         -3   -1    0    0    0  501 -0.00000000000E+00  0.00000000000E+00  0.35629709554E+03  0.35629709554E+03  0.00000000000E+00 0.  1.
          3   -1    0    0  502    0  0.00000000000E+00 -0.00000000000E+00 -0.69030280502E+02  0.69030280502E+02  0.00000000000E+00 0. -1.
         23    2    1    2    0    0 -0.27344116487E+02  0.69808137020E+02  0.14148406002E+03  0.18506880588E+03  0.92800037547E+02 0.  0.
         23    2    1    2    0    0  0.18498665233E+02 -0.22729988915E+02  0.10747995917E+02  0.96979192016E+02  0.91818251216E+02 0.  0.
        -13    1    3    3    0    0  0.35532019656E+00 -0.20709117805E+02  0.98564675172E+01  0.22937823886E+02  0.00000000000E+00 0. -1.
         13    1    3    3    0    0 -0.27699436683E+02  0.90517254825E+02  0.13162759251E+03  0.16213098199E+03  0.00000000000E+00 0.  1.
        -13    1    4    4    0    0  0.55775414664E+02 -0.18981491668E+02  0.64794897891E+01  0.59272065046E+02  0.00000000000E+00 0. -1.
         13    1    4    4    0    0 -0.37276749431E+02 -0.37484972464E+01  0.42685061276E+01  0.37707126969E+02  0.00000000000E+00 0.  1.
         21    1    1    2  502  501  0.88454512533E+01 -0.47078148106E+02  0.13503475910E+03  0.14327937815E+03  0.00000000000E+00 0. -1.
<scales pt_clust_5="13000.00000" pt_clust_6="13000.00000" pt_clust_7="13000.00000" pt_clust_8="13000.00000" pt_clust_9="47.90192"></scales>
<clustering>
<clus scale="   47.902">  1  9  2 -1</clus>
<clus scale="   91.818">  7  8 -1 -1</clus>
<clus scale="   92.800">  5  6 -1 -1</clus>
<clus scale="  100.213">  2  7  1 -1</clus>
<clus scale="  100.213">  2  5  1 -1</clus>
</clustering>
</event>
<event>
 9    1  0.6202448E-006  0.1097117E+03  0.7546771E-02  0.1263857E+00
         -4   -1    0    0    0  501 -0.00000000000E+00  0.00000000000E+00  0.10057871813E+03  0.10057871813E+03  0.00000000000E+00 0.  1.
          4   -1    0    0  502    0  0.00000000000E+00 -0.00000000000E+00 -0.30178101563E+03  0.30178101563E+03  0.00000000000E+00 0. -1.
         23    2    1    2    0    0 -0.13735678706E+02  0.56214344011E+02  0.26828223069E+02  0.11976479569E+03  0.10136632277E+03 0.  0.
         23    2    1    2    0    0  0.67169329261E+01 -0.70269158504E+01 -0.74436305030E+02  0.12116430613E+03  0.95107995663E+02 0.  0.
        -11    1    4    4    0    0 -0.21685876835E+02 -0.40706159320E+02 -0.17865198926E+02  0.49461439459E+02  0.00000000000E+00 0.  1.
         11    1    4    4    0    0  0.28402809761E+02  0.33679243469E+02 -0.56571106104E+02  0.71702866671E+02  0.00000000000E+00 0. -1.
        -13    1    3    3    0    0 -0.70057726462E+01  0.85499831065E+02  0.26241723033E+02  0.89710255769E+02  0.00000000000E+00 0.  1.
         13    1    3    3    0    0 -0.67299060599E+01 -0.29285487053E+02  0.58650003580E+00  0.30054539920E+02  0.00000000000E+00 0. -1.
         21    1    1    2  502  501  0.70187457800E+01 -0.49187428161E+02 -0.15359421554E+03  0.16143063194E+03  0.00000000000E+00 0. -1.
<scales pt_clust_5="13000.00000" pt_clust_6="13000.00000" pt_clust_7="13000.00000" pt_clust_8="13000.00000" pt_clust_9="49.68567"></scales>
<clustering>
<clus scale="   49.686">  2  9  1 -1</clus>
<clus scale="   95.108">  5  6 -1 -1</clus>
<clus scale="  101.366">  7  8 -1 -1</clus>
<clus scale="  103.957">  2  5  1 -1</clus>
<clus scale="   49.686">  2  5  1 -1</clus>
</clustering>
</event>
<event>
 9    1  0.6202448E-006  0.9808268E+02  0.7546771E-02  0.1292754E+00
         -1   -1    0    0    0  501 -0.00000000000E+00  0.00000000000E+00  0.50195583218E+02  0.50195583218E+02  0.00000000000E+00 0.  1.
          1   -1    0    0  502    0  0.00000000000E+00 -0.00000000000E+00 -0.25657259845E+03  0.25657259845E+03  0.00000000000E+00 0. -1.
         23    2    1    2    0    0 -0.32999284147E+01 -0.16891356976E+02 -0.60468429754E+02  0.11334380757E+03  0.94308961658E+02 0.  0.
         23    2    1    2    0    0 -0.26149617909E+02  0.23232035685E+02 -0.13675632996E+03  0.16194035012E+03  0.79365314923E+02 0.  0.
        -11    1    4    4    0    0 -0.16668855472E+02 -0.14083782762E+02 -0.21404509069E+01  0.21926814856E+02  0.00000000000E+00 0.  1.
         11    1    4    4    0    0 -0.94807624366E+01  0.37315818447E+02 -0.13461587905E+03  0.14001353526E+03  0.00000000000E+00 0. -1.
        -11    1    3    3    0    0  0.42391616738E+02 -0.25216946834E+02 -0.28584282712E+02  0.57008813314E+02  0.00000000000E+00 0.  1.
         11    1    3    3    0    0 -0.45691545153E+02  0.83255898581E+01 -0.31884147042E+02  0.56334994253E+02  0.00000000000E+00 0. -1.
         21    1    1    2  502  501  0.29449546324E+02 -0.63406787093E+01 -0.91522555191E+01  0.31484023984E+02  0.00000000000E+00 0.  1.
<scales pt_clust_5="13000.00000" pt_clust_6="13000.00000" pt_clust_7="13000.00000" pt_clust_8="13000.00000" pt_clust_9="30.12441"></scales>
<clustering>
<clus scale="   30.124">  1  9  2 -1</clus>
<clus scale="   79.365">  5  6 -1 -1</clus>
<clus scale="   83.815">  2  5  1 -1</clus>
<clus scale="   94.309">  7  8 -1 -1</clus>
<clus scale="   83.815">  2  5  1 -1</clus>
</clustering>
</event>
<event>
 9    1  0.6202448E-006  0.1419891E+03  0.7546771E-02  0.1221363E+00
          1   -1    0    0  502    0  0.00000000000E+00  0.00000000000E+00  0.36358258215E+03  0.36358258215E+03  0.00000000000E+00 0. -1.
         -1   -1    0    0    0  501 -0.00000000000E+00 -0.00000000000E+00 -0.23474081422E+03  0.23474081422E+03  0.00000000000E+00 0.  1.
         23    2    1    2    0    0 -0.96775916546E+02  0.38055706629E+02 -0.16656214912E+03  0.21765750855E+03  0.93904348556E+02 0.  0.
         23    2    1    2    0    0 -0.21190952387E+02 -0.10575857914E+02  0.18413535388E+03  0.21619091282E+03  0.11077805289E+03 0.  0.
        -11    1    4    4    0    0 -0.12184476642E+02  0.32905819003E+02  0.16350502572E+03  0.16722783210E+03  0.00000000000E+00 0.  1.
         11    1    4    4    0    0 -0.90064757455E+01 -0.43481676916E+02  0.20630328164E+02  0.48963080713E+02  0.00000000000E+00 0. -1.
        -13    1    3    3    0    0  0.13466886671E+02  0.22514592061E+02 -0.50026361019E+02  0.56488057934E+02  0.00000000000E+00 0.  1.
         13    1    3    3    0    0 -0.11024280322E+03  0.15541114568E+02 -0.11653578810E+03  0.16116945062E+03  0.00000000000E+00 0. -1.
         21    1    1    2  502  501  0.11796686893E+03 -0.27479848715E+02  0.11126856317E+03  0.16447497500E+03  0.00000000000E+00 0.  1.
<scales pt_clust_5="13000.00000" pt_clust_6="13000.00000" pt_clust_7="13000.00000" pt_clust_8="13000.00000" pt_clust_9="106.50299"></scales>
<clustering>
<clus scale="   93.904">  7  8 -1 -1</clus>
<clus scale="  110.778">  5  6 -1 -1</clus>
<clus scale="  113.281">  1  5  2 -1</clus>
<clus scale="  106.503">  1  9  2 -1</clus>
<clus scale="  113.281">  1  5  2 -1</clus>
</clustering>
</event>
<event>
 9    1  0.6202448E-006  0.1607540E+03  0.7546771E-02  0.1212131E+00
          1   -1    0    0  502    0  0.00000000000E+00  0.00000000000E+00  0.84365537158E+03  0.84365537158E+03  0.00000000000E+00 0. -1.
         -1   -1    0    0    0  501 -0.00000000000E+00 -0.00000000000E+00 -0.67519654292E+02  0.67519654292E+02  0.00000000000E+00 0.  1.
         23    2    1    2    0    0  0.74903401488E+02 -0.11254475545E+03  0.92403785165E+02  0.18894883354E+03  0.94267495195E+02 0.  0.
         23    2    1    2    0    0 -0.23474516406E+01  0.27330377569E+02  0.15456082481E+03  0.18134920366E+03  0.90807626529E+02 0.  0.
        -11    1    3    3    0    0  0.64459716303E+02 -0.40609088249E+02  0.65651233610E+01  0.76467338903E+02  0.00000000000E+00 0.  1.
         11    1    3    3    0    0  0.10443685186E+02 -0.71935667200E+02  0.85838661804E+02  0.11248149464E+03  0.00000000000E+00 0. -1.
        -11    1    4    4    0    0 -0.33838422274E+02 -0.17580073471E+02  0.81596281125E+02  0.90066924555E+02  0.00000000000E+00 0. -1.
         11    1    4    4    0    0  0.31490970633E+02  0.44910451040E+02  0.72964543680E+02  0.91282279104E+02  0.00000000000E+00 0.  1.
         21    1    1    2  502  501 -0.72555949848E+02  0.85214377880E+02  0.52917110732E+03  0.54087698868E+03  0.00000000000E+00 0. -1.
<scales pt_clust_5="13000.00000" pt_clust_6="13000.00000" pt_clust_7="13000.00000" pt_clust_8="13000.00000" pt_clust_9="130.21322"></scales>
<clustering>
<clus scale="   90.808">  7  8 -1 -1</clus>
<clus scale="   94.267">  5  6 -1 -1</clus>
<clus scale="   94.860">  1  7  2 -1</clus>
<clus scale="  130.213">  1  9  2 -1</clus>
<clus scale="   94.860">  1  5  2 -1</clus>
</clustering>
</event>
<event>
 9    1  0.6202448E-006  0.9466280E+02  0.7546771E-02  0.1293208E+00
         -1   -1    0    0    0  501 -0.00000000000E+00  0.00000000000E+00  0.26052728324E+02  0.26052728324E+02  0.00000000000E+00 0.  1.
          1   -1    0    0  502    0  0.00000000000E+00 -0.00000000000E+00 -0.79506902688E+03  0.79506902688E+03  0.00000000000E+00 0. -1.
         23    2    1    2    0    0  0.10186683941E+02  0.18141774189E+02 -0.24223445792E+03  0.25940610103E+03  0.90449434226E+02 0.  0.
         23    2    1    2    0    0  0.28949713442E+01  0.43700409747E+02 -0.45345787754E+03  0.46490662059E+03  0.92714683240E+02 0.  0.
        -11    1    3    3    0    0 -0.44464812315E+01 -0.27970762811E+02 -0.28181436139E+02  0.39954075017E+02  0.00000000000E+00 0.  1.
         11    1    3    3    0    0  0.14633165173E+02  0.46112537000E+02 -0.21405302178E+03  0.21945202602E+03  0.00000000000E+00 0. -1.
        -13    1    4    4    0    0 -0.16975940566E+02  0.68566082522E+02 -0.30441592540E+03  0.31250367337E+03  0.00000000000E+00 0. -1.
         13    1    4    4    0    0  0.19870911910E+02 -0.24865672775E+02 -0.14904195214E+03  0.15240294722E+03  0.00000000000E+00 0.  1.
         21    1    1    2  502  501 -0.13081655286E+02 -0.61842183936E+02 -0.73323963096E+02  0.96809033582E+02  0.00000000000E+00 0.  1.
<scales pt_clust_5="13000.00000" pt_clust_6="13000.00000" pt_clust_7="13000.00000" pt_clust_8="13000.00000" pt_clust_9="63.21064"></scales>
<clustering>
<clus scale="   63.211">  1  9  2 -1</clus>
<clus scale="   90.449">  5  6 -1 -1</clus>
<clus scale="   92.445">  1  5  2 -1</clus>
<clus scale="   92.715">  7  8 -1 -1</clus>
<clus scale="   94.663">  2  5  1 -1</clus>
</clustering>
</event>
<event>
 9    1  0.6202448E-006  0.1072405E+03  0.7546771E-02  0.1266813E+00
         -1   -1    0    0    0  501 -0.00000000000E+00  0.00000000000E+00  0.30940483680E+02  0.30940483680E+02  0.00000000000E+00 0.  1.
          1   -1    0    0  502    0  0.00000000000E+00 -0.00000000000E+00 -0.58967204240E+03  0.58967204240E+03  0.00000000000E+00 0. -1.
         23    2    1    2    0    0  0.52344474013E+02 -0.29267242955E+02 -0.19582190446E+03  0.22420114925E+03  0.91232787909E+02 0.  0.
         23    2    1    2    0    0 -0.50965299746E+02 -0.21407005143E+02 -0.24708486687E+03  0.26997893275E+03  0.93712171270E+02 0.  0.
        -11    1    4    4    0    0 -0.23170976320E+02 -0.47529836156E+02 -0.21081087321E+03  0.21734121499E+03  0.00000000000E+00 0. -1.
         11    1    4    4    0    0 -0.27794323426E+02  0.26122831014E+02 -0.36273993657E+02  0.52637717757E+02  0.00000000000E+00 0.  1.
        -13    1    3    3    0    0  0.72976884296E+02 -0.33800937720E+01 -0.15711569766E+03  0.17326971209E+03  0.00000000000E+00 0. -1.
         13    1    3    3    0    0 -0.20632410283E+02 -0.25887149183E+02 -0.38706206801E+02  0.50931437166E+02  0.00000000000E+00 0.  1.
         21    1    1    2  502  501 -0.13791742670E+01  0.50674248097E+02 -0.11582478739E+03  0.12643244408E+03  0.00000000000E+00 0.  1.
<scales pt_clust_5="13000.00000" pt_clust_6="13000.00000" pt_clust_7="13000.00000" pt_clust_8="13000.00000" pt_clust_9="50.69301"></scales>
<clustering>
<clus scale="   50.693">  2  9  1 -1</clus>
<clus scale="   91.233">  7  8 -1 -1</clus>
<clus scale="   93.712">  5  6 -1 -1</clus>
<clus scale="  105.081">  1  7  2 -1</clus>
<clus scale="   50.693">  2  5  1 -1</clus>
</clustering>
</event>
<event>
 9    1  0.6202448E-006  0.2076885E+03  0.7546771E-02  0.1175195E+00
         -2   -1    0    0    0  501 -0.00000000000E+00  0.00000000000E+00  0.41992718743E+03  0.41992718743E+03  0.00000000000E+00 0.  1.
          2   -1    0    0  502    0  0.00000000000E+00 -0.00000000000E+00 -0.39565674380E+03  0.39565674380E+03  0.00000000000E+00 0. -1.
         23    2    1    2    0    0 -0.17279871023E+03  0.62868803338E+02  0.30564909017E+03  0.36753175470E+03  0.88579589638E+02 0.  0.
         23    2    1    2    0    0 -0.26094153451E+02 -0.42546386031E+01 -0.20396959397E+03  0.22672401982E+03  0.95400100144E+02 0.  0.
        -11    1    4    4    0    0 -0.21522430933E+02  0.40925850205E+02 -0.14562384459E+03  0.15278888821E+03  0.00000000000E+00 0.  1.
         11    1    4    4    0    0 -0.45717225181E+01 -0.45180488808E+02 -0.58345749378E+02  0.73935131611E+02  0.00000000000E+00 0. -1.
        -11    1    3    3    0    0 -0.96895710043E+02 -0.11082927914E+02  0.16063160827E+03  0.18792052440E+03  0.00000000000E+00 0. -1.
         11    1    3    3    0    0 -0.75903000189E+02  0.73951731252E+02  0.14501748190E+03  0.17961123030E+03  0.00000000000E+00 0.  1.
         21    1    1    2  502  501  0.19889286368E+03 -0.58614164735E+02 -0.77409052576E+02  0.22132815671E+03  0.00000000000E+00 0. -1.
<scales pt_clust_5="13000.00000" pt_clust_6="13000.00000" pt_clust_7="13000.00000" pt_clust_8="13000.00000" pt_clust_9="187.85146"></scales>
<clustering>
<clus scale="   88.580">  7  8 -1 -1</clus>
<clus scale="   95.400">  5  6 -1 -1</clus>
<clus scale="   98.996">  2  5  1 -1</clus>
<clus scale="  187.851">  2  9  1 -1</clus>
<clus scale="   98.996">  2  5  1 -1</clus>
</clustering>
</event>
<event>
 9    1  0.6202448E-006  0.1010041E+03  0.7546771E-02  0.1279519E+00
         -4   -1    0    0    0  501 -0.00000000000E+00  0.00000000000E+00  0.15358592162E+03  0.15358592162E+03  0.00000000000E+00 0.  1.
          4   -1    0    0  502    0  0.00000000000E+00 -0.00000000000E+00 -0.16719216556E+03  0.16719216556E+03  0.00000000000E+00 0. -1.
         23    2    1    2    0    0 -0.73284260399E+01  0.15000765003E+02  0.75689105307E+01  0.93628758867E+02  0.91816813828E+02 0.  0.
         23    2    1    2    0    0 -0.31244203697E+02 -0.37498193796E+02 -0.93851116304E+02  0.14185116013E+03  0.94506109828E+02 0.  0.
        -11    1    3    3    0    0 -0.42478195530E+02  0.31869895330E+02  0.11836925055E+02  0.54407721130E+02  0.00000000000E+00 0. -1.
         11    1    3    3    0    0  0.35149769490E+02 -0.16869130327E+02 -0.42680145241E+01  0.39221037737E+02  0.00000000000E+00 0.  1.
        -13    1    4    4    0    0 -0.20453120271E+02  0.22295565863E+02 -0.70572508442E+02  0.76784772799E+02  0.00000000000E+00 0. -1.
         13    1    4    4    0    0 -0.10791083426E+02 -0.59793759660E+02 -0.23278607862E+02  0.65066387327E+02  0.00000000000E+00 0.  1.
         21    1    1    2  502  501  0.38572629737E+02  0.22497428794E+02  0.72675961831E+02  0.85298168182E+02  0.00000000000E+00 0.  1.
<scales pt_clust_5="13000.00000" pt_clust_6="13000.00000" pt_clust_7="13000.00000" pt_clust_8="13000.00000" pt_clust_9="44.65403"></scales>
<clustering>
<clus scale="   44.654">  1  9  2 -1</clus>
<clus scale="   91.817">  5  6 -1 -1</clus>
<clus scale="   94.506">  7  8 -1 -1</clus>
<clus scale="   98.492">  1  5  2 -1</clus>
<clus scale="  101.004">  2  5  1 -1</clus>
</clustering>
</event>
<event>
 9    1  0.6202448E-006  0.9631314E+02  0.7546771E-02  0.1289129E+00
         -3   -1    0    0    0  501 -0.00000000000E+00  0.00000000000E+00  0.99727500864E+02  0.99727500864E+02  0.00000000000E+00 0.  1.
          3   -1    0    0  502    0  0.00000000000E+00 -0.00000000000E+00 -0.25866055454E+03  0.25866055454E+03  0.00000000000E+00 0. -1.
         23    2    1    2    0    0  0.32891711847E+02  0.75871243026E+02 -0.35362850099E+02  0.12871456622E+03  0.92079303659E+02 0.  0.
         23    2    1    2    0    0  0.87450501065E+00 -0.12165247035E+02 -0.12827960987E+03  0.15741845591E+03  0.90422087781E+02 0.  0.
        -11    1    3    3    0    0  0.56330033388E+02  0.27625604802E+02  0.29342359039E+01  0.62808092174E+02  0.00000000000E+00 0.  1.
         11    1    3    3    0    0 -0.23438321541E+02  0.48245638224E+02 -0.38297086003E+02  0.65906474041E+02  0.00000000000E+00 0. -1.
        -13    1    4    4    0    0 -0.16792769042E+02  0.21397582405E+02 -0.11349674778E+03  0.11671060527E+03  0.00000000000E+00 0. -1.
         13    1    4    4    0    0  0.17667274053E+02 -0.33562829440E+02 -0.14782862088E+02  0.40707850643E+02  0.00000000000E+00 0.  1.
         21    1    1    2  502  501 -0.33766216858E+02 -0.63705995991E+02  0.47094062950E+01  0.72255033276E+02  0.00000000000E+00 0. -1.
<scales pt_clust_5="13000.00000" pt_clust_6="13000.00000" pt_clust_7="13000.00000" pt_clust_8="13000.00000" pt_clust_9="72.10140"></scales>
<clustering>
<clus scale="   72.101">  1  9  2 -1</clus>
<clus scale="   90.422">  7  8 -1 -1</clus>
<clus scale="   92.079">  5  6 -1 -1</clus>
<clus scale="   94.730">  2  7  1 -1</clus>
<clus scale="   94.730">  2  5  1 -1</clus>
</clustering>
</event>
<event>
 9    1  0.6202448E-006  0.1523803E+03  0.7546771E-02  0.1219165E+00
          1   -1    0    0  502    0  0.00000000000E+00  0.00000000000E+00  0.34952516496E+03  0.34952516496E+03  0.00000000000E+00 0. -1.
         -1   -1    0    0    0  501 -0.00000000000E+00 -0.00000000000E+00 -0.19810759856E+03  0.19810759856E+03  0.00000000000E+00 0.  1.
         23    2    1    2    0    0 -0.22133960183E+02  0.15415621325E+02 -0.72985504078E+02  0.12057684815E+03  0.92110471343E+02 0.  0.
         23    2    1    2    0    0  0.12646736357E+03  0.47228585701E+01  0.26970986983E+03  0.31154087954E+03  0.91093393289E+02 0.  0.
        -11    1    3    3    0    0  0.20139022258E+02 -0.14019821165E+02 -0.63663021415E+02  0.68228409763E+02  0.00000000000E+00 0.  1.
         11    1    3    3    0    0 -0.42272982441E+02  0.29435442490E+02 -0.93224826629E+01  0.52348438392E+02  0.00000000000E+00 0. -1.
        -13    1    4    4    0    0  0.26253014847E+02  0.40080187825E+02  0.10652575078E+03  0.11680487072E+03  0.00000000000E+00 0. -1.
         13    1    4    4    0    0  0.10021434872E+03 -0.35357329255E+02  0.16318411905E+03  0.19473600882E+03  0.00000000000E+00 0.  1.
         21    1    1    2  502  501 -0.10433340339E+03 -0.20138479896E+02 -0.45306799346E+02  0.11551503583E+03  0.00000000000E+00 0. -1.
<scales pt_clust_5="13000.00000" pt_clust_6="13000.00000" pt_clust_7="13000.00000" pt_clust_8="13000.00000" pt_clust_9="122.15458"></scales>
<clustering>
<clus scale="   91.093">  7  8 -1 -1</clus>
<clus scale="   92.110">  5  6 -1 -1</clus>
<clus scale="   95.979">  2  5  1 -1</clus>
<clus scale="  122.155">  2  9  1 -1</clus>
<clus scale="  152.380">  1  5  2 -1</clus>
</clustering>
</event>
<event>
 9    1  0.6202448E-006  0.1023209E+03  0.7546771E-02  0.1277218E+00
         -2   -1    0    0    0  501 -0.00000000000E+00  0.00000000000E+00  0.96341801516E+02  0.96341801516E+02  0.00000000000E+00 0.  1.
          2   -1    0    0  502    0  0.00000000000E+00 -0.00000000000E+00 -0.66167060979E+03  0.66167060979E+03  0.00000000000E+00 0. -1.
         23    2    1    2    0    0  0.19277461032E+01 -0.37859298648E+02  0.36211940854E+02  0.10937037566E+03  0.95987143474E+02 0.  0.
         23    2    1    2    0    0 -0.89417230251E+02 -0.84516468046E+01 -0.44824182521E+03  0.46616005413E+03  0.91200826724E+02 0.  0.
        -11    1    4    4    0    0 -0.96275933331E+02  0.16643063254E+02 -0.39497374282E+03  0.40687873429E+03  0.00000000000E+00 0. -1.
         11    1    4    4    0    0  0.68587030801E+01 -0.25094710059E+02 -0.53268082386E+02  0.59281319840E+02  0.00000000000E+00 0.  1.
        -11    1    3    3    0    0 -0.36200708090E+02  0.12850338805E+02  0.22302414105E+02  0.44418691431E+02  0.00000000000E+00 0. -1.
         11    1    3    3    0    0  0.38128454193E+02 -0.50709637452E+02  0.13909526750E+02  0.64951684228E+02  0.00000000000E+00 0.  1.
         21    1    1    2  502  501  0.87489484148E+02  0.46310945452E+02 -0.15329892391E+03  0.18248198152E+03  0.00000000000E+00 0.  1.
<scales pt_clust_5="13000.00000" pt_clust_6="13000.00000" pt_clust_7="13000.00000" pt_clust_8="13000.00000" pt_clust_9="98.99047"></scales>
<clustering>
<clus scale="   91.201">  5  6 -1 -1</clus>
<clus scale="   95.987">  7  8 -1 -1</clus>
<clus scale="   98.990">  2  9  1 -1</clus>
<clus scale="   98.990">  2  5  1 -1</clus>
<clus scale="   98.990">  2  5  1 -1</clus>
</clustering>
</event>
<event>
 9    1  0.6202448E-006  0.1608443E+03  0.7546771E-02  0.1203958E+00
          1   -1    0    0  502    0  0.00000000000E+00  0.00000000000E+00  0.70463384757E+03  0.70463384757E+03  0.00000000000E+00 0. -1.
         -1   -1    0    0    0  501 -0.00000000000E+00 -0.00000000000E+00 -0.12126650626E+03  0.12126650626E+03  0.00000000000E+00 0.  1.
         23    2    1    2    0    0 -0.46276202981E+02 -0.48231181463E+02  0.27102649585E+02  0.11603359026E+03  0.90892830443E+02 0.  0.
         23    2    1    2    0    0 -0.66031434126E+02 -0.58200768189E+01 -0.12719363295E+02  0.12739152913E+03  0.10804071410E+03 0.  0.
        -13    1    4    4    0    0 -0.31327253213E+02  0.43896551786E+02  0.21166513161E+02  0.57933801291E+02  0.00000000000E+00 0. -1.
         13    1    4    4    0    0 -0.34704180913E+02 -0.49716628605E+02 -0.33885876457E+02  0.69457727835E+02  0.00000000000E+00 0.  1.
        -13    1    3    3    0    0  0.10816579563E+02 -0.54327832396E+02  0.14168729181E+02  0.57177483793E+02  0.00000000000E+00 0.  1.
         13    1    3    3    0    0 -0.57092782545E+02  0.60966509327E+01  0.12933920404E+02  0.58856106466E+02  0.00000000000E+00 0. -1.
         21    1    1    2  502  501  0.11230763711E+03  0.54051258282E+02  0.56898405502E+03  0.58247523445E+03  0.00000000000E+00 0. -1.
<scales pt_clust_5="13000.00000" pt_clust_6="13000.00000" pt_clust_7="13000.00000" pt_clust_8="13000.00000" pt_clust_9="119.15580"></scales>
<clustering>
<clus scale="   90.893">  7  8 -1 -1</clus>
<clus scale="  108.041">  5  6 -1 -1</clus>
<clus scale="  112.824">  2  7  1 -1</clus>
<clus scale="  119.156">  1  9  2 -1</clus>
<clus scale="  119.156">  1  5  2 -1</clus>
</clustering>
</event>
<event>
 9    1  0.6202448E-006  0.1118495E+03  0.7546771E-02  0.1258017E+00
          2   -1    0    0  502    0  0.00000000000E+00  0.00000000000E+00  0.18351110036E+03  0.18351110036E+03  0.00000000000E+00 0. -1.
         -2   -1    0    0    0  501 -0.00000000000E+00 -0.00000000000E+00 -0.10231900765E+03  0.10231900765E+03  0.00000000000E+00 0.  1.
         23    2    1    2    0    0 -0.39800032627E+02  0.61725052590E+02  0.26037150686E+02  0.12123269935E+03  0.92873082543E+02 0.  0.
         23    2    1    2    0    0  0.22389688776E+02 -0.51753156613E+02  0.79450834948E+02  0.13308789906E+03  0.90665684349E+02 0.  0.
        -11    1    4    4    0    0  0.38629894868E+02 -0.11368734781E+02 -0.24460676522E+01  0.40342287429E+02  0.00000000000E+00 0.  1.
         11    1    4    4    0    0 -0.16240206092E+02 -0.40384421833E+02  0.81896902600E+02  0.92745611628E+02  0.00000000000E+00 0. -1.
        -13    1    3    3    0    0  0.17771102680E+02 -0.14232680447E+02  0.15139440998E+01  0.22818267022E+02  0.00000000000E+00 0. -1.
         13    1    3    3    0    0 -0.57571135307E+02  0.75957733037E+02  0.24523206586E+02  0.98414432326E+02  0.00000000000E+00 0.  1.
         21    1    1    2  502  501  0.17410343852E+02 -0.99718959768E+01 -0.24295892926E+02  0.31509509604E+02  0.00000000000E+00 0. -1.
<scales pt_clust_5="13000.00000" pt_clust_6="13000.00000" pt_clust_7="13000.00000" pt_clust_8="13000.00000" pt_clust_9="20.06387"></scales>
<clustering>
<clus scale="   20.064">  2  9  1 -1</clus>
<clus scale="   90.666">  5  6 -1 -1</clus>
<clus scale="   92.873">  7  8 -1 -1</clus>
<clus scale="  110.024">  1  5  2 -1</clus>
<clus scale="  110.024">  1  5  2 -1</clus>
</clustering>
</event>
<event>
 9    1  0.6202448E-006  0.1625832E+03  0.7546771E-02  0.1204253E+00
         -4   -1    0    0    0  501 -0.00000000000E+00  0.00000000000E+00  0.36576951661E+03  0.36576951661E+03  0.00000000000E+00 0.  1.
          4   -1    0    0  502    0  0.00000000000E+00 -0.00000000000E+00 -0.21475025436E+03  0.21475025436E+03  0.00000000000E+00 0. -1.
         23    2    1    2    0    0 -0.33856159072E+02  0.12769177484E+03  0.26964248228E+03  0.31555921001E+03  0.97052140114E+02 0.  0.
         23    2    1    2    0    0  0.23292491522E+01 -0.10407327751E+02 -0.24424600518E+02  0.11126291135E+03  0.10802377728E+03 0.  0.
        -11    1    4    4    0    0 -0.21568004471E+02  0.23854507985E+02  0.29097495276E+02  0.43369120344E+02  0.00000000000E+00 0.  1.
         11    1    4    4    0    0  0.23897253623E+02 -0.34261835737E+02 -0.53522095793E+02  0.67893791004E+02  0.00000000000E+00 0. -1.
        -13    1    3    3    0    0 -0.41690201758E+02  0.71914541837E+02  0.23539251435E+03  0.24963855884E+03  0.00000000000E+00 0.  1.
         13    1    3    3    0    0  0.78340426858E+01  0.55777233006E+02  0.34249967932E+02  0.65920651164E+02  0.00000000000E+00 0. -1.
         21    1    1    2  502  501  0.31526909920E+02 -0.11728444709E+03 -0.94198619512E+02  0.15369764961E+03  0.00000000000E+00 0. -1.
<scales pt_clust_5="13000.00000" pt_clust_6="13000.00000" pt_clust_7="13000.00000" pt_clust_8="13000.00000" pt_clust_9="130.43846"></scales>
<clustering>
<clus scale="   97.052">  7  8 -1 -1</clus>
<clus scale="  108.024">  5  6 -1 -1</clus>
<clus scale="  108.549">  2  5  1 -1</clus>
<clus scale="  130.438">  2  9  1 -1</clus>
<clus scale="  108.549">  2  5  1 -1</clus>
</clustering>
</event>
<event>
 9    1  0.6202448E-006  0.1862469E+03  0.7546771E-02  0.1162338E+00
          1   -1    0    0  502    0  0.00000000000E+00  0.00000000000E+00  0.16208416160E+03  0.16208416160E+03  0.00000000000E+00 0. -1.
         -1   -1    0    0    0  501 -0.00000000000E+00 -0.00000000000E+00 -0.41799483586E+03  0.41799483586E+03  0.00000000000E+00 0.  1.
         23    2    1    2    0    0  0.20775622194E+01  0.11623421237E+03 -0.24341242846E+03  0.28572283450E+03  0.94197767684E+02 0.  0.
         23    2    1    2    0    0  0.21236357568E+01 -0.17286335751E+03  0.58313447635E+02  0.20358829380E+03  0.90340937560E+02 0.  0.
        -11    1    4    4    0    0 -0.22049863255E+01 -0.14500539053E+03  0.82146659722E+02  0.16667183010E+03  0.00000000000E+00 0. -1.
         11    1    4    4    0    0  0.43286220823E+01 -0.27857966981E+02 -0.23833212087E+02  0.36916463696E+02  0.00000000000E+00 0.  1.
        -13    1    3    3    0    0 -0.13492553903E+02  0.16260467067E+02  0.10438426014E+01  0.21155174484E+02  0.00000000000E+00 0. -1.
         13    1    3    3    0    0  0.15570116123E+02  0.99973745300E+02 -0.24445627106E+03  0.26456766001E+03  0.00000000000E+00 0.  1.
         21    1    1    2  502  501 -0.42011979762E+01  0.56629145139E+02 -0.70811693448E+02  0.90767869164E+02  0.00000000000E+00 0.  1.
<scales pt_clust_5="13000.00000" pt_clust_6="13000.00000" pt_clust_7="13000.00000" pt_clust_8="13000.00000" pt_clust_9="56.78477"></scales>
<clustering>
<clus scale="   56.785">  2  9  1 -1</clus>
<clus scale="   90.341">  5  6 -1 -1</clus>
<clus scale="   94.198">  7  8 -1 -1</clus>
<clus scale="  184.326">  1  5  2 -1</clus>
<clus scale="  184.326">  1  5  2 -1</clus>
</clustering>
</event>
<event>
 9    1  0.6202448E-006  0.9534996E+02  0.7546771E-02  0.1290837E+00
         -2   -1    0    0    0  501 -0.00000000000E+00  0.00000000000E+00  0.25588130776E+02  0.25588130776E+02  0.00000000000E+00 0.  1.
          2   -1    0    0  502    0  0.00000000000E+00 -0.00000000000E+00 -0.53708938282E+03  0.53708938282E+03  0.00000000000E+00 0. -1.
         23    2    1    2    0    0 -0.25309714055E+02  0.14457772775E+02 -0.20582176942E+03  0.22688000063E+03  0.90897332732E+02 0.  0.
         23    2    1    2    0    0 -0.51583158535E+01 -0.38898231424E+02 -0.24078892838E+03  0.26005834942E+03  0.90063069241E+02 0.  0.
        -11    1    4    4    0    0  0.50536467309E+01 -0.65123088435E+02 -0.20081683930E+03  0.21117281771E+03  0.00000000000E+00 0.  1.
         11    1    4    4    0    0 -0.10211962584E+02  0.26224857011E+02 -0.39972089081E+02  0.48885531710E+02  0.00000000000E+00 0. -1.
        -11    1    3    3    0    0 -0.57349080699E+02 -0.35576654551E+01 -0.10714754669E+03  0.12158195097E+03  0.00000000000E+00 0.  1.
         11    1    3    3    0    0  0.32039366644E+02  0.18015438230E+02 -0.98674222729E+02  0.10529804965E+03  0.00000000000E+00 0. -1.
         21    1    1    2  502  501  0.30468029908E+02  0.24440458649E+02 -0.64890554249E+02  0.75739163556E+02  0.00000000000E+00 0. -1.
<scales pt_clust_5="13000.00000" pt_clust_6="13000.00000" pt_clust_7="13000.00000" pt_clust_8="13000.00000" pt_clust_9="39.05940"></scales>
<clustering>
<clus scale="   39.059">  1  9  2 -1</clus>
<clus scale="   90.063">  5  6 -1 -1</clus>
<clus scale="   90.897">  7  8 -1 -1</clus>
<clus scale="   94.555">  2  5  1 -1</clus>
<clus scale="   94.555">  2  5  1 -1</clus>
</clustering>
</event>
<event>
 9    1  0.6202448E-006  0.1348361E+03  0.7546771E-02  0.1232821E+00
          1   -1    0    0  502    0  0.00000000000E+00  0.00000000000E+00  0.10430388990E+04  0.10430388990E+04  0.00000000000E+00 0. -1.
         -1   -1    0    0    0  501 -0.00000000000E+00 -0.00000000000E+00 -0.39901953922E+02  0.39901953922E+02  0.00000000000E+00 0.  1.
         23    2    1    2    0    0 -0.33976633852E+02 -0.35768612620E+02  0.86518726657E+02  0.13550855790E+03  0.91887289132E+02 0.  0.
         23    2    1    2    0    0 -0.18616771240E+02 -0.68064220809E+02  0.34028232183E+03  0.35946087628E+03  0.91873503815E+02 0.  0.
        -11    1    4    4    0    0  0.37877900671E+01 -0.72304672661E+02  0.32254649551E+03  0.33057307030E+03  0.00000000000E+00 0.  1.
         11    1    4    4    0    0 -0.22404561307E+02  0.42404518513E+01  0.17735826318E+02  0.28887805982E+02  0.00000000000E+00 0. -1.
        -11    1    3    3    0    0 -0.13415700298E+02 -0.32065763297E+02  0.10312215276E+03  0.10882266574E+03  0.00000000000E+00 0. -1.
         11    1    3    3    0    0 -0.20560933554E+02 -0.37028493230E+01 -0.16603426100E+02  0.26685892153E+02  0.00000000000E+00 0.  1.
         21    1    1    2  502  501  0.52593405092E+02  0.10383283343E+03  0.57633589656E+03  0.58797141871E+03  0.00000000000E+00 0. -1.
<scales pt_clust_5="13000.00000" pt_clust_6="13000.00000" pt_clust_7="13000.00000" pt_clust_8="13000.00000" pt_clust_9="98.69154"></scales>
<clustering>
<clus scale="   91.874">  5  6 -1 -1</clus>
<clus scale="   91.887">  7  8 -1 -1</clus>
<clus scale="  104.293">  2  7  1 -1</clus>
<clus scale="   98.692">  1  9  2 -1</clus>
<clus scale="   98.692">  1  5  2 -1</clus>
</clustering>
</event>
<event>
 9    1  0.6202448E-006  0.1638115E+03  0.7546771E-02  0.1184800E+00
          1   -1    0    0  502    0  0.00000000000E+00  0.00000000000E+00  0.57730256949E+03  0.57730256949E+03  0.00000000000E+00 0. -1.
         -1   -1    0    0    0  501 -0.00000000000E+00 -0.00000000000E+00 -0.10177814070E+03  0.10177814070E+03  0.00000000000E+00 0.  1.
         23    2    1    2    0    0  0.14176895870E+03  0.73258358246E+01  0.16942337422E+02  0.16970604617E+03  0.91438469966E+02 0.  0.
         23    2    1    2    0    0 -0.10059673203E+03 -0.63645888357E+02  0.32977382139E+03  0.36288687961E+03  0.93624849912E+02 0.  0.
        -11    1    4    4    0    0 -0.71129245090E+02 -0.86865023420E+02  0.26867781738E+03  0.29119181196E+03  0.00000000000E+00 0.  1.
         11    1    4    4    0    0 -0.29467486938E+02  0.23219135063E+02  0.61096004006E+02  0.71695067648E+02  0.00000000000E+00 0. -1.
        -13    1    3    3    0    0  0.11555685577E+03  0.43970652929E+02  0.91024807450E+01  0.12397443443E+03  0.00000000000E+00 0. -1.
         13    1    3    3    0    0  0.26212102921E+02 -0.36644817104E+02  0.78398566774E+01  0.45731611746E+02  0.00000000000E+00 0.  1.
         21    1    1    2  502  501 -0.41172226668E+02  0.56320052532E+02  0.12880826998E+03  0.14648778441E+03  0.00000000000E+00 0.  1.
<scales pt_clust_5="13000.00000" pt_clust_6="13000.00000" pt_clust_7="13000.00000" pt_clust_8="13000.00000" pt_clust_9="69.76461"></scales>
<clustering>
<clus scale="   69.765">  1  9  2 -1</clus>
<clus scale="   91.438">  7  8 -1 -1</clus>
<clus scale="   93.625">  5  6 -1 -1</clus>
<clus scale="  162.572">  2  7  1 -1</clus>
<clus scale="   69.765">  1  5  2 -1</clus>
</clustering>
</event>
<event>
 9    1  0.6202448E-006  0.2579337E+03  0.7546771E-02  0.1149943E+00
         -2   -1    0    0    0  501 -0.00000000000E+00  0.00000000000E+00  0.60272250996E+02  0.60272250996E+02  0.00000000000E+00 0.  1.
          2   -1    0    0  502    0  0.00000000000E+00 -0.00000000000E+00 -0.20938492114E+04  0.20938492114E+04  0.00000000000E+00 0. -1.
         23    2    1    2    0    0 -0.81434447089E+01 -0.55012404162E+01 -0.65397464557E+02  0.11351996866E+03  0.92267955310E+02 0.  0.
         23    2    1    2    0    0  0.19874235437E+03 -0.13443227557E+03 -0.62916372880E+03  0.68086896207E+03  0.10082155393E+03 0.  0.
        -13    1    3    3    0    0  0.25312369024E+02 -0.33118050581E+02 -0.94808862711E+01  0.42748198844E+02  0.00000000000E+00 0.  1.
         13    1    3    3    0    0 -0.33455813733E+02  0.27616810165E+02 -0.55916578286E+02  0.70771769819E+02  0.00000000000E+00 0. -1.
        -13    1    4    4    0    0  0.18737490523E+03 -0.79267058976E+02 -0.47495922571E+03  0.51669999790E+03  0.00000000000E+00 0.  1.
         13    1    4    4    0    0  0.11367449140E+02 -0.55165216589E+02 -0.15420450309E+03  0.16416896417E+03  0.00000000000E+00 0. -1.
         21    1    1    2  502  501 -0.19059890966E+03  0.13993351598E+03 -0.13390157670E+04  0.13597325316E+04  0.00000000000E+00 0. -1.
<scales pt_clust_5="13000.00000" pt_clust_6="13000.00000" pt_clust_7="13000.00000" pt_clust_8="13000.00000" pt_clust_9="237.41275"></scales>
<clustering>
<clus scale="   92.268">  5  6 -1 -1</clus>
<clus scale="   92.790">  1  5  2 -1</clus>
<clus scale="  100.822">  7  8 -1 -1</clus>
<clus scale="  237.413">  2  9  1 -1</clus>
<clus scale="  237.413">  2  5  1 -1</clus>
</clustering>
</event>
<event>
 9    1  0.6202448E-006  0.1059930E+03  0.7546771E-02  0.1268212E+00
          1   -1    0    0  502    0  0.00000000000E+00  0.00000000000E+00  0.85336247867E+02  0.85336247867E+02  0.00000000000E+00 0. -1.
         -1   -1    0    0    0  501 -0.00000000000E+00 -0.00000000000E+00 -0.42907605244E+03  0.42907605244E+03  0.00000000000E+00 0.  1.
         23    2    1    2    0    0  0.11005083271E+01  0.50504679368E+02 -0.24961549429E+03  0.27057133411E+03  0.91372961495E+02 0.  0.
         23    2    1    2    0    0  0.80912312504E+02 -0.61669028790E+02 -0.32083842197E+02  0.14040129703E+03  0.91286799981E+02 0.  0.
        -11    1    4    4    0    0  0.37268413972E+02  0.21309023552E+02 -0.10203441675E+02  0.44126175754E+02  0.00000000000E+00 0. -1.
         11    1    4    4    0    0  0.43643898532E+02 -0.82978052342E+02 -0.21880400522E+02  0.96275121275E+02  0.00000000000E+00 0.  1.
        -13    1    3    3    0    0  0.39190141143E+02 -0.21047692780E+01 -0.85822383082E+02  0.94370433158E+02  0.00000000000E+00 0.  1.
         13    1    3    3    0    0 -0.38089632816E+02  0.52609448646E+02 -0.16379311121E+03  0.17620090095E+03  0.00000000000E+00 0. -1.
         21    1    1    2  502  501 -0.82012820831E+02  0.11164349422E+02 -0.62040468085E+02  0.10343966917E+03  0.00000000000E+00 0.  1.
<scales pt_clust_5="13000.00000" pt_clust_6="13000.00000" pt_clust_7="13000.00000" pt_clust_8="13000.00000" pt_clust_9="82.76923"></scales>
<clustering>
<clus scale="   82.769">  1  9  2 -1</clus>
<clus scale="   91.287">  5  6 -1 -1</clus>
<clus scale="   91.373">  7  8 -1 -1</clus>
<clus scale="  105.919">  1  5  2 -1</clus>
<clus scale="   82.769">  1  5  2 -1</clus>
</clustering>
</event>
<event>
 9    1  0.6202448E-006  0.9901677E+02  0.7546771E-02  0.1284690E+00
          1   -1    0    0  502    0  0.00000000000E+00  0.00000000000E+00  0.19955381630E+03  0.19955381630E+03  0.00000000000E+00 0. -1.
         -1   -1    0    0    0  501 -0.00000000000E+00 -0.00000000000E+00 -0.10826727724E+03  0.10826727724E+03  0.00000000000E+00 0.  1.
         23    2    1    2    0    0 -0.49689429769E+02  0.54160156079E+02 -0.10780810471E+02  0.11757532139E+03  0.91133793891E+02 0.  0.
         23    2    1    2    0    0  0.15242081500E+02 -0.25971091110E+02  0.11195204954E+03  0.14465026272E+03  0.86507909957E+02 0.  0.
        -13    1    4    4    0    0 -0.32224281036E+02 -0.17274388946E+02  0.22273748658E+02  0.42812716347E+02  0.00000000000E+00 0.  1.
         13    1    4    4    0    0  0.47466362536E+02 -0.86967021637E+01  0.89678300885E+02  0.10183754637E+03  0.00000000000E+00 0. -1.
        -13    1    3    3    0    0 -0.15486397415E+01 -0.24388989571E+02  0.22031941850E+01  0.24537219931E+02  0.00000000000E+00 0. -1.
         13    1    3    3    0    0 -0.48140790027E+02  0.78549145650E+02 -0.12984004656E+02  0.93038101462E+02  0.00000000000E+00 0.  1.
         21    1    1    2  502  501  0.34447348269E+02 -0.28189064970E+02 -0.98847000133E+01  0.45595509439E+02  0.00000000000E+00 0. -1.
<scales pt_clust_5="13000.00000" pt_clust_6="13000.00000" pt_clust_7="13000.00000" pt_clust_8="13000.00000" pt_clust_9="44.51116"></scales>
<clustering>
<clus scale="   44.511">  2  9  1 -1</clus>
<clus scale="   86.508">  5  6 -1 -1</clus>
<clus scale="   91.134">  7  8 -1 -1</clus>
<clus scale="   94.776">  1  5  2 -1</clus>
<clus scale="   94.776">  1  5  2 -1</clus>
</clustering>
</event>
<event>
 9    1  0.6202448E-006  0.9201784E+02  0.7546771E-02  0.1298123E+00
          2   -1    0    0  502    0  0.00000000000E+00  0.00000000000E+00  0.18549091988E+03  0.18549091988E+03  0.00000000000E+00 0. -1.
         -2   -1    0    0    0  501 -0.00000000000E+00 -0.00000000000E+00 -0.14630715962E+03  0.14630715962E+03  0.00000000000E+00 0.  1.
         23    2    1    2    0    0 -0.22574903289E+02  0.98186663523E+01  0.43875542153E+02  0.10362337980E+03  0.90590889023E+02 0.  0.
         23    2    1    2    0    0 -0.33958087040E+02 -0.15928658957E+02  0.79812788499E+02  0.12632022792E+03  0.90442495107E+02 0.  0.
        -13    1    4    4    0    0  0.13841958096E+02 -0.31670819229E+02  0.32734923995E+01  0.34718242280E+02  0.00000000000E+00 0.  1.
         13    1    4    4    0    0 -0.47800045136E+02  0.15742160272E+02  0.76539296099E+02  0.91601985636E+02  0.00000000000E+00 0. -1.
        -13    1    3    3    0    0  0.22473649566E+02  0.32638366756E+02  0.50981852614E+01  0.39953966039E+02  0.00000000000E+00 0.  1.
         13    1    3    3    0    0 -0.45048552854E+02 -0.22819700404E+02  0.38777356891E+02  0.63669413758E+02  0.00000000000E+00 0. -1.
         21    1    1    2  502  501  0.56532990329E+02  0.61099926044E+01 -0.84504570399E+02  0.10185447179E+03  0.00000000000E+00 0.  1.
<scales pt_clust_5="13000.00000" pt_clust_6="13000.00000" pt_clust_7="13000.00000" pt_clust_8="13000.00000" pt_clust_9="56.86221"></scales>
<clustering>
<clus scale="   56.862">  2  9  1 -1</clus>
<clus scale="   90.442">  5  6 -1 -1</clus>
<clus scale="   90.591">  7  8 -1 -1</clus>
<clus scale="   91.872">  1  5  2 -1</clus>
<clus scale="   91.872">  1  5  2 -1</clus>
</clustering>
</event>
<event>
 9    1  0.6202448E-006  0.2254477E+03  0.7546771E-02  0.1162110E+00
         -1   -1    0    0    0  501 -0.00000000000E+00  0.00000000000E+00  0.78933535155E+03  0.78933535155E+03  0.00000000000E+00 0.  1.
          1   -1    0    0  502    0  0.00000000000E+00 -0.00000000000E+00 -0.13214337397E+03  0.13214337397E+03  0.00000000000E+00 0. -1.
         23    2    1    2    0    0  0.14502148508E+03  0.11293813468E+03  0.61125102407E+02  0.21353949847E+03  0.89869827323E+02 0.  0.
         23    2    1    2    0    0  0.10718731741E+02  0.32109211802E+02  0.38852916218E+02  0.11146530146E+03  0.98838614107E+02 0.  0.
        -13    1    3    3    0    0  0.58769590251E+01  0.47075617246E+02 -0.12012639069E+01  0.47456247444E+02  0.00000000000E+00 0.  1.
         13    1    3    3    0    0  0.13914452605E+03  0.65862517429E+02  0.62326366314E+02  0.16608325102E+03  0.00000000000E+00 0. -1.
        -13    1    4    4    0    0 -0.85345146326E+01  0.46004800605E+02 -0.17781782072E+02  0.50054684021E+02  0.00000000000E+00 0. -1.
         13    1    4    4    0    0  0.19253246374E+02 -0.13895588804E+02  0.56634698290E+02  0.61410617441E+02  0.00000000000E+00 0.  1.
         21    1    1    2  502  501 -0.15574021682E+03 -0.14504734648E+03  0.55721395896E+03  0.59647392559E+03  0.00000000000E+00 0.  1.
<scales pt_clust_5="13000.00000" pt_clust_6="13000.00000" pt_clust_7="13000.00000" pt_clust_8="13000.00000" pt_clust_9="206.76091"></scales>
<clustering>
<clus scale="   89.870">  5  6 -1 -1</clus>
<clus scale="   98.839">  7  8 -1 -1</clus>
<clus scale="  104.475">  2  7  1 -1</clus>
<clus scale="  206.761">  1  9  2 -1</clus>
<clus scale="  104.475">  2  5  1 -1</clus>
</clustering>
</event>
<event>
 9    1  0.6202448E-006  0.9766232E+02  0.7546771E-02  0.1285465E+00
          1   -1    0    0  502    0  0.00000000000E+00  0.00000000000E+00  0.24733608961E+03  0.24733608961E+03  0.00000000000E+00 0. -1.
         -1   -1    0    0    0  501 -0.00000000000E+00 -0.00000000000E+00 -0.12917851271E+03  0.12917851271E+03  0.00000000000E+00 0.  1.
         23    2    1    2    0    0 -0.23022188173E+02  0.22877585845E+02 -0.83276684748E+02  0.12849818310E+03  0.92322108704E+02 0.  0.
         23    2    1    2    0    0 -0.10748010850E+02 -0.45628482441E+02  0.13273662710E+03  0.16815782776E+03  0.91981328082E+02 0.  0.
        -11    1    3    3    0    0  0.30687339426E+02 -0.12679202084E+02 -0.32696559900E+02  0.46599785362E+02  0.00000000000E+00 0.  1.
         11    1    3    3    0    0 -0.53709527599E+02  0.35556787929E+02 -0.50580124848E+02  0.81898397740E+02  0.00000000000E+00 0. -1.
        -13    1    4    4    0    0  0.28078405379E+02  0.12936561597E+02  0.26137825878E+02  0.40483792019E+02  0.00000000000E+00 0.  1.
         13    1    4    4    0    0 -0.38826416229E+02 -0.58565044038E+02  0.10659880122E+03  0.12767403574E+03  0.00000000000E+00 0. -1.
         21    1    1    2  502  501  0.33770199023E+02  0.22750896596E+02  0.68697634550E+02  0.79858591465E+02  0.00000000000E+00 0.  1.
<scales pt_clust_5="13000.00000" pt_clust_6="13000.00000" pt_clust_7="13000.00000" pt_clust_8="13000.00000" pt_clust_9="40.71891"></scales>
<clustering>
<clus scale="   40.719">  1  9  2 -1</clus>
<clus scale="   91.981">  7  8 -1 -1</clus>
<clus scale="   92.322">  5  6 -1 -1</clus>
<clus scale="   97.340">  1  7  2 -1</clus>
<clus scale="   40.719">  1  5  2 -1</clus>
</clustering>
</event>
<event>
 9    1  0.6202448E-006  0.1215761E+03  0.7546771E-02  0.1241449E+00
         -1   -1    0    0    0  501 -0.00000000000E+00  0.00000000000E+00  0.62859147988E+03  0.62859147988E+03  0.00000000000E+00 0.  1.
          1   -1    0    0  502    0  0.00000000000E+00 -0.00000000000E+00 -0.10028764600E+03  0.10028764600E+03  0.00000000000E+00 0. -1.
         23    2    1    2    0    0  0.47943890666E+02 -0.58464394193E+02  0.47565446591E+03  0.48988373651E+03  0.89566747796E+02 0.  0.
         23    2    1    2    0    0 -0.10932649117E+03  0.57341027346E+02 -0.55487416138E+01  0.15440162154E+03  0.92567797378E+02 0.  0.
        -11    1    4    4    0    0 -0.10152282198E+03  0.29851911854E+02  0.28849353226E+02  0.10968274799E+03  0.00000000000E+00 0.  1.
         11    1    4    4    0    0 -0.78036691940E+01  0.27489115492E+02 -0.34398094840E+02  0.44718873555E+02  0.00000000000E+00 0. -1.
        -13    1    3    3    0    0 -0.19799668712E+02  0.69789645269E+01  0.56444196521E+02  0.60221924146E+02  0.00000000000E+00 0. -1.
         13    1    3    3    0    0  0.67743559378E+02 -0.65443358720E+02  0.41921026939E+03  0.42966181236E+03  0.00000000000E+00 0.  1.
         21    1    1    2  502  501  0.61382600508E+02  0.11233668473E+01  0.58198109575E+02  0.84593767834E+02  0.00000000000E+00 0. -1.
<scales pt_clust_5="13000.00000" pt_clust_6="13000.00000" pt_clust_7="13000.00000" pt_clust_8="13000.00000" pt_clust_9="61.39288"></scales>
<clustering>
<clus scale="   61.393">  2  9  1 -1</clus>
<clus scale="   89.567">  7  8 -1 -1</clus>
<clus scale="   92.568">  5  6 -1 -1</clus>
<clus scale="  119.307">  1  7  2 -1</clus>
<clus scale="   61.393">  2  5  1 -1</clus>
</clustering>
</event>
<event>
 9    1  0.6202448E-006  0.9928379E+02  0.7546771E-02  0.1293374E+00
          2   -1    0    0  502    0  0.00000000000E+00  0.00000000000E+00  0.40560932706E+02  0.40560932706E+02  0.00000000000E+00 0. -1.
         -2   -1    0    0    0  501 -0.00000000000E+00 -0.00000000000E+00 -0.26169872187E+03  0.26169872187E+03  0.00000000000E+00 0.  1.
         23    2    1    2    0    0  0.35050637176E+02 -0.86847196321E+01 -0.11188102298E+03  0.13584353202E+03  0.68059755853E+02 0.  0.
         23    2    1    2    0    0 -0.37728951330E+02  0.30260898372E+02 -0.79131714031E+02  0.12926476157E+03  0.90046402928E+02 0.  0.
        -13    1    4    4    0    0  0.88380956912E+01 -0.26601659528E+02 -0.28772952461E+02  0.40170175733E+02  0.00000000000E+00 0.  1.
         13    1    4    4    0    0 -0.46567047021E+02  0.56862557900E+02 -0.50358761570E+02  0.89094585840E+02  0.00000000000E+00 0. -1.
        -13    1    3    3    0    0  0.47912852233E+02  0.14774886459E+02 -0.68813814557E+02  0.85142702288E+02  0.00000000000E+00 0.  1.
         13    1    3    3    0    0 -0.12862215056E+02 -0.23459606091E+02 -0.43067208421E+02  0.50700829730E+02  0.00000000000E+00 0. -1.
         21    1    1    2  502  501  0.26783141533E+01 -0.21576178740E+02 -0.30125052149E+02  0.37151360981E+02  0.00000000000E+00 0. -1.
<scales pt_clust_5="13000.00000" pt_clust_6="13000.00000" pt_clust_7="13000.00000" pt_clust_8="13000.00000" pt_clust_9="21.74178"></scales>
<clustering>
<clus scale="   21.742">  2  9  1 -1</clus>
<clus scale="   68.060">  7  8 -1 -1</clus>
<clus scale="   79.881">  2  7  1 -1</clus>
<clus scale="   90.046">  5  6 -1 -1</clus>
<clus scale="   99.284">  1  5  2 -1</clus>
</clustering>
</event>
<event>
 9    1  0.6202448E-006  0.1285573E+03  0.7546771E-02  0.1231552E+00
         -3   -1    0    0    0  501 -0.00000000000E+00  0.00000000000E+00  0.14289269463E+03  0.14289269463E+03  0.00000000000E+00 0.  1.
          3   -1    0    0  502    0  0.00000000000E+00 -0.00000000000E+00 -0.20487089739E+03  0.20487089739E+03  0.00000000000E+00 0. -1.
         23    2    1    2    0    0  0.85208235688E+02 -0.23447462362E+02  0.21906303802E+02  0.12467355159E+03  0.85166785773E+02 0.  0.
         23    2    1    2    0    0 -0.88087695878E+02 -0.44137771396E+02 -0.76109815668E+02  0.15499818386E+03  0.92326312226E+02 0.  0.
        -13    1    4    4    0    0 -0.46092674891E+02  0.23167904547E+02 -0.49032336220E+02  0.71172020310E+02  0.00000000000E+00 0. -1.
         13    1    4    4    0    0 -0.41995020987E+02 -0.67305675943E+02 -0.27077479448E+02  0.83826163548E+02  0.00000000000E+00 0.  1.
        -13    1    3    3    0    0  0.26250071444E+02 -0.45472916135E+02  0.31164972736E+02  0.61058233501E+02  0.00000000000E+00 0.  1.
         13    1    3    3    0    0  0.58958164243E+02  0.22025453772E+02 -0.92586689339E+01  0.63615318086E+02  0.00000000000E+00 0. -1.
         21    1    1    2  502  501  0.28794601905E+01  0.67585233758E+02 -0.77746908965E+01  0.68091856574E+02  0.00000000000E+00 0. -1.
<scales pt_clust_5="13000.00000" pt_clust_6="13000.00000" pt_clust_7="13000.00000" pt_clust_8="13000.00000" pt_clust_9="67.64655"></scales>
<clustering>
<clus scale="   67.647">  1  9  2 -1</clus>
<clus scale="   85.167">  7  8 -1 -1</clus>
<clus scale="   92.326">  5  6 -1 -1</clus>
<clus scale="  123.516">  1  7  2 -1</clus>
<clus scale="  128.557">  2  5  1 -1</clus>
</clustering>
</event>
<event>
 9    1  0.6202448E-006  0.1059118E+03  0.7546771E-02  0.1269769E+00
          1   -1    0    0  502    0  0.00000000000E+00  0.00000000000E+00  0.47581594943E+03  0.47581594943E+03  0.00000000000E+00 0. -1.
         -1   -1    0    0    0  501 -0.00000000000E+00 -0.00000000000E+00 -0.19861340560E+03  0.19861340560E+03  0.00000000000E+00 0.  1.
         23    2    1    2    0    0 -0.54716919201E+02  0.11110876885E+02 -0.17488841591E+03  0.20489310870E+03  0.90982608986E+02 0.  0.
         23    2    1    2    0    0  0.17948367044E+02 -0.10030534920E+02  0.31489868132E+03  0.32749817107E+03  0.87584913357E+02 0.  0.
        -11    1    4    4    0    0 -0.14230493425E+02  0.26763792177E+02  0.52815668068E+02  0.60895831616E+02  0.00000000000E+00 0.  1.
         11    1    4    4    0    0  0.32178860469E+02 -0.36794327096E+02  0.26208301325E+03  0.26660233946E+03  0.00000000000E+00 0. -1.
        -11    1    3    3    0    0 -0.33736904359E+02 -0.18917657254E+02 -0.16121941247E+03  0.16579431664E+03  0.00000000000E+00 0.  1.
         11    1    3    3    0    0 -0.20980014842E+02  0.30028534139E+02 -0.13669003444E+02  0.39098792059E+02  0.00000000000E+00 0. -1.
         21    1    1    2  502  501  0.36768552157E+02 -0.10803419649E+01  0.13719227842E+03  0.14203807526E+03  0.00000000000E+00 0. -1.
<scales pt_clust_5="13000.00000" pt_clust_6="13000.00000" pt_clust_7="13000.00000" pt_clust_8="13000.00000" pt_clust_9="36.78442"></scales>
<clustering>
<clus scale="   36.784">  1  9  2 -1</clus>
<clus scale="   87.585">  5  6 -1 -1</clus>
<clus scale="   90.983">  7  8 -1 -1</clus>
<clus scale="  103.008">  1  5  2 -1</clus>
<clus scale="   36.784">  1  5  2 -1</clus>
</clustering>
</event>
<event>
 9    1  0.6202448E-006  0.2228526E+03  0.7546771E-02  0.1144697E+00
          1   -1    0    0  502    0  0.00000000000E+00  0.00000000000E+00  0.56007880803E+03  0.56007880803E+03  0.00000000000E+00 0. -1.
         -1   -1    0    0    0  501 -0.00000000000E+00 -0.00000000000E+00 -0.48272933343E+03  0.48272933343E+03  0.00000000000E+00 0.  1.
         23    2    1    2    0    0 -0.18295634404E+03  0.21869334046E+02 -0.28995755380E+03  0.35653386595E+03  0.95340038637E+02 0.  0.
         23    2    1    2    0    0 -0.10174571177E+03 -0.89184710434E+02  0.35823962068E+03  0.39358188005E+03  0.90911869669E+02 0.  0.
        -11    1    3    3    0    0 -0.33666161638E+02  0.21670114512E+02 -0.13339952424E+02  0.42201405581E+02  0.00000000000E+00 0. -1.
         11    1    3    3    0    0 -0.14929018240E+03  0.19921953441E+00 -0.27661760138E+03  0.31433246037E+03  0.00000000000E+00 0.  1.
        -13    1    4    4    0    0 -0.31914531435E+02 -0.50131316459E+02  0.26088496235E+03  0.26756802833E+03  0.00000000000E+00 0. -1.
         13    1    4    4    0    0 -0.69831180331E+02 -0.39053393974E+02  0.97354658326E+02  0.12601385172E+03  0.00000000000E+00 0.  1.
         21    1    1    2  502  501  0.28470205581E+03  0.67315376387E+02  0.90674077248E+01  0.29269239546E+03  0.00000000000E+00 0. -1.
<scales pt_clust_5="13000.00000" pt_clust_6="13000.00000" pt_clust_7="13000.00000" pt_clust_8="13000.00000" pt_clust_9="201.42883"></scales>
<clustering>
<clus scale="   90.912">  7  8 -1 -1</clus>
<clus scale="   95.340">  5  6 -1 -1</clus>
<clus scale="  163.006">  1  7  2 -1</clus>
<clus scale="  201.429">  1  9  2 -1</clus>
<clus scale="  163.006">  1  5  2 -1</clus>
</clustering>
</event>
<event>
 9    1  0.6202448E-006  0.1529307E+03  0.7546771E-02  0.1218503E+00
         -1   -1    0    0    0  501 -0.00000000000E+00  0.00000000000E+00  0.62375322776E+02  0.62375322776E+02  0.00000000000E+00 0.  1.
          1   -1    0    0  502    0  0.00000000000E+00 -0.00000000000E+00 -0.73541195209E+03  0.73541195209E+03  0.00000000000E+00 0. -1.
         23    2    1    2    0    0  0.12442080615E+03  0.19305558484E+02 -0.12748847873E+03  0.19934429219E+03  0.87358989402E+02 0.  0.
         23    2    1    2    0    0  0.20370492268E+01 -0.27748695100E+02 -0.36744328990E+03  0.37984696913E+03  0.92168373157E+02 0.  0.
        -11    1    3    3    0    0  0.64955212655E+02  0.12278023539E+02 -0.91724552876E+01  0.66738770209E+02  0.00000000000E+00 0.  1.
         11    1    3    3    0    0  0.59465593492E+02  0.70275349449E+01 -0.11831602344E+03  0.13260552198E+03  0.00000000000E+00 0. -1.
        -11    1    4    4    0    0 -0.45048712997E+02 -0.12238785651E+02 -0.18210431814E+03  0.18799243895E+03  0.00000000000E+00 0.  1.
         11    1    4    4    0    0  0.47085762223E+02 -0.15509909449E+02 -0.18533897177E+03  0.19185453018E+03  0.00000000000E+00 0. -1.
         21    1    1    2  502  501 -0.12645785537E+03  0.84431366155E+01 -0.17810486068E+03  0.21859601355E+03  0.00000000000E+00 0.  1.
<scales pt_clust_5="13000.00000" pt_clust_6="13000.00000" pt_clust_7="13000.00000" pt_clust_8="13000.00000" pt_clust_9="125.52373"></scales>
<clustering>
<clus scale="   87.359">  5  6 -1 -1</clus>
<clus scale="   92.168">  7  8 -1 -1</clus>
<clus scale="   96.276">  2  7  1 -1</clus>
<clus scale="  125.524">  2  9  1 -1</clus>
<clus scale="   96.276">  2  5  1 -1</clus>
</clustering>
</event>
<event>
 9    1  0.6202448E-006  0.1229415E+03  0.7546771E-02  0.1253175E+00
          1   -1    0    0  502    0  0.00000000000E+00  0.00000000000E+00  0.34046378360E+03  0.34046378360E+03  0.00000000000E+00 0. -1.
         -1   -1    0    0    0  501 -0.00000000000E+00 -0.00000000000E+00 -0.87626927902E+02  0.87626927902E+02  0.00000000000E+00 0.  1.
         23    2    1    2    0    0  0.33506546700E+02 -0.30908935295E+02 -0.29074403221E+01  0.10059392489E+03  0.89624960606E+02 0.  0.
         23    2    1    2    0    0 -0.12279154139E+02 -0.77845806314E+01  0.25544091590E+03  0.28336196578E+03  0.12178901762E+03 0.  0.
        -11    1    3    3    0    0  0.12688864884E+01 -0.47908482026E+02  0.25590529811E+02  0.54329623034E+02  0.00000000000E+00 0.  1.
         11    1    3    3    0    0  0.32237660212E+02  0.16999546730E+02 -0.28497970134E+02  0.46264301861E+02  0.00000000000E+00 0. -1.
        -13    1    4    4    0    0  0.34947954778E+02  0.28191151291E+02  0.40825186470E+02  0.60686047858E+02  0.00000000000E+00 0.  1.
         13    1    4    4    0    0 -0.47227108917E+02 -0.35975731922E+02  0.21461572943E+03  0.22267591792E+03  0.00000000000E+00 0. -1.
         21    1    1    2  502  501 -0.21227392561E+02  0.38693515927E+02  0.30338011807E+00  0.44134820825E+02  0.00000000000E+00 0.  1.
<scales pt_clust_5="13000.00000" pt_clust_6="13000.00000" pt_clust_7="13000.00000" pt_clust_8="13000.00000" pt_clust_9="44.13378"></scales>
<clustering>
<clus scale="   44.134">  2  9  1 -1</clus>
<clus scale="   89.625">  5  6 -1 -1</clus>
<clus scale="   91.185">  2  5  1 -1</clus>
<clus scale="  121.789">  7  8 -1 -1</clus>
<clus scale="  122.942">  1  5  2 -1</clus>
</clustering>
</event>
<event>
 9    1  0.6202448E-006  0.1048145E+03  0.7546771E-02  0.1272152E+00
         -2   -1    0    0    0  501 -0.00000000000E+00  0.00000000000E+00  0.30710324996E+03  0.30710324996E+03  0.00000000000E+00 0.  1.
          2   -1    0    0  502    0  0.00000000000E+00 -0.00000000000E+00 -0.11491654834E+03  0.11491654834E+03  0.00000000000E+00 0. -1.
         23    2    1    2    0    0  0.18189066183E+02 -0.38310034161E+02  0.23235148569E+03  0.25154278662E+03  0.86533575877E+02 0.  0.
         23    2    1    2    0    0 -0.44278133332E+02  0.32302354536E+02 -0.72729412636E+02  0.12832031977E+03  0.90402111716E+02 0.  0.
        -13    1    3    3    0    0  0.47672561522E+02 -0.36739681640E+02  0.19412719740E+03  0.20324331748E+03  0.00000000000E+00 0.  1.
         13    1    3    3    0    0 -0.29483495340E+02 -0.15703525213E+01  0.38224288289E+02  0.48299469145E+02  0.00000000000E+00 0. -1.
        -13    1    4    4    0    0  0.71319085601E+01 -0.18805012542E+02  0.63036806548E+01  0.21076740882E+02  0.00000000000E+00 0.  1.
         13    1    4    4    0    0 -0.51410041892E+02  0.51107367078E+02 -0.79033093291E+02  0.10724357889E+03  0.00000000000E+00 0. -1.
         21    1    1    2  502  501  0.26089067149E+02  0.60076796247E+01  0.32564628572E+02  0.42156691915E+02  0.00000000000E+00 0. -1.
<scales pt_clust_5="13000.00000" pt_clust_6="13000.00000" pt_clust_7="13000.00000" pt_clust_8="13000.00000" pt_clust_9="26.77184"></scales>
<clustering>
<clus scale="   26.772">  1  9  2 -1</clus>
<clus scale="   86.534">  5  6 -1 -1</clus>
<clus scale="   90.402">  7  8 -1 -1</clus>
<clus scale="  101.497">  1  5  2 -1</clus>
<clus scale="  104.814">  2  5  1 -1</clus>
</clustering>
</event>
<event>
 9    1  0.6202448E-006  0.2375126E+03  0.7546771E-02  0.1147943E+00
         -1   -1    0    0    0  501 -0.00000000000E+00  0.00000000000E+00  0.39233272998E+03  0.39233272998E+03  0.00000000000E+00 0.  1.
          1   -1    0    0  502    0  0.00000000000E+00 -0.00000000000E+00 -0.12786741118E+04  0.12786741118E+04  0.00000000000E+00 0. -1.
         23    2    1    2    0    0  0.78519033839E+02 -0.27303602962E+02  0.14614672468E+03  0.19206366966E+03  0.92837829893E+02 0.  0.
         23    2    1    2    0    0  0.21093735994E+03  0.45784045269E+02 -0.11443793603E+04  0.11680634794E+04  0.90429105084E+02 0.  0.
        -11    1    3    3    0    0  0.26585770890E+02  0.24192690268E+02  0.96668286707E+01  0.37222802860E+02  0.00000000000E+00 0.  1.
         11    1    3    3    0    0  0.51933262949E+02 -0.51496293229E+02  0.13647989601E+03  0.15484086680E+03  0.00000000000E+00 0. -1.
        -13    1    4    4    0    0  0.14531334134E+03  0.62513004906E+02 -0.92631258628E+03  0.93972275191E+03  0.00000000000E+00 0. -1.
         13    1    4    4    0    0  0.65624018598E+02 -0.16728959637E+02 -0.21806677404E+03  0.22834072753E+03  0.00000000000E+00 0.  1.
         21    1    1    2  502  501 -0.28945639378E+03 -0.18480442307E+02  0.11189125381E+03  0.31087969269E+03  0.00000000000E+00 0.  1.
<scales pt_clust_5="13000.00000" pt_clust_6="13000.00000" pt_clust_7="13000.00000" pt_clust_8="13000.00000" pt_clust_9="219.62430"></scales>
<clustering>
<clus scale="   90.429">  7  8 -1 -1</clus>
<clus scale="   92.838">  5  6 -1 -1</clus>
<clus scale="  124.618">  1  5  2 -1</clus>
<clus scale="  219.624">  1  9  2 -1</clus>
<clus scale="  237.513">  2  5  1 -1</clus>
</clustering>
</event>
<event>
 9    1  0.6202448E-006  0.1183033E+03  0.7546771E-02  0.1249353E+00
         -1   -1    0    0    0  501 -0.00000000000E+00  0.00000000000E+00  0.36531446978E+02  0.36531446978E+02  0.00000000000E+00 0.  1.
          1   -1    0    0  502    0  0.00000000000E+00 -0.00000000000E+00 -0.56078392842E+03  0.56078392842E+03  0.00000000000E+00 0. -1.
         23    2    1    2    0    0  0.19550759035E+01 -0.79807641958E+02 -0.16475359282E+03  0.20848959419E+03  0.99755112660E+02 0.  0.
         23    2    1    2    0    0 -0.21491853185E+02  0.37523631494E+02 -0.26939403325E+03  0.28739349755E+03  0.90288175341E+02 0.  0.
        -11    1    3    3    0    0 -0.17053095717E+02 -0.97438191373E+02 -0.14655339796E+03  0.17681319992E+03  0.00000000000E+00 0. -1.
         11    1    3    3    0    0  0.19008171621E+02  0.17630549416E+02 -0.18200194856E+02  0.31676394269E+02  0.00000000000E+00 0.  1.
        -13    1    4    4    0    0  0.33517705277E+02  0.22916351691E+02 -0.81272056838E+02  0.90850112628E+02  0.00000000000E+00 0. -1.
         13    1    4    4    0    0 -0.55009558461E+02  0.14607279803E+02 -0.18812197641E+03  0.19654338492E+03  0.00000000000E+00 0.  1.
         21    1    1    2  502  501  0.19536777281E+02  0.42284010464E+02 -0.90104855373E+02  0.10143228366E+03  0.00000000000E+00 0.  1.
<scales pt_clust_5="13000.00000" pt_clust_6="13000.00000" pt_clust_7="13000.00000" pt_clust_8="13000.00000" pt_clust_9="46.57921"></scales>
<clustering>
<clus scale="   46.579">  2  9  1 -1</clus>
<clus scale="   90.288">  7  8 -1 -1</clus>
<clus scale="   99.755">  5  6 -1 -1</clus>
<clus scale="  110.438">  2  7  1 -1</clus>
<clus scale="   46.579">  2  5  1 -1</clus>
</clustering>
</event>
<event>
 9    1  0.6202448E-006  0.9328621E+02  0.7546771E-02  0.1296129E+00
          1   -1    0    0  502    0  0.00000000000E+00  0.00000000000E+00  0.57365213452E+03  0.57365213452E+03  0.00000000000E+00 0. -1.
         -1   -1    0    0    0  501 -0.00000000000E+00 -0.00000000000E+00 -0.39056745938E+02  0.39056745938E+02  0.00000000000E+00 0.  1.
         23    2    1    2    0    0 -0.11227031427E+02  0.46280210103E+01  0.49794333168E+02  0.10428791580E+03  0.90824165025E+02 0.  0.
         23    2    1    2    0    0  0.49169919465E+02 -0.23274113128E+02  0.26883768989E+03  0.28835844002E+03  0.88980453484E+02 0.  0.
        -13    1    4    4    0    0  0.46641241788E+02 -0.53613566783E+02  0.15488435413E+03  0.17040828364E+03  0.00000000000E+00 0. -1.
         13    1    4    4    0    0  0.25286776772E+01  0.30339453655E+02  0.11395333576E+03  0.11795015638E+03  0.00000000000E+00 0.  1.
        -13    1    3    3    0    0 -0.35241504766E+02 -0.22225575413E+02  0.53793197204E+02  0.68041516194E+02  0.00000000000E+00 0. -1.
         13    1    3    3    0    0  0.24014473338E+02  0.26853596423E+02 -0.39988640361E+01  0.36246399603E+02  0.00000000000E+00 0.  1.
         21    1    1    2  502  501 -0.37942888038E+02  0.18646092118E+02  0.21596336552E+03  0.22006252464E+03  0.00000000000E+00 0.  1.
<scales pt_clust_5="13000.00000" pt_clust_6="13000.00000" pt_clust_7="13000.00000" pt_clust_8="13000.00000" pt_clust_9="42.27694"></scales>
<clustering>
<clus scale="   42.277">  1  9  2 -1</clus>
<clus scale="   88.980">  5  6 -1 -1</clus>
<clus scale="   90.824">  7  8 -1 -1</clus>
<clus scale="   91.492">  1  5  2 -1</clus>
<clus scale="   42.277">  1  5  2 -1</clus>
</clustering>
</event>
<event>
 9    1  0.6202448E-006  0.9487789E+02  0.7546771E-02  0.1292347E+00
          2   -1    0    0  502    0  0.00000000000E+00  0.00000000000E+00  0.69343244267E+03  0.69343244267E+03  0.00000000000E+00 0. -1.
         -2   -1    0    0    0  501 -0.00000000000E+00 -0.00000000000E+00 -0.27091499387E+02  0.27091499387E+02  0.00000000000E+00 0.  1.
         23    2    1    2    0    0 -0.73927503740E-02 -0.23411231997E+01  0.17009977112E+03  0.19230855813E+03  0.89683713585E+02 0.  0.
         23    2    1    2    0    0 -0.63861921503E+02 -0.11578071754E+02  0.26029486428E+03  0.28338137180E+03  0.91319158713E+02 0.  0.
        -11    1    4    4    0    0 -0.67690527207E+02  0.18581387216E+02  0.22995793839E+03  0.24043279488E+03  0.00000000000E+00 0.  1.
         11    1    4    4    0    0  0.38286057037E+01 -0.30159458970E+02  0.30336925892E+02  0.42948576921E+02  0.00000000000E+00 0. -1.
        -13    1    3    3    0    0 -0.36869281905E+02 -0.26677826746E+02  0.83651319401E+02  0.95229163734E+02  0.00000000000E+00 0.  1.
         13    1    3    3    0    0  0.36861889155E+02  0.24336703546E+02  0.86448451721E+02  0.97079394397E+02  0.00000000000E+00 0. -1.
         21    1    1    2  502  501  0.63869314254E+02  0.13919194953E+02  0.23594630788E+03  0.24483401213E+03  0.00000000000E+00 0. -1.
<scales pt_clust_5="13000.00000" pt_clust_6="13000.00000" pt_clust_7="13000.00000" pt_clust_8="13000.00000" pt_clust_9="65.36844"></scales>
<clustering>
<clus scale="   65.368">  1  9  2 -1</clus>
<clus scale="   89.684">  7  8 -1 -1</clus>
<clus scale="   91.319">  5  6 -1 -1</clus>
<clus scale="   93.305">  2  7  1 -1</clus>
<clus scale="   65.368">  1  5  2 -1</clus>
</clustering>
</event>
<event>
 9    1  0.6202448E-006  0.9635060E+02  0.7546771E-02  0.1290747E+00
         -1   -1    0    0    0  501 -0.00000000000E+00  0.00000000000E+00  0.19605556659E+02  0.19605556659E+02  0.00000000000E+00 0.  1.
          1   -1    0    0  502    0  0.00000000000E+00 -0.00000000000E+00 -0.70196714717E+03  0.70196714717E+03  0.00000000000E+00 0. -1.
         23    2    1    2    0    0 -0.41537195656E+00  0.19808025068E+02 -0.22898699639E+03  0.24571583938E+03  0.86883248194E+02 0.  0.
         23    2    1    2    0    0 -0.34396705337E+02 -0.31730488555E+02 -0.27287292822E+03  0.29164264878E+03  0.91683381205E+02 0.  0.
        -11    1    4    4    0    0  0.28371237663E+02 -0.55206315413E+01 -0.42195199049E+02  0.51145276633E+02  0.00000000000E+00 0.  1.
         11    1    4    4    0    0 -0.62767943000E+02 -0.26209857014E+02 -0.23067772917E+03  0.24049737215E+03  0.00000000000E+00 0. -1.
        -11    1    3    3    0    0  0.20990767366E+02  0.48697959551E+02 -0.14285974279E+03  0.15238441419E+03  0.00000000000E+00 0. -1.
         11    1    3    3    0    0 -0.21406139322E+02 -0.28889934483E+02 -0.86127253596E+02  0.93331425185E+02  0.00000000000E+00 0.  1.
         21    1    1    2  502  501  0.34812077294E+02  0.11922463487E+02 -0.18050166591E+03  0.18421421568E+03  0.00000000000E+00 0.  1.
<scales pt_clust_5="13000.00000" pt_clust_6="13000.00000" pt_clust_7="13000.00000" pt_clust_8="13000.00000" pt_clust_9="36.79709"></scales>
<clustering>
<clus scale="   36.797">  2  9  1 -1</clus>
<clus scale="   86.883">  7  8 -1 -1</clus>
<clus scale="   91.683">  5  6 -1 -1</clus>
<clus scale="   91.795">  1  7  2 -1</clus>
<clus scale="   36.797">  2  5  1 -1</clus>
</clustering>
</event>
<event>
 9    1  0.6202448E-006  0.1136068E+03  0.7546771E-02  0.1262383E+00
          1   -1    0    0  502    0  0.00000000000E+00  0.00000000000E+00  0.31921402028E+03  0.31921402028E+03  0.00000000000E+00 0. -1.
         -1   -1    0    0    0  501 -0.00000000000E+00 -0.00000000000E+00 -0.59634263190E+02  0.59634263190E+02  0.00000000000E+00 0.  1.
         23    2    1    2    0    0  0.48557949941E+02 -0.26074317685E+01  0.54591045861E+02  0.10551212925E+03  0.76078603616E+02 0.  0.
         23    2    1    2    0    0 -0.60226003134E+02 -0.34423129090E+02  0.20177308054E+03  0.23437789214E+03  0.96997407317E+02 0.  0.
        -11    1    4    4    0    0 -0.53327977862E+02 -0.60791034441E+02  0.97854592353E+02  0.12694465068E+03  0.00000000000E+00 0.  1.
         11    1    4    4    0    0 -0.68980252724E+01  0.26367905351E+02  0.10391848818E+03  0.10743324147E+03  0.00000000000E+00 0. -1.
        -13    1    3    3    0    0  0.41300275976E+02 -0.34725242153E+02  0.19456149836E+02  0.57359367192E+02  0.00000000000E+00 0. -1.
         13    1    3    3    0    0  0.72576739646E+01  0.32117810384E+02  0.35134896025E+02  0.48152762060E+02  0.00000000000E+00 0.  1.
         21    1    1    2  502  501  0.11668053193E+02  0.37030560859E+02  0.32156306870E+01  0.38958262070E+02  0.00000000000E+00 0.  1.
<scales pt_clust_5="13000.00000" pt_clust_6="13000.00000" pt_clust_7="13000.00000" pt_clust_8="13000.00000" pt_clust_9="38.82533"></scales>
<clustering>
<clus scale="   38.825">  2  9  1 -1</clus>
<clus scale="   76.079">  7  8 -1 -1</clus>
<clus scale="   96.364">  2  7  1 -1</clus>
<clus scale="   96.997">  5  6 -1 -1</clus>
<clus scale="  113.607">  1  5  2 -1</clus>
</clustering>
</event>
<event>
 9    1  0.6202448E-006  0.1139632E+03  0.7546771E-02  0.1253626E+00
          1   -1    0    0  502    0  0.00000000000E+00  0.00000000000E+00  0.64668081458E+03  0.64668081458E+03  0.00000000000E+00 0. -1.
         -1   -1    0    0    0  501 -0.00000000000E+00 -0.00000000000E+00 -0.51112778007E+02  0.51112778007E+02  0.00000000000E+00 0.  1.
         23    2    1    2    0    0  0.39819490116E+02 -0.42843118877E+02  0.13392871854E+03  0.17260701408E+03  0.91843100075E+02 0.  0.
         23    2    1    2    0    0  0.40672649901E+02  0.10018637307E+03  0.19949112707E+03  0.24502786022E+03  0.92468203757E+02 0.  0.
        -11    1    4    4    0    0 -0.11935403125E+02  0.25184653364E+02  0.12167851008E+03  0.12482940530E+03  0.00000000000E+00 0. -1.
         11    1    4    4    0    0  0.52608053025E+02  0.75001719708E+02  0.77812616990E+02  0.12019845492E+03  0.00000000000E+00 0.  1.
        -13    1    3    3    0    0 -0.28729439094E+02 -0.23797471821E+02  0.53565233791E+02  0.65275834785E+02  0.00000000000E+00 0. -1.
         13    1    3    3    0    0  0.68548929210E+02 -0.19045647055E+02  0.80363484745E+02  0.10733117929E+03  0.00000000000E+00 0.  1.
         21    1    1    2  502  501 -0.80492140016E+02 -0.57343254195E+02  0.26214819097E+03  0.28015871829E+03  0.00000000000E+00 0. -1.
<scales pt_clust_5="13000.00000" pt_clust_6="13000.00000" pt_clust_7="13000.00000" pt_clust_8="13000.00000" pt_clust_9="98.82931"></scales>
<clustering>
<clus scale="   91.843">  7  8 -1 -1</clus>
<clus scale="   92.468">  5  6 -1 -1</clus>
<clus scale="   98.829">  1  9  2 -1</clus>
<clus scale="  113.457">  2  7  1 -1</clus>
<clus scale="   98.829">  1  5  2 -1</clus>
</clustering>
</event>
<event>
 9    1  0.6202448E-006  0.1622538E+03  0.7546771E-02  0.1198034E+00
          1   -1    0    0  502    0  0.00000000000E+00  0.00000000000E+00  0.32788967784E+03  0.32788967784E+03  0.00000000000E+00 0. -1.
         -1   -1    0    0    0  501 -0.00000000000E+00 -0.00000000000E+00 -0.19695756601E+03  0.19695756601E+03  0.00000000000E+00 0.  1.
         23    2    1    2    0    0  0.88988875404E+01 -0.89512556547E+02  0.87844279762E+01  0.12957087186E+03  0.92842644726E+02 0.  0.
         23    2    1    2    0    0  0.30484309484E+02 -0.80099808986E+02  0.17342068442E+03  0.21375967486E+03  0.90957090357E+02 0.  0.
        -11    1    4    4    0    0  0.46992852715E+02 -0.15783853135E+02  0.36412262609E+02  0.61508626179E+02  0.00000000000E+00 0.  1.
         11    1    4    4    0    0 -0.16508543231E+02 -0.64315955850E+02  0.13700842182E+03  0.15225104868E+03  0.00000000000E+00 0. -1.
        -13    1    3    3    0    0 -0.10113260144E+02 -0.10334404677E+03  0.15805692786E+02  0.10503375628E+03  0.00000000000E+00 0.  1.
         13    1    3    3    0    0  0.19012147685E+02  0.13831490223E+02 -0.70212648099E+01  0.24537115578E+02  0.00000000000E+00 0. -1.
         21    1    1    2  502  501 -0.39383197024E+02  0.16961236553E+03 -0.51273000578E+02  0.18151669713E+03  0.00000000000E+00 0.  1.
<scales pt_clust_5="13000.00000" pt_clust_6="13000.00000" pt_clust_7="13000.00000" pt_clust_8="13000.00000" pt_clust_9="133.06589"></scales>
<clustering>
<clus scale="   90.957">  5  6 -1 -1</clus>
<clus scale="   92.843">  7  8 -1 -1</clus>
<clus scale="  124.974">  1  5  2 -1</clus>
<clus scale="  133.066">  1  9  2 -1</clus>
<clus scale="  124.974">  1  5  2 -1</clus>
</clustering>
</event>
<event>
 9    1  0.6202448E-006  0.1026286E+03  0.7546771E-02  0.1275240E+00
          1   -1    0    0  502    0  0.00000000000E+00  0.00000000000E+00  0.16153322313E+03  0.16153322313E+03  0.00000000000E+00 0. -1.
         -1   -1    0    0    0  501 -0.00000000000E+00 -0.00000000000E+00 -0.87519373631E+02  0.87519373631E+02  0.00000000000E+00 0.  1.
         23    2    1    2    0    0 -0.38893229693E+02  0.13486601139E+02  0.33196658756E+02  0.10621678795E+03  0.92116318656E+02 0.  0.
         23    2    1    2    0    0  0.48224821549E+02  0.16022242777E+02  0.30774115884E+02  0.11029792584E+03  0.92931375538E+02 0.  0.
        -11    1    4    4    0    0  0.48555393455E+02 -0.20995987435E+02 -0.11468629970E+02  0.54129356133E+02  0.00000000000E+00 0.  1.
         11    1    4    4    0    0 -0.33057190644E+00  0.37018230212E+02  0.42242745854E+02  0.56168569708E+02  0.00000000000E+00 0. -1.
        -11    1    3    3    0    0 -0.32223594488E+02  0.52330355591E+02  0.21441119553E+02  0.65088768353E+02  0.00000000000E+00 0. -1.
         11    1    3    3    0    0 -0.66696352051E+01 -0.38843754452E+02  0.11755539203E+02  0.41128019593E+02  0.00000000000E+00 0.  1.
         21    1    1    2  502  501 -0.93315918553E+01 -0.29508843916E+02  0.10043074860E+02  0.32537882974E+02  0.00000000000E+00 0.  1.
<scales pt_clust_5="13000.00000" pt_clust_6="13000.00000" pt_clust_7="13000.00000" pt_clust_8="13000.00000" pt_clust_9="30.94916"></scales>
<clustering>
<clus scale="   30.949">  1  9  2 -1</clus>
<clus scale="   92.116">  7  8 -1 -1</clus>
<clus scale="   92.931">  5  6 -1 -1</clus>
<clus scale="  101.891">  2  7  1 -1</clus>
<clus scale="   30.949">  1  5  2 -1</clus>
</clustering>
</event>
<event>
 9    1  0.6202448E-006  0.1310523E+03  0.7546771E-02  0.1231833E+00
         -2   -1    0    0    0  501 -0.00000000000E+00  0.00000000000E+00  0.40098010596E+03  0.40098010596E+03  0.00000000000E+00 0.  1.
          2   -1    0    0  502    0  0.00000000000E+00 -0.00000000000E+00 -0.79814286873E+02  0.79814286873E+02  0.00000000000E+00 0. -1.
         23    2    1    2    0    0  0.69807732128E+02 -0.69702207906E+02  0.26026407554E+03  0.29330491563E+03  0.92514146310E+02 0.  0.
         23    2    1    2    0    0 -0.45976005185E+02  0.42312259877E+02  0.13809872557E+02  0.12802684376E+03  0.11088750946E+03 0.  0.
        -11    1    3    3    0    0  0.50875194091E+02  0.93483681013E+00  0.52795348210E+02  0.73324675835E+02  0.00000000000E+00 0.  1.
         11    1    3    3    0    0  0.18932538036E+02 -0.70637044716E+02  0.20746872733E+03  0.21998023980E+03  0.00000000000E+00 0. -1.
        -11    1    4    4    0    0 -0.56749794848E+02  0.14319885755E+02 -0.36843182156E+02  0.69159369681E+02  0.00000000000E+00 0. -1.
         11    1    4    4    0    0  0.10773789663E+02  0.27992374122E+02  0.50653054713E+02  0.58867474079E+02  0.00000000000E+00 0.  1.
         21    1    1    2  502  501 -0.23831726943E+02  0.27389948029E+02  0.47091870994E+02  0.59462633442E+02  0.00000000000E+00 0.  1.
<scales pt_clust_5="13000.00000" pt_clust_6="13000.00000" pt_clust_7="13000.00000" pt_clust_8="13000.00000" pt_clust_9="36.30648"></scales>
<clustering>
<clus scale="   36.306">  1  9  2 -1</clus>
<clus scale="   92.514">  5  6 -1 -1</clus>
<clus scale="  110.888">  7  8 -1 -1</clus>
<clus scale="  115.920">  1  5  2 -1</clus>
<clus scale="  131.052">  2  5  1 -1</clus>
</clustering>
</event>
<event>
 9    1  0.6202448E-006  0.1327501E+03  0.7546771E-02  0.1240775E+00
         -2   -1    0    0    0  501 -0.00000000000E+00  0.00000000000E+00  0.55581664569E+02  0.55581664569E+02  0.00000000000E+00 0.  1.
          2   -1    0    0  502    0  0.00000000000E+00 -0.00000000000E+00 -0.51435856507E+03  0.51435856507E+03  0.00000000000E+00 0. -1.
         23    2    1    2    0    0 -0.45579804788E+02  0.73512917750E+02 -0.14530283529E+03  0.18799258278E+03  0.82137869195E+02 0.  0.
         23    2    1    2    0    0 -0.14441874255E+02  0.36419049082E+02 -0.13797927442E+03  0.16634138331E+03  0.84239306526E+02 0.  0.
        -13    1    4    4    0    0 -0.46979491071E+02  0.42868547957E+01 -0.70177232491E+02  0.84559409089E+02  0.00000000000E+00 0.  1.
         13    1    4    4    0    0  0.32537616816E+02  0.32132194287E+02 -0.67802041930E+02  0.81781974222E+02  0.00000000000E+00 0. -1.
        -13    1    3    3    0    0 -0.63589691898E+02  0.58227827817E+02 -0.13895670296E+03  0.16353315916E+03  0.00000000000E+00 0. -1.
         13    1    3    3    0    0  0.18009887109E+02  0.15285089934E+02 -0.63461323238E+01  0.24459423612E+02  0.00000000000E+00 0.  1.
         21    1    1    2  502  501  0.60021679043E+02 -0.10993196683E+03 -0.17549479079E+03  0.21560626355E+03  0.00000000000E+00 0.  1.
<scales pt_clust_5="13000.00000" pt_clust_6="13000.00000" pt_clust_7="13000.00000" pt_clust_8="13000.00000" pt_clust_9="104.28786"></scales>
<clustering>
<clus scale="   82.138">  7  8 -1 -1</clus>
<clus scale="   84.239">  5  6 -1 -1</clus>
<clus scale="   92.904">  2  5  1 -1</clus>
<clus scale="  104.288">  2  9  1 -1</clus>
<clus scale="   92.904">  2  5  1 -1</clus>
</clustering>
</event>
<event>
 9    1  0.6202448E-006  0.1291807E+03  0.7546771E-02  0.1239685E+00
         -2   -1    0    0    0  501 -0.00000000000E+00  0.00000000000E+00  0.53467208324E+03  0.53467208324E+03  0.00000000000E+00 0.  1.
          2   -1    0    0  502    0  0.00000000000E+00 -0.00000000000E+00 -0.58642562794E+03  0.58642562794E+03  0.00000000000E+00 0. -1.
         23    2    1    2    0    0  0.26806489977E+02 -0.85251606879E+02  0.48120528573E+03  0.49808949552E+03  0.92456444579E+02 0.  0.
         23    2    1    2    0    0  0.27537351488E+01 -0.53151746335E+02 -0.40718101570E+02  0.11082638247E+03  0.88271354703E+02 0.  0.
        -11    1    3    3    0    0  0.85279292044E+01 -0.99692786470E+02  0.43481681475E+03  0.44618050118E+03  0.00000000000E+00 0.  1.
         11    1    3    3    0    0  0.18278560773E+02  0.14441179591E+02  0.46388470987E+02  0.51908994330E+02  0.00000000000E+00 0. -1.
        -11    1    4    4    0    0  0.29957926348E+02 -0.25643519410E+02  0.15677192506E+02  0.42436326463E+02  0.00000000000E+00 0.  1.
         11    1    4    4    0    0 -0.27204191200E+02 -0.27508226925E+02 -0.56395294075E+02  0.68390056011E+02  0.00000000000E+00 0. -1.
         21    1    1    2  502  501 -0.29560225126E+02  0.13840335321E+03 -0.49224072887E+03  0.51218183319E+03  0.00000000000E+00 0. -1.
<scales pt_clust_5="13000.00000" pt_clust_6="13000.00000" pt_clust_7="13000.00000" pt_clust_8="13000.00000" pt_clust_9="90.21896"></scales>
<clustering>
<clus scale="   88.271">  7  8 -1 -1</clus>
<clus scale="   92.456">  5  6 -1 -1</clus>
<clus scale="  103.075">  2  7  1 -1</clus>
<clus scale="   90.219">  2  9  1 -1</clus>
<clus scale="  103.075">  2  5  1 -1</clus>
</clustering>
</event>
<event>
 9    1  0.6202448E-006  0.3136327E+03  0.7546771E-02  0.1112306E+00
         -1   -1    0    0    0  501 -0.00000000000E+00  0.00000000000E+00  0.23450467724E+03  0.23450467724E+03  0.00000000000E+00 0.  1.
          1   -1    0    0  502    0  0.00000000000E+00 -0.00000000000E+00 -0.94456203155E+03  0.94456203155E+03  0.00000000000E+00 0. -1.
         23    2    1    2    0    0 -0.46975123033E+02  0.76058439056E+02  0.66580116016E+02  0.14593575872E+03  0.94195464273E+02 0.  0.
         23    2    1    2    0    0 -0.10462461177E+03  0.21174698053E+03 -0.81961373865E+02  0.26606555642E+03  0.91050098058E+02 0.  0.
        -13    1    3    3    0    0 -0.74422411701E+02  0.67586786151E+02  0.45745695155E+02  0.11045061182E+03  0.00000000000E+00 0.  1.
         13    1    3    3    0    0  0.27447288669E+02  0.84716529046E+01  0.20834420862E+02  0.35485146905E+02  0.00000000000E+00 0. -1.
        -13    1    4    4    0    0 -0.29179056670E+02  0.14564818225E+03 -0.24745280168E+02  0.15058930650E+03  0.00000000000E+00 0.  1.
         13    1    4    4    0    0 -0.75445555101E+02  0.66098798280E+02 -0.57216093697E+02  0.11547624992E+03  0.00000000000E+00 0. -1.
         21    1    1    2  502  501  0.15159973480E+03 -0.28780541958E+03 -0.69467609646E+03  0.76706539365E+03  0.00000000000E+00 0. -1.
<scales pt_clust_5="13000.00000" pt_clust_6="13000.00000" pt_clust_7="13000.00000" pt_clust_8="13000.00000" pt_clust_9="300.12560"></scales>
<clustering>
<clus scale="   91.050">  7  8 -1 -1</clus>
<clus scale="   94.195">  5  6 -1 -1</clus>
<clus scale="  129.863">  1  5  2 -1</clus>
<clus scale="  300.126">  2  9  1 -1</clus>
<clus scale="  300.126">  2  5  1 -1</clus>
</clustering>
</event>
<event>
 9    1  0.6202448E-006  0.1009338E+03  0.7546771E-02  0.1283513E+00
          1   -1    0    0  502    0  0.00000000000E+00  0.00000000000E+00  0.56243917528E+03  0.56243917528E+03  0.00000000000E+00 0. -1.
         -1   -1    0    0    0  501 -0.00000000000E+00 -0.00000000000E+00 -0.52457394687E+02  0.52457394687E+02  0.00000000000E+00 0.  1.
         23    2    1    2    0    0 -0.28625008401E+02 -0.63589665508E+02  0.11605825472E+03  0.16330486688E+03  0.91301283630E+02 0.  0.
         23    2    1    2    0    0 -0.15473689103E+02 -0.16486150017E+02  0.31268071835E+03  0.32929196831E+03  0.10076080868E+03 0.  0.
        -11    1    4    4    0    0  0.39080268504E+02 -0.22706954061E+02  0.18233575184E+03  0.18785419758E+03  0.00000000000E+00 0.  1.
         11    1    4    4    0    0 -0.54553957607E+02  0.62208040437E+01  0.13034496652E+03  0.14143777073E+03  0.00000000000E+00 0. -1.
        -13    1    3    3    0    0 -0.50296181122E+02 -0.22002895159E+02  0.23846533348E+02  0.59853908674E+02  0.00000000000E+00 0.  1.
         13    1    3    3    0    0  0.21671172721E+02 -0.41586770350E+02  0.92211721373E+02  0.10345095821E+03  0.00000000000E+00 0. -1.
         21    1    1    2  502  501  0.44098697504E+02  0.80075815526E+02  0.81242807518E+02  0.12229973478E+03  0.00000000000E+00 0. -1.
<scales pt_clust_5="13000.00000" pt_clust_6="13000.00000" pt_clust_7="13000.00000" pt_clust_8="13000.00000" pt_clust_9="91.41571"></scales>
<clustering>
<clus scale="   91.301">  7  8 -1 -1</clus>
<clus scale="   91.416">  2  9  1 -1</clus>
<clus scale="   91.492">  2  7  1 -1</clus>
<clus scale="  100.761">  5  6 -1 -1</clus>
<clus scale="  100.934">  1  5  2 -1</clus>
</clustering>
</event>
<event>
 9    1  0.6202448E-006  0.9332597E+02  0.7546771E-02  0.1295669E+00
          2   -1    0    0  502    0  0.00000000000E+00  0.00000000000E+00  0.31446571951E+03  0.31446571951E+03  0.00000000000E+00 0. -1.
         -2   -1    0    0    0  501 -0.00000000000E+00 -0.00000000000E+00 -0.17466217039E+03  0.17466217039E+03  0.00000000000E+00 0.  1.
         23    2    1    2    0    0  0.19843449637E+01 -0.30708102318E+02 -0.73345575553E+02  0.12113397848E+03  0.91361600882E+02 0.  0.
         23    2    1    2    0    0 -0.23661313532E+02 -0.40327846419E+01 -0.47113858914E+02  0.10452922533E+03  0.90169407988E+02 0.  0.
        -11    1    3    3    0    0  0.48320488070E+01 -0.61843011574E+02 -0.33541096096E+02  0.70518876221E+02  0.00000000000E+00 0.  1.
         11    1    3    3    0    0 -0.28477038434E+01  0.31134909256E+02 -0.39804479457E+02  0.50615102256E+02  0.00000000000E+00 0. -1.
        -11    1    4    4    0    0  0.22572071015E+02  0.16212283444E+02 -0.46360279387E+02  0.54051938256E+02  0.00000000000E+00 0. -1.
         11    1    4    4    0    0 -0.46233384547E+02 -0.20245068086E+02 -0.75357952672E+00  0.50477287076E+02  0.00000000000E+00 0.  1.
         21    1    1    2  502  501  0.21676968568E+02  0.34740886960E+02  0.26026298359E+03  0.26346468610E+03  0.00000000000E+00 0. -1.
<scales pt_clust_5="13000.00000" pt_clust_6="13000.00000" pt_clust_7="13000.00000" pt_clust_8="13000.00000" pt_clust_9="40.94900"></scales>
<clustering>
<clus scale="   40.949">  1  9  2 -1</clus>
<clus scale="   90.169">  7  8 -1 -1</clus>
<clus scale="   91.362">  5  6 -1 -1</clus>
<clus scale="   92.159">  1  7  2 -1</clus>
<clus scale="   40.949">  1  5  2 -1</clus>
</clustering>
</event>
<event>
 9    1  0.6202448E-006  0.1241704E+03  0.7546771E-02  0.1237718E+00
         -3   -1    0    0    0  501 -0.00000000000E+00  0.00000000000E+00  0.60894025551E+02  0.60894025551E+02  0.00000000000E+00 0.  1.
          3   -1    0    0  502    0  0.00000000000E+00 -0.00000000000E+00 -0.47622727499E+03  0.47622727499E+03  0.00000000000E+00 0. -1.
         23    2    1    2    0    0 -0.10566876624E+01  0.43487825835E+02 -0.40847597449E+02  0.10860635931E+03  0.90744187037E+02 0.  0.
         23    2    1    2    0    0  0.25887629311E+02 -0.90061689267E+02 -0.34044715585E+03  0.36571112258E+03  0.95179210047E+02 0.  0.
        -11    1    4    4    0    0  0.59625316295E+02 -0.47475721606E+02 -0.15934676420E+03  0.17663667158E+03  0.00000000000E+00 0. -1.
         11    1    4    4    0    0 -0.33737686983E+02 -0.42585967660E+02 -0.18110039165E+03  0.18907445100E+03  0.00000000000E+00 0.  1.
        -13    1    3    3    0    0  0.98906314991E-01  0.20623773717E+02 -0.69175363317E+02  0.72184352286E+02  0.00000000000E+00 0. -1.
         13    1    3    3    0    0 -0.11555939774E+01  0.22864052118E+02  0.28327765869E+02  0.36422007026E+02  0.00000000000E+00 0.  1.
         21    1    1    2  502  501 -0.24830941649E+02  0.46573863432E+02 -0.34038496144E+02  0.62803818657E+02  0.00000000000E+00 0.  1.
<scales pt_clust_5="13000.00000" pt_clust_6="13000.00000" pt_clust_7="13000.00000" pt_clust_8="13000.00000" pt_clust_9="52.77973"></scales>
<clustering>
<clus scale="   52.780">  1  9  2 -1</clus>
<clus scale="   90.744">  7  8 -1 -1</clus>
<clus scale="   95.179">  5  6 -1 -1</clus>
<clus scale="  120.804">  1  7  2 -1</clus>
<clus scale="  124.170">  2  5  1 -1</clus>
</clustering>
</event>
<event>
 9    1  0.6202448E-006  0.9816678E+02  0.7546771E-02  0.1284387E+00
          1   -1    0    0  502    0  0.00000000000E+00  0.00000000000E+00  0.92447948051E+02  0.92447948051E+02  0.00000000000E+00 0. -1.
         -1   -1    0    0    0  501 -0.00000000000E+00 -0.00000000000E+00 -0.23584620644E+03  0.23584620644E+03  0.00000000000E+00 0.  1.
         23    2    1    2    0    0 -0.17093790245E+01 -0.51841221936E+02 -0.12159445174E+03  0.16111653183E+03  0.92102615964E+02 0.  0.
         23    2    1    2    0    0  0.23984671573E+02 -0.12625943757E+02 -0.27066380874E+00  0.95652240091E+02  0.91731122577E+02 0.  0.
        -11    1    4    4    0    0  0.19427195432E+02  0.14736032668E+02 -0.40209677736E+02  0.47025362995E+02  0.00000000000E+00 0.  1.
         11    1    4    4    0    0  0.45574761410E+01 -0.27361976425E+02  0.39939013927E+02  0.48626877096E+02  0.00000000000E+00 0. -1.
        -11    1    3    3    0    0  0.29653083374E+02 -0.65182843338E+02 -0.81301246531E+02  0.10834205604E+03  0.00000000000E+00 0. -1.
         11    1    3    3    0    0 -0.31362462398E+02  0.13341621402E+02 -0.40293205208E+02  0.52774475793E+02  0.00000000000E+00 0.  1.
         21    1    1    2  502  501 -0.22275292548E+02  0.64467165693E+02 -0.21533142837E+02  0.71525382565E+02  0.00000000000E+00 0.  1.
<scales pt_clust_5="13000.00000" pt_clust_6="13000.00000" pt_clust_7="13000.00000" pt_clust_8="13000.00000" pt_clust_9="68.20707"></scales>
<clustering>
<clus scale="   68.207">  1  9  2 -1</clus>
<clus scale="   91.731">  5  6 -1 -1</clus>
<clus scale="   92.103">  7  8 -1 -1</clus>
<clus scale="   97.818">  1  5  2 -1</clus>
<clus scale="   68.207">  1  5  2 -1</clus>
</clustering>
</event>
<event>
 9    1  0.6202448E-006  0.9425190E+02  0.7546771E-02  0.1293938E+00
          1   -1    0    0  502    0  0.00000000000E+00  0.00000000000E+00  0.34018583185E+02  0.34018583185E+02  0.00000000000E+00 0. -1.
         -1   -1    0    0    0  501 -0.00000000000E+00 -0.00000000000E+00 -0.40595016586E+03  0.40595016586E+03  0.00000000000E+00 0.  1.
         23    2    1    2    0    0  0.39623405352E+01  0.22148391211E+02 -0.19937695218E+03  0.22014656827E+03  0.90592996883E+02 0.  0.
         23    2    1    2    0    0 -0.24634760073E+02  0.39292943027E+01 -0.92657381967E+02  0.13327182010E+03  0.92486089987E+02 0.  0.
        -11    1    4    4    0    0 -0.53463276614E+02 -0.21219443898E+02 -0.56791018289E+02  0.80831964618E+02  0.00000000000E+00 0. -1.
         11    1    4    4    0    0  0.28828516541E+02  0.25148738201E+02 -0.35866363678E+02  0.52439855478E+02  0.00000000000E+00 0.  1.
        -13    1    3    3    0    0  0.33007471146E+02  0.24453666421E+02 -0.18121583641E+03  0.18581349337E+03  0.00000000000E+00 0. -1.
         13    1    3    3    0    0 -0.29045130610E+02 -0.23052752097E+01 -0.18161115771E+02  0.34333074899E+02  0.00000000000E+00 0.  1.
         21    1    1    2  502  501  0.20672419538E+02 -0.26077685514E+02 -0.79897248523E+02  0.86550360674E+02  0.00000000000E+00 0.  1.
<scales pt_clust_5="13000.00000" pt_clust_6="13000.00000" pt_clust_7="13000.00000" pt_clust_8="13000.00000" pt_clust_9="33.27754"></scales>
<clustering>
<clus scale="   33.278">  2  9  1 -1</clus>
<clus scale="   90.593">  7  8 -1 -1</clus>
<clus scale="   92.395">  2  7  1 -1</clus>
<clus scale="   92.486">  5  6 -1 -1</clus>
<clus scale="   94.252">  1  5  2 -1</clus>
</clustering>
</event>
<event>
 9    1  0.6202448E-006  0.1545971E+03  0.7546771E-02  0.1196295E+00
         -1   -1    0    0    0  501 -0.00000000000E+00  0.00000000000E+00  0.37723148555E+03  0.37723148555E+03  0.00000000000E+00 0.  1.
          1   -1    0    0  502    0  0.00000000000E+00 -0.00000000000E+00 -0.10720583482E+03  0.10720583482E+03  0.00000000000E+00 0. -1.
         23    2    1    2    0    0 -0.10135307890E+03 -0.78395054215E+01  0.89509309747E+02  0.16305261034E+03  0.90776278626E+02 0.  0.
         23    2    1    2    0    0  0.12039173409E+03  0.84591743085E+02  0.16275842590E+03  0.24033707018E+03  0.98090108908E+02 0.  0.
        -11    1    3    3    0    0 -0.37422796247E+02 -0.28419286001E+02  0.83255184883E+02  0.95600979627E+02  0.00000000000E+00 0.  1.
         11    1    3    3    0    0 -0.63930282651E+02  0.20579780579E+02  0.62541248642E+01  0.67451630717E+02  0.00000000000E+00 0. -1.
        -13    1    4    4    0    0  0.82764136298E+01  0.59547263517E+02  0.40003435036E+02  0.72212536513E+02  0.00000000000E+00 0. -1.
         13    1    4    4    0    0  0.11211532046E+03  0.25044479568E+02  0.12275499086E+03  0.16812453366E+03  0.00000000000E+00 0.  1.
         21    1    1    2  502  501 -0.19038655191E+02 -0.76752237663E+02  0.17757915081E+02  0.81047639853E+02  0.00000000000E+00 0. -1.
<scales pt_clust_5="13000.00000" pt_clust_6="13000.00000" pt_clust_7="13000.00000" pt_clust_8="13000.00000" pt_clust_9="79.07829"></scales>
<clustering>
<clus scale="   79.078">  2  9  1 -1</clus>
<clus scale="   90.776">  5  6 -1 -1</clus>
<clus scale="   98.090">  7  8 -1 -1</clus>
<clus scale="  150.063">  1  5  2 -1</clus>
<clus scale="   79.078">  2  5  1 -1</clus>
</clustering>
</event>
<event>
 9    1  0.6202448E-006  0.1459073E+03  0.7546771E-02  0.1216927E+00
          1   -1    0    0  502    0  0.00000000000E+00  0.00000000000E+00  0.51652494043E+03  0.51652494043E+03  0.00000000000E+00 0. -1.
         -1   -1    0    0    0  501 -0.00000000000E+00 -0.00000000000E+00 -0.46954062344E+03  0.46954062344E+03  0.00000000000E+00 0.  1.
         23    2    1    2    0    0  0.57092938211E+02 -0.36389907369E+02 -0.10223760682E+03  0.15357994540E+03  0.92468602395E+02 0.  0.
         23    2    1    2    0    0  0.10214548836E+03 -0.25496391923E+02  0.45766079449E+03  0.47989332207E+03  0.98794893395E+02 0.  0.
        -11    1    4    4    0    0  0.23385633698E+02  0.34238922532E+02  0.19228929861E+03  0.19670883569E+03  0.00000000000E+00 0. -1.
         11    1    4    4    0    0  0.78759854664E+02 -0.59735314455E+02  0.26537149588E+03  0.28318448638E+03  0.00000000000E+00 0.  1.
        -11    1    3    3    0    0  0.28224896079E+02 -0.63743006527E+02 -0.85793093532E+02  0.11054533250E+03  0.00000000000E+00 0. -1.
         11    1    3    3    0    0  0.28868042132E+02  0.27353099158E+02 -0.16444513284E+02  0.43034612897E+02  0.00000000000E+00 0.  1.
         21    1    1    2  502  501 -0.15923842657E+03  0.61886299293E+02 -0.30843887068E+03  0.35259229640E+03  0.00000000000E+00 0.  1.
<scales pt_clust_5="13000.00000" pt_clust_6="13000.00000" pt_clust_7="13000.00000" pt_clust_8="13000.00000" pt_clust_9="107.37093"></scales>
<clustering>
<clus scale="   92.469">  7  8 -1 -1</clus>
<clus scale="   98.795">  5  6 -1 -1</clus>
<clus scale="  114.605">  2  7  1 -1</clus>
<clus scale="  107.371">  2  9  1 -1</clus>
<clus scale="  145.907">  1  5  2 -1</clus>
</clustering>
</event>
<event>
 9    1  0.6202448E-006  0.1016093E+03  0.7546771E-02  0.1278089E+00
          2   -1    0    0  502    0  0.00000000000E+00  0.00000000000E+00  0.23207466347E+03  0.23207466347E+03  0.00000000000E+00 0. -1.
         -2   -1    0    0    0  501 -0.00000000000E+00 -0.00000000000E+00 -0.23916184317E+03  0.23916184317E+03  0.00000000000E+00 0.  1.
         23    2    1    2    0    0 -0.25675492720E+02 -0.41574831934E+02 -0.17300182160E+03  0.20237728366E+03  0.92947496392E+02 0.  0.
         23    2    1    2    0    0 -0.49442328757E+02 -0.28492326243E+02  0.96750559726E+02  0.14502157110E+03  0.91729105246E+02 0.  0.
        -11    1    4    4    0    0 -0.72530007166E+02 -0.32117488317E+02  0.91447456877E+02  0.12105689722E+03  0.00000000000E+00 0.  1.
         11    1    4    4    0    0  0.23087678408E+02  0.36251620731E+01  0.53031028488E+01  0.23964673880E+02  0.00000000000E+00 0. -1.
        -11    1    3    3    0    0  0.45986667753E+01  0.24481568853E+02 -0.16640191250E+02  0.29956483679E+02  0.00000000000E+00 0. -1.
         11    1    3    3    0    0 -0.30274159495E+02 -0.66056400787E+02 -0.15636163035E+03  0.17242079998E+03  0.00000000000E+00 0.  1.
         21    1    1    2  502  501  0.75117821477E+02  0.70067158177E+02  0.69164082177E+02  0.12383765188E+03  0.00000000000E+00 0. -1.
<scales pt_clust_5="13000.00000" pt_clust_6="13000.00000" pt_clust_7="13000.00000" pt_clust_8="13000.00000" pt_clust_9="102.72338"></scales>
<clustering>
<clus scale="   91.729">  5  6 -1 -1</clus>
<clus scale="   92.947">  7  8 -1 -1</clus>
<clus scale="  102.723">  1  9  2 -1</clus>
<clus scale="  102.723">  1  5  2 -1</clus>
<clus scale="  101.609">  1  5  2 -1</clus>
</clustering>
</event>
<event>
 9    1  0.6202448E-006  0.1054771E+03  0.7546771E-02  0.1271456E+00
          4   -1    0    0  502    0  0.00000000000E+00  0.00000000000E+00  0.19929921547E+03  0.19929921547E+03  0.00000000000E+00 0. -1.
         -4   -1    0    0    0  501 -0.00000000000E+00 -0.00000000000E+00 -0.16010288411E+03  0.16010288411E+03  0.00000000000E+00 0.  1.
         23    2    1    2    0    0 -0.51907346293E+02  0.37883961674E+02 -0.36433379558E+02  0.11836251014E+03  0.92480946734E+02 0.  0.
         23    2    1    2    0    0  0.29350915076E+02  0.67550767514E+02  0.63408765207E+02  0.13252863967E+03  0.90103198721E+02 0.  0.
        -11    1    4    4    0    0 -0.24962518803E+02  0.14083072256E+00 -0.43115389676E+00  0.24966639180E+02  0.00000000000E+00 0. -1.
         11    1    4    4    0    0  0.54313433879E+02  0.67409936791E+02  0.63839919104E+02  0.10756200049E+03  0.00000000000E+00 0.  1.
        -13    1    3    3    0    0  0.21937662489E+02 -0.10121931653E+02 -0.39233939171E+01  0.24476673706E+02  0.00000000000E+00 0. -1.
         13    1    3    3    0    0 -0.73845008782E+02  0.48005893327E+02 -0.32509985641E+02  0.93885836432E+02  0.00000000000E+00 0.  1.
         21    1    1    2  502  501  0.22556431217E+02 -0.10543472919E+03  0.12220945713E+02  0.10851094978E+03  0.00000000000E+00 0. -1.
<scales pt_clust_5="13000.00000" pt_clust_6="13000.00000" pt_clust_7="13000.00000" pt_clust_8="13000.00000" pt_clust_9="107.82057"></scales>
<clustering>
<clus scale="   90.103">  5  6 -1 -1</clus>
<clus scale="   92.481">  7  8 -1 -1</clus>
<clus scale="  107.821">  1  9  2 -1</clus>
<clus scale="  107.821">  1  5  2 -1</clus>
<clus scale="  105.477">  1  5  2 -1</clus>
</clustering>
</event>
<event>
 9    1  0.6202448E-006  0.2594853E+03  0.7546771E-02  0.1134907E+00
         -1   -1    0    0    0  501 -0.00000000000E+00  0.00000000000E+00  0.77213449378E+02  0.77213449378E+02  0.00000000000E+00 0.  1.
          1   -1    0    0  502    0  0.00000000000E+00 -0.00000000000E+00 -0.20097983433E+04  0.20097983433E+04  0.00000000000E+00 0. -1.
         23    2    1    2    0    0  0.50950227695E+02 -0.76998173339E+02 -0.82703825567E+02  0.15473038505E+03  0.92611688754E+02 0.  0.
         23    2    1    2    0    0  0.21934586930E+03  0.82682722577E+02 -0.12368815337E+04  0.12623107190E+04  0.92754406298E+02 0.  0.
        -13    1    4    4    0    0  0.16127391398E+03  0.32265922930E+02 -0.99489534836E+03  0.10083982940E+04  0.00000000000E+00 0. -1.
         13    1    4    4    0    0  0.58071955319E+02  0.50416799646E+02 -0.24198618534E+03  0.25391242501E+03  0.00000000000E+00 0.  1.
        -13    1    3    3    0    0  0.29590117618E+02 -0.72245317888E+02 -0.98836127488E+01  0.78693372138E+02  0.00000000000E+00 0.  1.
         13    1    3    3    0    0  0.21360110077E+02 -0.47528554505E+01 -0.72820212818E+02  0.76037012910E+02  0.00000000000E+00 0. -1.
         21    1    1    2  502  501 -0.27029609699E+03 -0.56845492381E+01 -0.61299953468E+03  0.66997068866E+03  0.00000000000E+00 0.  1.
<scales pt_clust_5="13000.00000" pt_clust_6="13000.00000" pt_clust_7="13000.00000" pt_clust_8="13000.00000" pt_clust_9="242.34121"></scales>
<clustering>
<clus scale="   92.612">  7  8 -1 -1</clus>
<clus scale="   92.754">  5  6 -1 -1</clus>
<clus scale="  130.773">  1  7  2 -1</clus>
<clus scale="  242.341">  1  9  2 -1</clus>
<clus scale="  259.485">  2  5  1 -1</clus>
</clustering>
</event>
<event>
 9    1  0.6202448E-006  0.1210903E+03  0.7546771E-02  0.1241401E+00
         -2   -1    0    0    0  501 -0.00000000000E+00  0.00000000000E+00  0.32633591502E+03  0.32633591502E+03  0.00000000000E+00 0.  1.
          2   -1    0    0  502    0  0.00000000000E+00 -0.00000000000E+00 -0.25931963227E+03  0.25931963227E+03  0.00000000000E+00 0. -1.
         23    2    1    2    0    0 -0.30058864619E+02 -0.71834050973E+02  0.28542034908E+03  0.30960015577E+03  0.91234941558E+02 0.  0.
         23    2    1    2    0    0  0.22465045007E+02  0.10108160521E+03 -0.17142923122E+03  0.22020093189E+03  0.91533053766E+02 0.  0.
        -11    1    3    3    0    0 -0.56509838196E+02 -0.72497478992E+02  0.19866401702E+03  0.21889869330E+03  0.00000000000E+00 0.  1.
         11    1    3    3    0    0  0.26450973577E+02  0.66342801871E+00  0.86756332066E+02  0.90701462466E+02  0.00000000000E+00 0. -1.
        -11    1    4    4    0    0 -0.11259533250E+02  0.66167626279E+02 -0.15507677868E+03  0.16897851680E+03  0.00000000000E+00 0. -1.
         11    1    4    4    0    0  0.33724578257E+02  0.34913978934E+02 -0.16352452540E+02  0.51222415091E+02  0.00000000000E+00 0.  1.
         21    1    1    2  502  501  0.75938196118E+01 -0.29247554240E+02 -0.46974835121E+02  0.55854459624E+02  0.00000000000E+00 0.  1.
<scales pt_clust_5="13000.00000" pt_clust_6="13000.00000" pt_clust_7="13000.00000" pt_clust_8="13000.00000" pt_clust_9="30.21731"></scales>
<clustering>
<clus scale="   30.217">  2  9  1 -1</clus>
<clus scale="   91.235">  5  6 -1 -1</clus>
<clus scale="   91.533">  7  8 -1 -1</clus>
<clus scale="  120.865">  1  5  2 -1</clus>
<clus scale="   30.217">  2  5  1 -1</clus>
</clustering>
</event>
<event>
 9    1  0.6202448E-006  0.9103147E+02  0.7546771E-02  0.1300594E+00
         -1   -1    0    0    0  501 -0.00000000000E+00  0.00000000000E+00  0.24106313845E+03  0.24106313845E+03  0.00000000000E+00 0.  1.
          1   -1    0    0  502    0  0.00000000000E+00 -0.00000000000E+00 -0.36343182609E+03  0.36343182609E+03  0.00000000000E+00 0. -1.
         23    2    1    2    0    0  0.37434945366E+01 -0.33002960741E+01  0.19794074534E+03  0.21763698440E+03  0.90335002121E+02 0.  0.
         23    2    1    2    0    0 -0.47134702256E+02  0.69421439080E+02 -0.25838647816E+03  0.28641269756E+03  0.90706366162E+02 0.  0.
        -11    1    3    3    0    0  0.73777826487E+01 -0.41315451946E+02  0.15305104605E+03  0.15870104266E+03  0.00000000000E+00 0.  1.
         11    1    3    3    0    0 -0.36342881120E+01  0.38015155872E+02  0.44889699297E+02  0.58935941743E+02  0.00000000000E+00 0. -1.
        -13    1    4    4    0    0  0.16646535221E+02  0.43486446115E+02 -0.57117446543E+02  0.73692474719E+02  0.00000000000E+00 0.  1.
         13    1    4    4    0    0 -0.63781237476E+02  0.25934992965E+02 -0.20126903162E+03  0.21272022284E+03  0.00000000000E+00 0. -1.
         21    1    1    2  502  501  0.43391207719E+02 -0.66121143005E+02 -0.61922954815E+02  0.10044528258E+03  0.00000000000E+00 0.  1.
<scales pt_clust_5="13000.00000" pt_clust_6="13000.00000" pt_clust_7="13000.00000" pt_clust_8="13000.00000" pt_clust_9="79.08731"></scales>
<clustering>
<clus scale="   79.087">  2  9  1 -1</clus>
<clus scale="   90.335">  5  6 -1 -1</clus>
<clus scale="   90.661">  1  5  2 -1</clus>
<clus scale="   90.706">  7  8 -1 -1</clus>
<clus scale="   79.087">  2  5  1 -1</clus>
</clustering>
</event>
<event>
 9    1  0.6202448E-006  0.1137988E+03  0.7546771E-02  0.1257017E+00
         -2   -1    0    0    0  501 -0.00000000000E+00  0.00000000000E+00  0.65573354593E+03  0.65573354593E+03  0.00000000000E+00 0.  1.
          2   -1    0    0  502    0  0.00000000000E+00 -0.00000000000E+00 -0.23940373289E+02  0.23940373289E+02  0.00000000000E+00 0. -1.
         23    2    1    2    0    0  0.53105036493E+02 -0.37217787031E+02  0.32433012011E+03  0.34550691804E+03  0.99898423580E+02 0.  0.
         23    2    1    2    0    0 -0.45339265561E+02  0.10120783052E+02  0.24474037686E+03  0.26540153844E+03  0.91553510502E+02 0.  0.
        -13    1    4    4    0    0  0.11930800889E+02  0.36664598229E+02  0.75558443262E+02  0.84827561095E+02  0.00000000000E+00 0. -1.
         13    1    4    4    0    0 -0.57270066449E+02 -0.26543815177E+02  0.16918193360E+03  0.18057397734E+03  0.00000000000E+00 0.  1.
        -13    1    3    3    0    0 -0.55023114354E+01 -0.51899331426E+02  0.20769616041E+03  0.21415300858E+03  0.00000000000E+00 0.  1.
         13    1    3    3    0    0  0.58607347928E+02  0.14681544395E+02  0.11663395970E+03  0.13135390946E+03  0.00000000000E+00 0. -1.
         21    1    1    2  502  501 -0.77657709320E+01  0.27097003978E+02  0.62722675671E+02  0.68765462742E+02  0.00000000000E+00 0.  1.
<scales pt_clust_5="13000.00000" pt_clust_6="13000.00000" pt_clust_7="13000.00000" pt_clust_8="13000.00000" pt_clust_9="28.18785"></scales>
<clustering>
<clus scale="   28.188">  2  9  1 -1</clus>
<clus scale="   91.554">  5  6 -1 -1</clus>
<clus scale="   99.898">  7  8 -1 -1</clus>
<clus scale="  106.548">  2  5  1 -1</clus>
<clus scale="   28.188">  2  5  1 -1</clus>
</clustering>
</event>
<event>
 9    1  0.6202448E-006  0.4968084E+03  0.7546771E-02  0.1069512E+00
          2   -1    0    0  502    0  0.00000000000E+00  0.00000000000E+00  0.47528294311E+03  0.47528294311E+03  0.00000000000E+00 0. -1.
         -2   -1    0    0    0  501 -0.00000000000E+00 -0.00000000000E+00 -0.92899162669E+03  0.92899162669E+03  0.00000000000E+00 0.  1.
         23    2    1    2    0    0  0.43035887525E+03  0.21024934231E+03 -0.16483044851E+03  0.51552838265E+03  0.95848260857E+02 0.  0.
         23    2    1    2    0    0  0.30062274863E+02 -0.33187014336E+02  0.18109384423E+03  0.20741480026E+03  0.90668631045E+02 0.  0.
        -11    1    4    4    0    0  0.56973960250E+02  0.15161638335E+01  0.95547916954E+02  0.11125527104E+03  0.00000000000E+00 0.  1.
         11    1    4    4    0    0 -0.26911685388E+02 -0.34703178169E+02  0.85545927279E+02  0.96159529218E+02  0.00000000000E+00 0. -1.
        -13    1    3    3    0    0  0.35665180758E+03  0.14406679127E+03 -0.15924592756E+03  0.41631120288E+03  0.00000000000E+00 0.  1.
         13    1    3    3    0    0  0.73707067666E+02  0.66182551042E+02 -0.55845209498E+01  0.99217179765E+02  0.00000000000E+00 0. -1.
         21    1    1    2  502  501 -0.46042115011E+03 -0.17706232798E+03 -0.46997207929E+03  0.68133138690E+03  0.00000000000E+00 0. -1.
<scales pt_clust_5="13000.00000" pt_clust_6="13000.00000" pt_clust_7="13000.00000" pt_clust_8="13000.00000" pt_clust_9="487.47486"></scales>
<clustering>
<clus scale="   90.669">  5  6 -1 -1</clus>
<clus scale="   95.848">  7  8 -1 -1</clus>
<clus scale="  101.123">  1  5  2 -1</clus>
<clus scale="  487.475">  2  9  1 -1</clus>
<clus scale="  101.123">  1  5  2 -1</clus>
</clustering>
</event>
<event>
 9    1  0.6202448E-006  0.1090576E+03  0.7546771E-02  0.1263056E+00
          1   -1    0    0  502    0  0.00000000000E+00  0.00000000000E+00  0.23580824474E+03  0.23580824474E+03  0.00000000000E+00 0. -1.
         -1   -1    0    0    0  501 -0.00000000000E+00 -0.00000000000E+00 -0.27264675938E+03  0.27264675938E+03  0.00000000000E+00 0.  1.
         23    2    1    2    0    0  0.13734472003E+01 -0.24387845086E+02  0.67016145358E+01  0.95089389850E+02  0.91653843779E+02 0.  0.
         23    2    1    2    0    0 -0.86862858644E+02  0.28884028210E+01  0.15324212214E+03  0.19774112605E+03  0.89804820883E+02 0.  0.
        -11    1    3    3    0    0 -0.39364512423E+02 -0.34201307618E+02 -0.24269835055E+01  0.52203299992E+02  0.00000000000E+00 0. -1.
         11    1    3    3    0    0  0.40737959623E+02  0.98134625320E+01  0.91285980413E+01  0.42886089858E+02  0.00000000000E+00 0.  1.
        -11    1    4    4    0    0 -0.94256494214E+01  0.37895333760E+02  0.59936215345E+02  0.71534950183E+02  0.00000000000E+00 0.  1.
         11    1    4    4    0    0 -0.77437209222E+02 -0.35006930939E+02  0.93305906791E+02  0.12620617587E+03  0.00000000000E+00 0. -1.
         21    1    1    2  502  501  0.85489411443E+02  0.21499442265E+02 -0.19678225131E+03  0.21562448821E+03  0.00000000000E+00 0.  1.
<scales pt_clust_5="13000.00000" pt_clust_6="13000.00000" pt_clust_7="13000.00000" pt_clust_8="13000.00000" pt_clust_9="88.15138"></scales>
<clustering>
<clus scale="   88.151">  2  9  1 -1</clus>
<clus scale="   89.805">  7  8 -1 -1</clus>
<clus scale="   91.654">  5  6 -1 -1</clus>
<clus scale="  107.508">  1  7  2 -1</clus>
<clus scale="  107.508">  1  5  2 -1</clus>
</clustering>
</event>
<event>
 9    1  0.6202448E-006  0.1619734E+03  0.7546771E-02  0.1194149E+00
         -2   -1    0    0    0  501 -0.00000000000E+00  0.00000000000E+00  0.17043758622E+03  0.17043758622E+03  0.00000000000E+00 0.  1.
          2   -1    0    0  502    0  0.00000000000E+00 -0.00000000000E+00 -0.58006544061E+03  0.58006544061E+03  0.00000000000E+00 0. -1.
         23    2    1    2    0    0  0.40476811562E+02 -0.93588793997E+02  0.18476087925E+02  0.13800314604E+03  0.91138728621E+02 0.  0.
         23    2    1    2    0    0  0.12257674101E+03 -0.19755543389E+02 -0.37729760872E+03  0.40752504487E+03  0.91147340752E+02 0.  0.
        -11    1    4    4    0    0  0.41774143180E+02 -0.42563838100E+02 -0.88111426167E+02  0.10639728743E+03  0.00000000000E+00 0.  1.
         11    1    4    4    0    0  0.80802597831E+02  0.22808294711E+02 -0.28918618255E+03  0.30112775744E+03  0.00000000000E+00 0. -1.
        -13    1    3    3    0    0  0.21826622241E+02  0.84152596794E+01  0.24829883757E+02  0.34113650659E+02  0.00000000000E+00 0. -1.
         13    1    3    3    0    0  0.18650189321E+02 -0.10200405368E+03 -0.63537958316E+01  0.10388949538E+03  0.00000000000E+00 0.  1.
         21    1    1    2  502  501 -0.16305355257E+03  0.11334433739E+03 -0.50806333598E+02  0.20497483591E+03  0.00000000000E+00 0.  1.
<scales pt_clust_5="13000.00000" pt_clust_6="13000.00000" pt_clust_7="13000.00000" pt_clust_8="13000.00000" pt_clust_9="133.89381"></scales>
<clustering>
<clus scale="   91.139">  7  8 -1 -1</clus>
<clus scale="   91.147">  5  6 -1 -1</clus>
<clus scale="  136.761">  1  7  2 -1</clus>
<clus scale="  133.894">  1  9  2 -1</clus>
<clus scale="  161.973">  2  5  1 -1</clus>
</clustering>
</event>
<event>
 9    1  0.6202448E-006  0.3452745E+03  0.7546771E-02  0.1097079E+00
          1   -1    0    0  502    0  0.00000000000E+00  0.00000000000E+00  0.27432120447E+04  0.27432120447E+04  0.00000000000E+00 0. -1.
         -1   -1    0    0    0  501 -0.00000000000E+00 -0.00000000000E+00 -0.78002400727E+02  0.78002400727E+02  0.00000000000E+00 0.  1.
         23    2    1    2    0    0  0.30616034340E+01 -0.11100373912E+03  0.15517674146E+03  0.21169988410E+03  0.91683239045E+02 0.  0.
         23    2    1    2    0    0 -0.33360534475E+03  0.91035364324E+02  0.96532557113E+03  0.10297112063E+04  0.94189949119E+02 0.  0.
        -11    1    3    3    0    0 -0.13506412986E+02 -0.23057544783E+02 -0.59605069665E+01  0.27378845966E+02  0.00000000000E+00 0. -1.
         11    1    3    3    0    0  0.16568016420E+02 -0.87946194341E+02  0.16113724843E+03  0.18432103813E+03  0.00000000000E+00 0.  1.
        -13    1    4    4    0    0 -0.30919355414E+02  0.34625035339E+02  0.18754079921E+03  0.19320054601E+03  0.00000000000E+00 0.  1.
         13    1    4    4    0    0 -0.30268598933E+03  0.56410328985E+02  0.77778477193E+03  0.83651066030E+03  0.00000000000E+00 0. -1.
         21    1    1    2  502  501  0.33054374131E+03  0.19968374800E+02  0.15447073314E+04  0.15798033550E+04  0.00000000000E+00 0.  1.
<scales pt_clust_5="13000.00000" pt_clust_6="13000.00000" pt_clust_7="13000.00000" pt_clust_8="13000.00000" pt_clust_9="332.17875"></scales>
<clustering>
<clus scale="   91.683">  5  6 -1 -1</clus>
<clus scale="   94.190">  7  8 -1 -1</clus>
<clus scale="  144.004">  2  5  1 -1</clus>
<clus scale="  332.179">  1  9  2 -1</clus>
<clus scale="  332.179">  1  5  2 -1</clus>
</clustering>
</event>
<event>
 9    1  0.6202448E-006  0.1894917E+03  0.7546771E-02  0.1189853E+00
         -2   -1    0    0    0  501 -0.00000000000E+00  0.00000000000E+00  0.28748573900E+03  0.28748573900E+03  0.00000000000E+00 0.  1.
          2   -1    0    0  502    0  0.00000000000E+00 -0.00000000000E+00 -0.29413505599E+03  0.29413505599E+03  0.00000000000E+00 0. -1.
         23    2    1    2    0    0  0.10236428665E+02  0.27033441184E+02  0.15936564030E+03  0.18496483834E+03  0.89325207513E+02 0.  0.
         23    2    1    2    0    0 -0.11059662539E+03 -0.14018521188E+03 -0.13612404788E+03  0.24248410849E+03  0.91571170594E+02 0.  0.
        -11    1    3    3    0    0 -0.26957386523E+02 -0.20026142727E+02  0.50020895035E+02  0.60248128774E+02  0.00000000000E+00 0. -1.
         11    1    3    3    0    0  0.37193815188E+02  0.47059583911E+02  0.10934474527E+03  0.12471670956E+03  0.00000000000E+00 0.  1.
        -13    1    4    4    0    0 -0.12250053973E+03 -0.10896889236E+03 -0.12826125142E+03  0.20816231732E+03  0.00000000000E+00 0. -1.
         13    1    4    4    0    0  0.11903914343E+02 -0.31216319521E+02 -0.78627964562E+01  0.34321791172E+02  0.00000000000E+00 0.  1.
         21    1    1    2  502  501  0.10036019673E+03  0.11315177070E+03 -0.29890909418E+02  0.15417184816E+03  0.00000000000E+00 0.  1.
<scales pt_clust_5="13000.00000" pt_clust_6="13000.00000" pt_clust_7="13000.00000" pt_clust_8="13000.00000" pt_clust_9="165.89703"></scales>
<clustering>
<clus scale="   89.325">  5  6 -1 -1</clus>
<clus scale="   91.571">  7  8 -1 -1</clus>
<clus scale="   93.886">  1  5  2 -1</clus>
<clus scale="  165.897">  1  9  2 -1</clus>
<clus scale="  189.492">  2  5  1 -1</clus>
</clustering>
</event>
<event>
 9    1  0.6202448E-006  0.1041924E+03  0.7546771E-02  0.1275618E+00
          1   -1    0    0  502    0  0.00000000000E+00  0.00000000000E+00  0.56979706649E+02  0.56979706649E+02  0.00000000000E+00 0. -1.
         -1   -1    0    0    0  501 -0.00000000000E+00 -0.00000000000E+00 -0.22328358187E+03  0.22328358187E+03  0.00000000000E+00 0.  1.
         23    2    1    2    0    0 -0.12252141992E+02  0.19340208476E+02 -0.92266094622E+02  0.13161452600E+03  0.91023033296E+02 0.  0.
         23    2    1    2    0    0  0.86459295765E+01 -0.39976481583E+02 -0.55239530900E+02  0.12050209793E+03  0.98977162285E+02 0.  0.
        -11    1    3    3    0    0 -0.13331571093E+02 -0.33195015710E+02 -0.16459629102E+02  0.39377141161E+02  0.00000000000E+00 0. -1.
         11    1    3    3    0    0  0.10794291006E+01  0.52535224186E+02 -0.75806465520E+02  0.92237384840E+02  0.00000000000E+00 0.  1.
        -13    1    4    4    0    0  0.33841133065E+02 -0.60396345146E+02 -0.18835937495E+02  0.71747706134E+02  0.00000000000E+00 0. -1.
         13    1    4    4    0    0 -0.25195203488E+02  0.20419863564E+02 -0.36403593406E+02  0.48754391798E+02  0.00000000000E+00 0.  1.
         21    1    1    2  502  501  0.36062124154E+01  0.20636273107E+02 -0.18798249703E+02  0.28146664591E+02  0.00000000000E+00 0.  1.
<scales pt_clust_5="13000.00000" pt_clust_6="13000.00000" pt_clust_7="13000.00000" pt_clust_8="13000.00000" pt_clust_9="20.94900"></scales>
<clustering>
<clus scale="   20.949">  2  9  1 -1</clus>
<clus scale="   91.023">  5  6 -1 -1</clus>
<clus scale="   96.668">  2  5  1 -1</clus>
<clus scale="   98.977">  7  8 -1 -1</clus>
<clus scale="  104.192">  1  5  2 -1</clus>
</clustering>
</event>
<event>
 9    1  0.6202448E-006  0.2564214E+03  0.7546771E-02  0.1142026E+00
          2   -1    0    0  502    0  0.00000000000E+00  0.00000000000E+00  0.19956423521E+03  0.19956423521E+03  0.00000000000E+00 0. -1.
         -2   -1    0    0    0  501 -0.00000000000E+00 -0.00000000000E+00 -0.87077778041E+03  0.87077778041E+03  0.00000000000E+00 0.  1.
         23    2    1    2    0    0 -0.97948134318E+02  0.22411968341E+03 -0.68143424140E+03  0.72971226554E+03  0.91125713269E+02 0.  0.
         23    2    1    2    0    0 -0.43487987730E+02 -0.54487237592E+02 -0.25510587746E+02  0.11689761572E+03  0.90300599869E+02 0.  0.
        -11    1    4    4    0    0 -0.59853964748E+02 -0.72700227671E+01  0.10531611222E+01  0.60303063566E+02  0.00000000000E+00 0.  1.
         11    1    4    4    0    0  0.16365977018E+02 -0.47217214825E+02 -0.26563748868E+02  0.56594552154E+02  0.00000000000E+00 0. -1.
        -13    1    3    3    0    0 -0.50886339196E+02  0.31090465536E+02 -0.11681260288E+03  0.13115342449E+03  0.00000000000E+00 0. -1.
         13    1    3    3    0    0 -0.47061795122E+02  0.19302921787E+03 -0.56462163852E+03  0.59855884105E+03  0.00000000000E+00 0.  1.
         21    1    1    2  502  501  0.14143612205E+03 -0.16963244582E+03  0.35731283943E+02  0.22373213436E+03  0.00000000000E+00 0. -1.
<scales pt_clust_5="13000.00000" pt_clust_6="13000.00000" pt_clust_7="13000.00000" pt_clust_8="13000.00000" pt_clust_9="239.68324"></scales>
<clustering>
<clus scale="   90.301">  5  6 -1 -1</clus>
<clus scale="   91.126">  7  8 -1 -1</clus>
<clus scale="  114.080">  1  5  2 -1</clus>
<clus scale="  239.683">  1  9  2 -1</clus>
<clus scale="  114.080">  1  5  2 -1</clus>
</clustering>
</event>
<event>
 9    1  0.6202448E-006  0.9460034E+02  0.7546771E-02  0.1299755E+00
          2   -1    0    0  502    0  0.00000000000E+00  0.00000000000E+00  0.35675531286E+03  0.35675531286E+03  0.00000000000E+00 0.  1.
         -2   -1    0    0    0  501 -0.00000000000E+00 -0.00000000000E+00 -0.38861866151E+02  0.38861866151E+02  0.00000000000E+00 0. -1.
         23    2    1    2    0    0  0.58837496425E+00  0.43025251070E+02  0.83379259785E+02  0.13141718636E+03  0.92015528547E+02 0.  0.
         23    2    1    2    0    0  0.64595665674E+01 -0.14813034334E+02  0.21374454272E+03  0.22846512489E+03  0.79047022493E+02 0.  0.
        -13    1    4    4    0    0  0.15329796766E+02  0.29213046450E+02  0.62224228743E+02  0.70429109000E+02  0.00000000000E+00 0. -1.
         13    1    4    4    0    0 -0.88702301984E+01 -0.44026080784E+02  0.15152031397E+03  0.15803601589E+03  0.00000000000E+00 0.  1.
        -13    1    3    3    0    0  0.26251836068E+02 -0.64998986555E+01 -0.44143238458E+01  0.27402442127E+02  0.00000000000E+00 0.  1.
         13    1    3    3    0    0 -0.25663461104E+02  0.49525149725E+02  0.87793583631E+02  0.10401474423E+03  0.00000000000E+00 0. -1.
         21    1    1    2  502  501 -0.70479415316E+01 -0.28212216736E+02  0.20769644204E+02  0.35734867754E+02  0.00000000000E+00 0. -1.
<scales pt_clust_5="13000.00000" pt_clust_6="13000.00000" pt_clust_7="13000.00000" pt_clust_8="13000.00000" pt_clust_9="29.07925"></scales>
<clustering>
<clus scale="   29.079">  2  9  1 -1</clus>
<clus scale="   79.047">  5  6 -1 -1</clus>
<clus scale="   82.041">  1  5  2 -1</clus>
<clus scale="   92.016">  7  8 -1 -1</clus>
<clus scale="   82.041">  1  5  2 -1</clus>
</clustering>
</event>
<event>
 9    1  0.6202448E-006  0.9972659E+02  0.7546771E-02  0.1282313E+00
          2   -1    0    0  502    0  0.00000000000E+00  0.00000000000E+00  0.15732718750E+03  0.15732718750E+03  0.00000000000E+00 0. -1.
         -2   -1    0    0    0  501 -0.00000000000E+00 -0.00000000000E+00 -0.24908513361E+03  0.24908513361E+03  0.00000000000E+00 0.  1.
         23    2    1    2    0    0  0.38071986898E+02  0.26533570558E+02 -0.17077717679E+03  0.20065566267E+03  0.94574543589E+02 0.  0.
         23    2    1    2    0    0  0.37127725495E+02  0.20772768115E+02  0.40619251479E+02  0.10897109741E+03  0.91732222170E+02 0.  0.
        -13    1    4    4    0    0 -0.26104409488E+02 -0.11995409512E+02  0.19375994049E+02  0.34651972375E+02  0.00000000000E+00 0.  1.
         13    1    4    4    0    0  0.63232134984E+02  0.32768177627E+02  0.21243257429E+02  0.74319125034E+02  0.00000000000E+00 0. -1.
        -13    1    3    3    0    0  0.59144133772E+02  0.45767675444E+02 -0.13977355643E+03  0.15852241404E+03  0.00000000000E+00 0.  1.
         13    1    3    3    0    0 -0.21072146875E+02 -0.19234104887E+02 -0.31003620366E+02  0.42133248635E+02  0.00000000000E+00 0. -1.
         21    1    1    2  502  501 -0.75199712393E+02 -0.47306338672E+02  0.38399979203E+02  0.96785561038E+02  0.00000000000E+00 0. -1.
<scales pt_clust_5="13000.00000" pt_clust_6="13000.00000" pt_clust_7="13000.00000" pt_clust_8="13000.00000" pt_clust_9="88.84192"></scales>
<clustering>
<clus scale="   88.842">  1  9  2 -1</clus>
<clus scale="   91.732">  5  6 -1 -1</clus>
<clus scale="   94.575">  7  8 -1 -1</clus>
<clus scale="   97.035">  1  5  2 -1</clus>
<clus scale="   88.842">  1  5  2 -1</clus>
</clustering>
</event>
<event>
 9    1  0.6202448E-006  0.9477747E+02  0.7546771E-02  0.1291798E+00
          2   -1    0    0  502    0  0.00000000000E+00  0.00000000000E+00  0.33200488776E+02  0.33200488776E+02  0.00000000000E+00 0. -1.
         -2   -1    0    0    0  501 -0.00000000000E+00 -0.00000000000E+00 -0.41649525298E+03  0.41649525298E+03  0.00000000000E+00 0.  1.
         23    2    1    2    0    0 -0.10889047790E+02  0.27579322149E+02 -0.19648921687E+03  0.21870036332E+03  0.91338087333E+02 0.  0.
         23    2    1    2    0    0  0.20917527690E+02 -0.96506387828E+01 -0.18804558490E+03  0.21041515032E+03  0.91557171718E+02 0.  0.
        -13    1    4    4    0    0 -0.13381912395E+02 -0.29607937558E+02 -0.15617306932E+03  0.15951718755E+03  0.00000000000E+00 0.  1.
         13    1    4    4    0    0  0.34299440086E+02  0.19957298775E+02 -0.31872515580E+02  0.50897962768E+02  0.00000000000E+00 0. -1.
        -13    1    3    3    0    0  0.20273917936E+02 -0.20842845836E+02 -0.26936478928E+02  0.39636219144E+02  0.00000000000E+00 0.  1.
         13    1    3    3    0    0 -0.31162965727E+02  0.48422167985E+02 -0.16955273794E+03  0.17906414417E+03  0.00000000000E+00 0. -1.
         21    1    1    2  502  501 -0.10028479900E+02 -0.17928683366E+02  0.12400375548E+01  0.20580228120E+02  0.00000000000E+00 0. -1.
<scales pt_clust_5="13000.00000" pt_clust_6="13000.00000" pt_clust_7="13000.00000" pt_clust_8="13000.00000" pt_clust_9="20.54284"></scales>
<clustering>
<clus scale="   20.543">  1  9  2 -1</clus>
<clus scale="   91.338">  7  8 -1 -1</clus>
<clus scale="   91.557">  5  6 -1 -1</clus>
<clus scale="   94.566">  2  7  1 -1</clus>
<clus scale="   20.543">  1  5  2 -1</clus>
</clustering>
</event>
<event>
 9    1  0.6202448E-006  0.9670221E+02  0.7546771E-02  0.1288985E+00
         -1   -1    0    0    0  501 -0.00000000000E+00  0.00000000000E+00  0.20179118415E+03  0.20179118415E+03  0.00000000000E+00 0.  1.
          1   -1    0    0  502    0  0.00000000000E+00 -0.00000000000E+00 -0.16302121395E+03  0.16302121395E+03  0.00000000000E+00 0. -1.
         23    2    1    2    0    0 -0.29858513144E+02 -0.57089730856E+02  0.63108561803E+02  0.12840644602E+03  0.91404357827E+02 0.  0.
         23    2    1    2    0    0 -0.42968230141E+02  0.20808558011E+01 -0.82380222602E+02  0.12824615455E+03  0.88374070400E+02 0.  0.
        -11    1    4    4    0    0 -0.50871281533E+00 -0.37324216304E+02 -0.48279938901E+02  0.61027112104E+02  0.00000000000E+00 0.  1.
         11    1    4    4    0    0 -0.42459517326E+02  0.39405072105E+02 -0.34100283701E+02  0.67219042448E+02  0.00000000000E+00 0. -1.
        -13    1    3    3    0    0  0.73793728131E+01 -0.70304971001E+02  0.50692375152E+02  0.86988280757E+02  0.00000000000E+00 0.  1.
         13    1    3    3    0    0 -0.37237885957E+02  0.13215240145E+02  0.12416186651E+02  0.41418165261E+02  0.00000000000E+00 0. -1.
         21    1    1    2  502  501  0.72826743285E+02  0.55008875055E+02  0.58041631001E+02  0.10815979753E+03  0.00000000000E+00 0.  1.
<scales pt_clust_5="13000.00000" pt_clust_6="13000.00000" pt_clust_7="13000.00000" pt_clust_8="13000.00000" pt_clust_9="91.26725"></scales>
<clustering>
<clus scale="   88.374">  5  6 -1 -1</clus>
<clus scale="   91.267">  1  9  2 -1</clus>
<clus scale="   91.404">  7  8 -1 -1</clus>
<clus scale="   93.843">  2  5  1 -1</clus>
<clus scale="   93.843">  2  5  1 -1</clus>
</clustering>
</event>
<event>
 9    1  0.6202448E-006  0.9232796E+02  0.7546771E-02  0.1299279E+00
         -1   -1    0    0    0  501 -0.00000000000E+00  0.00000000000E+00  0.90025365358E+02  0.90025365358E+02  0.00000000000E+00 0.  1.
          1   -1    0    0  502    0  0.00000000000E+00 -0.00000000000E+00 -0.21403729905E+03  0.21403729905E+03  0.00000000000E+00 0. -1.
         23    2    1    2    0    0 -0.13332206843E+02  0.11908649719E+02 -0.29835369979E+02  0.94412066381E+02  0.87772007492E+02 0.  0.
         23    2    1    2    0    0 -0.36207958861E+02  0.48321623117E+02 -0.53786087004E+02  0.12182517806E+03  0.91117700299E+02 0.  0.
        -11    1    4    4    0    0 -0.57033189516E+02  0.52740835042E+02 -0.17303067899E+02  0.79585027147E+02  0.00000000000E+00 0.  1.
         11    1    4    4    0    0  0.20825230655E+02 -0.44192119254E+01 -0.36483019104E+02  0.42240150909E+02  0.00000000000E+00 0. -1.
        -13    1    3    3    0    0  0.32600122478E+01 -0.24022176132E+02 -0.45733502374E+02  0.51761432220E+02  0.00000000000E+00 0. -1.
         13    1    3    3    0    0 -0.16592219091E+02  0.35930825851E+02  0.15898132396E+02  0.42650634161E+02  0.00000000000E+00 0.  1.
         21    1    1    2  502  501  0.49540165704E+02 -0.60230272835E+02 -0.40390476705E+02  0.87825419966E+02  0.00000000000E+00 0. -1.
<scales pt_clust_5="13000.00000" pt_clust_6="13000.00000" pt_clust_7="13000.00000" pt_clust_8="13000.00000" pt_clust_9="77.98663"></scales>
<clustering>
<clus scale="   77.987">  2  9  1 -1</clus>
<clus scale="   87.772">  7  8 -1 -1</clus>
<clus scale="   89.028">  1  7  2 -1</clus>
<clus scale="   91.118">  5  6 -1 -1</clus>
<clus scale="   77.987">  2  5  1 -1</clus>
</clustering>
</event>
<event>
 9    1  0.6202448E-006  0.1103865E+03  0.7546771E-02  0.1260725E+00
          1   -1    0    0  502    0  0.00000000000E+00  0.00000000000E+00  0.35947055767E+02  0.35947055767E+02  0.00000000000E+00 0. -1.
         -1   -1    0    0    0  501 -0.00000000000E+00 -0.00000000000E+00 -0.96741169951E+03  0.96741169951E+03  0.00000000000E+00 0.  1.
         23    2    1    2    0    0 -0.70409534787E+02  0.82436731078E+01 -0.42828906464E+03  0.44348279131E+03  0.90664229821E+02 0.  0.
         23    2    1    2    0    0  0.21722358016E+02  0.90825671711E+02 -0.32524234359E+03  0.35048300189E+03  0.91293970614E+02 0.  0.
        -11    1    4    4    0    0  0.32526312456E+02  0.64461356083E+01 -0.35793379397E+02  0.48792209162E+02  0.00000000000E+00 0. -1.
         11    1    4    4    0    0 -0.10803954440E+02  0.84379536103E+02 -0.28944896419E+03  0.30169079273E+03  0.00000000000E+00 0.  1.
        -13    1    3    3    0    0 -0.92522848911E+02  0.63616392799E+01 -0.35430772248E+03  0.36624433133E+03  0.00000000000E+00 0.  1.
         13    1    3    3    0    0  0.22113314124E+02  0.18820338279E+01 -0.73981342157E+02  0.77238459981E+02  0.00000000000E+00 0. -1.
         21    1    1    2  502  501  0.48687176771E+02 -0.99069344819E+02 -0.17793323552E+03  0.20939296208E+03  0.00000000000E+00 0. -1.
<scales pt_clust_5="13000.00000" pt_clust_6="13000.00000" pt_clust_7="13000.00000" pt_clust_8="13000.00000" pt_clust_9="110.38649"></scales>
<clustering>
<clus scale="   90.664">  7  8 -1 -1</clus>
<clus scale="   91.294">  5  6 -1 -1</clus>
<clus scale="  110.386">  1  9  2 -1</clus>
<clus scale="  108.517">  2  7  1 -1</clus>
<clus scale="  110.386">  1  5  2 -1</clus>
</clustering>
</event>
<event>
 9    1  0.6202448E-006  0.9750628E+02  0.7546771E-02  0.1285969E+00
         -3   -1    0    0    0  501 -0.00000000000E+00  0.00000000000E+00  0.58765186916E+03  0.58765186916E+03  0.00000000000E+00 0.  1.
          3   -1    0    0  502    0  0.00000000000E+00 -0.00000000000E+00 -0.29203635213E+02  0.29203635213E+02  0.00000000000E+00 0. -1.
         23    2    1    2    0    0 -0.12345713778E+02  0.48155893194E+02  0.31520177856E+03  0.33212348519E+03  0.92100171057E+02 0.  0.
         23    2    1    2    0    0 -0.30009693520E+01  0.31360825279E+01  0.13343911670E+03  0.16256803478E+03  0.92755200584E+02 0.  0.
        -11    1    4    4    0    0 -0.40317237357E+02  0.10252747600E+02  0.11078297542E+03  0.11833624172E+03  0.00000000000E+00 0.  1.
         11    1    4    4    0    0  0.37316268005E+02 -0.71166650723E+01  0.22656141281E+02  0.44231793060E+02  0.00000000000E+00 0. -1.
        -13    1    3    3    0    0  0.16447497813E+02  0.64769642616E+02  0.15987108870E+03  0.17327547949E+03  0.00000000000E+00 0.  1.
         13    1    3    3    0    0 -0.28793211591E+02 -0.16613749422E+02  0.15533068986E+03  0.15884800570E+03  0.00000000000E+00 0. -1.
         21    1    1    2  502  501  0.15346683130E+02 -0.51291975722E+02  0.10980733869E+03  0.12216398441E+03  0.00000000000E+00 0. -1.
<scales pt_clust_5="13000.00000" pt_clust_6="13000.00000" pt_clust_7="13000.00000" pt_clust_8="13000.00000" pt_clust_9="53.53865"></scales>
<clustering>
<clus scale="   53.539">  2  9  1 -1</clus>
<clus scale="   92.100">  7  8 -1 -1</clus>
<clus scale="   92.755">  5  6 -1 -1</clus>
<clus scale="   96.883">  1  7  2 -1</clus>
<clus scale="   53.539">  2  5  1 -1</clus>
</clustering>
</event>
<event>
 9    1  0.6202448E-006  0.2021207E+03  0.7546771E-02  0.1179155E+00
         -1   -1    0    0    0  501 -0.00000000000E+00  0.00000000000E+00  0.69302556086E+03  0.69302556086E+03  0.00000000000E+00 0.  1.
          1   -1    0    0  502    0  0.00000000000E+00 -0.00000000000E+00 -0.13974669297E+03  0.13974669297E+03  0.00000000000E+00 0. -1.
         23    2    1    2    0    0 -0.77798724826E+01 -0.34773553759E+02  0.19022138744E+03  0.21407893241E+03  0.91519870008E+02 0.  0.
         23    2    1    2    0    0  0.11487493134E+03 -0.13178266495E+03 -0.74882640363E+01  0.19855706450E+03  0.93839827004E+02 0.  0.
        -13    1    4    4    0    0  0.71302939610E+02 -0.75292015517E+02 -0.50408092248E+02  0.11529949073E+03  0.00000000000E+00 0. -1.
         13    1    4    4    0    0  0.43571991733E+02 -0.56490649437E+02  0.42919828212E+02  0.83257573776E+02  0.00000000000E+00 0.  1.
        -13    1    3    3    0    0 -0.12524243644E+02 -0.65644456307E+02  0.13504469442E+03  0.15067554816E+03  0.00000000000E+00 0.  1.
         13    1    3    3    0    0  0.47443711616E+01  0.30870902548E+02  0.55176693023E+02  0.63403384253E+02  0.00000000000E+00 0. -1.
         21    1    1    2  502  501 -0.10709505886E+03  0.16655621871E+03  0.37054574448E+03  0.42013625692E+03  0.00000000000E+00 0.  1.
<scales pt_clust_5="13000.00000" pt_clust_6="13000.00000" pt_clust_7="13000.00000" pt_clust_8="13000.00000" pt_clust_9="179.01637"></scales>
<clustering>
<clus scale="   91.520">  7  8 -1 -1</clus>
<clus scale="   93.840">  5  6 -1 -1</clus>
<clus scale="   98.212">  1  7  2 -1</clus>
<clus scale="  179.016">  1  9  2 -1</clus>
<clus scale="  202.121">  2  5  1 -1</clus>
</clustering>
</event>
<event>
 9    1  0.6202448E-006  0.1902390E+03  0.7546771E-02  0.1181067E+00
         -1   -1    0    0    0  501 -0.00000000000E+00  0.00000000000E+00  0.22588029840E+03  0.22588029840E+03  0.00000000000E+00 0.  1.
          1   -1    0    0  502    0  0.00000000000E+00 -0.00000000000E+00 -0.29052696452E+03  0.29052696452E+03  0.00000000000E+00 0. -1.
         23    2    1    2    0    0  0.11290903311E+03 -0.52869225516E+02 -0.11064122777E+03  0.19007108474E+03  0.91334173279E+02 0.  0.
         23    2    1    2    0    0  0.33941676141E+02 -0.57487547410E+02 -0.44831420620E+02  0.12141398027E+03  0.90965063868E+02 0.  0.
        -11    1    3    3    0    0  0.22552915638E+02  0.17176561239E+02  0.34461210957E+01  0.28557731183E+02  0.00000000000E+00 0.  1.
         11    1    3    3    0    0  0.90356117469E+02 -0.70045786754E+02 -0.11408734887E+03  0.16151335356E+03  0.00000000000E+00 0. -1.
        -11    1    4    4    0    0  0.25979852827E+02  0.21216808066E+02 -0.16560467507E+02  0.37407950779E+02  0.00000000000E+00 0.  1.
         11    1    4    4    0    0  0.79618233139E+01 -0.78704355477E+02 -0.28270953113E+02  0.84006029494E+02  0.00000000000E+00 0. -1.
         21    1    1    2  502  501 -0.14685070925E+03  0.11035677293E+03  0.90825982273E+02  0.20492219790E+03  0.00000000000E+00 0.  1.
<scales pt_clust_5="13000.00000" pt_clust_6="13000.00000" pt_clust_7="13000.00000" pt_clust_8="13000.00000" pt_clust_9="166.88008"></scales>
<clustering>
<clus scale="   90.965">  7  8 -1 -1</clus>
<clus scale="   91.334">  5  6 -1 -1</clus>
<clus scale="  112.834">  2  7  1 -1</clus>
<clus scale="  166.880">  1  9  2 -1</clus>
<clus scale="  112.834">  2  5  1 -1</clus>
</clustering>
</event>
<event>
 9    1  0.6202448E-006  0.1196948E+03  0.7546771E-02  0.1244552E+00
         -1   -1    0    0    0  501 -0.00000000000E+00  0.00000000000E+00  0.98025385933E+02  0.98025385933E+02  0.00000000000E+00 0.  1.
          1   -1    0    0  502    0  0.00000000000E+00 -0.00000000000E+00 -0.29352301241E+03  0.29352301241E+03  0.00000000000E+00 0. -1.
         23    2    1    2    0    0  0.72953288483E+02  0.12383582004E+02  0.14648823461E+02  0.11597898937E+03  0.88096552395E+02 0.  0.
         23    2    1    2    0    0 -0.78504280225E+02 -0.54429871553E+02 -0.13214686941E+03  0.18678518438E+03  0.91106405245E+02 0.  0.
        -13    1    3    3    0    0  0.56734544609E+02 -0.28893310199E+02 -0.11201599634E+02  0.64646018908E+02  0.00000000000E+00 0. -1.
         13    1    3    3    0    0  0.16218743873E+02  0.41276892203E+02  0.25850423095E+02  0.51332970467E+02  0.00000000000E+00 0.  1.
        -13    1    4    4    0    0 -0.65229013033E+02 -0.32364496964E+02 -0.25623654114E+02  0.77193629629E+02  0.00000000000E+00 0.  1.
         13    1    4    4    0    0 -0.13275267191E+02 -0.22065374588E+02 -0.10652321530E+03  0.10959155475E+03  0.00000000000E+00 0. -1.
         21    1    1    2  502  501  0.55509917421E+01  0.42046289549E+02 -0.77999580524E+02  0.88784224590E+02  0.00000000000E+00 0. -1.
<scales pt_clust_5="13000.00000" pt_clust_6="13000.00000" pt_clust_7="13000.00000" pt_clust_8="13000.00000" pt_clust_9="42.41113"></scales>
<clustering>
<clus scale="   42.411">  2  9  1 -1</clus>
<clus scale="   88.097">  5  6 -1 -1</clus>
<clus scale="   91.106">  7  8 -1 -1</clus>
<clus scale="  117.420">  1  5  2 -1</clus>
<clus scale="   42.411">  2  5  1 -1</clus>
</clustering>
</event>
<event>
 9    1  0.6202448E-006  0.3007752E+03  0.7546771E-02  0.1127499E+00
          2   -1    0    0  502    0  0.00000000000E+00  0.00000000000E+00  0.87538321289E+03  0.87538321289E+03  0.00000000000E+00 0. -1.
         -2   -1    0    0    0  501 -0.00000000000E+00 -0.00000000000E+00 -0.44534465671E+03  0.44534465671E+03  0.00000000000E+00 0.  1.
         23    2    1    2    0    0 -0.25779028680E+03 -0.12054103647E+03 -0.33621164721E+03  0.44984310286E+03  0.91293877278E+02 0.  0.
         23    2    1    2    0    0 -0.37283897665E+01 -0.42703285963E+02  0.25110151330E+03  0.27053578497E+03  0.91105265764E+02 0.  0.
        -11    1    3    3    0    0 -0.23279561990E+03 -0.13586941572E+03 -0.30303672789E+03  0.40556819060E+03  0.00000000000E+00 0.  1.
         11    1    3    3    0    0 -0.24994666898E+02  0.15328379253E+02 -0.33174919319E+02  0.44274912261E+02  0.00000000000E+00 0. -1.
        -13    1    4    4    0    0  0.38962077963E+02 -0.27253832236E+01  0.13497594356E+03  0.14051326119E+03  0.00000000000E+00 0. -1.
         13    1    4    4    0    0 -0.42690467730E+02 -0.39977902740E+02  0.11612556974E+03  0.13002252378E+03  0.00000000000E+00 0.  1.
         21    1    1    2  502  501  0.26151867657E+03  0.16324432243E+03  0.51514869010E+03  0.60034898177E+03  0.00000000000E+00 0. -1.
<scales pt_clust_5="13000.00000" pt_clust_6="13000.00000" pt_clust_7="13000.00000" pt_clust_8="13000.00000" pt_clust_9="286.58533"></scales>
<clustering>
<clus scale="   91.105">  7  8 -1 -1</clus>
<clus scale="   91.294">  5  6 -1 -1</clus>
<clus scale="  100.686">  1  7  2 -1</clus>
<clus scale="  286.585">  1  9  2 -1</clus>
<clus scale="  100.686">  1  5  2 -1</clus>
</clustering>
</event>
<event>
 9    1  0.6202448E-006  0.1373693E+03  0.7546771E-02  0.1224731E+00
         -2   -1    0    0    0  501 -0.00000000000E+00  0.00000000000E+00  0.54610571821E+02  0.54610571821E+02  0.00000000000E+00 0.  1.
          2   -1    0    0  502    0  0.00000000000E+00 -0.00000000000E+00 -0.62306191678E+03  0.62306191678E+03  0.00000000000E+00 0. -1.
         23    2    1    2    0    0  0.72177215817E+02 -0.40131184047E+01 -0.15770998317E+03  0.19613199485E+03  0.91485873282E+02 0.  0.
         23    2    1    2    0    0  0.46793724308E+02 -0.55157607373E+02 -0.16488511868E+03  0.20207573451E+03  0.91735957121E+02 0.  0.
        -11    1    4    4    0    0  0.32847899375E+01  0.25174558771E+02 -0.38935875170E+02  0.46481723607E+02  0.00000000000E+00 0. -1.
         11    1    4    4    0    0  0.43508934371E+02 -0.80332166144E+02 -0.12594924351E+03  0.15559401090E+03  0.00000000000E+00 0.  1.
        -13    1    3    3    0    0  0.52626826512E+02 -0.43833559141E+02 -0.11877802442E+03  0.13711011218E+03  0.00000000000E+00 0.  1.
         13    1    3    3    0    0  0.19550389305E+02  0.39820440736E+02 -0.38931958752E+02  0.59021882677E+02  0.00000000000E+00 0. -1.
         21    1    1    2  502  501 -0.11897094013E+03  0.59170725778E+02 -0.24585624310E+03  0.27946475924E+03  0.00000000000E+00 0. -1.
<scales pt_clust_5="13000.00000" pt_clust_6="13000.00000" pt_clust_7="13000.00000" pt_clust_8="13000.00000" pt_clust_9="102.24894"></scales>
<clustering>
<clus scale="   91.486">  7  8 -1 -1</clus>
<clus scale="   91.736">  5  6 -1 -1</clus>
<clus scale="  116.599">  1  7  2 -1</clus>
<clus scale="  102.249">  1  9  2 -1</clus>
<clus scale="  137.369">  2  5  1 -1</clus>
</clustering>
</event>
<event>
 9    1  0.6202448E-006  0.1104123E+03  0.7546771E-02  0.1260216E+00
         -2   -1    0    0    0  501 -0.00000000000E+00  0.00000000000E+00  0.15137561445E+03  0.15137561445E+03  0.00000000000E+00 0.  1.
          2   -1    0    0  502    0  0.00000000000E+00 -0.00000000000E+00 -0.24736733411E+03  0.24736733411E+03  0.00000000000E+00 0. -1.
         23    2    1    2    0    0  0.72579092267E+02 -0.16382111021E+01  0.40211374329E+02  0.12320866429E+03  0.91065975869E+02 0.  0.
         23    2    1    2    0    0 -0.18017384254E+02 -0.92589597040E+02 -0.67814792332E+02  0.14695427177E+03  0.89995846110E+02 0.  0.
        -11    1    4    4    0    0 -0.40391277743E+02 -0.11879656262E+02 -0.52834778187E+01  0.42432259997E+02  0.00000000000E+00 0.  1.
         11    1    4    4    0    0  0.22373893489E+02 -0.80709940778E+02 -0.62531314513E+02  0.10452201177E+03  0.00000000000E+00 0. -1.
        -13    1    3    3    0    0  0.93947223822E+02  0.39086791941E+01  0.28697885999E+02  0.98310362108E+02  0.00000000000E+00 0. -1.
         13    1    3    3    0    0 -0.21368131555E+02 -0.55468902962E+01  0.11513488329E+02  0.24898302183E+02  0.00000000000E+00 0.  1.
         21    1    1    2  502  501 -0.54561708014E+02  0.94227808142E+02 -0.68388301659E+02  0.12858001249E+03  0.00000000000E+00 0.  1.
<scales pt_clust_5="13000.00000" pt_clust_6="13000.00000" pt_clust_7="13000.00000" pt_clust_8="13000.00000" pt_clust_9="108.88462"></scales>
<clustering>
<clus scale="   89.996">  5  6 -1 -1</clus>
<clus scale="   91.066">  7  8 -1 -1</clus>
<clus scale="  108.885">  2  9  1 -1</clus>
<clus scale="  109.531">  2  5  1 -1</clus>
<clus scale="  108.885">  2  5  1 -1</clus>
</clustering>
</event>
<event>
 9    1  0.6202448E-006  0.1290632E+03  0.7546771E-02  0.1229206E+00
         -1   -1    0    0    0  501 -0.00000000000E+00  0.00000000000E+00  0.17707629227E+03  0.17707629227E+03  0.00000000000E+00 0.  1.
          1   -1    0    0  502    0  0.00000000000E+00 -0.00000000000E+00 -0.12971313338E+03  0.12971313338E+03  0.00000000000E+00 0. -1.
         23    2    1    2    0    0 -0.41023392726E+02  0.79211177849E+02  0.50754634805E+02  0.13706367786E+03  0.90846515549E+02 0.  0.
         23    2    1    2    0    0  0.14959579901E+02 -0.93359353664E+02  0.17858033612E+02  0.13324239716E+03  0.92167614105E+02 0.  0.
        -11    1    4    4    0    0 -0.63410601878E+01 -0.97012158394E+02 -0.10281699223E+02  0.97761348494E+02  0.00000000000E+00 0. -1.
         11    1    4    4    0    0  0.21300640089E+02  0.36528047297E+01  0.28139732835E+02  0.35481048668E+02  0.00000000000E+00 0.  1.
        -11    1    3    3    0    0 -0.66237655387E+02  0.37299863586E+02  0.43594717371E+02  0.87631080088E+02  0.00000000000E+00 0.  1.
         11    1    3    3    0    0  0.25214262662E+02  0.41911314263E+02  0.71599174344E+01  0.49432597772E+02  0.00000000000E+00 0. -1.
         21    1    1    2  502  501  0.26063812825E+02  0.14148175815E+02 -0.21249509522E+02  0.36483350625E+02  0.00000000000E+00 0. -1.
<scales pt_clust_5="13000.00000" pt_clust_6="13000.00000" pt_clust_7="13000.00000" pt_clust_8="13000.00000" pt_clust_9="29.65625"></scales>
<clustering>
<clus scale="   29.656">  2  9  1 -1</clus>
<clus scale="   90.847">  7  8 -1 -1</clus>
<clus scale="   92.168">  5  6 -1 -1</clus>
<clus scale="  128.123">  1  7  2 -1</clus>
<clus scale="   29.656">  2  5  1 -1</clus>
</clustering>
</event>
<event>
 9    1  0.7068579E-006  0.1569800E+03  0.7546771E-02  0.1193265E+00
         -2   -1    0    0    0  501 -0.00000000000E+00  0.00000000000E+00  0.21419069028E+03  0.21419069028E+03  0.00000000000E+00 0.  1.
          2   -1    0    0  502    0  0.00000000000E+00 -0.00000000000E+00 -0.49704798709E+03  0.49704798709E+03  0.00000000000E+00 0. -1.
         23    2    1    2    0    0 -0.36466477623E+02  0.11867787939E+03  0.13914654849E+03  0.20646120784E+03  0.88601497395E+02 0.  0.
         23    2    1    2    0    0  0.10929178448E+03 -0.10522829640E+03 -0.37896831307E+03  0.41912425223E+03  0.95028774468E+02 0.  0.
        -11    1    3    3    0    0 -0.54358187846E+01  0.11820511788E+03  0.91417528235E+02  0.14952980468E+03  0.00000000000E+00 0.  1.
         11    1    3    3    0    0 -0.31030658839E+02  0.47276150627E+00  0.47729020250E+02  0.56931403157E+02  0.00000000000E+00 0. -1.
        -13    1    4    4    0    0  0.42031245026E+01 -0.62045667676E+02 -0.17391257334E+03  0.18469681724E+03  0.00000000000E+00 0. -1.
         13    1    4    4    0    0  0.10508865997E+03 -0.43182628728E+02 -0.20505573973E+03  0.23442743499E+03  0.00000000000E+00 0.  1.
         21    1    1    2  502  501 -0.72825306854E+02 -0.13449582987E+02 -0.43035532223E+02  0.85653217305E+02  0.00000000000E+00 0. -1.
<scales pt_clust_5="13000.00000" pt_clust_6="13000.00000" pt_clust_7="13000.00000" pt_clust_8="13000.00000" pt_clust_9="74.05685"></scales>
<clustering>
<clus scale="   74.057">  2  9  1 -1</clus>
<clus scale="   88.601">  5  6 -1 -1</clus>
<clus scale="   95.029">  7  8 -1 -1</clus>
<clus scale="  153.175">  1  5  2 -1</clus>
<clus scale="   74.057">  2  5  1 -1</clus>
</clustering>
</event>
<event>
 9    1  0.6202448E-006  0.1673552E+03  0.7546771E-02  0.1204973E+00
         -1   -1    0    0    0  501 -0.00000000000E+00  0.00000000000E+00  0.48247113087E+03  0.48247113087E+03  0.00000000000E+00 0.  1.
          1   -1    0    0  502    0  0.00000000000E+00 -0.00000000000E+00 -0.18189364496E+03  0.18189364496E+03  0.00000000000E+00 0. -1.
         23    2    1    2    0    0 -0.13811045382E+02 -0.32441120231E+02  0.16221639884E+03  0.18951737129E+03  0.91430316150E+02 0.  0.
         23    2    1    2    0    0 -0.10983192078E+03 -0.45719264316E+02  0.25039771861E+03  0.29059530659E+03  0.87139616569E+02 0.  0.
        -11    1    4    4    0    0 -0.66024465114E+02 -0.51156683715E+02  0.22422462551E+03  0.23927582195E+03  0.00000000000E+00 0.  1.
         11    1    4    4    0    0 -0.43807455665E+02  0.54374193991E+01  0.26173093092E+02  0.51319484639E+02  0.00000000000E+00 0. -1.
        -13    1    3    3    0    0 -0.51011750171E+02 -0.48391918521E+01  0.76303797720E+02  0.91912382081E+02  0.00000000000E+00 0.  1.
         13    1    3    3    0    0  0.37200704790E+02 -0.27601928379E+02  0.85912601124E+02  0.97604989211E+02  0.00000000000E+00 0. -1.
         21    1    1    2  502  501  0.12364296616E+03  0.78160384547E+02 -0.11203663154E+03  0.18425209795E+03  0.00000000000E+00 0. -1.
<scales pt_clust_5="13000.00000" pt_clust_6="13000.00000" pt_clust_7="13000.00000" pt_clust_8="13000.00000" pt_clust_9="142.87913"></scales>
<clustering>
<clus scale="   87.140">  5  6 -1 -1</clus>
<clus scale="   91.430">  7  8 -1 -1</clus>
<clus scale="   97.993">  1  7  2 -1</clus>
<clus scale="  142.879">  2  9  1 -1</clus>
<clus scale="  142.879">  2  5  1 -1</clus>
</clustering>
</event>
<event>
 9    1  0.6202448E-006  0.9597882E+02  0.7546771E-02  0.1290847E+00
         -1   -1    0    0    0  501 -0.00000000000E+00  0.00000000000E+00  0.13481305568E+03  0.13481305568E+03  0.00000000000E+00 0.  1.
          1   -1    0    0  502    0  0.00000000000E+00 -0.00000000000E+00 -0.49634508553E+03  0.49634508553E+03  0.00000000000E+00 0. -1.
         23    2    1    2    0    0 -0.12836240249E+02  0.10024985228E+02  0.10742473090E+03  0.14206109856E+03  0.91520563386E+02 0.  0.
         23    2    1    2    0    0 -0.26531895161E+02 -0.32563666425E+01 -0.35029980346E+03  0.36389665208E+03  0.94848699009E+02 0.  0.
        -11    1    4    4    0    0  0.32927737714E+02  0.14979003321E+02 -0.13946472141E+03  0.14407989093E+03  0.00000000000E+00 0. -1.
         11    1    4    4    0    0 -0.59459632875E+02 -0.18235369964E+02 -0.21083508205E+03  0.21981676115E+03  0.00000000000E+00 0.  1.
        -13    1    3    3    0    0 -0.43986511889E+02 -0.89892688631E+01  0.92137643654E+02  0.10249373425E+03  0.00000000000E+00 0.  1.
         13    1    3    3    0    0  0.31150271640E+02  0.19014254091E+02  0.15287087250E+02  0.39567364311E+02  0.00000000000E+00 0. -1.
         21    1    1    2  502  501  0.39368135410E+02 -0.67686185856E+01 -0.11865695729E+03  0.12520039056E+03  0.00000000000E+00 0. -1.
<scales pt_clust_5="13000.00000" pt_clust_6="13000.00000" pt_clust_7="13000.00000" pt_clust_8="13000.00000" pt_clust_9="39.94577"></scales>
<clustering>
<clus scale="   39.946">  2  9  1 -1</clus>
<clus scale="   91.521">  7  8 -1 -1</clus>
<clus scale="   92.691">  1  7  2 -1</clus>
<clus scale="   94.849">  5  6 -1 -1</clus>
<clus scale="   39.946">  2  5  1 -1</clus>
</clustering>
</event>
<event>
 9    1  0.6202448E-006  0.9111321E+02  0.7546771E-02  0.1300381E+00
          1   -1    0    0  502    0  0.00000000000E+00  0.00000000000E+00  0.47797433183E+03  0.47797433183E+03  0.00000000000E+00 0. -1.
         -1   -1    0    0    0  501 -0.00000000000E+00 -0.00000000000E+00 -0.48259129394E+02  0.48259129394E+02  0.00000000000E+00 0.  1.
         23    2    1    2    0    0 -0.26890752566E+02  0.55184459071E+00  0.64208249587E+02  0.11438196821E+03  0.90758571116E+02 0.  0.
         23    2    1    2    0    0 -0.54904509440E+02  0.42280210685E+01  0.18123470521E+03  0.21018450699E+03  0.91099546021E+02 0.  0.
        -11    1    3    3    0    0 -0.49037113450E+02  0.29840092161E+02  0.33133633031E+02  0.66279010505E+02  0.00000000000E+00 0.  1.
         11    1    3    3    0    0  0.22146360883E+02 -0.29288247570E+02  0.31074616555E+02  0.48102957707E+02  0.00000000000E+00 0. -1.
        -11    1    4    4    0    0 -0.39038171017E+02 -0.24191084841E+02  0.28566793245E+02  0.54085571629E+02  0.00000000000E+00 0. -1.
         11    1    4    4    0    0 -0.15866338423E+02  0.28419105909E+02  0.15266791197E+03  0.15609893536E+03  0.00000000000E+00 0.  1.
         21    1    1    2  502  501  0.81795262007E+02 -0.47798656592E+01  0.18427224764E+03  0.20166698602E+03  0.00000000000E+00 0. -1.
<scales pt_clust_5="13000.00000" pt_clust_6="13000.00000" pt_clust_7="13000.00000" pt_clust_8="13000.00000" pt_clust_9="81.93480"></scales>
<clustering>
<clus scale="   81.935">  1  9  2 -1</clus>
<clus scale="   90.759">  5  6 -1 -1</clus>
<clus scale="   90.772">  2  5  1 -1</clus>
<clus scale="   91.100">  7  8 -1 -1</clus>
<clus scale="   81.935">  1  5  2 -1</clus>
</clustering>
</event>
<event>
 9    1  0.6202448E-006  0.9255090E+02  0.7546771E-02  0.1296968E+00
          1   -1    0    0  502    0  0.00000000000E+00  0.00000000000E+00  0.37600903144E+03  0.37600903144E+03  0.00000000000E+00 0. -1.
         -1   -1    0    0    0  501 -0.00000000000E+00 -0.00000000000E+00 -0.51204744767E+02  0.51204744767E+02  0.00000000000E+00 0.  1.
         23    2    1    2    0    0 -0.10212406293E+02  0.44182730082E+02  0.85712778546E+02  0.13219261718E+03  0.89843200912E+02 0.  0.
         23    2    1    2    0    0  0.28699812596E+02  0.26499991272E+02  0.11368410085E+03  0.14988381343E+03  0.89527392232E+02 0.  0.
        -11    1    4    4    0    0  0.55860098488E+02  0.27112050399E+02  0.46988415410E+02  0.77867355565E+02  0.00000000000E+00 0.  1.
         11    1    4    4    0    0 -0.27160285892E+02 -0.61205912658E+00  0.66695685444E+02  0.72016457862E+02  0.00000000000E+00 0. -1.
        -13    1    3    3    0    0  0.80736030066E+01  0.68008856873E+02  0.46420131659E+02  0.82735822362E+02  0.00000000000E+00 0.  1.
         13    1    3    3    0    0 -0.18286009300E+02 -0.23826126791E+02  0.39292646887E+02  0.49456794815E+02  0.00000000000E+00 0. -1.
         21    1    1    2  502  501 -0.18487406303E+02 -0.70682721355E+02  0.12540740727E+03  0.14513734560E+03  0.00000000000E+00 0.  1.
<scales pt_clust_5="13000.00000" pt_clust_6="13000.00000" pt_clust_7="13000.00000" pt_clust_8="13000.00000" pt_clust_9="73.06046"></scales>
<clustering>
<clus scale="   73.060">  1  9  2 -1</clus>
<clus scale="   89.527">  5  6 -1 -1</clus>
<clus scale="   89.843">  7  8 -1 -1</clus>
<clus scale="   92.244">  1  5  2 -1</clus>
<clus scale="   73.060">  1  5  2 -1</clus>
</clustering>
</event>
<event>
 9    1  0.6202448E-006  0.9724769E+02  0.7546771E-02  0.1286229E+00
         -1   -1    0    0    0  501 -0.00000000000E+00  0.00000000000E+00  0.21153520596E+03  0.21153520596E+03  0.00000000000E+00 0.  1.
          1   -1    0    0  502    0  0.00000000000E+00 -0.00000000000E+00 -0.17059519023E+03  0.17059519023E+03  0.00000000000E+00 0. -1.
         23    2    1    2    0    0 -0.42523655765E+00 -0.17406321741E+02  0.10522141692E+03  0.13997260047E+03  0.90651097292E+02 0.  0.
         23    2    1    2    0    0  0.25892082064E+02 -0.32992405363E+02 -0.12446728821E+03  0.15962941933E+03  0.90722361947E+02 0.  0.
        -11    1    4    4    0    0  0.38191647618E+02 -0.43230802283E+01 -0.82672749830E+01  0.39314613136E+02  0.00000000000E+00 0.  1.
         11    1    4    4    0    0 -0.12299565553E+02 -0.28669325135E+02 -0.11620001322E+03  0.12031480620E+03  0.00000000000E+00 0. -1.
        -11    1    3    3    0    0  0.42901645472E+02 -0.13079863300E+02  0.33162404324E+02  0.55779737080E+02  0.00000000000E+00 0. -1.
         11    1    3    3    0    0 -0.43326882030E+02 -0.43264584410E+01  0.72059012594E+02  0.84192863385E+02  0.00000000000E+00 0.  1.
         21    1    1    2  502  501 -0.25466845507E+02  0.50398727104E+02  0.60185887023E+02  0.82528376396E+02  0.00000000000E+00 0.  1.
<scales pt_clust_5="13000.00000" pt_clust_6="13000.00000" pt_clust_7="13000.00000" pt_clust_8="13000.00000" pt_clust_9="56.46762"></scales>
<clustering>
<clus scale="   56.468">  1  9  2 -1</clus>
<clus scale="   90.651">  7  8 -1 -1</clus>
<clus scale="   90.722">  5  6 -1 -1</clus>
<clus scale="   97.181">  1  7  2 -1</clus>
<clus scale="   97.248">  2  5  1 -1</clus>
</clustering>
</event>
<event>
 9    1  0.6202448E-006  0.1478735E+03  0.7546771E-02  0.1218037E+00
         -2   -1    0    0    0  501 -0.00000000000E+00  0.00000000000E+00  0.14027313658E+03  0.14027313658E+03  0.00000000000E+00 0.  1.
          2   -1    0    0  502    0  0.00000000000E+00 -0.00000000000E+00 -0.38353707801E+03  0.38353707801E+03  0.00000000000E+00 0. -1.
         23    2    1    2    0    0  0.63697763221E+02  0.71083427557E+02  0.64594783150E+01  0.13295433616E+03  0.92330233025E+02 0.  0.
         23    2    1    2    0    0  0.40116058589E+02  0.28763120241E+02 -0.21841193887E+03  0.24345488948E+03  0.95550473206E+02 0.  0.
        -11    1    3    3    0    0  0.49601772541E+02  0.32891070123E+01  0.32033948928E+02  0.59138210558E+02  0.00000000000E+00 0.  1.
         11    1    3    3    0    0  0.14095990681E+02  0.67794320544E+02 -0.25574470613E+02  0.73816125599E+02  0.00000000000E+00 0. -1.
        -13    1    4    4    0    0  0.26520779528E+02  0.60728071101E+02 -0.17925373609E+03  0.19111031440E+03  0.00000000000E+00 0. -1.
         13    1    4    4    0    0  0.13595279060E+02 -0.31964950859E+02 -0.39158202781E+02  0.52344575089E+02  0.00000000000E+00 0.  1.
         21    1    1    2  502  501 -0.10381382181E+03 -0.99846547798E+02 -0.31311480874E+02  0.14740098894E+03  0.00000000000E+00 0.  1.
<scales pt_clust_5="13000.00000" pt_clust_6="13000.00000" pt_clust_7="13000.00000" pt_clust_8="13000.00000" pt_clust_9="115.50627"></scales>
<clustering>
<clus scale="   92.330">  5  6 -1 -1</clus>
<clus scale="   95.550">  7  8 -1 -1</clus>
<clus scale="  107.548">  2  7  1 -1</clus>
<clus scale="  115.506">  2  9  1 -1</clus>
<clus scale="  107.548">  2  5  1 -1</clus>
</clustering>
</event>
<event>
 9    1  0.6202448E-006  0.1209319E+03  0.7546771E-02  0.1241896E+00
         -1   -1    0    0    0  501 -0.00000000000E+00  0.00000000000E+00  0.26072441925E+03  0.26072441925E+03  0.00000000000E+00 0.  1.
          1   -1    0    0  502    0  0.00000000000E+00 -0.00000000000E+00 -0.12417730500E+03  0.12417730500E+03  0.00000000000E+00 0. -1.
         23    2    1    2    0    0 -0.78840375331E+02 -0.40767009858E+02  0.18959355059E+03  0.22853061323E+03  0.91666639973E+02 0.  0.
         23    2    1    2    0    0  0.38296534162E+02  0.16648131662E+02 -0.39380713634E+02  0.10725619151E+03  0.90604995411E+02 0.  0.
        -11    1    4    4    0    0  0.23726572152E+02 -0.23512488533E+02  0.16223670813E+02  0.37134819748E+02  0.00000000000E+00 0.  1.
         11    1    4    4    0    0  0.14569962010E+02  0.40160620195E+02 -0.55604384447E+02  0.70121371758E+02  0.00000000000E+00 0. -1.
        -11    1    3    3    0    0 -0.38914525927E+02  0.23472974579E+02  0.38494565722E+02  0.59557975568E+02  0.00000000000E+00 0. -1.
         11    1    3    3    0    0 -0.39925849404E+02 -0.64239984436E+02  0.15109898487E+03  0.16897263766E+03  0.00000000000E+00 0.  1.
         21    1    1    2  502  501  0.40543841169E+02  0.24118878195E+02 -0.13665722700E+02  0.49114919516E+02  0.00000000000E+00 0. -1.
<scales pt_clust_5="13000.00000" pt_clust_6="13000.00000" pt_clust_7="13000.00000" pt_clust_8="13000.00000" pt_clust_9="47.17545"></scales>
<clustering>
<clus scale="   47.175">  2  9  1 -1</clus>
<clus scale="   90.605">  5  6 -1 -1</clus>
<clus scale="   91.667">  7  8 -1 -1</clus>
<clus scale="  120.129">  2  5  1 -1</clus>
<clus scale="   47.175">  2  5  1 -1</clus>
</clustering>
</event>
<event>
 9    1  0.6202448E-006  0.1954853E+03  0.7546771E-02  0.1178670E+00
         -2   -1    0    0    0  501 -0.00000000000E+00  0.00000000000E+00  0.13591984565E+03  0.13591984565E+03  0.00000000000E+00 0.  1.
          2   -1    0    0  502    0  0.00000000000E+00 -0.00000000000E+00 -0.71612719968E+03  0.71612719968E+03  0.00000000000E+00 0. -1.
         23    2    1    2    0    0  0.59181895152E+02  0.15733148414E+02  0.19762686391E+02  0.11151415906E+03  0.91075876195E+02 0.  0.
         23    2    1    2    0    0  0.45155981384E+02  0.13564593859E+03 -0.75682617901E+02  0.18494371983E+03  0.89651757046E+02 0.  0.
        -11    1    3    3    0    0  0.17098348470E+02 -0.35052780177E+02 -0.82365063821E+01  0.39860895072E+02  0.00000000000E+00 0. -1.
         11    1    3    3    0    0  0.42083546683E+02  0.50785928591E+02  0.27999192773E+02  0.71653263988E+02  0.00000000000E+00 0.  1.
        -11    1    4    4    0    0 -0.24720739841E+02  0.64207816621E+02 -0.32120269053E+02  0.75930694568E+02  0.00000000000E+00 0. -1.
         11    1    4    4    0    0  0.69876721225E+02  0.71438121967E+02 -0.43562348848E+02  0.10901302526E+03  0.00000000000E+00 0.  1.
         21    1    1    2  502  501 -0.10433787654E+03 -0.15137908700E+03 -0.52428742251E+03  0.55558916644E+03  0.00000000000E+00 0. -1.
<scales pt_clust_5="13000.00000" pt_clust_6="13000.00000" pt_clust_7="13000.00000" pt_clust_8="13000.00000" pt_clust_9="173.71551"></scales>
<clustering>
<clus scale="   89.652">  7  8 -1 -1</clus>
<clus scale="   91.076">  5  6 -1 -1</clus>
<clus scale="  109.749">  1  5  2 -1</clus>
<clus scale="  173.716">  2  9  1 -1</clus>
<clus scale="  173.716">  2  5  1 -1</clus>
</clustering>
</event>
<event>
 9    1  0.6202448E-006  0.1024392E+03  0.7546771E-02  0.1275557E+00
         -1   -1    0    0    0  501 -0.00000000000E+00  0.00000000000E+00  0.10824896816E+04  0.10824896816E+04  0.00000000000E+00 0.  1.
          1   -1    0    0  502    0  0.00000000000E+00 -0.00000000000E+00 -0.13325639538E+02  0.13325639538E+02  0.00000000000E+00 0. -1.
         23    2    1    2    0    0 -0.11747031993E+01 -0.53720843542E+02  0.56120575273E+03  0.57139388906E+03  0.93014894526E+02 0.  0.
         23    2    1    2    0    0  0.19800810411E+02  0.33030682289E+02  0.34969420095E+03  0.36372751086E+03  0.92350256718E+02 0.  0.
        -11    1    3    3    0    0 -0.46469002023E+02 -0.23653361822E+02  0.31198318436E+03  0.31631053887E+03  0.00000000000E+00 0. -1.
         11    1    3    3    0    0  0.45294298824E+02 -0.30067481720E+02  0.24922256837E+03  0.25508335019E+03  0.00000000000E+00 0.  1.
        -13    1    4    4    0    0  0.42253707250E+02 -0.79982504063E+01  0.88692057551E+02  0.98567889592E+02  0.00000000000E+00 0.  1.
         13    1    4    4    0    0 -0.22452896839E+02  0.41028932695E+02  0.26100214340E+03  0.26515962127E+03  0.00000000000E+00 0. -1.
         21    1    1    2  502  501 -0.18626107212E+02  0.20690161253E+02  0.15826408842E+03  0.16069392125E+03  0.00000000000E+00 0. -1.
<scales pt_clust_5="13000.00000" pt_clust_6="13000.00000" pt_clust_7="13000.00000" pt_clust_8="13000.00000" pt_clust_9="27.83908"></scales>
<clustering>
<clus scale="   27.839">  1  9  2 -1</clus>
<clus scale="   92.350">  7  8 -1 -1</clus>
<clus scale="   93.015">  5  6 -1 -1</clus>
<clus scale="  101.836">  2  7  1 -1</clus>
<clus scale="  101.836">  2  5  1 -1</clus>
</clustering>
</event>
<event>
 9    1  0.6202448E-006  0.1497160E+03  0.7546771E-02  0.1201316E+00
          3   -1    0    0  502    0  0.00000000000E+00  0.00000000000E+00  0.41786287457E+03  0.41786287457E+03  0.00000000000E+00 0. -1.
         -3   -1    0    0    0  501 -0.00000000000E+00 -0.00000000000E+00 -0.10001255265E+03  0.10001255265E+03  0.00000000000E+00 0.  1.
         23    2    1    2    0    0 -0.91042655766E+02 -0.13080386683E+03  0.15636256971E+03  0.24050249334E+03  0.89407937859E+02 0.  0.
         23    2    1    2    0    0  0.83406427785E+02  0.48070728362E+02  0.13628455742E+03  0.19054963513E+03  0.92023126093E+02 0.  0.
        -11    1    3    3    0    0 -0.37103854952E+02 -0.99542701783E+02  0.14055790478E+03  0.17618731545E+03  0.00000000000E+00 0. -1.
         11    1    3    3    0    0 -0.53938800814E+02 -0.31261165046E+02  0.15804664925E+02  0.64315177887E+02  0.00000000000E+00 0.  1.
        -13    1    4    4    0    0 -0.10729041358E+02  0.32878193126E+02  0.56383227742E+02  0.66144964149E+02  0.00000000000E+00 0.  1.
         13    1    4    4    0    0  0.94135469143E+02  0.15192535235E+02  0.79901329682E+02  0.12440467098E+03  0.00000000000E+00 0. -1.
         21    1    1    2  502  501  0.76362279809E+01  0.82733138467E+02  0.25203194783E+02  0.86823298749E+02  0.00000000000E+00 0.  1.
<scales pt_clust_5="13000.00000" pt_clust_6="13000.00000" pt_clust_7="13000.00000" pt_clust_8="13000.00000" pt_clust_9="83.08480"></scales>
<clustering>
<clus scale="   83.085">  2  9  1 -1</clus>
<clus scale="   89.408">  5  6 -1 -1</clus>
<clus scale="   92.023">  7  8 -1 -1</clus>
<clus scale="  148.123">  2  5  1 -1</clus>
<clus scale="  149.716">  1  5  2 -1</clus>
</clustering>
</event>
<event>
 9    1  0.6202448E-006  0.1149563E+03  0.7546771E-02  0.1251719E+00
         -1   -1    0    0    0  501 -0.00000000000E+00  0.00000000000E+00  0.11946610769E+03  0.11946610769E+03  0.00000000000E+00 0.  1.
          1   -1    0    0  502    0  0.00000000000E+00 -0.00000000000E+00 -0.81314728490E+03  0.81314728490E+03  0.00000000000E+00 0. -1.
         23    2    1    2    0    0 -0.58236634230E+02  0.95011930320E+02 -0.26076969656E+03  0.29749332346E+03  0.89903672809E+02 0.  0.
         23    2    1    2    0    0  0.74785936575E+02  0.16553711629E+02 -0.49328207836E+03  0.50719282051E+03  0.89723947032E+02 0.  0.
        -11    1    4    4    0    0  0.57171676519E+02 -0.30972431092E+02 -0.32512045551E+03  0.33155874694E+03  0.00000000000E+00 0.  1.
         11    1    4    4    0    0  0.17614260056E+02  0.47526142720E+02 -0.16816162285E+03  0.17563407357E+03  0.00000000000E+00 0. -1.
        -11    1    3    3    0    0 -0.35830908478E+02  0.10900926776E+03 -0.22926883022E+03  0.25638071489E+03  0.00000000000E+00 0. -1.
         11    1    3    3    0    0 -0.22405725752E+02 -0.13997337444E+02 -0.31500866349E+02  0.41112608562E+02  0.00000000000E+00 0.  1.
         21    1    1    2  502  501 -0.16549302344E+02 -0.11156564195E+03  0.60370597709E+02  0.12792724862E+03  0.00000000000E+00 0.  1.
<scales pt_clust_5="13000.00000" pt_clust_6="13000.00000" pt_clust_7="13000.00000" pt_clust_8="13000.00000" pt_clust_9="112.78640"></scales>
<clustering>
<clus scale="   89.724">  5  6 -1 -1</clus>
<clus scale="   89.904">  7  8 -1 -1</clus>
<clus scale="  112.786">  1  9  2 -1</clus>
<clus scale="  114.816">  2  5  1 -1</clus>
<clus scale="  114.816">  2  5  1 -1</clus>
</clustering>
</event>
<event>
 9    1  0.6202448E-006  0.1548469E+03  0.7546771E-02  0.1196612E+00
         -1   -1    0    0    0  501 -0.00000000000E+00  0.00000000000E+00  0.17206530003E+03  0.17206530003E+03  0.00000000000E+00 0.  1.
          1   -1    0    0  502    0  0.00000000000E+00 -0.00000000000E+00 -0.50923596489E+03  0.50923596489E+03  0.00000000000E+00 0. -1.
         23    2    1    2    0    0 -0.80823168592E+02 -0.95015591855E+02  0.58735879914E+02  0.16998701220E+03  0.99425014217E+02 0.  0.
         23    2    1    2    0    0  0.15011472450E+01  0.12637407380E+03 -0.61676882758E+02  0.16637251207E+03  0.88899465318E+02 0.  0.
        -13    1    4    4    0    0 -0.35251155785E+02  0.17505687220E+02 -0.19951572790E+02  0.44126616979E+02  0.00000000000E+00 0.  1.
         13    1    4    4    0    0  0.36752303030E+02  0.10886838658E+03 -0.41725309968E+02  0.12224589509E+03  0.00000000000E+00 0. -1.
        -13    1    3    3    0    0 -0.48460261154E+02 -0.62599674752E+02 -0.17474089125E+02  0.81070709759E+02  0.00000000000E+00 0. -1.
         13    1    3    3    0    0 -0.32362907438E+02 -0.32415917103E+02  0.76209969039E+02  0.88916302445E+02  0.00000000000E+00 0.  1.
         21    1    1    2  502  501  0.79322021347E+02 -0.31358481949E+02 -0.33422966202E+03  0.34494174064E+03  0.00000000000E+00 0. -1.
<scales pt_clust_5="13000.00000" pt_clust_6="13000.00000" pt_clust_7="13000.00000" pt_clust_8="13000.00000" pt_clust_9="85.29559"></scales>
<clustering>
<clus scale="   85.296">  2  9  1 -1</clus>
<clus scale="   88.899">  5  6 -1 -1</clus>
<clus scale="   99.425">  7  8 -1 -1</clus>
<clus scale="  148.308">  2  5  1 -1</clus>
<clus scale="   85.296">  2  5  1 -1</clus>
</clustering>
</event>
<event>
 9    1  0.6202448E-006  0.1790116E+03  0.7546771E-02  0.1168877E+00
         -2   -1    0    0    0  501 -0.00000000000E+00  0.00000000000E+00  0.23373205884E+03  0.23373205884E+03  0.00000000000E+00 0.  1.
          2   -1    0    0  502    0  0.00000000000E+00 -0.00000000000E+00 -0.87029935711E+03  0.87029935711E+03  0.00000000000E+00 0. -1.
         23    2    1    2    0    0  0.18519921812E+03  0.29271012948E+02  0.11236525492E+03  0.23689480434E+03  0.91310761790E+02 0.  0.
         23    2    1    2    0    0 -0.10723185538E+03  0.31687770399E+02 -0.37149020065E+02  0.14850549557E+03  0.90393843375E+02 0.  0.
        -11    1    4    4    0    0 -0.23983276376E+02  0.34880878407E+02 -0.48557490758E+02  0.64418189457E+02  0.00000000000E+00 0. -1.
         11    1    4    4    0    0 -0.83248579007E+02 -0.31931080084E+01  0.11408470692E+02  0.84087306110E+02  0.00000000000E+00 0.  1.
        -11    1    3    3    0    0  0.16369625426E+03 -0.36933993197E+01  0.67211346828E+02  0.17699567791E+03  0.00000000000E+00 0. -1.
         11    1    3    3    0    0  0.21502963863E+02  0.32964412268E+02  0.45153908093E+02  0.59899126431E+02  0.00000000000E+00 0.  1.
         21    1    1    2  502  501 -0.77967362738E+02 -0.60958783347E+02 -0.71178353312E+03  0.71863111604E+03  0.00000000000E+00 0.  1.
<scales pt_clust_5="13000.00000" pt_clust_6="13000.00000" pt_clust_7="13000.00000" pt_clust_8="13000.00000" pt_clust_9="98.96910"></scales>
<clustering>
<clus scale="   90.394">  5  6 -1 -1</clus>
<clus scale="   91.311">  7  8 -1 -1</clus>
<clus scale="   98.969">  2  9  1 -1</clus>
<clus scale="  178.546">  2  5  1 -1</clus>
<clus scale="   98.969">  2  5  1 -1</clus>
</clustering>
</event>
<event>
 9    1  0.6202448E-006  0.1051978E+03  0.7546771E-02  0.1270389E+00
          1   -1    0    0  502    0  0.00000000000E+00  0.00000000000E+00  0.42349844503E+03  0.42349844503E+03  0.00000000000E+00 0. -1.
         -1   -1    0    0    0  501 -0.00000000000E+00 -0.00000000000E+00 -0.57311836493E+02  0.57311836493E+02  0.00000000000E+00 0.  1.
         23    2    1    2    0    0  0.13227190190E+02  0.26101977393E+02  0.77443352256E+02  0.12344133934E+03  0.91564292517E+02 0.  0.
         23    2    1    2    0    0 -0.10597199603E+02 -0.10093710948E+03  0.18839670017E+03  0.23216253194E+03  0.90030683060E+02 0.  0.
        -11    1    3    3    0    0  0.29022080692E+02 -0.18810520839E+02  0.25268839245E+01  0.34677110669E+02  0.00000000000E+00 0.  1.
         11    1    3    3    0    0 -0.15794890503E+02  0.44912498232E+02  0.74916468332E+02  0.88764228667E+02  0.00000000000E+00 0. -1.
        -13    1    4    4    0    0  0.23573866685E+02 -0.92782608946E+02  0.10737922320E+03  0.14385630778E+03  0.00000000000E+00 0.  1.
         13    1    4    4    0    0 -0.34171066288E+02 -0.81545005292E+01  0.81017476977E+02  0.88306224163E+02  0.00000000000E+00 0. -1.
         21    1    1    2  502  501 -0.26299905865E+01  0.74835132082E+02  0.10034655610E+03  0.12520641024E+03  0.00000000000E+00 0. -1.
<scales pt_clust_5="13000.00000" pt_clust_6="13000.00000" pt_clust_7="13000.00000" pt_clust_8="13000.00000" pt_clust_9="74.88133"></scales>
<clustering>
<clus scale="   74.881">  1  9  2 -1</clus>
<clus scale="   90.031">  7  8 -1 -1</clus>
<clus scale="   91.564">  5  6 -1 -1</clus>
<clus scale="  103.866">  1  7  2 -1</clus>
<clus scale="   74.881">  1  5  2 -1</clus>
</clustering>
</event>
<event>
 9    1  0.6202448E-006  0.9913966E+02  0.7546771E-02  0.1282120E+00
          1   -1    0    0  502    0  0.00000000000E+00  0.00000000000E+00  0.91494222764E+03  0.91494222764E+03  0.00000000000E+00 0. -1.
         -1   -1    0    0    0  501 -0.00000000000E+00 -0.00000000000E+00 -0.20960578721E+02  0.20960578721E+02  0.00000000000E+00 0.  1.
         23    2    1    2    0    0  0.13733490391E+02  0.31157047982E+02  0.27092444921E+03  0.28813173460E+03  0.91980807270E+02 0.  0.
         23    2    1    2    0    0  0.49837882379E+02 -0.37862036009E+02  0.34663627519E+03  0.36405500981E+03  0.91989100416E+02 0.  0.
        -11    1    4    4    0    0  0.22130814600E+02 -0.65173183887E+02  0.17464340334E+03  0.18771690170E+03  0.00000000000E+00 0.  1.
         11    1    4    4    0    0  0.27707067779E+02  0.27311147878E+02  0.17199287185E+03  0.17633810811E+03  0.00000000000E+00 0. -1.
        -13    1    3    3    0    0 -0.27187422489E+02 -0.18222125760E+02  0.11409350437E+03  0.11869511173E+03  0.00000000000E+00 0.  1.
         13    1    3    3    0    0  0.40920912881E+02  0.49379173742E+02  0.15683094484E+03  0.16943662287E+03  0.00000000000E+00 0. -1.
         21    1    1    2  502  501 -0.63571372771E+02  0.67049880270E+01  0.27642092452E+03  0.28371606195E+03  0.00000000000E+00 0.  1.
<scales pt_clust_5="13000.00000" pt_clust_6="13000.00000" pt_clust_7="13000.00000" pt_clust_8="13000.00000" pt_clust_9="63.92399"></scales>
<clustering>
<clus scale="   63.924">  1  9  2 -1</clus>
<clus scale="   91.981">  7  8 -1 -1</clus>
<clus scale="   91.989">  5  6 -1 -1</clus>
<clus scale="   99.132">  2  7  1 -1</clus>
<clus scale="   63.924">  1  5  2 -1</clus>
</clustering>
</event>
<event>
 9    1  0.6202448E-006  0.1280028E+03  0.7546771E-02  0.1231170E+00
         -1   -1    0    0    0  501 -0.00000000000E+00  0.00000000000E+00  0.64845859590E+03  0.64845859590E+03  0.00000000000E+00 0.  1.
          1   -1    0    0  502    0  0.00000000000E+00 -0.00000000000E+00 -0.16877188883E+03  0.16877188883E+03  0.00000000000E+00 0. -1.
         23    2    1    2    0    0  0.87553349111E+02 -0.37593772590E+01  0.60957195317E+03  0.62307328325E+03  0.94671159002E+02 0.  0.
         23    2    1    2    0    0 -0.62317660698E+02 -0.94678248290E+01 -0.82208639578E+02  0.13861570659E+03  0.92102785795E+02 0.  0.
        -11    1    4    4    0    0 -0.81079043287E+01 -0.43931894087E+02 -0.19167814884E+02  0.48612288139E+02  0.00000000000E+00 0.  1.
         11    1    4    4    0    0 -0.54209756369E+02  0.34464069258E+02 -0.63040824693E+02  0.90003418454E+02  0.00000000000E+00 0. -1.
        -13    1    3    3    0    0  0.83708513372E+02 -0.39621228195E+02  0.41814523415E+03  0.42827840685E+03  0.00000000000E+00 0.  1.
         13    1    3    3    0    0  0.38448357389E+01  0.35861850936E+02  0.19142671902E+03  0.19479487640E+03  0.00000000000E+00 0. -1.
         21    1    1    2  502  501 -0.25235688413E+02  0.13227202088E+02 -0.47676606526E+02  0.55541494890E+02  0.00000000000E+00 0. -1.
<scales pt_clust_5="13000.00000" pt_clust_6="13000.00000" pt_clust_7="13000.00000" pt_clust_8="13000.00000" pt_clust_9="28.49208"></scales>
<clustering>
<clus scale="   28.492">  2  9  1 -1</clus>
<clus scale="   92.103">  5  6 -1 -1</clus>
<clus scale="   94.671">  7  8 -1 -1</clus>
<clus scale="  126.115">  2  5  1 -1</clus>
<clus scale="   28.492">  2  5  1 -1</clus>
</clustering>
</event>
<event>
 9    1  0.6202448E-006  0.1100084E+03  0.7546771E-02  0.1263706E+00
          1   -1    0    0  502    0  0.00000000000E+00  0.00000000000E+00  0.11598513411E+03  0.11598513411E+03  0.00000000000E+00 0. -1.
         -1   -1    0    0    0  501 -0.00000000000E+00 -0.00000000000E+00 -0.36393382086E+03  0.36393382086E+03  0.00000000000E+00 0.  1.
         23    2    1    2    0    0  0.23097443817E+02 -0.42395806672E+02 -0.59119738720E+02  0.11331071712E+03  0.83745320907E+02 0.  0.
         23    2    1    2    0    0 -0.11001943628E+01  0.67858690285E+02  0.50589743414E+02  0.12483655374E+03  0.91754186477E+02 0.  0.
        -11    1    3    3    0    0  0.43006656710E+02 -0.55527793446E+02 -0.54774026166E+02  0.89067964549E+02  0.00000000000E+00 0. -1.
         11    1    3    3    0    0 -0.19909212893E+02  0.13131986774E+02 -0.43457125540E+01  0.24242752572E+02  0.00000000000E+00 0.  1.
        -13    1    4    4    0    0 -0.26977985860E+02 -0.12292374474E+02  0.95631997951E+01  0.31150746084E+02  0.00000000000E+00 0.  1.
         13    1    4    4    0    0  0.25877791497E+02  0.80151064759E+02  0.41026543619E+02  0.93685807656E+02  0.00000000000E+00 0. -1.
         21    1    1    2  502  501 -0.21997249454E+02 -0.25462883613E+02 -0.23941869145E+03  0.24177168411E+03  0.00000000000E+00 0.  1.
<scales pt_clust_5="13000.00000" pt_clust_6="13000.00000" pt_clust_7="13000.00000" pt_clust_8="13000.00000" pt_clust_9="33.64874"></scales>
<clustering>
<clus scale="   33.649">  2  9  1 -1</clus>
<clus scale="   83.745">  5  6 -1 -1</clus>
<clus scale="   91.754">  7  8 -1 -1</clus>
<clus scale="  103.423">  2  5  1 -1</clus>
<clus scale="  110.008">  1  5  2 -1</clus>
</clustering>
</event>
<event>
 9    1  0.6202448E-006  0.9755523E+02  0.7546771E-02  0.1287505E+00
          1   -1    0    0  502    0  0.00000000000E+00  0.00000000000E+00  0.44493982206E+03  0.44493982206E+03  0.00000000000E+00 0. -1.
         -1   -1    0    0    0  501 -0.00000000000E+00 -0.00000000000E+00 -0.32543640036E+02  0.32543640036E+02  0.00000000000E+00 0.  1.
         23    2    1    2    0    0  0.17498759462E+01  0.31514070152E+02  0.14008884958E+03  0.16755389649E+03  0.86332055277E+02 0.  0.
         23    2    1    2    0    0 -0.24198565457E+02 -0.35333602423E+02  0.26897744077E+03  0.28691607682E+03  0.90210517479E+02 0.  0.
        -13    1    4    4    0    0 -0.35475979004E+02  0.20796661427E+02  0.13741734887E+03  0.14343839787E+03  0.00000000000E+00 0. -1.
         13    1    4    4    0    0  0.11277413546E+02 -0.56130263850E+02  0.13156009190E+03  0.14347767895E+03  0.00000000000E+00 0.  1.
        -13    1    3    3    0    0 -0.35269684468E+02 -0.79227633360E+01  0.40975414378E+02  0.54641608732E+02  0.00000000000E+00 0.  1.
         13    1    3    3    0    0  0.37019560414E+02  0.39436833488E+02  0.99113435202E+02  0.11291228776E+03  0.00000000000E+00 0. -1.
         21    1    1    2  502  501  0.22448689511E+02  0.38195322712E+01  0.33298916707E+01  0.23013488785E+02  0.00000000000E+00 0.  1.
<scales pt_clust_5="13000.00000" pt_clust_6="13000.00000" pt_clust_7="13000.00000" pt_clust_8="13000.00000" pt_clust_9="22.77131"></scales>
<clustering>
<clus scale="   22.771">  2  9  1 -1</clus>
<clus scale="   86.332">  7  8 -1 -1</clus>
<clus scale="   90.211">  5  6 -1 -1</clus>
<clus scale="   93.980">  2  7  1 -1</clus>
<clus scale="   97.555">  1  5  2 -1</clus>
</clustering>
</event>
<event>
 9    1  0.6202448E-006  0.1237297E+03  0.7546771E-02  0.1237416E+00
         -1   -1    0    0    0  501 -0.00000000000E+00  0.00000000000E+00  0.87896309760E+03  0.87896309760E+03  0.00000000000E+00 0.  1.
          1   -1    0    0  502    0  0.00000000000E+00 -0.00000000000E+00 -0.56238990674E+02  0.56238990674E+02  0.00000000000E+00 0. -1.
         23    2    1    2    0    0 -0.20558839255E+00 -0.36335992779E+02  0.21322322713E+03  0.23427574081E+03  0.90003508310E+02 0.  0.
         23    2    1    2    0    0  0.14348627164E+02  0.10722444543E+03  0.72317058501E+02  0.15890083503E+03  0.91196236896E+02 0.  0.
        -11    1    4    4    0    0  0.81660610015E+01  0.19183128048E+02  0.67349840963E+02  0.70503035620E+02  0.00000000000E+00 0.  1.
         11    1    4    4    0    0  0.61825661630E+01  0.88041317379E+02  0.49672175379E+01  0.88397799408E+02  0.00000000000E+00 0. -1.
        -11    1    3    3    0    0 -0.44278558588E+02 -0.90160564964E+01  0.10171355672E+03  0.11129927064E+03  0.00000000000E+00 0.  1.
         11    1    3    3    0    0  0.44072970195E+02 -0.27319936283E+02  0.11150967041E+03  0.12297647017E+03  0.00000000000E+00 0. -1.
         21    1    1    2  502  501 -0.14143038772E+02 -0.70888452648E+02  0.53718382130E+03  0.54202551243E+03  0.00000000000E+00 0.  1.
<scales pt_clust_5="13000.00000" pt_clust_6="13000.00000" pt_clust_7="13000.00000" pt_clust_8="13000.00000" pt_clust_9="72.28553"></scales>
<clustering>
<clus scale="   72.286">  1  9  2 -1</clus>
<clus scale="   90.004">  7  8 -1 -1</clus>
<clus scale="   91.196">  5  6 -1 -1</clus>
<clus scale="  122.853">  1  7  2 -1</clus>
<clus scale="  123.730">  2  5  1 -1</clus>
</clustering>
</event>
<event>
 9    1  0.6202448E-006  0.2229555E+03  0.7546771E-02  0.1148794E+00
          2   -1    0    0  502    0  0.00000000000E+00  0.00000000000E+00  0.11357706506E+04  0.11357706506E+04  0.00000000000E+00 0. -1.
         -2   -1    0    0    0  501 -0.00000000000E+00 -0.00000000000E+00 -0.12590659049E+03  0.12590659049E+03  0.00000000000E+00 0.  1.
         23    2    1    2    0    0  0.11705148767E+03  0.42679300053E+01  0.72363537608E+02  0.16441971019E+03  0.89878215005E+02 0.  0.
         23    2    1    2    0    0  0.75611123333E+02  0.10129559895E+03  0.25045025362E+02  0.15872805636E+03  0.92679567564E+02 0.  0.
        -13    1    3    3    0    0  0.30020292530E+02 -0.39429083985E+02  0.32066900346E+02  0.59026745847E+02  0.00000000000E+00 0.  1.
         13    1    3    3    0    0  0.87031195140E+02  0.43697013990E+02  0.40296637262E+02  0.10539296435E+03  0.00000000000E+00 0. -1.
        -13    1    4    4    0    0 -0.10002022264E+02  0.28882162104E+02  0.34628779968E+02  0.46188441620E+02  0.00000000000E+00 0. -1.
         13    1    4    4    0    0  0.85613145597E+02  0.72413436843E+02 -0.95837546061E+01  0.11253961474E+03  0.00000000000E+00 0.  1.
         21    1    1    2  502  501 -0.19266261100E+03 -0.10556352895E+03  0.91245549713E+03  0.93852947453E+03  0.00000000000E+00 0. -1.
<scales pt_clust_5="13000.00000" pt_clust_6="13000.00000" pt_clust_7="13000.00000" pt_clust_8="13000.00000" pt_clust_9="202.77986"></scales>
<clustering>
<clus scale="   89.878">  5  6 -1 -1</clus>
<clus scale="   92.680">  7  8 -1 -1</clus>
<clus scale="  147.639">  2  5  1 -1</clus>
<clus scale="  202.780">  1  9  2 -1</clus>
<clus scale="  202.780">  1  5  2 -1</clus>
</clustering>
</event>
<event>
 9    1  0.6202448E-006  0.9249467E+02  0.7546771E-02  0.1297088E+00
         -1   -1    0    0    0  501 -0.00000000000E+00  0.00000000000E+00  0.12606293589E+03  0.12606293589E+03  0.00000000000E+00 0.  1.
          1   -1    0    0  502    0  0.00000000000E+00 -0.00000000000E+00 -0.20748081550E+03  0.20748081550E+03  0.00000000000E+00 0. -1.
         23    2    1    2    0    0 -0.15067514590E+02  0.36068167390E+02  0.16061799409E+02  0.10078985170E+03  0.91502295663E+02 0.  0.
         23    2    1    2    0    0  0.68697081320E+01  0.45434080510E+02  0.35226026644E+01  0.10271051713E+03  0.91791029181E+02 0.  0.
        -11    1    3    3    0    0  0.29448810897E+02  0.24456529850E+02  0.34205206822E+02  0.51335664886E+02  0.00000000000E+00 0. -1.
         11    1    3    3    0    0 -0.44516325488E+02  0.11611637540E+02 -0.18143407413E+02  0.49454186818E+02  0.00000000000E+00 0.  1.
        -13    1    4    4    0    0  0.31429765969E+02 -0.16432518448E+02 -0.41422370518E+01  0.35707365895E+02  0.00000000000E+00 0. -1.
         13    1    4    4    0    0 -0.24560057837E+02  0.61866598958E+02  0.76648397162E+01  0.67003151235E+02  0.00000000000E+00 0.  1.
         21    1    1    2  502  501  0.81978064583E+01 -0.81502247899E+02 -0.10100228168E+03  0.13004338256E+03  0.00000000000E+00 0. -1.
<scales pt_clust_5="13000.00000" pt_clust_6="13000.00000" pt_clust_7="13000.00000" pt_clust_8="13000.00000" pt_clust_9="81.91349"></scales>
<clustering>
<clus scale="   81.913">  2  9  1 -1</clus>
<clus scale="   91.502">  5  6 -1 -1</clus>
<clus scale="   91.791">  7  8 -1 -1</clus>
<clus scale="   92.208">  1  5  2 -1</clus>
<clus scale="   81.913">  2  5  1 -1</clus>
</clustering>
</event>
<event>
 9    1  0.6202448E-006  0.9337931E+02  0.7546771E-02  0.1295368E+00
          1   -1    0    0  502    0  0.00000000000E+00  0.00000000000E+00  0.79010967327E+03  0.79010967327E+03  0.00000000000E+00 0. -1.
         -1   -1    0    0    0  501 -0.00000000000E+00 -0.00000000000E+00 -0.28183506057E+02  0.28183506057E+02  0.00000000000E+00 0.  1.
         23    2    1    2    0    0 -0.14550488417E+02 -0.92523467776E+00  0.87229373094E+02  0.12713666148E+03  0.91335614025E+02 0.  0.
         23    2    1    2    0    0  0.34671431401E+02  0.39493628706E+02  0.52224863009E+03  0.53262318987E+03  0.90454275138E+02 0.  0.
        -11    1    3    3    0    0 -0.40093839315E+02  0.29540589324E+02  0.32411608607E+02  0.59419481158E+02  0.00000000000E+00 0.  1.
         11    1    3    3    0    0  0.25543350898E+02 -0.30465824002E+02  0.54817764487E+02  0.67717180321E+02  0.00000000000E+00 0. -1.
        -13    1    4    4    0    0 -0.16551229852E+02  0.49699316023E+02  0.26226959099E+03  0.26744962811E+03  0.00000000000E+00 0.  1.
         13    1    4    4    0    0  0.51222661253E+02 -0.10205687317E+02  0.25997903911E+03  0.26517356176E+03  0.00000000000E+00 0. -1.
         21    1    1    2  502  501 -0.20120942984E+02 -0.38568394028E+02  0.15244816403E+03  0.15853332798E+03  0.00000000000E+00 0.  1.
<scales pt_clust_5="13000.00000" pt_clust_6="13000.00000" pt_clust_7="13000.00000" pt_clust_8="13000.00000" pt_clust_9="43.50142"></scales>
<clustering>
<clus scale="   43.501">  1  9  2 -1</clus>
<clus scale="   90.454">  7  8 -1 -1</clus>
<clus scale="   91.336">  5  6 -1 -1</clus>
<clus scale="   92.517">  1  7  2 -1</clus>
<clus scale="   43.501">  1  5  2 -1</clus>
</clustering>
</event>
<event>
 9    1  0.6202448E-006  0.1416902E+03  0.7546771E-02  0.1211915E+00
         -1   -1    0    0    0  501 -0.00000000000E+00  0.00000000000E+00  0.90379995256E+03  0.90379995256E+03  0.00000000000E+00 0.  1.
          1   -1    0    0  502    0  0.00000000000E+00 -0.00000000000E+00 -0.45483059357E+02  0.45483059357E+02  0.00000000000E+00 0. -1.
         23    2    1    2    0    0 -0.42879876990E+02 -0.76026292347E+02  0.35466323073E+03  0.37568903060E+03  0.87963398634E+02 0.  0.
         23    2    1    2    0    0  0.37441554488E+02  0.13019687775E+03  0.49117821447E+03  0.51774002463E+03  0.91899933373E+02 0.  0.
        -11    1    3    3    0    0  0.98773772446E+01 -0.64497880947E+02  0.24368329962E+03  0.25226789280E+03  0.00000000000E+00 0.  1.
         11    1    3    3    0    0 -0.52757254234E+02 -0.11528411400E+02  0.11097993111E+03  0.12342113779E+03  0.00000000000E+00 0. -1.
        -13    1    4    4    0    0 -0.95946997919E+01  0.23719823784E+02  0.20226244498E+02  0.32615782544E+02  0.00000000000E+00 0. -1.
         13    1    4    4    0    0  0.47036254280E+02  0.10647705397E+03  0.47095196998E+03  0.48512424209E+03  0.00000000000E+00 0.  1.
         21    1    1    2  502  501  0.54383225018E+01 -0.54170585404E+02  0.12475447996E+02  0.55853956685E+02  0.00000000000E+00 0. -1.
<scales pt_clust_5="13000.00000" pt_clust_6="13000.00000" pt_clust_7="13000.00000" pt_clust_8="13000.00000" pt_clust_9="54.44288"></scales>
<clustering>
<clus scale="   54.443">  2  9  1 -1</clus>
<clus scale="   87.963">  5  6 -1 -1</clus>
<clus scale="   91.900">  7  8 -1 -1</clus>
<clus scale="  139.169">  1  5  2 -1</clus>
<clus scale="   54.443">  2  5  1 -1</clus>
</clustering>
</event>
<event>
 9    1  0.6202448E-006  0.9128290E+02  0.7546771E-02  0.1301176E+00
          3   -1    0    0  502    0  0.00000000000E+00  0.00000000000E+00  0.34238185535E+02  0.34238185535E+02  0.00000000000E+00 0. -1.
         -3   -1    0    0    0  501 -0.00000000000E+00 -0.00000000000E+00 -0.53226154800E+03  0.53226154800E+03  0.00000000000E+00 0.  1.
         23    2    1    2    0    0  0.32855422513E+02 -0.19136184302E+02 -0.17907366814E+03  0.20350497370E+03  0.88888825845E+02 0.  0.
         23    2    1    2    0    0  0.32455410437E+02 -0.11903199899E+02 -0.14658569868E+03  0.17607687609E+03  0.91217648511E+02 0.  0.
        -11    1    3    3    0    0 -0.30398712452E+02 -0.12087231896E+02 -0.68822093106E+02  0.76201465820E+02  0.00000000000E+00 0. -1.
         11    1    3    3    0    0  0.63254134965E+02 -0.70489524058E+01 -0.11025157503E+03  0.12730350788E+03  0.00000000000E+00 0.  1.
        -11    1    4    4    0    0  0.47877623798E+02 -0.31288708869E+02 -0.13878096370E+03  0.15010465032E+03  0.00000000000E+00 0.  1.
         11    1    4    4    0    0 -0.15422213361E+02  0.19385508970E+02 -0.78047349833E+01  0.25972225764E+02  0.00000000000E+00 0. -1.
         21    1    1    2  502  501 -0.65310832950E+02  0.31039384200E+02 -0.17236399564E+03  0.18691788375E+03  0.00000000000E+00 0. -1.
<scales pt_clust_5="13000.00000" pt_clust_6="13000.00000" pt_clust_7="13000.00000" pt_clust_8="13000.00000" pt_clust_9="72.31147"></scales>
<clustering>
<clus scale="   72.311">  2  9  1 -1</clus>
<clus scale="   88.889">  5  6 -1 -1</clus>
<clus scale="   88.956">  2  5  1 -1</clus>
<clus scale="   91.218">  7  8 -1 -1</clus>
<clus scale="   91.283">  1  5  2 -1</clus>
</clustering>
</event>
<event>
 9    1  0.6202448E-006  0.9747476E+02  0.7546771E-02  0.1298762E+00
          2   -1    0    0  502    0  0.00000000000E+00  0.00000000000E+00  0.21506562074E+03  0.21506562074E+03  0.00000000000E+00 0. -1.
         -2   -1    0    0    0  501 -0.00000000000E+00 -0.00000000000E+00 -0.55094134595E+02  0.55094134595E+02  0.00000000000E+00 0.  1.
         23    2    1    2    0    0 -0.51409941958E+00 -0.19815835849E+02  0.40647259699E+02  0.84568317825E+02  0.71460961441E+02 0.  0.
         23    2    1    2    0    0  0.18567945389E+02  0.33239641131E+02  0.50177397310E+02  0.11287676305E+03  0.93668298248E+02 0.  0.
        -13    1    4    4    0    0 -0.72025785595E+01  0.61671074760E+02  0.24735472997E+02  0.66835935128E+02  0.00000000000E+00 0.  1.
         13    1    4    4    0    0  0.25770523948E+02 -0.28431433629E+02  0.25441924312E+02  0.46040827919E+02  0.00000000000E+00 0. -1.
        -13    1    3    3    0    0 -0.23851059829E+02 -0.30756756373E+02  0.43808700274E+02  0.58600796388E+02  0.00000000000E+00 0. -1.
         13    1    3    3    0    0  0.23336960409E+02  0.10940920524E+02 -0.31614405750E+01  0.25967521437E+02  0.00000000000E+00 0.  1.
         21    1    1    2  502  501 -0.18053845969E+02 -0.13423805282E+02  0.69146829133E+02  0.72714674459E+02  0.00000000000E+00 0. -1.
<scales pt_clust_5="13000.00000" pt_clust_6="13000.00000" pt_clust_7="13000.00000" pt_clust_8="13000.00000" pt_clust_9="22.49755"></scales>
<clustering>
<clus scale="   22.498">  1  9  2 -1</clus>
<clus scale="   71.461">  7  8 -1 -1</clus>
<clus scale="   76.382">  2  7  1 -1</clus>
<clus scale="   93.668">  5  6 -1 -1</clus>
<clus scale="   22.498">  1  5  2 -1</clus>
</clustering>
</event>
<event>
 9    1  0.6202448E-006  0.3068836E+03  0.7546771E-02  0.1139718E+00
         -1   -1    0    0    0  501 -0.00000000000E+00  0.00000000000E+00  0.15661546278E+03  0.15661546278E+03  0.00000000000E+00 0.  1.
          1   -1    0    0  502    0  0.00000000000E+00 -0.00000000000E+00 -0.89227212005E+03  0.89227212005E+03  0.00000000000E+00 0. -1.
         23    2    1    2    0    0 -0.24005857318E+03  0.17420829298E+03 -0.45761526625E+03  0.55305132724E+03  0.92072747078E+02 0.  0.
         23    2    1    2    0    0 -0.18155735217E+00 -0.96612244482E+01 -0.17218329629E+03  0.18600243836E+03  0.69688215173E+02 0.  0.
        -11    1    3    3    0    0 -0.17075363253E+03  0.10367876958E+03 -0.22850650155E+03  0.30351492803E+03  0.00000000000E+00 0.  1.
         11    1    3    3    0    0 -0.69304940647E+02  0.70529523402E+02 -0.22910876470E+03  0.24953639921E+03  0.00000000000E+00 0. -1.
        -11    1    4    4    0    0  0.34177197625E+02 -0.66702050576E+01 -0.70529702514E+02  0.78657557867E+02  0.00000000000E+00 0.  1.
         11    1    4    4    0    0 -0.34358754977E+02 -0.29910193906E+01 -0.10165359377E+03  0.10734488049E+03  0.00000000000E+00 0. -1.
         21    1    1    2  502  501  0.24024013053E+03 -0.16454706853E+03 -0.10585809474E+03  0.30983381723E+03  0.00000000000E+00 0. -1.
<scales pt_clust_5="13000.00000" pt_clust_6="13000.00000" pt_clust_7="13000.00000" pt_clust_8="13000.00000" pt_clust_9="292.74592"></scales>
<clustering>
<clus scale="   69.688">  7  8 -1 -1</clus>
<clus scale="   70.355">  2  7  1 -1</clus>
<clus scale="   92.073">  5  6 -1 -1</clus>
<clus scale="  292.746">  1  9  2 -1</clus>
<clus scale="   70.355">  2  5  1 -1</clus>
</clustering>
</event>
<event>
 9    1  0.6202448E-006  0.1013360E+03  0.7546771E-02  0.1280313E+00
         -1   -1    0    0    0  501 -0.00000000000E+00  0.00000000000E+00  0.43651276920E+03  0.43651276920E+03  0.00000000000E+00 0.  1.
          1   -1    0    0  502    0  0.00000000000E+00 -0.00000000000E+00 -0.12400980630E+03  0.12400980630E+03  0.00000000000E+00 0. -1.
         23    2    1    2    0    0 -0.73202757980E+02 -0.68340233165E+01  0.13475421719E+03  0.18090918761E+03  0.95729240363E+02 0.  0.
         23    2    1    2    0    0  0.29987330169E+01  0.34552104287E+02 -0.70871728232E+02  0.11978837525E+03  0.90131086048E+02 0.  0.
        -11    1    4    4    0    0  0.82877258822E+01  0.55337818528E+02 -0.79036609709E+02  0.96838764109E+02  0.00000000000E+00 0. -1.
         11    1    4    4    0    0 -0.52889928654E+01 -0.20785714241E+02  0.81648814771E+01  0.22949611142E+02  0.00000000000E+00 0.  1.
        -13    1    3    3    0    0  0.23031622835E+02 -0.82184234913E+01  0.28004466676E+02  0.37178599878E+02  0.00000000000E+00 0.  1.
         13    1    3    3    0    0 -0.96234380815E+02  0.13844001748E+01  0.10674975052E+03  0.14373058773E+03  0.00000000000E+00 0. -1.
         21    1    1    2  502  501  0.70204024963E+02 -0.27718080970E+02  0.24862047393E+03  0.25982501264E+03  0.00000000000E+00 0.  1.
<scales pt_clust_5="13000.00000" pt_clust_6="13000.00000" pt_clust_7="13000.00000" pt_clust_8="13000.00000" pt_clust_9="75.47779"></scales>
<clustering>
<clus scale="   75.478">  1  9  2 -1</clus>
<clus scale="   90.131">  5  6 -1 -1</clus>
<clus scale="   95.729">  7  8 -1 -1</clus>
<clus scale="   96.065">  2  5  1 -1</clus>
<clus scale="   96.065">  2  5  1 -1</clus>
</clustering>
</event>
<event>
 9    1  0.6202448E-006  0.1158281E+03  0.7546771E-02  0.1250340E+00
          1   -1    0    0  502    0  0.00000000000E+00  0.00000000000E+00  0.47469108758E+03  0.47469108758E+03  0.00000000000E+00 0. -1.
         -1   -1    0    0    0  501 -0.00000000000E+00 -0.00000000000E+00 -0.20605844576E+03  0.20605844576E+03  0.00000000000E+00 0.  1.
         23    2    1    2    0    0 -0.56269993825E+02 -0.57941932641E+02 -0.10478681283E+03  0.15999439477E+03  0.89968608148E+02 0.  0.
         23    2    1    2    0    0  0.74068618035E+01  0.67726156562E+02 -0.27615476422E+02  0.11663590782E+03  0.90551789442E+02 0.  0.
        -11    1    4    4    0    0 -0.30314642102E+02 -0.19683229201E+01 -0.21370530304E+02  0.37142312614E+02  0.00000000000E+00 0. -1.
         11    1    4    4    0    0  0.37721503905E+02  0.69694479482E+02 -0.62449461181E+01  0.79493595208E+02  0.00000000000E+00 0.  1.
        -13    1    3    3    0    0 -0.11790698659E+02 -0.57711032690E+02 -0.16555766678E+02  0.61185596993E+02  0.00000000000E+00 0.  1.
         13    1    3    3    0    0 -0.44479295166E+02 -0.23089995064E+00 -0.88231046157E+02  0.98808797782E+02  0.00000000000E+00 0. -1.
         21    1    1    2  502  501  0.48863132021E+02 -0.97842239211E+01  0.40103493108E+03  0.40411923074E+03  0.00000000000E+00 0. -1.
<scales pt_clust_5="13000.00000" pt_clust_6="13000.00000" pt_clust_7="13000.00000" pt_clust_8="13000.00000" pt_clust_9="49.83309"></scales>
<clustering>
<clus scale="   49.833">  1  9  2 -1</clus>
<clus scale="   89.969">  7  8 -1 -1</clus>
<clus scale="   90.552">  5  6 -1 -1</clus>
<clus scale="  115.373">  2  7  1 -1</clus>
<clus scale="   49.833">  1  5  2 -1</clus>
</clustering>
</event>
<event>
 9    1  0.6202448E-006  0.1241723E+03  0.7546771E-02  0.1236571E+00
          1   -1    0    0  502    0  0.00000000000E+00  0.00000000000E+00  0.29548430485E+03  0.29548430485E+03  0.00000000000E+00 0. -1.
         -1   -1    0    0    0  501 -0.00000000000E+00 -0.00000000000E+00 -0.10215499636E+03  0.10215499636E+03  0.00000000000E+00 0.  1.
         23    2    1    2    0    0  0.27850153032E+02 -0.65755509740E+02  0.25077394276E+02  0.11775012086E+03  0.90204197093E+02 0.  0.
         23    2    1    2    0    0 -0.14993130749E+02  0.10323653347E+03  0.36364018021E+02  0.14217735326E+03  0.89495710282E+02 0.  0.
        -11    1    4    4    0    0 -0.41211108442E+02  0.21404403072E+02 -0.51909339683E+01  0.46727398016E+02  0.00000000000E+00 0.  1.
         11    1    4    4    0    0  0.26217977694E+02  0.81832130401E+02  0.41554951990E+02  0.95449955239E+02  0.00000000000E+00 0. -1.
        -13    1    3    3    0    0 -0.27630925641E+02 -0.13535050388E+02 -0.11988561829E+02  0.33021072901E+02  0.00000000000E+00 0.  1.
         13    1    3    3    0    0  0.55481078673E+02 -0.52220459352E+02  0.37065956105E+02  0.84729047957E+02  0.00000000000E+00 0. -1.
         21    1    1    2  502  501 -0.12857022283E+02 -0.37481023733E+02  0.13188789619E+03  0.13771182710E+03  0.00000000000E+00 0. -1.
<scales pt_clust_5="13000.00000" pt_clust_6="13000.00000" pt_clust_7="13000.00000" pt_clust_8="13000.00000" pt_clust_9="39.62487"></scales>
<clustering>
<clus scale="   39.625">  1  9  2 -1</clus>
<clus scale="   89.496">  5  6 -1 -1</clus>
<clus scale="   90.204">  7  8 -1 -1</clus>
<clus scale="  123.659">  1  5  2 -1</clus>
<clus scale="   39.625">  1  5  2 -1</clus>
</clustering>
</event>
<event>
 9    1  0.6202448E-006  0.1058819E+03  0.7546771E-02  0.1269423E+00
         -1   -1    0    0    0  501 -0.00000000000E+00  0.00000000000E+00  0.22921700890E+02  0.22921700890E+02  0.00000000000E+00 0.  1.
          1   -1    0    0  502    0  0.00000000000E+00 -0.00000000000E+00 -0.10143587199E+04  0.10143587199E+04  0.00000000000E+00 0. -1.
         23    2    1    2    0    0  0.12166137402E+02 -0.19077529143E+02 -0.29331166845E+03  0.30893670847E+03  0.94330207110E+02 0.  0.
         23    2    1    2    0    0  0.46242402576E+02  0.67327082823E+02 -0.52755685553E+03  0.54170719802E+03  0.91973673911E+02 0.  0.
        -11    1    3    3    0    0 -0.27585519808E+02 -0.36617854184E+02 -0.21032498644E+03  0.21526362459E+03  0.00000000000E+00 0. -1.
         11    1    3    3    0    0  0.39751657210E+02  0.17540325041E+02 -0.82986682009E+02  0.93673083884E+02  0.00000000000E+00 0.  1.
        -11    1    4    4    0    0  0.54497439891E+01 -0.21359551548E+02 -0.56630818509E+02  0.60769891861E+02  0.00000000000E+00 0. -1.
         11    1    4    4    0    0  0.40792658586E+02  0.88686634371E+02 -0.47092603702E+03  0.48093730616E+03  0.00000000000E+00 0.  1.
         21    1    1    2  502  501 -0.58408539978E+02 -0.48249553680E+02 -0.17056849499E+03  0.18663651427E+03  0.00000000000E+00 0.  1.
<scales pt_clust_5="13000.00000" pt_clust_6="13000.00000" pt_clust_7="13000.00000" pt_clust_8="13000.00000" pt_clust_9="75.76000"></scales>
<clustering>
<clus scale="   75.760">  1  9  2 -1</clus>
<clus scale="   91.974">  7  8 -1 -1</clus>
<clus scale="   94.330">  5  6 -1 -1</clus>
<clus scale="  103.788">  2  7  1 -1</clus>
<clus scale="  103.788">  2  5  1 -1</clus>
</clustering>
</event>
<event>
 9    1  0.6202448E-006  0.9419629E+02  0.7546771E-02  0.1294092E+00
          1   -1    0    0  502    0  0.00000000000E+00  0.00000000000E+00  0.12481120043E+03  0.12481120043E+03  0.00000000000E+00 0. -1.
         -1   -1    0    0    0  501 -0.00000000000E+00 -0.00000000000E+00 -0.16797995076E+03  0.16797995076E+03  0.00000000000E+00 0.  1.
         23    2    1    2    0    0  0.20282396649E+02 -0.54442664819E+02 -0.13212101203E+02  0.10841644156E+03  0.90576960737E+02 0.  0.
         23    2    1    2    0    0 -0.86884242084E+01 -0.13437461162E+02  0.23981077213E+02  0.96902371008E+02  0.92514449493E+02 0.  0.
        -11    1    4    4    0    0 -0.60446156202E+01  0.27487499400E+02  0.43241974741E+02  0.51594266937E+02  0.00000000000E+00 0. -1.
         11    1    4    4    0    0 -0.26438085882E+01 -0.40924960562E+02 -0.19260897528E+02  0.45308104071E+02  0.00000000000E+00 0.  1.
        -11    1    3    3    0    0  0.16658173986E+02  0.21303589361E+02 -0.17913213642E+02  0.32437954670E+02  0.00000000000E+00 0. -1.
         11    1    3    3    0    0  0.36242226634E+01 -0.75746254180E+02  0.47011124388E+01  0.75978486892E+02  0.00000000000E+00 0.  1.
         21    1    1    2  502  501 -0.11593972441E+02  0.67880125981E+02 -0.53937726348E+02  0.87472338621E+02  0.00000000000E+00 0. -1.
<scales pt_clust_5="13000.00000" pt_clust_6="13000.00000" pt_clust_7="13000.00000" pt_clust_8="13000.00000" pt_clust_9="68.86314"></scales>
<clustering>
<clus scale="   68.863">  2  9  1 -1</clus>
<clus scale="   90.577">  7  8 -1 -1</clus>
<clus scale="   92.294">  2  7  1 -1</clus>
<clus scale="   92.514">  5  6 -1 -1</clus>
<clus scale="   94.196">  1  5  2 -1</clus>
</clustering>
</event>
<event>
 9    1  0.6202448E-006  0.1313911E+03  0.7546771E-02  0.1225678E+00
         -1   -1    0    0    0  501 -0.00000000000E+00  0.00000000000E+00  0.35606732734E+02  0.35606732734E+02  0.00000000000E+00 0.  1.
          1   -1    0    0  502    0  0.00000000000E+00 -0.00000000000E+00 -0.13420351566E+04  0.13420351566E+04  0.00000000000E+00 0. -1.
         23    2    1    2    0    0  0.84221419935E+02 -0.22863251283E+02 -0.18066831633E+03  0.22047948127E+03  0.91401232482E+02 0.  0.
         23    2    1    2    0    0 -0.86477988658E+02  0.11712235617E+03 -0.79325792456E+03  0.81155052656E+03  0.90332903419E+02 0.  0.
        -11    1    4    4    0    0 -0.83197366529E+02  0.37541141559E+02 -0.39540595372E+03  0.40580414900E+03  0.00000000000E+00 0. -1.
         11    1    4    4    0    0 -0.32806221290E+01  0.79581214614E+02 -0.39785197084E+03  0.40574637756E+03  0.00000000000E+00 0.  1.
        -13    1    3    3    0    0  0.54485733538E+02  0.44142584646E+01 -0.25811691519E+02  0.60451834183E+02  0.00000000000E+00 0.  1.
         13    1    3    3    0    0  0.29735686397E+02 -0.27277509748E+02 -0.15485662481E+03  0.16002764708E+03  0.00000000000E+00 0. -1.
         21    1    1    2  502  501  0.22565687237E+01 -0.94259104889E+02 -0.33250218297E+03  0.34561188151E+03  0.00000000000E+00 0. -1.
<scales pt_clust_5="13000.00000" pt_clust_6="13000.00000" pt_clust_7="13000.00000" pt_clust_8="13000.00000" pt_clust_9="94.28611"></scales>
<clustering>
<clus scale="   90.333">  5  6 -1 -1</clus>
<clus scale="   91.401">  7  8 -1 -1</clus>
<clus scale="   94.286">  2  9  1 -1</clus>
<clus scale="  130.650">  2  5  1 -1</clus>
<clus scale="   94.286">  2  5  1 -1</clus>
</clustering>
</event>
<event>
 9    1  0.6202448E-006  0.9260599E+02  0.7546771E-02  0.1302083E+00
         -2   -1    0    0    0  501 -0.00000000000E+00  0.00000000000E+00  0.22020639987E+02  0.22020639987E+02  0.00000000000E+00 0.  1.
          2   -1    0    0  502    0  0.00000000000E+00 -0.00000000000E+00 -0.89815060093E+03  0.89815060093E+03  0.00000000000E+00 0. -1.
         23    2    1    2    0    0 -0.18212997169E+02  0.36775798107E+02 -0.22769543729E+03  0.24551867843E+03  0.82158606972E+02 0.  0.
         23    2    1    2    0    0 -0.39869279125E+02  0.20832538188E+02 -0.41626269191E+03  0.42848995225E+03  0.91134276935E+02 0.  0.
        -11    1    4    4    0    0 -0.90481436921E+00 -0.33786771633E+02 -0.11606726417E+03  0.12088827254E+03  0.00000000000E+00 0.  1.
         11    1    4    4    0    0 -0.38964464756E+02  0.54619309820E+02 -0.30019542774E+03  0.30760167971E+03  0.00000000000E+00 0. -1.
        -13    1    3    3    0    0  0.26774216537E+02  0.17183217858E+02 -0.15212027193E+03  0.15541138561E+03  0.00000000000E+00 0.  1.
         13    1    3    3    0    0 -0.44987213706E+02  0.19592580249E+02 -0.75575165366E+02  0.90107292812E+02  0.00000000000E+00 0. -1.
         21    1    1    2  502  501  0.58082276294E+02 -0.57608336295E+02 -0.23217183174E+03  0.24616261025E+03  0.00000000000E+00 0.  1.
<scales pt_clust_5="13000.00000" pt_clust_6="13000.00000" pt_clust_7="13000.00000" pt_clust_8="13000.00000" pt_clust_9="81.80630"></scales>
<clustering>
<clus scale="   81.806">  1  9  2 -1</clus>
<clus scale="   82.159">  7  8 -1 -1</clus>
<clus scale="   83.788">  1  7  2 -1</clus>
<clus scale="   91.134">  5  6 -1 -1</clus>
<clus scale="   92.606">  2  5  1 -1</clus>
</clustering>
</event>
<event>
 9    1  0.6202448E-006  0.9130985E+02  0.7546771E-02  0.1303718E+00
          2   -1    0    0  502    0  0.00000000000E+00  0.00000000000E+00  0.16987988115E+02  0.16987988115E+02  0.00000000000E+00 0. -1.
         -2   -1    0    0    0  501 -0.00000000000E+00 -0.00000000000E+00 -0.94378409038E+03  0.94378409038E+03  0.00000000000E+00 0.  1.
         23    2    1    2    0    0 -0.20794892925E+02 -0.25019447613E+02 -0.37932467911E+03  0.39003456006E+03  0.84742819931E+02 0.  0.
         23    2    1    2    0    0 -0.15901014974E+02 -0.24230814338E+02 -0.26761650349E+03  0.28422232857E+03  0.91234667092E+02 0.  0.
        -11    1    4    4    0    0  0.32116905712E+02 -0.10314155299E+02 -0.46035380567E+02  0.57071303612E+02  0.00000000000E+00 0. -1.
         11    1    4    4    0    0 -0.48017920686E+02 -0.13916659039E+02 -0.22158112292E+03  0.22715102496E+03  0.00000000000E+00 0.  1.
        -13    1    3    3    0    0 -0.30492402642E+02  0.24728860183E+02 -0.19209446903E+03  0.19606526509E+03  0.00000000000E+00 0.  1.
         13    1    3    3    0    0  0.96975097167E+01 -0.49748307796E+02 -0.18723021008E+03  0.19396929497E+03  0.00000000000E+00 0. -1.
         21    1    1    2  502  501  0.36695907900E+02  0.49250261951E+02 -0.27985491967E+03  0.28651518987E+03  0.00000000000E+00 0.  1.
<scales pt_clust_5="13000.00000" pt_clust_6="13000.00000" pt_clust_7="13000.00000" pt_clust_8="13000.00000" pt_clust_9="61.41806"></scales>
<clustering>
<clus scale="   61.418">  2  9  1 -1</clus>
<clus scale="   84.743">  7  8 -1 -1</clus>
<clus scale="   84.824">  2  7  1 -1</clus>
<clus scale="   91.235">  5  6 -1 -1</clus>
<clus scale="   91.310">  1  5  2 -1</clus>
</clustering>
</event>
<event>
 9    1  0.6202448E-006  0.1647501E+03  0.7546771E-02  0.1208774E+00
         -2   -1    0    0    0  501 -0.00000000000E+00  0.00000000000E+00  0.13791147208E+03  0.13791147208E+03  0.00000000000E+00 0.  1.
          2   -1    0    0  502    0  0.00000000000E+00 -0.00000000000E+00 -0.54082150615E+03  0.54082150615E+03  0.00000000000E+00 0. -1.
         23    2    1    2    0    0  0.19967523953E+02 -0.28277223726E+02  0.70660702991E+02  0.11813027037E+03  0.88110853115E+02 0.  0.
         23    2    1    2    0    0 -0.23495328617E+02 -0.11727130937E+03 -0.23827068485E+03  0.28390262570E+03  0.97586839014E+02 0.  0.
        -11    1    3    3    0    0 -0.24329564922E+02 -0.15004987923E+02  0.65667114472E+02  0.71618763707E+02  0.00000000000E+00 0. -1.
         11    1    3    3    0    0  0.44297088875E+02 -0.13272235804E+02  0.49935885191E+01  0.46511506666E+02  0.00000000000E+00 0.  1.
        -11    1    4    4    0    0  0.14060337986E+02 -0.40244830049E+02 -0.15741887984E+02  0.45443882836E+02  0.00000000000E+00 0.  1.
         11    1    4    4    0    0 -0.37555666602E+02 -0.77026479325E+02 -0.22252879687E+03  0.23845874286E+03  0.00000000000E+00 0. -1.
         21    1    1    2  502  501  0.35278046639E+01  0.14554853310E+03 -0.23530005221E+03  0.27670008215E+03  0.00000000000E+00 0. -1.
<scales pt_clust_5="13000.00000" pt_clust_6="13000.00000" pt_clust_7="13000.00000" pt_clust_8="13000.00000" pt_clust_9="132.73811"></scales>
<clustering>
<clus scale="   88.111">  5  6 -1 -1</clus>
<clus scale="   94.667">  1  5  2 -1</clus>
<clus scale="   97.587">  7  8 -1 -1</clus>
<clus scale="  132.738">  1  9  2 -1</clus>
<clus scale="  164.750">  2  5  1 -1</clus>
</clustering>
</event>
<event>
 9    1  0.6202448E-006  0.1059901E+03  0.7546771E-02  0.1268505E+00
         -2   -1    0    0    0  501 -0.00000000000E+00  0.00000000000E+00  0.28336501105E+03  0.28336501105E+03  0.00000000000E+00 0.  1.
          2   -1    0    0  502    0  0.00000000000E+00 -0.00000000000E+00 -0.88691503335E+02  0.88691503335E+02  0.00000000000E+00 0. -1.
         23    2    1    2    0    0  0.20652362013E+01  0.45066045304E+02  0.10458901075E+03  0.14679700772E+03  0.92602843727E+02 0.  0.
         23    2    1    2    0    0 -0.37621824197E+02 -0.40240331990E+02 -0.19333400714E+02  0.11010815065E+03  0.93355977217E+02 0.  0.
        -11    1    3    3    0    0 -0.37395491599E+02  0.12340774887E+02  0.12352039697E+02  0.41270938945E+02  0.00000000000E+00 0. -1.
         11    1    3    3    0    0  0.39460727801E+02  0.32725270417E+02  0.92236971050E+02  0.10552606877E+03  0.00000000000E+00 0.  1.
        -13    1    4    4    0    0 -0.37913060771E+01 -0.33342541128E+02  0.33225461052E+02  0.47223196766E+02  0.00000000000E+00 0.  1.
         13    1    4    4    0    0 -0.33830518120E+02 -0.68977908615E+01 -0.52558861766E+02  0.62884953886E+02  0.00000000000E+00 0. -1.
         21    1    1    2  502  501  0.35556587996E+02 -0.48257133144E+01  0.10941789768E+03  0.11515135601E+03  0.00000000000E+00 0.  1.
<scales pt_clust_5="13000.00000" pt_clust_6="13000.00000" pt_clust_7="13000.00000" pt_clust_8="13000.00000" pt_clust_9="35.88256"></scales>
<clustering>
<clus scale="   35.883">  1  9  2 -1</clus>
<clus scale="   92.603">  5  6 -1 -1</clus>
<clus scale="   93.356">  7  8 -1 -1</clus>
<clus scale="  105.327">  1  5  2 -1</clus>
<clus scale="  105.990">  2  5  1 -1</clus>
</clustering>
</event>
<event>
 9    1  0.6202448E-006  0.1005946E+03  0.7546771E-02  0.1279352E+00
         -1   -1    0    0    0  501 -0.00000000000E+00  0.00000000000E+00  0.14860447912E+03  0.14860447912E+03  0.00000000000E+00 0.  1.
          1   -1    0    0  502    0  0.00000000000E+00 -0.00000000000E+00 -0.16738587581E+03  0.16738587581E+03  0.00000000000E+00 0. -1.
         23    2    1    2    0    0 -0.50658504030E+02 -0.16150865223E-01  0.80316090787E+02  0.13153109256E+03  0.91013568102E+02 0.  0.
         23    2    1    2    0    0  0.13557786742E+02  0.39647106083E+02 -0.50916604945E+02  0.11187501287E+03  0.90375943936E+02 0.  0.
        -11    1    4    4    0    0 -0.19295785035E+02 -0.12849178407E+02  0.97801113755E+01  0.25161066837E+02  0.00000000000E+00 0.  1.
         11    1    4    4    0    0  0.32853571777E+02  0.52496284491E+02 -0.60696716320E+02  0.86713946029E+02  0.00000000000E+00 0. -1.
        -11    1    3    3    0    0 -0.15563233128E+02 -0.44223298643E+02  0.28220593670E+02  0.54720346082E+02  0.00000000000E+00 0.  1.
         11    1    3    3    0    0 -0.35095270903E+02  0.44207147777E+02  0.52095497117E+02  0.76810746476E+02  0.00000000000E+00 0. -1.
         21    1    1    2  502  501  0.37100717288E+02 -0.39630955218E+02 -0.48180882531E+02  0.72584249505E+02  0.00000000000E+00 0. -1.
<scales pt_clust_5="13000.00000" pt_clust_6="13000.00000" pt_clust_7="13000.00000" pt_clust_8="13000.00000" pt_clust_9="54.28698"></scales>
<clustering>
<clus scale="   54.287">  2  9  1 -1</clus>
<clus scale="   90.376">  5  6 -1 -1</clus>
<clus scale="   91.014">  7  8 -1 -1</clus>
<clus scale="  100.018">  2  5  1 -1</clus>
<clus scale="   54.287">  2  5  1 -1</clus>
</clustering>
</event>
<event>
 9    1  0.6202448E-006  0.1413104E+03  0.7546771E-02  0.1246178E+00
         -1   -1    0    0    0  501 -0.00000000000E+00  0.00000000000E+00  0.33249501942E+02  0.33249501942E+02  0.00000000000E+00 0.  1.
          1   -1    0    0  502    0  0.00000000000E+00 -0.00000000000E+00 -0.13003908050E+04  0.13003908050E+04  0.00000000000E+00 0. -1.
         23    2    1    2    0    0  0.24539277895E+02 -0.11575876124E+02 -0.53059329547E+02  0.87090457197E+02  0.63508095666E+02 0.  0.
         23    2    1    2    0    0 -0.34443934448E+02  0.11669283886E+03 -0.44092216783E+03  0.46621417634E+03  0.90220268610E+02 0.  0.
        -11    1    4    4    0    0  0.16819546777E+02  0.86346641633E+02 -0.20890840686E+03  0.22667457319E+03  0.00000000000E+00 0.  1.
         11    1    4    4    0    0 -0.51263481225E+02  0.30346197231E+02 -0.23201376097E+03  0.23953960314E+03  0.00000000000E+00 0. -1.
        -13    1    3    3    0    0  0.22780504869E+02  0.24016024048E+02 -0.29772753247E+02  0.44521204488E+02  0.00000000000E+00 0.  1.
         13    1    3    3    0    0  0.17587730263E+01 -0.35591900172E+02 -0.23286576300E+02  0.42569252709E+02  0.00000000000E+00 0. -1.
         21    1    1    2  502  501  0.99046565533E+01 -0.10511696274E+03 -0.77315980568E+03  0.78033567341E+03  0.00000000000E+00 0. -1.
<scales pt_clust_5="13000.00000" pt_clust_6="13000.00000" pt_clust_7="13000.00000" pt_clust_8="13000.00000" pt_clust_9="108.76095"></scales>
<clustering>
<clus scale="   63.508">  7  8 -1 -1</clus>
<clus scale="   69.061">  1  7  2 -1</clus>
<clus scale="   90.220">  5  6 -1 -1</clus>
<clus scale="  108.761">  2  9  1 -1</clus>
<clus scale="  108.761">  2  5  1 -1</clus>
</clustering>
</event>
<event>
 9    1  0.6202448E-006  0.1720706E+03  0.7546771E-02  0.1185844E+00
          2   -1    0    0  502    0  0.00000000000E+00  0.00000000000E+00  0.37493933694E+03  0.37493933694E+03  0.00000000000E+00 0. -1.
         -2   -1    0    0    0  501 -0.00000000000E+00 -0.00000000000E+00 -0.15385706426E+03  0.15385706426E+03  0.00000000000E+00 0.  1.
         23    2    1    2    0    0  0.43687552764E+02  0.16080428866E+03  0.43386904311E+02  0.19261930321E+03  0.86331633752E+02 0.  0.
         23    2    1    2    0    0 -0.98979190164E+02 -0.24433014649E+02  0.10096486882E+03  0.17021969651E+03  0.91580500398E+02 0.  0.
        -11    1    3    3    0    0 -0.52409337552E+01  0.46702950277E+02  0.49581708662E+02  0.68315289541E+02  0.00000000000E+00 0. -1.
         11    1    3    3    0    0  0.48928486519E+02  0.11410133839E+03 -0.61948043509E+01  0.12430401367E+03  0.00000000000E+00 0.  1.
        -13    1    4    4    0    0 -0.18697035462E+02  0.27857442844E+02  0.38034669437E+01  0.33765109472E+02  0.00000000000E+00 0.  1.
         13    1    4    4    0    0 -0.80282154702E+02 -0.52290457493E+02  0.97161401880E+02  0.13645458704E+03  0.00000000000E+00 0. -1.
         21    1    1    2  502  501  0.55291637400E+02 -0.13637127401E+03  0.76730499549E+02  0.16595740147E+03  0.00000000000E+00 0. -1.
<scales pt_clust_5="13000.00000" pt_clust_6="13000.00000" pt_clust_7="13000.00000" pt_clust_8="13000.00000" pt_clust_9="148.84609"></scales>
<clustering>
<clus scale="   86.332">  5  6 -1 -1</clus>
<clus scale="   91.581">  7  8 -1 -1</clus>
<clus scale="  137.043">  1  7  2 -1</clus>
<clus scale="  148.846">  1  9  2 -1</clus>
<clus scale="  137.043">  1  5  2 -1</clus>
</clustering>
</event>
<event>
 9    1  0.6202448E-006  0.2260467E+03  0.7546771E-02  0.1156882E+00
         -2   -1    0    0    0  501 -0.00000000000E+00  0.00000000000E+00  0.17044754795E+03  0.17044754795E+03  0.00000000000E+00 0.  1.
          2   -1    0    0  502    0  0.00000000000E+00 -0.00000000000E+00 -0.72419275415E+03  0.72419275415E+03  0.00000000000E+00 0. -1.
         23    2    1    2    0    0 -0.21162794884E+03  0.29771030061E+02  0.22025193740E+02  0.23499611766E+03  0.95212200864E+02 0.  0.
         23    2    1    2    0    0  0.36291100900E+02  0.31577428662E+02 -0.33934616561E+03  0.35897316454E+03  0.10673206988E+03 0.  0.
        -13    1    4    4    0    0  0.52741753109E+02 -0.99342043880E+01 -0.83505222605E+02  0.99264813202E+02  0.00000000000E+00 0.  1.
         13    1    4    4    0    0 -0.16450652209E+02  0.41511633050E+02 -0.25584094300E+03  0.25970835133E+03  0.00000000000E+00 0. -1.
        -13    1    3    3    0    0 -0.12849613374E+03 -0.19346874397E+02  0.41665340830E+02  0.13646083160E+03  0.00000000000E+00 0.  1.
         13    1    3    3    0    0 -0.83131815106E+02  0.49117904459E+02 -0.19640147090E+02  0.98535286060E+02  0.00000000000E+00 0. -1.
         21    1    1    2  502  501  0.17533684794E+03 -0.61348458723E+02 -0.23642423433E+03  0.30067101991E+03  0.00000000000E+00 0.  1.
<scales pt_clust_5="13000.00000" pt_clust_6="13000.00000" pt_clust_7="13000.00000" pt_clust_8="13000.00000" pt_clust_9="205.01645"></scales>
<clustering>
<clus scale="   95.212">  7  8 -1 -1</clus>
<clus scale="  106.732">  5  6 -1 -1</clus>
<clus scale="  117.072">  2  5  1 -1</clus>
<clus scale="  205.016">  2  9  1 -1</clus>
<clus scale="  117.072">  2  5  1 -1</clus>
</clustering>
</event>
<event>
 9    1  0.6202448E-006  0.2182676E+03  0.7546771E-02  0.1135323E+00
         -3   -1    0    0    0  501 -0.00000000000E+00  0.00000000000E+00  0.47033187719E+03  0.47033187719E+03  0.00000000000E+00 0.  1.
          3   -1    0    0  502    0  0.00000000000E+00 -0.00000000000E+00 -0.38841582461E+03  0.38841582461E+03  0.00000000000E+00 0. -1.
         23    2    1    2    0    0 -0.14673483077E+03 -0.11359503404E+03  0.28029321478E+03  0.34782207917E+03  0.89336275875E+02 0.  0.
         23    2    1    2    0    0  0.22509823564E+03  0.21423507251E+03 -0.20487570907E+03  0.38320925062E+03  0.91155864398E+02 0.  0.
        -11    1    4    4    0    0  0.16121167131E+03  0.13503707501E+03 -0.87244102383E+02  0.22767465382E+03  0.00000000000E+00 0.  1.
         11    1    4    4    0    0  0.63886564336E+02  0.79197997500E+02 -0.11763160668E+03  0.15553459680E+03  0.00000000000E+00 0. -1.
        -13    1    3    3    0    0 -0.82876063608E+02 -0.21323210686E+02  0.74671050968E+02  0.11357326748E+03  0.00000000000E+00 0. -1.
         13    1    3    3    0    0 -0.63858767167E+02 -0.92271823356E+02  0.20562216381E+03  0.23424881170E+03  0.00000000000E+00 0.  1.
         21    1    1    2  502  501 -0.78363404867E+02 -0.10064003847E+03  0.64985468684E+01  0.12771637200E+03  0.00000000000E+00 0. -1.
<scales pt_clust_5="13000.00000" pt_clust_6="13000.00000" pt_clust_7="13000.00000" pt_clust_8="13000.00000" pt_clust_9="127.55093"></scales>
<clustering>
<clus scale="   89.336">  7  8 -1 -1</clus>
<clus scale="   91.156">  5  6 -1 -1</clus>
<clus scale="  127.551">  2  9  1 -1</clus>
<clus scale="  217.514">  1  7  2 -1</clus>
<clus scale="  127.551">  2  5  1 -1</clus>
</clustering>
</event>
<event>
 9    1  0.6202448E-006  0.9316125E+02  0.7546771E-02  0.1301771E+00
         -1   -1    0    0    0  501 -0.00000000000E+00  0.00000000000E+00  0.19994388332E+03  0.19994388332E+03  0.00000000000E+00 0.  1.
          1   -1    0    0  502    0  0.00000000000E+00 -0.00000000000E+00 -0.67292232355E+02  0.67292232355E+02  0.00000000000E+00 0. -1.
         23    2    1    2    0    0  0.15000235239E+02 -0.85149056512E+01  0.71941956493E+02  0.10887681704E+03  0.79881196216E+02 0.  0.
         23    2    1    2    0    0  0.10675095144E+02  0.40051087283E+02  0.62569233177E+02  0.11765043932E+03  0.90601709053E+02 0.  0.
        -11    1    3    3    0    0  0.57548705153E+01 -0.34458167922E+02  0.35109173296E+01  0.35111400025E+02  0.00000000000E+00 0.  1.
         11    1    3    3    0    0  0.92453647236E+01  0.25943262271E+02  0.68431039163E+02  0.73765417013E+02  0.00000000000E+00 0. -1.
        -11    1    4    4    0    0 -0.25522602340E+02 -0.15910977291E+01 -0.91527096374E+01  0.27160760591E+02  0.00000000000E+00 0. -1.
         11    1    4    4    0    0  0.36197697484E+02  0.41642185012E+02  0.71721942815E+02  0.90489678731E+02  0.00000000000E+00 0.  1.
         21    1    1    2  502  501 -0.25675330383E+02 -0.31536181631E+02 -0.18595387102E+01  0.40708859311E+02  0.00000000000E+00 0.  1.
<scales pt_clust_5="13000.00000" pt_clust_6="13000.00000" pt_clust_7="13000.00000" pt_clust_8="13000.00000" pt_clust_9="40.66637"></scales>
<clustering>
<clus scale="   40.666">  2  9  1 -1</clus>
<clus scale="   79.881">  5  6 -1 -1</clus>
<clus scale="   82.773">  1  5  2 -1</clus>
<clus scale="   90.602">  7  8 -1 -1</clus>
<clus scale="   40.666">  2  5  1 -1</clus>
</clustering>
</event>
<event>
 9    1  0.6202448E-006  0.1580249E+03  0.7546771E-02  0.1191438E+00
         -1   -1    0    0    0  501 -0.00000000000E+00  0.00000000000E+00  0.26603824550E+03  0.26603824550E+03  0.00000000000E+00 0.  1.
          1   -1    0    0  502    0  0.00000000000E+00 -0.00000000000E+00 -0.19487606115E+03  0.19487606115E+03  0.00000000000E+00 0. -1.
         23    2    1    2    0    0 -0.34113493440E+02  0.88698471024E+02  0.82052906897E+01  0.13267167832E+03  0.92213330033E+02 0.  0.
         23    2    1    2    0    0  0.60516631883E+02 -0.14851601438E+03 -0.56523079102E+02  0.19204157069E+03  0.89251538597E+02 0.  0.
        -11    1    3    3    0    0  0.17554150129E+02  0.75841164865E+02  0.14065823746E+02  0.79106749854E+02  0.00000000000E+00 0.  1.
         11    1    3    3    0    0 -0.51667643569E+02  0.12857306159E+02 -0.58605330565E+01  0.53564928464E+02  0.00000000000E+00 0. -1.
        -13    1    4    4    0    0  0.23251152873E+02 -0.11419513340E+03 -0.74463727398E+02  0.13829675087E+03  0.00000000000E+00 0. -1.
         13    1    4    4    0    0  0.37265479010E+02 -0.34320880977E+02  0.17940648296E+02  0.53744819826E+02  0.00000000000E+00 0.  1.
         21    1    1    2  502  501 -0.26403138443E+02  0.59817543352E+02  0.11947997276E+03  0.13620105765E+03  0.00000000000E+00 0.  1.
<scales pt_clust_5="13000.00000" pt_clust_6="13000.00000" pt_clust_7="13000.00000" pt_clust_8="13000.00000" pt_clust_9="65.38550"></scales>
<clustering>
<clus scale="   65.386">  1  9  2 -1</clus>
<clus scale="   89.252">  7  8 -1 -1</clus>
<clus scale="   92.213">  5  6 -1 -1</clus>
<clus scale="  156.315">  2  7  1 -1</clus>
<clus scale="  156.315">  2  5  1 -1</clus>
</clustering>
</event>
<event>
 9    1  0.6202448E-006  0.1519539E+03  0.7546771E-02  0.1215611E+00
          1   -1    0    0  502    0  0.00000000000E+00  0.00000000000E+00  0.17380249809E+03  0.17380249809E+03  0.00000000000E+00 0. -1.
         -1   -1    0    0    0  501 -0.00000000000E+00 -0.00000000000E+00 -0.22091022836E+03  0.22091022836E+03  0.00000000000E+00 0.  1.
         23    2    1    2    0    0 -0.47046643098E+02  0.12768383863E+02 -0.14053641376E+02  0.10526401905E+03  0.92231180283E+02 0.  0.
         23    2    1    2    0    0  0.58471831647E+02 -0.12105256825E+03  0.28054925054E+02  0.16458754006E+03  0.90715490116E+02 0.  0.
        -11    1    4    4    0    0  0.80318049202E+02 -0.11158353459E+03  0.17683502403E+02  0.13861666738E+03  0.00000000000E+00 0.  1.
         11    1    4    4    0    0 -0.21846217555E+02 -0.94690336683E+01  0.10371422651E+02  0.25970872683E+02  0.00000000000E+00 0. -1.
        -13    1    3    3    0    0 -0.54042277004E+02  0.39012558123E+02 -0.30726906772E+02  0.73394074658E+02  0.00000000000E+00 0. -1.
         13    1    3    3    0    0  0.69956339062E+01 -0.26244174260E+02  0.16673265395E+02  0.31869944388E+02  0.00000000000E+00 0.  1.
         21    1    1    2  502  501 -0.11425188549E+02  0.10828418439E+03 -0.61109013952E+02  0.12486116734E+03  0.00000000000E+00 0. -1.
<scales pt_clust_5="13000.00000" pt_clust_6="13000.00000" pt_clust_7="13000.00000" pt_clust_8="13000.00000" pt_clust_9="121.90440"></scales>
<clustering>
<clus scale="   90.715">  5  6 -1 -1</clus>
<clus scale="   92.231">  7  8 -1 -1</clus>
<clus scale="  104.322">  2  7  1 -1</clus>
<clus scale="  121.904">  2  9  1 -1</clus>
<clus scale="  151.954">  1  5  2 -1</clus>
</clustering>
</event>
<event>
 9    1  0.6202448E-006  0.1537673E+03  0.7546771E-02  0.1212800E+00
         -2   -1    0    0    0  501 -0.00000000000E+00  0.00000000000E+00  0.41611740679E+02  0.41611740679E+02  0.00000000000E+00 0.  1.
          2   -1    0    0  502    0  0.00000000000E+00 -0.00000000000E+00 -0.10279635519E+04  0.10279635519E+04  0.00000000000E+00 0. -1.
         23    2    1    2    0    0 -0.18098478240E+02  0.11193185669E+03 -0.25242838720E+03  0.29016176019E+03  0.87278066867E+02 0.  0.
         23    2    1    2    0    0  0.38433280742E+02  0.40724413841E+02 -0.26025406376E+03  0.28133712863E+03  0.91009929636E+02 0.  0.
        -13    1    4    4    0    0 -0.37609131572E+01  0.46722375997E+02 -0.57659510933E+02  0.74308438872E+02  0.00000000000E+00 0.  1.
         13    1    4    4    0    0  0.42194193900E+02 -0.59979621554E+01 -0.20259455283E+03  0.20702868976E+03  0.00000000000E+00 0. -1.
        -13    1    3    3    0    0 -0.89691255001E+01  0.57614363764E+02 -0.40001944170E+02  0.70710788862E+02  0.00000000000E+00 0.  1.
         13    1    3    3    0    0 -0.91293527398E+01  0.54317492931E+02 -0.21242644303E+03  0.21945097133E+03  0.00000000000E+00 0. -1.
         21    1    1    2  502  501 -0.20334802502E+02 -0.15265627054E+03 -0.47366936026E+03  0.49807640375E+03  0.00000000000E+00 0. -1.
<scales pt_clust_5="13000.00000" pt_clust_6="13000.00000" pt_clust_7="13000.00000" pt_clust_8="13000.00000" pt_clust_9="126.59750"></scales>
<clustering>
<clus scale="   87.278">  7  8 -1 -1</clus>
<clus scale="   91.010">  5  6 -1 -1</clus>
<clus scale="  106.857">  2  5  1 -1</clus>
<clus scale="  126.598">  2  9  1 -1</clus>
<clus scale="  106.857">  2  5  1 -1</clus>
</clustering>
</event>
<event>
 9    1  0.6202448E-006  0.1898175E+03  0.7546771E-02  0.1158720E+00
         -1   -1    0    0    0  501 -0.00000000000E+00  0.00000000000E+00  0.87196780738E+02  0.87196780738E+02  0.00000000000E+00 0.  1.
          1   -1    0    0  502    0  0.00000000000E+00 -0.00000000000E+00 -0.13826121431E+04  0.13826121431E+04  0.00000000000E+00 0. -1.
         23    2    1    2    0    0 -0.98340868851E+02  0.10185251280E+03 -0.51422328749E+02  0.17490734778E+03  0.88901426104E+02 0.  0.
         23    2    1    2    0    0  0.40915094649E+01 -0.17620802333E+03 -0.10363014902E+04  0.10550110575E+04  0.89786106402E+02 0.  0.
        -11    1    3    3    0    0 -0.54367589102E+02  0.83155278693E+02  0.68047762278E+01  0.99583834526E+02  0.00000000000E+00 0.  1.
         11    1    3    3    0    0 -0.43973279749E+02  0.18697234110E+02 -0.58227104977E+02  0.75323513256E+02  0.00000000000E+00 0. -1.
        -13    1    4    4    0    0 -0.30772918682E+02 -0.31054230447E+02 -0.15060951625E+03  0.15682654156E+03  0.00000000000E+00 0.  1.
         13    1    4    4    0    0  0.34864428147E+02 -0.14515379289E+03 -0.88569197395E+03  0.89818451593E+03  0.00000000000E+00 0. -1.
         21    1    1    2  502  501  0.94249359386E+02  0.74355510531E+02 -0.20769154340E+03  0.23989051855E+03  0.00000000000E+00 0.  1.
<scales pt_clust_5="13000.00000" pt_clust_6="13000.00000" pt_clust_7="13000.00000" pt_clust_8="13000.00000" pt_clust_9="120.04867"></scales>
<clustering>
<clus scale="   88.901">  5  6 -1 -1</clus>
<clus scale="   89.786">  7  8 -1 -1</clus>
<clus scale="  120.049">  1  9  2 -1</clus>
<clus scale="  189.401">  1  5  2 -1</clus>
<clus scale="  189.817">  2  5  1 -1</clus>
</clustering>
</event>
<event>
 9    1  0.6202448E-006  0.1505085E+03  0.7546771E-02  0.1201562E+00
          1   -1    0    0  502    0  0.00000000000E+00  0.00000000000E+00  0.17781743308E+03  0.17781743308E+03  0.00000000000E+00 0. -1.
         -1   -1    0    0    0  501 -0.00000000000E+00 -0.00000000000E+00 -0.35123271247E+03  0.35123271247E+03  0.00000000000E+00 0.  1.
         23    2    1    2    0    0 -0.79861213114E+02 -0.10035649039E+03 -0.15087733315E+03  0.22135701670E+03  0.98922801527E+02 0.  0.
         23    2    1    2    0    0  0.11044255776E+03  0.30492484103E+02  0.90229701597E+02  0.17155812082E+03  0.90351754925E+02 0.  0.
        -13    1    3    3    0    0  0.13071432476E+02 -0.25251391642E+02  0.58132936311E+00  0.28439990694E+02  0.00000000000E+00 0. -1.
         13    1    3    3    0    0 -0.92932645589E+02 -0.75105098746E+02 -0.15145866251E+03  0.19291702601E+03  0.00000000000E+00 0.  1.
        -13    1    4    4    0    0  0.46601438314E+02 -0.12431954661E+01 -0.10851117615E+02  0.47864249095E+02  0.00000000000E+00 0.  1.
         13    1    4    4    0    0  0.63841119441E+02  0.31735679569E+02  0.10108081921E+03  0.12369387172E+03  0.00000000000E+00 0. -1.
         21    1    1    2  502  501 -0.30581344642E+02  0.69864006285E+02 -0.11276764783E+03  0.13613500803E+03  0.00000000000E+00 0.  1.
<scales pt_clust_5="13000.00000" pt_clust_6="13000.00000" pt_clust_7="13000.00000" pt_clust_8="13000.00000" pt_clust_9="76.26400"></scales>
<clustering>
<clus scale="   76.264">  2  9  1 -1</clus>
<clus scale="   90.352">  7  8 -1 -1</clus>
<clus scale="   98.923">  5  6 -1 -1</clus>
<clus scale="  145.019">  1  7  2 -1</clus>
<clus scale="  145.019">  1  5  2 -1</clus>
</clustering>
</event>
<event>
 9    1  0.6202448E-006  0.1176047E+03  0.7546771E-02  0.1247482E+00
         -1   -1    0    0    0  501 -0.00000000000E+00  0.00000000000E+00  0.34658277393E+02  0.34658277393E+02  0.00000000000E+00 0.  1.
          1   -1    0    0  502    0  0.00000000000E+00 -0.00000000000E+00 -0.73713024864E+03  0.73713024864E+03  0.00000000000E+00 0. -1.
         23    2    1    2    0    0 -0.42011021421E+02 -0.16889060485E+02 -0.20498856912E+03  0.22939652958E+03  0.92478581441E+02 0.  0.
         23    2    1    2    0    0  0.10524715765E+03  0.20169368167E+02 -0.24989833672E+03  0.28683782617E+03  0.91339981482E+02 0.  0.
        -11    1    3    3    0    0  0.26379140222E+02  0.98486898144E+01 -0.74839076126E+02  0.79960884471E+02  0.00000000000E+00 0.  1.
         11    1    3    3    0    0 -0.68390161643E+02 -0.26737750300E+02 -0.13014949300E+03  0.14943564511E+03  0.00000000000E+00 0. -1.
        -13    1    4    4    0    0  0.84790802756E+02 -0.18165992052E+02 -0.10839137406E+03  0.13880984645E+03  0.00000000000E+00 0.  1.
         13    1    4    4    0    0  0.20456354893E+02  0.38335360219E+02 -0.14150696266E+03  0.14802797972E+03  0.00000000000E+00 0. -1.
         21    1    1    2  502  501 -0.63236136228E+02 -0.32803076822E+01 -0.24758506540E+03  0.25555417029E+03  0.00000000000E+00 0. -1.
<scales pt_clust_5="13000.00000" pt_clust_6="13000.00000" pt_clust_7="13000.00000" pt_clust_8="13000.00000" pt_clust_9="63.32116"></scales>
<clustering>
<clus scale="   63.321">  2  9  1 -1</clus>
<clus scale="   91.340">  7  8 -1 -1</clus>
<clus scale="   92.479">  5  6 -1 -1</clus>
<clus scale="  116.712">  2  7  1 -1</clus>
<clus scale="   63.321">  2  5  1 -1</clus>
</clustering>
</event>
<event>
 9    1  0.6202448E-006  0.1714001E+03  0.7546771E-02  0.1203622E+00
          1   -1    0    0  502    0  0.00000000000E+00  0.00000000000E+00  0.79426807648E+03  0.79426807648E+03  0.00000000000E+00 0. -1.
         -1   -1    0    0    0  501 -0.00000000000E+00 -0.00000000000E+00 -0.71669918795E+02  0.71669918795E+02  0.00000000000E+00 0.  1.
         23    2    1    2    0    0  0.21451395259E+02  0.10688385832E+02  0.27111994375E+02  0.97749519913E+02  0.90804760085E+02 0.  0.
         23    2    1    2    0    0  0.78899153413E+02 -0.12153356556E+03  0.28689962549E+03  0.33310245470E+03  0.87466372125E+02 0.  0.
        -11    1    4    4    0    0 -0.31409597180E+01 -0.65256132793E+02  0.78173904802E+02  0.10187928095E+03  0.00000000000E+00 0.  1.
         11    1    4    4    0    0  0.82040113131E+02 -0.56277432771E+02  0.20872572069E+03  0.23122317375E+03  0.00000000000E+00 0. -1.
        -11    1    3    3    0    0  0.59684318985E+01  0.45608046858E+02 -0.70127143045E+01  0.46528424425E+02  0.00000000000E+00 0.  1.
         11    1    3    3    0    0  0.15482963360E+02 -0.34919661026E+02  0.34124708679E+02  0.51221095488E+02  0.00000000000E+00 0. -1.
         21    1    1    2  502  501 -0.10035054867E+03  0.11084517973E+03  0.40858653781E+03  0.43508602066E+03  0.00000000000E+00 0.  1.
<scales pt_clust_5="13000.00000" pt_clust_6="13000.00000" pt_clust_7="13000.00000" pt_clust_8="13000.00000" pt_clust_9="147.40289"></scales>
<clustering>
<clus scale="   87.466">  5  6 -1 -1</clus>
<clus scale="   90.805">  7  8 -1 -1</clus>
<clus scale="   93.914">  2  7  1 -1</clus>
<clus scale="  147.403">  1  9  2 -1</clus>
<clus scale="  147.403">  1  5  2 -1</clus>
</clustering>
</event>
<event>
 9    1  0.6202448E-006  0.9636711E+02  0.7546771E-02  0.1288950E+00
         -1   -1    0    0    0  501 -0.00000000000E+00  0.00000000000E+00  0.12760348152E+03  0.12760348152E+03  0.00000000000E+00 0.  1.
          1   -1    0    0  502    0  0.00000000000E+00 -0.00000000000E+00 -0.12422359425E+03  0.12422359425E+03  0.00000000000E+00 0. -1.
         23    2    1    2    0    0 -0.15840398025E+02 -0.22095408457E+02  0.63740638435E+02  0.11458277294E+03  0.91253589418E+02 0.  0.
         23    2    1    2    0    0  0.31086676970E+02  0.18107780754E+01 -0.48521617560E+02  0.10924286830E+03  0.92790066823E+02 0.  0.
        -11    1    4    4    0    0  0.38329491964E+02  0.40557375271E+02 -0.40668321950E+02  0.69050438473E+02  0.00000000000E+00 0. -1.
         11    1    4    4    0    0 -0.72428149945E+01 -0.38746597196E+02 -0.78532956097E+01  0.40192429825E+02  0.00000000000E+00 0.  1.
        -13    1    3    3    0    0 -0.49292087391E+02 -0.21797555363E+02  0.60419702389E+02  0.80965324281E+02  0.00000000000E+00 0.  1.
         13    1    3    3    0    0  0.33451689367E+02 -0.29785309392E+00  0.33209360456E+01  0.33617448657E+02  0.00000000000E+00 0. -1.
         21    1    1    2  502  501 -0.15246278945E+02  0.20284630382E+02 -0.11839133610E+02  0.28001434535E+02  0.00000000000E+00 0. -1.
<scales pt_clust_5="13000.00000" pt_clust_6="13000.00000" pt_clust_7="13000.00000" pt_clust_8="13000.00000" pt_clust_9="25.37549"></scales>
<clustering>
<clus scale="   25.375">  2  9  1 -1</clus>
<clus scale="   91.254">  7  8 -1 -1</clus>
<clus scale="   92.790">  5  6 -1 -1</clus>
<clus scale="   94.889">  1  7  2 -1</clus>
<clus scale="   25.375">  2  5  1 -1</clus>
</clustering>
</event>
<event>
 9    1  0.6202448E-006  0.1078792E+03  0.7546771E-02  0.1265015E+00
         -2   -1    0    0    0  501 -0.00000000000E+00  0.00000000000E+00  0.14862828684E+03  0.14862828684E+03  0.00000000000E+00 0.  1.
          2   -1    0    0  502    0  0.00000000000E+00 -0.00000000000E+00 -0.21246973628E+03  0.21246973628E+03  0.00000000000E+00 0. -1.
         23    2    1    2    0    0 -0.37543739903E+02 -0.19924541013E+02  0.15554590669E+02  0.10049989577E+03  0.89731622174E+02 0.  0.
         23    2    1    2    0    0  0.13551803095E+02  0.91176796958E+02  0.25100085860E+02  0.13186609035E+03  0.90894399192E+02 0.  0.
        -13    1    3    3    0    0 -0.54998409945E+02 -0.39728136248E+02  0.25228496028E+02  0.72385267272E+02  0.00000000000E+00 0. -1.
         13    1    3    3    0    0  0.17454670042E+02  0.19803595236E+02 -0.96739053591E+01  0.28114628495E+02  0.00000000000E+00 0.  1.
        -13    1    4    4    0    0  0.23527531374E+02 -0.71167965177E+01 -0.10663641702E+02  0.26793782479E+02  0.00000000000E+00 0. -1.
         13    1    4    4    0    0 -0.99757282782E+01  0.98293593476E+02  0.35763727562E+02  0.10507230788E+03  0.00000000000E+00 0.  1.
         21    1    1    2  502  501  0.23991936808E+02 -0.71252255946E+02 -0.10449612597E+03  0.12873203700E+03  0.00000000000E+00 0. -1.
<scales pt_clust_5="13000.00000" pt_clust_6="13000.00000" pt_clust_7="13000.00000" pt_clust_8="13000.00000" pt_clust_9="75.18309"></scales>
<clustering>
<clus scale="   75.183">  2  9  1 -1</clus>
<clus scale="   89.732">  5  6 -1 -1</clus>
<clus scale="   90.894">  7  8 -1 -1</clus>
<clus scale="  106.901">  1  5  2 -1</clus>
<clus scale="   75.183">  2  5  1 -1</clus>
</clustering>
</event>
<event>
 9    1  0.6202448E-006  0.1737023E+03  0.7546771E-02  0.1198291E+00
          1   -1    0    0  502    0  0.00000000000E+00  0.00000000000E+00  0.84077797954E+03  0.84077797954E+03  0.00000000000E+00 0. -1.
         -1   -1    0    0    0  501 -0.00000000000E+00 -0.00000000000E+00 -0.55801721456E+02  0.55801721456E+02  0.00000000000E+00 0.  1.
         23    2    1    2    0    0  0.11155134468E+03  0.13426113525E+03  0.33475805800E+03  0.38760480541E+03  0.87776835463E+02 0.  0.
         23    2    1    2    0    0 -0.38638928030E+02 -0.21931913656E+02  0.22866204793E+03  0.25009035938E+03  0.91021316714E+02 0.  0.
        -11    1    3    3    0    0  0.10341932215E+03  0.57825599414E+02  0.19980453033E+03  0.23229551541E+03  0.00000000000E+00 0.  1.
         11    1    3    3    0    0  0.81320225345E+01  0.76435535839E+02  0.13495352767E+03  0.15530929000E+03  0.00000000000E+00 0. -1.
        -13    1    4    4    0    0 -0.63231699677E+02 -0.17798780406E+02  0.20660957405E+03  0.21680073920E+03  0.00000000000E+00 0. -1.
         13    1    4    4    0    0  0.24592771647E+02 -0.41331332499E+01  0.22052473882E+02  0.33289620185E+02  0.00000000000E+00 0.  1.
         21    1    1    2  502  501 -0.72912416654E+02 -0.11232922160E+03  0.22155615216E+03  0.25888453620E+03  0.00000000000E+00 0. -1.
<scales pt_clust_5="13000.00000" pt_clust_6="13000.00000" pt_clust_7="13000.00000" pt_clust_8="13000.00000" pt_clust_9="149.89237"></scales>
<clustering>
<clus scale="   87.777">  5  6 -1 -1</clus>
<clus scale="   91.021">  7  8 -1 -1</clus>
<clus scale="  101.286">  1  7  2 -1</clus>
<clus scale="  149.892">  2  9  1 -1</clus>
<clus scale="  101.286">  1  5  2 -1</clus>
</clustering>
</event>
<event>
 9    1  0.6202448E-006  0.1129227E+03  0.7546771E-02  0.1257649E+00
          1   -1    0    0  502    0  0.00000000000E+00  0.00000000000E+00  0.67721176163E+02  0.67721176163E+02  0.00000000000E+00 0. -1.
         -1   -1    0    0    0  501 -0.00000000000E+00 -0.00000000000E+00 -0.29406062014E+03  0.29406062014E+03  0.00000000000E+00 0.  1.
         23    2    1    2    0    0  0.50464238271E+02  0.34171612420E+02 -0.18790128276E+03  0.21650602415E+03  0.88620697293E+02 0.  0.
         23    2    1    2    0    0 -0.64058487103E+02 -0.13659485089E+02 -0.34437153182E+02  0.12034468645E+03  0.94904450555E+02 0.  0.
        -11    1    3    3    0    0  0.40255372554E+02 -0.15669448388E+02 -0.14042492808E+03  0.14691898128E+03  0.00000000000E+00 0.  1.
         11    1    3    3    0    0  0.10208865717E+02  0.49841060809E+02 -0.47476354676E+02  0.69587042868E+02  0.00000000000E+00 0. -1.
        -13    1    4    4    0    0  0.19126285052E+02  0.80327617791E+01 -0.27011148023E+02  0.34057923589E+02  0.00000000000E+00 0.  1.
         13    1    4    4    0    0 -0.83184772155E+02 -0.21692246868E+02 -0.74260051594E+01  0.86286762863E+02  0.00000000000E+00 0. -1.
         21    1    1    2  502  501  0.13594248832E+02 -0.20512127332E+02 -0.40010080297E+01  0.24931085701E+02  0.00000000000E+00 0.  1.
<scales pt_clust_5="13000.00000" pt_clust_6="13000.00000" pt_clust_7="13000.00000" pt_clust_8="13000.00000" pt_clust_9="24.60795"></scales>
<clustering>
<clus scale="   24.608">  1  9  2 -1</clus>
<clus scale="   88.621">  5  6 -1 -1</clus>
<clus scale="   94.904">  7  8 -1 -1</clus>
<clus scale="  107.695">  2  5  1 -1</clus>
<clus scale="   24.608">  1  5  2 -1</clus>
</clustering>
</event>
<event>
 9    1  0.6202448E-006  0.9217253E+02  0.7546771E-02  0.1299077E+00
          2   -1    0    0  502    0  0.00000000000E+00  0.00000000000E+00  0.77461753183E+02  0.77461753183E+02  0.00000000000E+00 0. -1.
         -2   -1    0    0    0  501 -0.00000000000E+00 -0.00000000000E+00 -0.48738794016E+03  0.48738794016E+03  0.00000000000E+00 0.  1.
         23    2    1    2    0    0  0.16150394206E+02 -0.28351715425E+02 -0.73078864748E+02  0.12009012351E+03  0.89534698812E+02 0.  0.
         23    2    1    2    0    0  0.16528043851E+02 -0.17276117790E+02  0.80733349555E+01  0.95302792489E+02  0.91901050264E+02 0.  0.
        -11    1    4    4    0    0  0.22598632222E+02  0.17429660356E+02  0.39064849269E+02  0.48379269185E+02  0.00000000000E+00 0.  1.
         11    1    4    4    0    0 -0.60705883708E+01 -0.34705778146E+02 -0.30991514314E+02  0.46923523305E+02  0.00000000000E+00 0. -1.
        -13    1    3    3    0    0  0.45102599457E+02 -0.37842051217E+02 -0.26813022657E+02  0.64693148803E+02  0.00000000000E+00 0. -1.
         13    1    3    3    0    0 -0.28952205251E+02  0.94903357927E+01 -0.46265842090E+02  0.55396974707E+02  0.00000000000E+00 0.  1.
         21    1    1    2  502  501 -0.32678438057E+02  0.45627833215E+02 -0.34492065719E+03  0.34945677734E+03  0.00000000000E+00 0.  1.
<scales pt_clust_5="13000.00000" pt_clust_6="13000.00000" pt_clust_7="13000.00000" pt_clust_8="13000.00000" pt_clust_9="56.12290"></scales>
<clustering>
<clus scale="   56.123">  2  9  1 -1</clus>
<clus scale="   89.535">  7  8 -1 -1</clus>
<clus scale="   89.813">  2  7  1 -1</clus>
<clus scale="   91.901">  5  6 -1 -1</clus>
<clus scale="   92.173">  1  5  2 -1</clus>
</clustering>
</event>
<event>
 9    1  0.6202448E-006  0.1274227E+03  0.7546771E-02  0.1248405E+00
          2   -1    0    0  502    0  0.00000000000E+00  0.00000000000E+00  0.23358203577E+03  0.23358203577E+03  0.00000000000E+00 0. -1.
         -2   -1    0    0    0  501 -0.00000000000E+00 -0.00000000000E+00 -0.12199633974E+03  0.12199633974E+03  0.00000000000E+00 0.  1.
         23    2    1    2    0    0 -0.32379759448E+02 -0.15724013629E+02 -0.24039984069E+02  0.93228166961E+02  0.82570435716E+02 0.  0.
         23    2    1    2    0    0 -0.37721736690E+02 -0.53553763303E+02  0.27593532940E+02  0.11611555137E+03  0.91817662940E+02 0.  0.
        -11    1    4    4    0    0  0.10285610426E+02  0.20921986729E+02  0.98130862013E-02  0.23313588458E+02  0.00000000000E+00 0. -1.
         11    1    4    4    0    0 -0.48007347117E+02 -0.74475750031E+02  0.27583719854E+02  0.92801962915E+02  0.00000000000E+00 0.  1.
        -13    1    3    3    0    0 -0.24600034197E+01  0.31737206859E+02  0.86461557835E+00  0.31844143514E+02  0.00000000000E+00 0. -1.
         13    1    3    3    0    0 -0.29919756029E+02 -0.47461220488E+02 -0.24904599648E+02  0.61384023448E+02  0.00000000000E+00 0.  1.
         21    1    1    2  502  501  0.70101496139E+02  0.69277776932E+02  0.10803214717E+03  0.14623465717E+03  0.00000000000E+00 0. -1.
<scales pt_clust_5="13000.00000" pt_clust_6="13000.00000" pt_clust_7="13000.00000" pt_clust_8="13000.00000" pt_clust_9="88.35185"></scales>
<clustering>
<clus scale="   82.570">  7  8 -1 -1</clus>
<clus scale="   90.075">  2  7  1 -1</clus>
<clus scale="   88.352">  1  9  2 -1</clus>
<clus scale="   91.818">  5  6 -1 -1</clus>
<clus scale="   88.352">  1  5  2 -1</clus>
</clustering>
</event>
<event>
 9    1  0.6202448E-006  0.1343818E+03  0.7546771E-02  0.1223003E+00
         -1   -1    0    0    0  501 -0.00000000000E+00  0.00000000000E+00  0.12794580860E+03  0.12794580860E+03  0.00000000000E+00 0.  1.
          1   -1    0    0  502    0  0.00000000000E+00 -0.00000000000E+00 -0.47150952097E+03  0.47150952097E+03  0.00000000000E+00 0. -1.
         23    2    1    2    0    0  0.99695112525E+02  0.60646716450E+02  0.25957487683E+00  0.14828272604E+03  0.91490763387E+02 0.  0.
         23    2    1    2    0    0  0.22886789439E+02 -0.98328833820E+02 -0.26597603342E+03  0.30115107313E+03  0.98774256759E+02 0.  0.
        -13    1    3    3    0    0  0.10051906963E+03  0.22556381964E+02 -0.20285488506E+02  0.10499702267E+03  0.00000000000E+00 0.  1.
         13    1    3    3    0    0 -0.82395710298E+00  0.38090334486E+02  0.20545063383E+02  0.43285703367E+02  0.00000000000E+00 0. -1.
        -13    1    4    4    0    0 -0.25966434058E+02  0.25782029555E+01 -0.29112013022E+02  0.39094911822E+02  0.00000000000E+00 0. -1.
         13    1    4    4    0    0  0.48853223497E+02 -0.10090703678E+03 -0.23686402040E+03  0.26205616130E+03  0.00000000000E+00 0.  1.
         21    1    1    2  502  501 -0.12258190196E+03  0.37682117370E+02 -0.77847253823E+02  0.15002153041E+03  0.00000000000E+00 0. -1.
<scales pt_clust_5="13000.00000" pt_clust_6="13000.00000" pt_clust_7="13000.00000" pt_clust_8="13000.00000" pt_clust_9="128.24299"></scales>
<clustering>
<clus scale="   91.491">  5  6 -1 -1</clus>
<clus scale="   98.774">  7  8 -1 -1</clus>
<clus scale="  128.243">  1  9  2 -1</clus>
<clus scale="  129.123">  1  5  2 -1</clus>
<clus scale="  134.382">  2  5  1 -1</clus>
</clustering>
</event>
<event>
 9    1  0.6202448E-006  0.2531668E+03  0.7546771E-02  0.1144372E+00
         -2   -1    0    0    0  501 -0.00000000000E+00  0.00000000000E+00  0.76669686622E+02  0.76669686622E+02  0.00000000000E+00 0. -1.
          2   -1    0    0  502    0  0.00000000000E+00 -0.00000000000E+00 -0.15322171830E+04  0.15322171830E+04  0.00000000000E+00 0.  1.
         23    2    1    2    0    0  0.21293896250E+02 -0.65099040241E+02 -0.17104879451E+03  0.20448261386E+03  0.88679953821E+02 0.  0.
         23    2    1    2    0    0 -0.24693620775E+03  0.65176623807E+00 -0.33442363794E+03  0.42577739584E+03  0.92028830783E+02 0.  0.
        -13    1    4    4    0    0 -0.36534017542E+02  0.31436472334E+02 -0.40231682624E+02  0.62781960126E+02  0.00000000000E+00 0.  1.
         13    1    4    4    0    0 -0.21040219021E+03 -0.30784706096E+02 -0.29419195532E+03  0.36299543571E+03  0.00000000000E+00 0. -1.
        -13    1    3    3    0    0 -0.26526593277E+02  0.26492428465E+01 -0.61974912498E+02  0.67465312700E+02  0.00000000000E+00 0.  1.
         13    1    3    3    0    0  0.47820489526E+02 -0.67748283088E+02 -0.10907388201E+03  0.13701730116E+03  0.00000000000E+00 0. -1.
         21    1    1    2  502  501  0.22564231150E+03  0.64447274003E+02 -0.95007506393E+03  0.97862685993E+03  0.00000000000E+00 0.  1.
<scales pt_clust_5="13000.00000" pt_clust_6="13000.00000" pt_clust_7="13000.00000" pt_clust_8="13000.00000" pt_clust_9="235.84762"></scales>
<clustering>
<clus scale="   88.680">  7  8 -1 -1</clus>
<clus scale="   92.029">  5  6 -1 -1</clus>
<clus scale="  112.051">  1  7  2 -1</clus>
<clus scale="  235.848">  2  9  1 -1</clus>
<clus scale="  235.848">  2  5  1 -1</clus>
</clustering>
</event>
<event>
 9    1  0.6202448E-006  0.9459172E+02  0.7546771E-02  0.1292683E+00
          1   -1    0    0  502    0  0.00000000000E+00  0.00000000000E+00  0.17352141337E+02  0.17352141337E+02  0.00000000000E+00 0. -1.
         -1   -1    0    0    0  501 -0.00000000000E+00 -0.00000000000E+00 -0.73750328258E+03  0.73750328258E+03  0.00000000000E+00 0.  1.
         23    2    1    2    0    0 -0.31678218898E+02 -0.72567336068E+00 -0.38602846975E+03  0.39815767655E+03  0.92236217323E+02 0.  0.
         23    2    1    2    0    0  0.11078106722E+02  0.15264003063E+02 -0.20527249112E+03  0.22540381515E+03  0.91183167518E+02 0.  0.
        -11    1    4    4    0    0 -0.13649865514E+02  0.48110065936E+02 -0.89158357723E+02  0.10222577965E+03  0.00000000000E+00 0.  1.
         11    1    4    4    0    0  0.24727972236E+02 -0.32846062873E+02 -0.11611413339E+03  0.12317803550E+03  0.00000000000E+00 0. -1.
        -11    1    3    3    0    0 -0.60333628950E+02  0.18356448576E+02 -0.25478792845E+03  0.26247665510E+03  0.00000000000E+00 0.  1.
         11    1    3    3    0    0  0.28655410052E+02 -0.19082121937E+02 -0.13124054130E+03  0.13568102145E+03  0.00000000000E+00 0. -1.
         21    1    1    2  502  501  0.20600112176E+02 -0.14538329702E+02 -0.12885018038E+03  0.13129393221E+03  0.00000000000E+00 0. -1.
<scales pt_clust_5="13000.00000" pt_clust_6="13000.00000" pt_clust_7="13000.00000" pt_clust_8="13000.00000" pt_clust_9="25.21364"></scales>
<clustering>
<clus scale="   25.214">  2  9  1 -1</clus>
<clus scale="   91.183">  5  6 -1 -1</clus>
<clus scale="   92.236">  7  8 -1 -1</clus>
<clus scale="   93.565">  1  5  2 -1</clus>
<clus scale="   93.565">  1  5  2 -1</clus>
</clustering>
</event>
<event>
 9    1  0.6202448E-006  0.2245636E+03  0.7546771E-02  0.1154422E+00
          2   -1    0    0  502    0  0.00000000000E+00  0.00000000000E+00  0.28023305565E+03  0.28023305565E+03  0.00000000000E+00 0. -1.
         -2   -1    0    0    0  501 -0.00000000000E+00 -0.00000000000E+00 -0.29479331924E+03  0.29479331924E+03  0.00000000000E+00 0.  1.
         23    2    1    2    0    0  0.23919152211E+03 -0.37206523065E+01 -0.97585172090E+02  0.27404768769E+03  0.91393882810E+02 0.  0.
         23    2    1    2    0    0 -0.81133419027E+02 -0.25138409112E+02  0.18539492302E+02  0.12784989618E+03  0.93740662915E+02 0.  0.
        -11    1    3    3    0    0  0.18202565741E+03 -0.15400507880E+02 -0.11156467313E+03  0.21404950803E+03  0.00000000000E+00 0.  1.
         11    1    3    3    0    0  0.57165864706E+02  0.11679855573E+02  0.13979501040E+02  0.59998179665E+02  0.00000000000E+00 0. -1.
        -11    1    4    4    0    0 -0.82392250463E+02 -0.52013080941E+02  0.24110332385E+02  0.10037505493E+03  0.00000000000E+00 0.  1.
         11    1    4    4    0    0  0.12588314355E+01  0.26874671829E+02 -0.55708400833E+01  0.27474841250E+02  0.00000000000E+00 0. -1.
         21    1    1    2  502  501 -0.15805810308E+03  0.28859061418E+02  0.64485416193E+02  0.17312879101E+03  0.00000000000E+00 0. -1.
<scales pt_clust_5="13000.00000" pt_clust_6="13000.00000" pt_clust_7="13000.00000" pt_clust_8="13000.00000" pt_clust_9="205.12423"></scales>
<clustering>
<clus scale="   91.394">  5  6 -1 -1</clus>
<clus scale="   93.741">  7  8 -1 -1</clus>
<clus scale="  126.499">  1  7  2 -1</clus>
<clus scale="  205.124">  1  9  2 -1</clus>
<clus scale="  126.499">  1  5  2 -1</clus>
</clustering>
</event>
<event>
 9    1  0.6202448E-006  0.9678820E+02  0.7546771E-02  0.1288794E+00
          1   -1    0    0  502    0  0.00000000000E+00  0.00000000000E+00  0.30080783963E+03  0.30080783963E+03  0.00000000000E+00 0. -1.
         -1   -1    0    0    0  501 -0.00000000000E+00 -0.00000000000E+00 -0.60563032679E+02  0.60563032679E+02  0.00000000000E+00 0.  1.
         23    2    1    2    0    0  0.22860955227E+01  0.10150246840E+01  0.11211035230E+02  0.93010796719E+02  0.92298778364E+02 0.  0.
         23    2    1    2    0    0 -0.19934027751E+02  0.31152593602E+02  0.19789480118E+03  0.22023689340E+03  0.89297745371E+02 0.  0.
        -11    1    3    3    0    0 -0.33300484724E+02  0.31226472218E+02  0.56855251097E+01  0.46003696002E+02  0.00000000000E+00 0. -1.
         11    1    3    3    0    0  0.35586580247E+02 -0.30211447534E+02  0.55255101203E+01  0.47007100717E+02  0.00000000000E+00 0.  1.
        -13    1    4    4    0    0 -0.42790299204E+02  0.21125666432E+02  0.18701882946E+03  0.19301125889E+03  0.00000000000E+00 0. -1.
         13    1    4    4    0    0  0.22856271453E+02  0.10026927170E+02  0.10875971723E+02  0.27225634503E+02  0.00000000000E+00 0.  1.
         21    1    1    2  502  501  0.17647932229E+02 -0.32167618286E+02  0.31138970543E+02  0.48123182195E+02  0.00000000000E+00 0.  1.
<scales pt_clust_5="13000.00000" pt_clust_6="13000.00000" pt_clust_7="13000.00000" pt_clust_8="13000.00000" pt_clust_9="36.69067"></scales>
<clustering>
<clus scale="   36.691">  2  9  1 -1</clus>
<clus scale="   89.298">  7  8 -1 -1</clus>
<clus scale="   92.299">  5  6 -1 -1</clus>
<clus scale="   93.931">  1  7  2 -1</clus>
<clus scale="   93.931">  1  5  2 -1</clus>
</clustering>
</event>
<event>
 9    1  0.6202448E-006  0.9954968E+02  0.7546771E-02  0.1284809E+00
          1   -1    0    0  502    0  0.00000000000E+00  0.00000000000E+00  0.72135289687E+03  0.72135289687E+03  0.00000000000E+00 0. -1.
         -1   -1    0    0    0  501 -0.00000000000E+00 -0.00000000000E+00 -0.20989361515E+02  0.20989361515E+02  0.00000000000E+00 0.  1.
         23    2    1    2    0    0  0.80943331942E+01  0.28618937357E+02  0.17105636946E+03  0.19611685441E+03  0.91197462935E+02 0.  0.
         23    2    1    2    0    0  0.69403855659E+01  0.47198037689E+01  0.39661712480E+03  0.40858761326E+03  0.97817424435E+02 0.  0.
        -11    1    4    4    0    0 -0.31685193339E+02 -0.31892074648E+02  0.18083284840E+03  0.18633726134E+03  0.00000000000E+00 0.  1.
         11    1    4    4    0    0  0.38625578905E+02  0.36611878417E+02  0.21578427640E+03  0.22225035192E+03  0.00000000000E+00 0. -1.
        -13    1    3    3    0    0  0.43321189098E+02  0.25726057998E+02  0.54063777696E+02  0.73901607180E+02  0.00000000000E+00 0. -1.
         13    1    3    3    0    0 -0.35226855904E+02  0.28928793587E+01  0.11699259177E+03  0.12221524723E+03  0.00000000000E+00 0.  1.
         21    1    1    2  502  501 -0.15034718760E+02 -0.33338741126E+02  0.13269004109E+03  0.13763779072E+03  0.00000000000E+00 0.  1.
<scales pt_clust_5="13000.00000" pt_clust_6="13000.00000" pt_clust_7="13000.00000" pt_clust_8="13000.00000" pt_clust_9="36.57204"></scales>
<clustering>
<clus scale="   36.572">  1  9  2 -1</clus>
<clus scale="   91.197">  7  8 -1 -1</clus>
<clus scale="   93.053">  2  7  1 -1</clus>
<clus scale="   97.817">  5  6 -1 -1</clus>
<clus scale="   36.572">  1  5  2 -1</clus>
</clustering>
</event>
<event>
 9    1  0.6202448E-006  0.1118133E+03  0.7546771E-02  0.1261799E+00
         -1   -1    0    0    0  501 -0.00000000000E+00  0.00000000000E+00  0.26386812591E+03  0.26386812591E+03  0.00000000000E+00 0.  1.
          1   -1    0    0  502    0  0.00000000000E+00 -0.00000000000E+00 -0.18997640731E+03  0.18997640731E+03  0.00000000000E+00 0. -1.
         23    2    1    2    0    0  0.30169126700E+02 -0.55212284052E+02  0.21420518336E+03  0.23910231906E+03  0.85600735317E+02 0.  0.
         23    2    1    2    0    0  0.95289343073E+01  0.39066373691E+01 -0.77651836962E+02  0.12454972540E+03  0.96833692015E+02 0.  0.
        -11    1    4    4    0    0 -0.33122630453E+02 -0.22573295204E+02 -0.11878370162E+02  0.41806195500E+02  0.00000000000E+00 0.  1.
         11    1    4    4    0    0  0.42651564760E+02  0.26479932574E+02 -0.65773466800E+02  0.82743529901E+02  0.00000000000E+00 0. -1.
        -13    1    3    3    0    0 -0.13290159120E+01 -0.67281290985E+02  0.17436642146E+03  0.18690154449E+03  0.00000000000E+00 0.  1.
         13    1    3    3    0    0  0.31498142612E+02  0.12069006933E+02  0.39838761901E+02  0.52200774574E+02  0.00000000000E+00 0. -1.
         21    1    1    2  502  501 -0.39698061007E+02  0.51305646683E+02 -0.62661627794E+02  0.90192488751E+02  0.00000000000E+00 0. -1.
<scales pt_clust_5="13000.00000" pt_clust_6="13000.00000" pt_clust_7="13000.00000" pt_clust_8="13000.00000" pt_clust_9="64.87068"></scales>
<clustering>
<clus scale="   64.871">  2  9  1 -1</clus>
<clus scale="   85.601">  7  8 -1 -1</clus>
<clus scale="   96.834">  5  6 -1 -1</clus>
<clus scale="  102.240">  1  7  2 -1</clus>
<clus scale="   64.871">  2  5  1 -1</clus>
</clustering>
</event>
<event>
 9    1  0.6202448E-006  0.1010716E+03  0.7546771E-02  0.1278930E+00
          2   -1    0    0  502    0  0.00000000000E+00  0.00000000000E+00  0.41465953726E+03  0.41465953726E+03  0.00000000000E+00 0. -1.
         -2   -1    0    0    0  501 -0.00000000000E+00 -0.00000000000E+00 -0.12874505935E+03  0.12874505935E+03  0.00000000000E+00 0.  1.
         23    2    1    2    0    0 -0.99979661993E+01  0.45590744442E+02 -0.73482940159E+02  0.12498752517E+03  0.89686474153E+02 0.  0.
         23    2    1    2    0    0 -0.59994565970E+02 -0.70719800586E+01  0.29836068081E+03  0.31787785987E+03  0.91530743997E+02 0.  0.
        -11    1    3    3    0    0 -0.48706163041E+02  0.13220128914E+02 -0.33053930797E+02  0.60329300243E+02  0.00000000000E+00 0.  1.
         11    1    3    3    0    0  0.38708196841E+02  0.32370615528E+02 -0.40429009362E+02  0.64658224924E+02  0.00000000000E+00 0. -1.
        -13    1    4    4    0    0 -0.75834955788E+02  0.14982395090E+02  0.25721862245E+03  0.26858300843E+03  0.00000000000E+00 0.  1.
         13    1    4    4    0    0  0.15840389818E+02 -0.22054375149E+02  0.41142058360E+02  0.49294851444E+02  0.00000000000E+00 0. -1.
         21    1    1    2  502  501  0.69992532169E+02 -0.38518764383E+02  0.61036737254E+02  0.10053921157E+03  0.00000000000E+00 0. -1.
<scales pt_clust_5="13000.00000" pt_clust_6="13000.00000" pt_clust_7="13000.00000" pt_clust_8="13000.00000" pt_clust_9="79.89149"></scales>
<clustering>
<clus scale="   79.891">  1  9  2 -1</clus>
<clus scale="   89.686">  5  6 -1 -1</clus>
<clus scale="   91.531">  7  8 -1 -1</clus>
<clus scale="   99.405">  2  5  1 -1</clus>
<clus scale="   79.891">  1  5  2 -1</clus>
</clustering>
</event>
<event>
 9    1  0.6202448E-006  0.9781931E+02  0.7546771E-02  0.1287926E+00
          1   -1    0    0  502    0  0.00000000000E+00  0.00000000000E+00  0.25693900099E+03  0.25693900099E+03  0.00000000000E+00 0. -1.
         -1   -1    0    0    0  501 -0.00000000000E+00 -0.00000000000E+00 -0.19758914277E+03  0.19758914277E+03  0.00000000000E+00 0.  1.
         23    2    1    2    0    0  0.14293812455E+02 -0.11658825653E+02 -0.15662227867E+03  0.18419293789E+03  0.95164378340E+02 0.  0.
         23    2    1    2    0    0 -0.48920015842E+02  0.42013451030E+02  0.11548939904E+03  0.15980395305E+03  0.89672761215E+02 0.  0.
        -11    1    3    3    0    0  0.32946672934E+02 -0.25503620114E+02 -0.21115589781E+02  0.46709592464E+02  0.00000000000E+00 0. -1.
         11    1    3    3    0    0 -0.18652860479E+02  0.13844794461E+02 -0.13550668889E+03  0.13748334543E+03  0.00000000000E+00 0.  1.
        -13    1    4    4    0    0  0.91371765924E+01 -0.21182439242E+02  0.14370449420E+02  0.27178917286E+02  0.00000000000E+00 0.  1.
         13    1    4    4    0    0 -0.58057192434E+02  0.63195890271E+02  0.10111894962E+03  0.13262503577E+03  0.00000000000E+00 0. -1.
         21    1    1    2  502  501  0.34626203387E+02 -0.30354625376E+02  0.10048273784E+03  0.11053125281E+03  0.00000000000E+00 0.  1.
<scales pt_clust_5="13000.00000" pt_clust_6="13000.00000" pt_clust_7="13000.00000" pt_clust_8="13000.00000" pt_clust_9="46.04755"></scales>
<clustering>
<clus scale="   46.048">  1  9  2 -1</clus>
<clus scale="   89.673">  7  8 -1 -1</clus>
<clus scale="   92.485">  1  7  2 -1</clus>
<clus scale="   95.164">  5  6 -1 -1</clus>
<clus scale="   46.048">  1  5  2 -1</clus>
</clustering>
</event>
<event>
 9    1  0.6202448E-006  0.1864297E+03  0.7546771E-02  0.1185405E+00
          1   -1    0    0  502    0  0.00000000000E+00  0.00000000000E+00  0.15642585127E+04  0.15642585127E+04  0.00000000000E+00 0. -1.
         -1   -1    0    0    0  501 -0.00000000000E+00 -0.00000000000E+00 -0.43946293539E+02  0.43946293539E+02  0.00000000000E+00 0.  1.
         23    2    1    2    0    0 -0.37062916695E+02 -0.47020620349E+02  0.12109983333E+03  0.16280485120E+03  0.90860615281E+02 0.  0.
         23    2    1    2    0    0 -0.13032433887E+02  0.18910403560E+03  0.73618647581E+03  0.76547304838E+03  0.89712206619E+02 0.  0.
        -11    1    4    4    0    0  0.28289605147E+02  0.10844153856E+03  0.30686014812E+03  0.32668489335E+03  0.00000000000E+00 0. -1.
         11    1    4    4    0    0 -0.41322039034E+02  0.80662497043E+02  0.42932632769E+03  0.43878815502E+03  0.00000000000E+00 0.  1.
        -11    1    3    3    0    0  0.13863258739E+01 -0.65718815252E+02  0.67155817017E+02  0.93972274298E+02  0.00000000000E+00 0.  1.
         11    1    3    3    0    0 -0.38449242569E+02  0.18698194903E+02  0.53944016309E+02  0.68832576898E+02  0.00000000000E+00 0. -1.
         21    1    1    2  502  501  0.50095350583E+02 -0.14208341525E+03  0.66302591002E+03  0.67992690666E+03  0.00000000000E+00 0.  1.
<scales pt_clust_5="13000.00000" pt_clust_6="13000.00000" pt_clust_7="13000.00000" pt_clust_8="13000.00000" pt_clust_9="163.42503"></scales>
<clustering>
<clus scale="   89.712">  5  6 -1 -1</clus>
<clus scale="   90.861">  7  8 -1 -1</clus>
<clus scale="  108.813">  2  7  1 -1</clus>
<clus scale="  163.425">  1  9  2 -1</clus>
<clus scale="  163.425">  1  5  2 -1</clus>
</clustering>
</event>
<event>
 9    1  0.6202448E-006  0.1064064E+03  0.7546771E-02  0.1269344E+00
          2   -1    0    0  502    0  0.00000000000E+00  0.00000000000E+00  0.41781498604E+03  0.41781498604E+03  0.00000000000E+00 0. -1.
         -2   -1    0    0    0  501 -0.00000000000E+00 -0.00000000000E+00 -0.54874746580E+02  0.54874746580E+02  0.00000000000E+00 0.  1.
         23    2    1    2    0    0  0.52041378603E+02 -0.12552231820E+02  0.52375676917E+02  0.12462684082E+03  0.99613123179E+02 0.  0.
         23    2    1    2    0    0  0.61748576785E+01  0.42451657302E+01  0.22235723625E+03  0.24205029856E+03  0.95338639706E+02 0.  0.
        -11    1    3    3    0    0  0.73986827714E+02 -0.34026517754E+02  0.45027797545E+02  0.93055666874E+02  0.00000000000E+00 0.  1.
         11    1    3    3    0    0 -0.21945449111E+02  0.21474285933E+02  0.73478793716E+01  0.31571173945E+02  0.00000000000E+00 0. -1.
        -11    1    4    4    0    0 -0.31257548161E+02  0.22301349718E+02  0.17446243987E+03  0.17863797872E+03  0.00000000000E+00 0. -1.
         11    1    4    4    0    0  0.37432405839E+02 -0.18056183988E+02  0.47894796383E+02  0.63412319842E+02  0.00000000000E+00 0.  1.
         21    1    1    2  502  501 -0.58216236281E+02  0.83070660900E+01  0.88207326292E+02  0.10601259324E+03  0.00000000000E+00 0. -1.
<scales pt_clust_5="13000.00000" pt_clust_6="13000.00000" pt_clust_7="13000.00000" pt_clust_8="13000.00000" pt_clust_9="58.80593"></scales>
<clustering>
<clus scale="   58.806">  1  9  2 -1</clus>
<clus scale="   95.339">  7  8 -1 -1</clus>
<clus scale="   99.613">  5  6 -1 -1</clus>
<clus scale="  102.416">  1  7  2 -1</clus>
<clus scale="   58.806">  1  5  2 -1</clus>
</clustering>
</event>
<event>
 9    1  0.6202448E-006  0.1555255E+03  0.7546771E-02  0.1221387E+00
         -1   -1    0    0    0  501 -0.00000000000E+00  0.00000000000E+00  0.11029721715E+03  0.11029721715E+03  0.00000000000E+00 0.  1.
          1   -1    0    0  502    0  0.00000000000E+00 -0.00000000000E+00 -0.32332947291E+03  0.32332947291E+03  0.00000000000E+00 0. -1.
         23    2    1    2    0    0 -0.10970827142E+03  0.27012174341E+02 -0.67460378350E+02  0.15969480949E+03  0.90476334762E+02 0.  0.
         23    2    1    2    0    0 -0.19543795786E+02  0.25746747579E+02 -0.87290807890E+02  0.12264974750E+03  0.79865013964E+02 0.  0.
        -11    1    3    3    0    0  0.36538920361E+01 -0.20949853911E+02 -0.59051752036E+01  0.22070758937E+02  0.00000000000E+00 0.  1.
         11    1    3    3    0    0 -0.11336216346E+03  0.47962028252E+02 -0.61555203146E+02  0.13762405056E+03  0.00000000000E+00 0. -1.
        -11    1    4    4    0    0  0.16416119092E+02  0.40247994422E+02 -0.64169480624E+02  0.77505562798E+02  0.00000000000E+00 0. -1.
         11    1    4    4    0    0 -0.35959914878E+02 -0.14501246843E+02 -0.23121327266E+02  0.45144184703E+02  0.00000000000E+00 0.  1.
         21    1    1    2  502  501  0.12925206721E+03 -0.52758921921E+02 -0.58281069516E+02  0.15128213306E+03  0.00000000000E+00 0.  1.
<scales pt_clust_5="13000.00000" pt_clust_6="13000.00000" pt_clust_7="13000.00000" pt_clust_8="13000.00000" pt_clust_9="126.49989"></scales>
<clustering>
<clus scale="   79.865">  7  8 -1 -1</clus>
<clus scale="   86.158">  2  7  1 -1</clus>
<clus scale="   90.476">  5  6 -1 -1</clus>
<clus scale="  126.500">  2  9  1 -1</clus>
<clus scale="   86.158">  2  5  1 -1</clus>
</clustering>
</event>
<event>
 9    1  0.6202448E-006  0.1201393E+03  0.7546771E-02  0.1244300E+00
          3   -1    0    0  502    0  0.00000000000E+00  0.00000000000E+00  0.23691182665E+03  0.23691182665E+03  0.00000000000E+00 0. -1.
         -3   -1    0    0    0  501 -0.00000000000E+00 -0.00000000000E+00 -0.16557316414E+03  0.16557316414E+03  0.00000000000E+00 0.  1.
         23    2    1    2    0    0 -0.43567970272E+02  0.25069032466E+02 -0.11858797067E+02  0.10487099913E+03  0.91272509381E+02 0.  0.
         23    2    1    2    0    0  0.10667317364E+03 -0.21837501482E+02 -0.51830142094E+02  0.14853293083E+03  0.86715774026E+02 0.  0.
        -11    1    4    4    0    0  0.96967125322E+02 -0.40677524031E+02 -0.64961498809E+02  0.12360129725E+03  0.00000000000E+00 0. -1.
         11    1    4    4    0    0  0.97060483188E+01  0.18840022549E+02  0.13131356715E+02  0.24931633576E+02  0.00000000000E+00 0.  1.
        -13    1    3    3    0    0 -0.35697964442E+02  0.57079792709E+02  0.56237470936E+01  0.67557930196E+02  0.00000000000E+00 0.  1.
         13    1    3    3    0    0 -0.78700058307E+01 -0.32010760243E+02 -0.17482544160E+02  0.37313068936E+02  0.00000000000E+00 0. -1.
         21    1    1    2  502  501 -0.63105203369E+02 -0.32315309839E+01  0.13502760167E+03  0.14908106083E+03  0.00000000000E+00 0.  1.
<scales pt_clust_5="13000.00000" pt_clust_6="13000.00000" pt_clust_7="13000.00000" pt_clust_8="13000.00000" pt_clust_9="63.18789"></scales>
<clustering>
<clus scale="   63.188">  1  9  2 -1</clus>
<clus scale="   86.716">  5  6 -1 -1</clus>
<clus scale="   91.273">  7  8 -1 -1</clus>
<clus scale="  116.715">  1  5  2 -1</clus>
<clus scale="   63.188">  1  5  2 -1</clus>
</clustering>
</event>
<event>
 9    1  0.6202448E-006  0.1566664E+03  0.7546771E-02  0.1192555E+00
          1   -1    0    0  502    0  0.00000000000E+00  0.00000000000E+00  0.14268889175E+03  0.14268889175E+03  0.00000000000E+00 0. -1.
         -1   -1    0    0    0  501 -0.00000000000E+00 -0.00000000000E+00 -0.32568512004E+03  0.32568512004E+03  0.00000000000E+00 0.  1.
         23    2    1    2    0    0 -0.10107703937E+02 -0.15638068086E+03 -0.50170106556E+02  0.18840892968E+03  0.91781273507E+02 0.  0.
         23    2    1    2    0    0 -0.60814284072E+02  0.96301737001E+02 -0.47106582417E+02  0.15352439521E+03  0.91533098505E+02 0.  0.
        -11    1    4    4    0    0 -0.16741146380E+02  0.19857519259E+02  0.27606165066E+02  0.37903659492E+02  0.00000000000E+00 0. -1.
         11    1    4    4    0    0 -0.44073137692E+02  0.76444217742E+02 -0.74712747483E+02  0.11562073572E+03  0.00000000000E+00 0.  1.
        -13    1    3    3    0    0 -0.50125056455E+02 -0.79927698762E+02 -0.16483756003E+02  0.95774070217E+02  0.00000000000E+00 0.  1.
         13    1    3    3    0    0  0.40017352518E+02 -0.76452982102E+02 -0.33686350553E+02  0.92634859467E+02  0.00000000000E+00 0. -1.
         21    1    1    2  502  501  0.70921988009E+02  0.60078943863E+02 -0.85719539317E+02  0.12644068688E+03  0.00000000000E+00 0.  1.
<scales pt_clust_5="13000.00000" pt_clust_6="13000.00000" pt_clust_7="13000.00000" pt_clust_8="13000.00000" pt_clust_9="92.94842"></scales>
<clustering>
<clus scale="   91.533">  5  6 -1 -1</clus>
<clus scale="   91.781">  7  8 -1 -1</clus>
<clus scale="   92.948">  2  9  1 -1</clus>
<clus scale="  156.521">  1  5  2 -1</clus>
<clus scale="  156.521">  1  5  2 -1</clus>
</clustering>
</event>
<event>
 9    1  0.6202448E-006  0.2639133E+03  0.7546771E-02  0.1105136E+00
         -1   -1    0    0    0  501 -0.00000000000E+00  0.00000000000E+00  0.41216510027E+03  0.41216510027E+03  0.00000000000E+00 0.  1.
          1   -1    0    0  502    0  0.00000000000E+00 -0.00000000000E+00 -0.37176519270E+03  0.37176519270E+03  0.00000000000E+00 0. -1.
         23    2    1    2    0    0  0.10427599947E+03  0.25425687621E+03  0.27588741343E+03  0.40139379423E+03  0.97381055625E+02 0.  0.
         23    2    1    2    0    0 -0.65857189196E+02 -0.13852948175E+03 -0.15508861385E+03  0.23647891884E+03  0.91335722613E+02 0.  0.
        -13    1    4    4    0    0 -0.49838553218E+02 -0.12372645848E+02 -0.44672880565E+02  0.68063426377E+02  0.00000000000E+00 0.  1.
         13    1    4    4    0    0 -0.16018635978E+02 -0.12615683590E+03 -0.11041573329E+03  0.16841549246E+03  0.00000000000E+00 0. -1.
        -13    1    3    3    0    0  0.35315160519E+02  0.19029897833E+03  0.21533003641E+03  0.28953045832E+03  0.00000000000E+00 0.  1.
         13    1    3    3    0    0  0.68960838948E+02  0.63957897873E+02  0.60557377026E+02  0.11186333591E+03  0.00000000000E+00 0. -1.
         21    1    1    2  502  501 -0.38418810271E+02 -0.11572739446E+03 -0.80398892009E+02  0.14605757990E+03  0.00000000000E+00 0. -1.
<scales pt_clust_5="13000.00000" pt_clust_6="13000.00000" pt_clust_7="13000.00000" pt_clust_8="13000.00000" pt_clust_9="121.93783"></scales>
<clustering>
<clus scale="   91.336">  5  6 -1 -1</clus>
<clus scale="   97.381">  7  8 -1 -1</clus>
<clus scale="  121.938">  2  9  1 -1</clus>
<clus scale="  261.743">  2  5  1 -1</clus>
<clus scale="  121.938">  2  5  1 -1</clus>
</clustering>
</event>
<event>
 9    1  0.8115452E-006  0.2794516E+03  0.7546771E-02  0.1097768E+00
         -1   -1    0    0    0  501 -0.00000000000E+00  0.00000000000E+00  0.35627165464E+03  0.35627165464E+03  0.00000000000E+00 0.  1.
          1   -1    0    0  502    0  0.00000000000E+00 -0.00000000000E+00 -0.62694419742E+03  0.62694419742E+03  0.00000000000E+00 0. -1.
         23    2    1    2    0    0  0.75146745881E+02 -0.24512853454E+03  0.23950306805E+03  0.36241593404E+03  0.90821571109E+02 0.  0.
         23    2    1    2    0    0 -0.13889501192E+03  0.17582975738E+03 -0.41096708640E+03  0.48402092378E+03  0.12318433602E+03 0.  0.
        -11    1    4    4    0    0 -0.13939308691E+02 -0.16210886278E+02 -0.13616185312E+02  0.25347537615E+02  0.00000000000E+00 0.  1.
         11    1    4    4    0    0 -0.12495570323E+03  0.19204064365E+03 -0.39735090109E+03  0.45867338617E+03  0.00000000000E+00 0. -1.
        -11    1    3    3    0    0  0.39152263736E+02 -0.18684094227E+03  0.12246950024E+03  0.22680656065E+03  0.00000000000E+00 0.  1.
         11    1    3    3    0    0  0.35994482145E+02 -0.58287592270E+02  0.11703356781E+03  0.13560937339E+03  0.00000000000E+00 0. -1.
         21    1    1    2  502  501  0.63748266044E+02  0.69298777165E+02 -0.99208524436E+02  0.13677899422E+03  0.00000000000E+00 0. -1.
<scales pt_clust_5="13000.00000" pt_clust_6="13000.00000" pt_clust_7="13000.00000" pt_clust_8="13000.00000" pt_clust_9="94.16030"></scales>
<clustering>
<clus scale="   90.822">  7  8 -1 -1</clus>
<clus scale="   94.160">  2  9  1 -1</clus>
<clus scale="  123.184">  5  6 -1 -1</clus>
<clus scale="  266.772">  1  7  2 -1</clus>
<clus scale="   94.160">  2  5  1 -1</clus>
</clustering>
</event>
<event>
 9    1  0.6202448E-006  0.9382151E+02  0.7546771E-02  0.1296241E+00
          1   -1    0    0  502    0  0.00000000000E+00  0.00000000000E+00  0.37636591257E+03  0.37636591257E+03  0.00000000000E+00 0. -1.
         -1   -1    0    0    0  501 -0.00000000000E+00 -0.00000000000E+00 -0.41943454603E+02  0.41943454603E+02  0.00000000000E+00 0.  1.
         23    2    1    2    0    0  0.31042433785E+02  0.71455764495E+01  0.44756265802E+02  0.10444133251E+03  0.88826666325E+02 0.  0.
         23    2    1    2    0    0 -0.26780636726E+02  0.17084264168E+02  0.26054858410E+03  0.27574870636E+03  0.84514553763E+02 0.  0.
        -11    1    3    3    0    0  0.32770327931E+02  0.31942089170E+02 -0.76889775583E+01  0.46403791108E+02  0.00000000000E+00 0.  1.
         11    1    3    3    0    0 -0.17278941461E+01 -0.24796512721E+02  0.52445243360E+02  0.58037541405E+02  0.00000000000E+00 0. -1.
        -13    1    4    4    0    0  0.24585517668E+02 -0.10100994706E+02  0.42832120873E+02  0.50409010618E+02  0.00000000000E+00 0.  1.
         13    1    4    4    0    0 -0.51366154394E+02  0.27185258874E+02  0.21771646323E+03  0.22533969574E+03  0.00000000000E+00 0. -1.
         21    1    1    2  502  501 -0.42617970590E+01 -0.24229840617E+02  0.29117608066E+02  0.38119328299E+02  0.00000000000E+00 0. -1.
<scales pt_clust_5="13000.00000" pt_clust_6="13000.00000" pt_clust_7="13000.00000" pt_clust_8="13000.00000" pt_clust_9="24.60179"></scales>
<clustering>
<clus scale="   24.602">  2  9  1 -1</clus>
<clus scale="   84.515">  7  8 -1 -1</clus>
<clus scale="   88.827">  5  6 -1 -1</clus>
<clus scale="   89.750">  1  7  2 -1</clus>
<clus scale="   89.750">  1  5  2 -1</clus>
</clustering>
</event>
<event>
 9    1  0.6202448E-006  0.9435180E+02  0.7546771E-02  0.1293061E+00
          1   -1    0    0  502    0  0.00000000000E+00  0.00000000000E+00  0.33475724929E+03  0.33475724929E+03  0.00000000000E+00 0. -1.
         -1   -1    0    0    0  501 -0.00000000000E+00 -0.00000000000E+00 -0.66625282233E+02  0.66625282233E+02  0.00000000000E+00 0.  1.
         23    2    1    2    0    0 -0.12049017875E+02 -0.43723500481E+02  0.84009717924E+02  0.13231447548E+03  0.91610940344E+02 0.  0.
         23    2    1    2    0    0 -0.18197669426E+02  0.53095566763E+01  0.19709284053E+03  0.21848417113E+03  0.92360157420E+02 0.  0.
        -11    1    4    4    0    0  0.12071189977E+02  0.43061567087E+02  0.11194692716E+03  0.12054927079E+03  0.00000000000E+00 0.  1.
         11    1    4    4    0    0 -0.30268859404E+02 -0.37752010411E+02  0.85145913372E+02  0.97934900335E+02  0.00000000000E+00 0. -1.
        -13    1    3    3    0    0  0.38258671394E+02 -0.13430570570E+02  0.19221493691E+02  0.44872842371E+02  0.00000000000E+00 0.  1.
         13    1    3    3    0    0 -0.50307689269E+02 -0.30292929911E+02  0.64788224233E+02  0.87441633113E+02  0.00000000000E+00 0. -1.
         21    1    1    2  502  501  0.30246687301E+02  0.38413943804E+02 -0.12970591404E+02  0.50583884911E+02  0.00000000000E+00 0.  1.
<scales pt_clust_5="13000.00000" pt_clust_6="13000.00000" pt_clust_7="13000.00000" pt_clust_8="13000.00000" pt_clust_9="48.89267"></scales>
<clustering>
<clus scale="   48.893">  2  9  1 -1</clus>
<clus scale="   91.611">  7  8 -1 -1</clus>
<clus scale="   92.360">  5  6 -1 -1</clus>
<clus scale="   93.619">  2  7  1 -1</clus>
<clus scale="   94.352">  1  5  2 -1</clus>
</clustering>
</event>
<event>
 9    1  0.6202448E-006  0.1023699E+03  0.7546771E-02  0.1275830E+00
         -1   -1    0    0    0  501 -0.00000000000E+00  0.00000000000E+00  0.18715632201E+03  0.18715632201E+03  0.00000000000E+00 0.  1.
          1   -1    0    0  502    0  0.00000000000E+00 -0.00000000000E+00 -0.34544484852E+03  0.34544484852E+03  0.00000000000E+00 0. -1.
         23    2    1    2    0    0  0.26237041854E+02 -0.24046809640E+02  0.13323667671E+03  0.16537996372E+03  0.91279181428E+02 0.  0.
         23    2    1    2    0    0  0.39719773525E+01  0.45482297234E+02 -0.30941819380E+03  0.32608455548E+03  0.92233956329E+02 0.  0.
        -13    1    3    3    0    0  0.51685649891E+02 -0.40970304370E+02  0.10356906728E+03  0.12278649739E+03  0.00000000000E+00 0.  1.
         13    1    3    3    0    0 -0.25448608037E+02  0.16923494730E+02  0.29667609428E+02  0.42593466331E+02  0.00000000000E+00 0. -1.
        -13    1    4    4    0    0 -0.20446286347E+02 -0.22632503242E+02 -0.96696982478E+02  0.10139323078E+03  0.00000000000E+00 0.  1.
         13    1    4    4    0    0  0.24418263700E+02  0.68114800476E+02 -0.21272121133E+03  0.22469132470E+03  0.00000000000E+00 0. -1.
         21    1    1    2  502  501 -0.30209019206E+02 -0.21435487594E+02  0.17892990592E+02  0.41136651323E+02  0.00000000000E+00 0.  1.
<scales pt_clust_5="13000.00000" pt_clust_6="13000.00000" pt_clust_7="13000.00000" pt_clust_8="13000.00000" pt_clust_9="37.04140"></scales>
<clustering>
<clus scale="   37.041">  1  9  2 -1</clus>
<clus scale="   91.279">  5  6 -1 -1</clus>
<clus scale="   92.234">  7  8 -1 -1</clus>
<clus scale="  101.510">  1  5  2 -1</clus>
<clus scale="  102.370">  2  5  1 -1</clus>
</clustering>
</event>
<event>
 9    1  0.6202448E-006  0.9480940E+02  0.7546771E-02  0.1291738E+00
          1   -1    0    0  502    0  0.00000000000E+00  0.00000000000E+00  0.34143580869E+03  0.34143580869E+03  0.00000000000E+00 0. -1.
         -1   -1    0    0    0  501 -0.00000000000E+00 -0.00000000000E+00 -0.15479242203E+03  0.15479242203E+03  0.00000000000E+00 0.  1.
         23    2    1    2    0    0  0.16959072940E+02 -0.12360488498E+02 -0.49793484956E+02  0.10762094450E+03  0.93072470262E+02 0.  0.
         23    2    1    2    0    0 -0.15557211066E+02 -0.30719763323E+02 -0.41491463471E+02  0.10735645021E+03  0.92833911830E+02 0.  0.
        -11    1    4    4    0    0 -0.47768462900E+02  0.61291513721E+01 -0.10088693444E+02  0.49205429373E+02  0.00000000000E+00 0. -1.
         11    1    4    4    0    0  0.32211251833E+02 -0.36848914695E+02 -0.31402770027E+02  0.58151020836E+02  0.00000000000E+00 0.  1.
        -13    1    3    3    0    0  0.53621013543E+01 -0.41105561040E+02 -0.61770682882E+02  0.74391105268E+02  0.00000000000E+00 0.  1.
         13    1    3    3    0    0  0.11596971586E+02  0.28745072541E+02  0.11977197926E+02  0.33229839234E+02  0.00000000000E+00 0. -1.
         21    1    1    2  502  501 -0.14018618734E+01  0.43080251821E+02  0.27792833508E+03  0.28125083601E+03  0.00000000000E+00 0. -1.
<scales pt_clust_5="13000.00000" pt_clust_6="13000.00000" pt_clust_7="13000.00000" pt_clust_8="13000.00000" pt_clust_9="43.10305"></scales>
<clustering>
<clus scale="   43.103">  1  9  2 -1</clus>
<clus scale="   92.834">  5  6 -1 -1</clus>
<clus scale="   93.072">  7  8 -1 -1</clus>
<clus scale="   94.575">  1  5  2 -1</clus>
<clus scale="   43.103">  1  5  2 -1</clus>
</clustering>
</event>
<event>
 9    1  0.6202448E-006  0.2876265E+03  0.7546771E-02  0.1110239E+00
         -1   -1    0    0    0  501 -0.00000000000E+00  0.00000000000E+00  0.59268473332E+03  0.59268473332E+03  0.00000000000E+00 0.  1.
          1   -1    0    0  502    0  0.00000000000E+00 -0.00000000000E+00 -0.55452354985E+03  0.55452354985E+03  0.00000000000E+00 0. -1.
         23    2    1    2    0    0 -0.12640493693E+03  0.82321313035E+02  0.38610947646E+03  0.42493512740E+03  0.93457626905E+02 0.  0.
         23    2    1    2    0    0 -0.13677562821E+03 -0.21147309084E+03  0.37210759799E+00  0.26700258452E+03  0.88666797930E+02 0.  0.
        -13    1    4    4    0    0 -0.10359185083E+03 -0.79370433450E+02  0.64327343906E+01  0.13066107812E+03  0.00000000000E+00 0.  1.
         13    1    4    4    0    0 -0.33183777387E+02 -0.13210265739E+03 -0.60606267926E+01  0.13634150640E+03  0.00000000000E+00 0. -1.
        -13    1    3    3    0    0 -0.20427309797E+02 -0.20547690757E+02  0.49628630748E+02  0.57467239110E+02  0.00000000000E+00 0. -1.
         13    1    3    3    0    0 -0.10597762713E+03  0.10286900379E+03  0.33648084572E+03  0.36746788829E+03  0.00000000000E+00 0.  1.
         21    1    1    2  502  501  0.26318056514E+03  0.12915177781E+03 -0.34832040059E+03  0.45527057125E+03  0.00000000000E+00 0. -1.
<scales pt_clust_5="13000.00000" pt_clust_6="13000.00000" pt_clust_7="13000.00000" pt_clust_8="13000.00000" pt_clust_9="273.61875"></scales>
<clustering>
<clus scale="   88.667">  5  6 -1 -1</clus>
<clus scale="   93.458">  7  8 -1 -1</clus>
<clus scale="  177.452">  1  7  2 -1</clus>
<clus scale="  273.619">  2  9  1 -1</clus>
<clus scale="  273.619">  2  5  1 -1</clus>
</clustering>
</event>
<event>
 9    1  0.6202448E-006  0.1206595E+03  0.7546771E-02  0.1242343E+00
          3   -1    0    0  502    0  0.00000000000E+00  0.00000000000E+00  0.29876883379E+03  0.29876883379E+03  0.00000000000E+00 0. -1.
         -3   -1    0    0    0  501 -0.00000000000E+00 -0.00000000000E+00 -0.10004205995E+03  0.10004205995E+03  0.00000000000E+00 0.  1.
         23    2    1    2    0    0 -0.33063714747E+02  0.27125875531E+02 -0.19463144404E+02  0.10235929162E+03  0.90937276373E+02 0.  0.
         23    2    1    2    0    0  0.62045351327E+02 -0.62742554385E+02  0.21559502340E+03  0.25046011867E+03  0.91993495284E+02 0.  0.
        -13    1    4    4    0    0  0.31629660026E+02 -0.76900858882E+02  0.99789421534E+02  0.12989267162E+03  0.00000000000E+00 0.  1.
         13    1    4    4    0    0  0.30415691302E+02  0.14158304497E+02  0.11580560187E+03  0.12056744705E+03  0.00000000000E+00 0. -1.
        -13    1    3    3    0    0 -0.52080693511E+02  0.48536458509E+02 -0.85042975852E+01  0.71697346664E+02  0.00000000000E+00 0.  1.
         13    1    3    3    0    0  0.19016978765E+02 -0.21410582978E+02 -0.10958846818E+02  0.30661944954E+02  0.00000000000E+00 0. -1.
         21    1    1    2  502  501 -0.28981636581E+02  0.35616678854E+02  0.25948948350E+01  0.45991483458E+02  0.00000000000E+00 0.  1.
<scales pt_clust_5="13000.00000" pt_clust_6="13000.00000" pt_clust_7="13000.00000" pt_clust_8="13000.00000" pt_clust_9="45.91822"></scales>
<clustering>
<clus scale="   45.918">  2  9  1 -1</clus>
<clus scale="   90.937">  7  8 -1 -1</clus>
<clus scale="   91.993">  5  6 -1 -1</clus>
<clus scale="  119.856">  2  7  1 -1</clus>
<clus scale="  120.660">  1  5  2 -1</clus>
</clustering>
</event>
<event>
 9    1  0.6202448E-006  0.1126620E+03  0.7546771E-02  0.1257739E+00
          1   -1    0    0  502    0  0.00000000000E+00  0.00000000000E+00  0.36121527136E+03  0.36121527136E+03  0.00000000000E+00 0. -1.
         -1   -1    0    0    0  501 -0.00000000000E+00 -0.00000000000E+00 -0.82085469365E+02  0.82085469365E+02  0.00000000000E+00 0.  1.
         23    2    1    2    0    0  0.75764408728E+02  0.78177945205E+02  0.11144889370E+03  0.17803042700E+03  0.86150683588E+02 0.  0.
         23    2    1    2    0    0 -0.53112730708E+02  0.65766614581E+01  0.13485973058E+03  0.17160243464E+03  0.91629875045E+02 0.  0.
        -11    1    3    3    0    0  0.54127745244E+02 -0.31926364663E+01  0.50409790564E+02  0.74034807472E+02  0.00000000000E+00 0.  1.
         11    1    3    3    0    0  0.21636663484E+02  0.81370581671E+02  0.61039103138E+02  0.10399561952E+03  0.00000000000E+00 0. -1.
        -13    1    4    4    0    0 -0.23595539899E+02 -0.24446465174E+02  0.12236600639E+03  0.12699534906E+03  0.00000000000E+00 0. -1.
         13    1    4    4    0    0 -0.29517190808E+02  0.31023126632E+02  0.12493724189E+02  0.44607085573E+02  0.00000000000E+00 0.  1.
         21    1    1    2  502  501 -0.22651678020E+02 -0.84754606663E+02  0.32821177713E+02  0.93667879095E+02  0.00000000000E+00 0. -1.
<scales pt_clust_5="13000.00000" pt_clust_6="13000.00000" pt_clust_7="13000.00000" pt_clust_8="13000.00000" pt_clust_9="87.72937"></scales>
<clustering>
<clus scale="   86.151">  5  6 -1 -1</clus>
<clus scale="   87.729">  2  9  1 -1</clus>
<clus scale="   91.630">  7  8 -1 -1</clus>
<clus scale="  108.253">  2  5  1 -1</clus>
<clus scale="  112.662">  1  5  2 -1</clus>
</clustering>
</event>
<event>
 9    1  0.6202448E-006  0.9316326E+02  0.7546771E-02  0.1295499E+00
          2   -1    0    0  502    0  0.00000000000E+00  0.00000000000E+00  0.63514728787E+03  0.63514728787E+03  0.00000000000E+00 0. -1.
         -2   -1    0    0    0  501 -0.00000000000E+00 -0.00000000000E+00 -0.57269554838E+02  0.57269554838E+02  0.00000000000E+00 0.  1.
         23    2    1    2    0    0  0.16279211130E+02  0.25392063455E+02  0.21120544932E+02  0.98027120590E+02  0.90848606766E+02 0.  0.
         23    2    1    2    0    0 -0.22270271687E+02  0.67192543215E+02  0.32566369505E+03  0.34536762525E+03  0.90615403949E+02 0.  0.
        -11    1    4    4    0    0 -0.48111325453E+02  0.68920544285E+02  0.28517992636E+03  0.29730847862E+03  0.00000000000E+00 0.  1.
         11    1    4    4    0    0  0.25841053766E+02 -0.17280010699E+01  0.40483768694E+02  0.48059146633E+02  0.00000000000E+00 0. -1.
        -13    1    3    3    0    0 -0.31805157004E+02  0.22173009899E+02 -0.10769511086E+02  0.40239194190E+02  0.00000000000E+00 0.  1.
         13    1    3    3    0    0  0.48084368134E+02  0.32190535556E+01  0.31890056018E+02  0.57787926399E+02  0.00000000000E+00 0. -1.
         21    1    1    2  502  501  0.59910605572E+01 -0.92584606670E+02  0.23109349305E+03  0.24902209687E+03  0.00000000000E+00 0. -1.
<scales pt_clust_5="13000.00000" pt_clust_6="13000.00000" pt_clust_7="13000.00000" pt_clust_8="13000.00000" pt_clust_9="92.77824"></scales>
<clustering>
<clus scale="   90.615">  5  6 -1 -1</clus>
<clus scale="   90.849">  7  8 -1 -1</clus>
<clus scale="   92.778">  1  9  2 -1</clus>
<clus scale="   92.936">  1  5  2 -1</clus>
<clus scale="   92.778">  1  5  2 -1</clus>
</clustering>
</event>
<event>
 9    1  0.6202448E-006  0.1258420E+03  0.7546771E-02  0.1254555E+00
         -1   -1    0    0    0  501 -0.00000000000E+00  0.00000000000E+00  0.23283243019E+02  0.23283243019E+02  0.00000000000E+00 0.  1.
          1   -1    0    0  502    0  0.00000000000E+00 -0.00000000000E+00 -0.11150830778E+04  0.11150830778E+04  0.00000000000E+00 0. -1.
         23    2    1    2    0    0 -0.24408509600E+02 -0.10098538316E+02 -0.14374245837E+03  0.16584805038E+03  0.78395954345E+02 0.  0.
         23    2    1    2    0    0 -0.87433082324E+01 -0.78046255883E+02 -0.58953470882E+03  0.60183369976E+03  0.92113873901E+02 0.  0.
        -11    1    3    3    0    0  0.28466378236E+02 -0.89412412963E+01 -0.52313890987E+02  0.60224776264E+02  0.00000000000E+00 0.  1.
         11    1    3    3    0    0 -0.52874887836E+02 -0.11572970197E+01 -0.91428567386E+02  0.10562327411E+03  0.00000000000E+00 0. -1.
        -13    1    4    4    0    0  0.38309799469E+02 -0.16993726882E+02 -0.15771209911E+03  0.16318558053E+03  0.00000000000E+00 0.  1.
         13    1    4    4    0    0 -0.47053107701E+02 -0.61052529001E+02 -0.43182260971E+03  0.43864811923E+03  0.00000000000E+00 0. -1.
         21    1    1    2  502  501  0.33151817832E+02  0.88144794199E+02 -0.35852266762E+03  0.37068457072E+03  0.00000000000E+00 0.  1.
<scales pt_clust_5="13000.00000" pt_clust_6="13000.00000" pt_clust_7="13000.00000" pt_clust_8="13000.00000" pt_clust_9="85.73938"></scales>
<clustering>
<clus scale="   78.396">  5  6 -1 -1</clus>
<clus scale="   82.727">  1  5  2 -1</clus>
<clus scale="   85.739">  1  9  2 -1</clus>
<clus scale="   92.114">  7  8 -1 -1</clus>
<clus scale="  125.842">  2  5  1 -1</clus>
</clustering>
</event>
<event>
 9    1  0.6202448E-006  0.1184767E+03  0.7546771E-02  0.1246788E+00
          2   -1    0    0  502    0  0.00000000000E+00  0.00000000000E+00  0.27755222073E+03  0.27755222073E+03  0.00000000000E+00 0. -1.
         -2   -1    0    0    0  501 -0.00000000000E+00 -0.00000000000E+00 -0.98022862361E+02  0.98022862361E+02  0.00000000000E+00 0.  1.
         23    2    1    2    0    0 -0.16871855765E+02  0.32420921815E+02 -0.21549749741E+02  0.10237517319E+03  0.93169247524E+02 0.  0.
         23    2    1    2    0    0  0.28300054893E+02 -0.79369978302E+02  0.18516502502E+03  0.22232677670E+03  0.89680670080E+02 0.  0.
        -11    1    3    3    0    0  0.18688883512E+02  0.14806042071E+02 -0.48746882327E+02  0.54265567217E+02  0.00000000000E+00 0.  1.
         11    1    3    3    0    0 -0.35560739277E+02  0.17614879744E+02  0.27197132586E+02  0.48109605977E+02  0.00000000000E+00 0. -1.
        -11    1    4    4    0    0  0.55706638731E+02 -0.72202865915E+02  0.16126039995E+03  0.18526035743E+03  0.00000000000E+00 0. -1.
         11    1    4    4    0    0 -0.27406583838E+02 -0.71671123867E+01  0.23904625073E+02  0.37066419270E+02  0.00000000000E+00 0.  1.
         21    1    1    2  502  501 -0.11428199128E+02  0.46949056487E+02  0.15914083088E+02  0.50873133193E+02  0.00000000000E+00 0.  1.
<scales pt_clust_5="13000.00000" pt_clust_6="13000.00000" pt_clust_7="13000.00000" pt_clust_8="13000.00000" pt_clust_9="48.31995"></scales>
<clustering>
<clus scale="   48.320">  2  9  1 -1</clus>
<clus scale="   89.681">  7  8 -1 -1</clus>
<clus scale="   93.169">  5  6 -1 -1</clus>
<clus scale="  115.753">  1  7  2 -1</clus>
<clus scale="  115.753">  1  5  2 -1</clus>
</clustering>
</event>
<event>
 9    1  0.6202448E-006  0.1388310E+03  0.7546771E-02  0.1215702E+00
         -3   -1    0    0    0  501 -0.00000000000E+00  0.00000000000E+00  0.14975563032E+03  0.14975563032E+03  0.00000000000E+00 0.  1.
          3   -1    0    0  502    0  0.00000000000E+00 -0.00000000000E+00 -0.23223313591E+03  0.23223313591E+03  0.00000000000E+00 0. -1.
         23    2    1    2    0    0  0.22601554533E+01  0.76570423480E+02 -0.82593529356E+01  0.11788850636E+03  0.89226369228E+02 0.  0.
         23    2    1    2    0    0  0.69924618929E+02 -0.11918859807E+03 -0.68888926376E+02  0.18010412239E+03  0.92716969768E+02 0.  0.
        -11    1    3    3    0    0  0.43584471517E+02  0.28335820006E+02 -0.14760530166E+02  0.54040707837E+02  0.00000000000E+00 0. -1.
         11    1    3    3    0    0 -0.41324316063E+02  0.48234603474E+02  0.65011772302E+01  0.63847798519E+02  0.00000000000E+00 0.  1.
        -13    1    4    4    0    0  0.62573498209E+02 -0.65859498814E+02 -0.84483030524E+02  0.12405764269E+03  0.00000000000E+00 0. -1.
         13    1    4    4    0    0  0.73511207201E+01 -0.53329099254E+02  0.15594104148E+02  0.56046479705E+02  0.00000000000E+00 0.  1.
         21    1    1    2  502  501 -0.72184774383E+02  0.42618174588E+02 -0.53292262790E+01  0.83996137475E+02  0.00000000000E+00 0.  1.
<scales pt_clust_5="13000.00000" pt_clust_6="13000.00000" pt_clust_7="13000.00000" pt_clust_8="13000.00000" pt_clust_9="83.82691"></scales>
<clustering>
<clus scale="   83.827">  1  9  2 -1</clus>
<clus scale="   89.226">  5  6 -1 -1</clus>
<clus scale="   92.717">  7  8 -1 -1</clus>
<clus scale="  136.525">  1  5  2 -1</clus>
<clus scale="  138.831">  2  5  1 -1</clus>
</clustering>
</event>
<event>
 9    1  0.6202448E-006  0.9914193E+02  0.7546771E-02  0.1284190E+00
          2   -1    0    0  502    0  0.00000000000E+00  0.00000000000E+00  0.48089056320E+02  0.48089056320E+02  0.00000000000E+00 0. -1.
         -2   -1    0    0    0  501 -0.00000000000E+00 -0.00000000000E+00 -0.29309118423E+03  0.29309118423E+03  0.00000000000E+00 0.  1.
         23    2    1    2    0    0  0.27192639904E+02  0.39242862538E+02 -0.15155339672E+03  0.18482706142E+03  0.94409579224E+02 0.  0.
         23    2    1    2    0    0 -0.20212647874E+02 -0.10971423198E+02 -0.55528134981E+02  0.10854140038E+03  0.90382180544E+02 0.  0.
        -11    1    4    4    0    0  0.35523056068E+02  0.31637661815E+01 -0.18846284791E+02  0.40337072022E+02  0.00000000000E+00 0.  1.
         11    1    4    4    0    0 -0.55735703942E+02 -0.14135189380E+02 -0.36681850190E+02  0.68204328353E+02  0.00000000000E+00 0. -1.
        -13    1    3    3    0    0  0.36679700219E+02  0.43331508456E+01 -0.14294702537E+03  0.14764155467E+03  0.00000000000E+00 0.  1.
         13    1    3    3    0    0 -0.94870603150E+01  0.34909711693E+02 -0.86063713505E+01  0.37185506743E+02  0.00000000000E+00 0. -1.
         21    1    1    2  502  501 -0.69799920298E+01 -0.28271439340E+02 -0.37920596205E+02  0.47811778754E+02  0.00000000000E+00 0.  1.
<scales pt_clust_5="13000.00000" pt_clust_6="13000.00000" pt_clust_7="13000.00000" pt_clust_8="13000.00000" pt_clust_9="29.12035"></scales>
<clustering>
<clus scale="   29.120">  2  9  1 -1</clus>
<clus scale="   90.382">  5  6 -1 -1</clus>
<clus scale="   94.410">  7  8 -1 -1</clus>
<clus scale="   95.315">  1  5  2 -1</clus>
<clus scale="   95.315">  1  5  2 -1</clus>
</clustering>
</event>
<event>
 9    1  0.6202448E-006  0.1019473E+03  0.7546771E-02  0.1276764E+00
         -2   -1    0    0    0  501 -0.00000000000E+00  0.00000000000E+00  0.13775869065E+03  0.13775869065E+03  0.00000000000E+00 0.  1.
          2   -1    0    0  502    0  0.00000000000E+00 -0.00000000000E+00 -0.15496082590E+03  0.15496082590E+03  0.00000000000E+00 0. -1.
         23    2    1    2    0    0  0.14775049676E+01  0.23257505381E+01  0.64018910828E+02  0.11324143699E+03  0.93368142166E+02 0.  0.
         23    2    1    2    0    0 -0.41688178238E+02 -0.26232112331E+02 -0.79061504991E+02  0.13264779025E+03  0.94438799040E+02 0.  0.
        -11    1    3    3    0    0  0.16659350245E+02 -0.42365408571E+02  0.24590152588E+02  0.51740094688E+02  0.00000000000E+00 0.  1.
         11    1    3    3    0    0 -0.15181845278E+02  0.44691159109E+02  0.39428758241E+02  0.61501342302E+02  0.00000000000E+00 0. -1.
        -13    1    4    4    0    0 -0.49024406988E+02  0.81574184649E+01 -0.83535050234E+02  0.97201031755E+02  0.00000000000E+00 0.  1.
         13    1    4    4    0    0  0.73362287497E+01 -0.34389530796E+02  0.44735452434E+01  0.35446758493E+02  0.00000000000E+00 0. -1.
         21    1    1    2  502  501  0.40210673271E+02  0.23906361793E+02 -0.21595410914E+01  0.46830289309E+02  0.00000000000E+00 0. -1.
<scales pt_clust_5="13000.00000" pt_clust_6="13000.00000" pt_clust_7="13000.00000" pt_clust_8="13000.00000" pt_clust_9="46.78047"></scales>
<clustering>
<clus scale="   46.780">  1  9  2 -1</clus>
<clus scale="   93.368">  5  6 -1 -1</clus>
<clus scale="   94.439">  7  8 -1 -1</clus>
<clus scale="  100.956">  1  5  2 -1</clus>
<clus scale="  101.947">  2  5  1 -1</clus>
</clustering>
</event>
<event>
 9    1  0.6202448E-006  0.9254286E+02  0.7546771E-02  0.1297502E+00
          2   -1    0    0  502    0  0.00000000000E+00  0.00000000000E+00  0.70833093553E+02  0.70833093553E+02  0.00000000000E+00 0. -1.
         -2   -1    0    0    0  501 -0.00000000000E+00 -0.00000000000E+00 -0.27175788825E+03  0.27175788825E+03  0.00000000000E+00 0.  1.
         23    2    1    2    0    0  0.20347642208E+02 -0.12806992425E+02 -0.18668210218E+03  0.20918956580E+03  0.91279907796E+02 0.  0.
         23    2    1    2    0    0  0.17075843143E+02 -0.31908588278E+01 -0.13220403915E+02  0.92689088946E+02  0.90081752486E+02 0.  0.
        -11    1    3    3    0    0  0.51588928977E+02  0.96568293202E+01 -0.79060977211E+02  0.94896312168E+02  0.00000000000E+00 0.  1.
         11    1    3    3    0    0 -0.31241286769E+02 -0.22463821745E+02 -0.10762112497E+03  0.11429325363E+03  0.00000000000E+00 0. -1.
        -11    1    4    4    0    0  0.52420424128E+02  0.55342598192E+01 -0.18581294518E+02  0.55890906268E+02  0.00000000000E+00 0.  1.
         11    1    4    4    0    0 -0.35344580984E+02 -0.87251186470E+01  0.53608906038E+01  0.36798182678E+02  0.00000000000E+00 0. -1.
         21    1    1    2  502  501 -0.37423485351E+02  0.15997851253E+02 -0.10222886052E+01  0.40712327059E+02  0.00000000000E+00 0. -1.
<scales pt_clust_5="13000.00000" pt_clust_6="13000.00000" pt_clust_7="13000.00000" pt_clust_8="13000.00000" pt_clust_9="40.69949"></scales>
<clustering>
<clus scale="   40.699">  1  9  2 -1</clus>
<clus scale="   90.082">  7  8 -1 -1</clus>
<clus scale="   91.280">  5  6 -1 -1</clus>
<clus scale="   91.361">  1  7  2 -1</clus>
<clus scale="   40.699">  1  5  2 -1</clus>
</clustering>
</event>
<event>
 9    1  0.6202448E-006  0.9650380E+02  0.7546771E-02  0.1288587E+00
         -1   -1    0    0    0  501 -0.00000000000E+00  0.00000000000E+00  0.46696969455E+02  0.46696969455E+02  0.00000000000E+00 0.  1.
          1   -1    0    0  502    0  0.00000000000E+00 -0.00000000000E+00 -0.40825446587E+03  0.40825446587E+03  0.00000000000E+00 0. -1.
         23    2    1    2    0    0  0.21579989896E+02 -0.52291955102E+01 -0.30486633215E+02  0.10065839312E+03  0.93325435175E+02 0.  0.
         23    2    1    2    0    0 -0.37790810735E+02 -0.98659573559E+01 -0.29963070263E+03  0.31583347839E+03  0.91906178377E+02 0.  0.
        -13    1    4    4    0    0  0.14292205343E+02 -0.37999146573E+02 -0.11623376720E+03  0.12311982339E+03  0.00000000000E+00 0.  1.
         13    1    4    4    0    0 -0.52083016078E+02  0.28133189217E+02 -0.18339693543E+03  0.19271365501E+03  0.00000000000E+00 0. -1.
        -13    1    3    3    0    0 -0.16217544584E+02 -0.35468531586E+02 -0.34522951402E+02  0.52085119359E+02  0.00000000000E+00 0. -1.
         13    1    3    3    0    0  0.37797534480E+02  0.30239336076E+02  0.40363181868E+01  0.48573273758E+02  0.00000000000E+00 0.  1.
         21    1    1    2  502  501  0.16210820839E+02  0.15095152866E+02 -0.31440160572E+02  0.38459563818E+02  0.00000000000E+00 0. -1.
<scales pt_clust_5="13000.00000" pt_clust_6="13000.00000" pt_clust_7="13000.00000" pt_clust_8="13000.00000" pt_clust_9="22.15072"></scales>
<clustering>
<clus scale="   22.151">  2  9  1 -1</clus>
<clus scale="   91.906">  5  6 -1 -1</clus>
<clus scale="   93.325">  7  8 -1 -1</clus>
<clus scale="   95.132">  2  5  1 -1</clus>
<clus scale="   22.151">  2  5  1 -1</clus>
</clustering>
</event>
<event>
 9    1  0.6202448E-006  0.1268887E+03  0.7546771E-02  0.1232449E+00
         -1   -1    0    0    0  501 -0.00000000000E+00  0.00000000000E+00  0.99609970599E+02  0.99609970599E+02  0.00000000000E+00 0.  1.
          1   -1    0    0  502    0  0.00000000000E+00 -0.00000000000E+00 -0.27814897666E+03  0.27814897666E+03  0.00000000000E+00 0. -1.
         23    2    1    2    0    0 -0.67365600389E+02  0.50458471140E+01 -0.51328237089E+02  0.12419467436E+03  0.90698095508E+02 0.  0.
         23    2    1    2    0    0  0.10460710843E+03 -0.59831101449E+02 -0.73988363354E+02  0.16858793223E+03  0.91788916258E+02 0.  0.
        -11    1    4    4    0    0  0.44269841597E+01 -0.45880283619E+02 -0.54668932737E+01  0.46416436052E+02  0.00000000000E+00 0. -1.
         11    1    4    4    0    0  0.10018012427E+03 -0.13950817830E+02 -0.68521470080E+02  0.12217149618E+03  0.00000000000E+00 0.  1.
        -13    1    3    3    0    0 -0.11963834327E+02  0.43818616747E+02 -0.22394152604E+02  0.50642892653E+02  0.00000000000E+00 0.  1.
         13    1    3    3    0    0 -0.55401766062E+02 -0.38772769633E+02 -0.28934084484E+02  0.73551781710E+02  0.00000000000E+00 0. -1.
         21    1    1    2  502  501 -0.37241508038E+02  0.54785254335E+02 -0.53222405622E+02  0.84976340670E+02  0.00000000000E+00 0. -1.
<scales pt_clust_5="13000.00000" pt_clust_6="13000.00000" pt_clust_7="13000.00000" pt_clust_8="13000.00000" pt_clust_9="66.24465"></scales>
<clustering>
<clus scale="   66.245">  2  9  1 -1</clus>
<clus scale="   90.698">  7  8 -1 -1</clus>
<clus scale="   91.789">  5  6 -1 -1</clus>
<clus scale="  126.102">  1  7  2 -1</clus>
<clus scale="   66.245">  2  5  1 -1</clus>
</clustering>
</event>
<event>
 9    1  0.6202448E-006  0.3377868E+03  0.7546771E-02  0.1092055E+00
          2   -1    0    0  502    0  0.00000000000E+00  0.00000000000E+00  0.42974805273E+03  0.42974805273E+03  0.00000000000E+00 0. -1.
         -2   -1    0    0    0  501 -0.00000000000E+00 -0.00000000000E+00 -0.77949622019E+03  0.77949622019E+03  0.00000000000E+00 0.  1.
         23    2    1    2    0    0 -0.22402981865E+03  0.20924517504E+03 -0.46124230903E+03  0.56100830816E+03  0.89515089597E+02 0.  0.
         23    2    1    2    0    0 -0.80333149611E+02  0.11541827119E+03 -0.36607558590E+02  0.17921860543E+03  0.10490187289E+03 0.  0.
        -11    1    3    3    0    0 -0.85187206639E+02  0.84580695572E+02 -0.10784449861E+03  0.16137282956E+03  0.00000000000E+00 0. -1.
         11    1    3    3    0    0 -0.13884261201E+03  0.12466447946E+03 -0.35339781042E+03  0.39963547860E+03  0.00000000000E+00 0.  1.
        -13    1    4    4    0    0 -0.28911483861E+02 -0.94558013660E+01 -0.31916221129E+02  0.44090035719E+02  0.00000000000E+00 0. -1.
         13    1    4    4    0    0 -0.51421665750E+02  0.12487407256E+03 -0.46913374607E+01  0.13512856971E+03  0.00000000000E+00 0.  1.
         21    1    1    2  502  501  0.30436296826E+03 -0.32466344623E+03  0.14810170016E+03  0.46901735933E+03  0.00000000000E+00 0. -1.
<scales pt_clust_5="13000.00000" pt_clust_6="13000.00000" pt_clust_7="13000.00000" pt_clust_8="13000.00000" pt_clust_9="325.70991"></scales>
<clustering>
<clus scale="   89.515">  5  6 -1 -1</clus>
<clus scale="  104.902">  7  8 -1 -1</clus>
<clus scale="  175.440">  1  7  2 -1</clus>
<clus scale="  325.710">  1  9  2 -1</clus>
<clus scale="  175.440">  1  5  2 -1</clus>
</clustering>
</event>
<event>
 9    1  0.6202448E-006  0.9978459E+02  0.7546771E-02  0.1281840E+00
          2   -1    0    0  502    0  0.00000000000E+00  0.00000000000E+00  0.22601569291E+03  0.22601569291E+03  0.00000000000E+00 0. -1.
         -2   -1    0    0    0  501 -0.00000000000E+00 -0.00000000000E+00 -0.23635301878E+03  0.23635301878E+03  0.00000000000E+00 0.  1.
         23    2    1    2    0    0  0.18257912760E+02 -0.31763932614E+02 -0.20097523790E+03  0.22399400225E+03  0.91869298480E+02 0.  0.
         23    2    1    2    0    0 -0.14076713594E+02 -0.14306047897E+02  0.11745600847E+03  0.15179805821E+03  0.94042116505E+02 0.  0.
        -13    1    3    3    0    0 -0.36724319747E+02 -0.16807708000E+02 -0.64500290550E+02  0.76101656947E+02  0.00000000000E+00 0. -1.
         13    1    3    3    0    0  0.54982232507E+02 -0.14956224613E+02 -0.13647494735E+03  0.14789234530E+03  0.00000000000E+00 0.  1.
        -13    1    4    4    0    0  0.19205968018E+02 -0.33791571027E+02  0.10387636859E+03  0.11091005109E+03  0.00000000000E+00 0.  1.
         13    1    4    4    0    0 -0.33282681612E+02  0.19485523130E+02  0.13579639879E+02  0.40888007119E+02  0.00000000000E+00 0. -1.
         21    1    1    2  502  501 -0.41811991664E+01  0.46069980510E+02  0.73181903558E+02  0.86576651235E+02  0.00000000000E+00 0. -1.
<scales pt_clust_5="13000.00000" pt_clust_6="13000.00000" pt_clust_7="13000.00000" pt_clust_8="13000.00000" pt_clust_9="46.25933"></scales>
<clustering>
<clus scale="   46.259">  1  9  2 -1</clus>
<clus scale="   91.869">  5  6 -1 -1</clus>
<clus scale="   94.042">  7  8 -1 -1</clus>
<clus scale="   97.740">  2  5  1 -1</clus>
<clus scale="   46.259">  1  5  2 -1</clus>
</clustering>
</event>
<event>
 9    1  0.6202448E-006  0.1938359E+03  0.7546771E-02  0.1171826E+00
          4   -1    0    0  502    0  0.00000000000E+00  0.00000000000E+00  0.50731508198E+03  0.50731508198E+03  0.00000000000E+00 0. -1.
         -4   -1    0    0    0  501 -0.00000000000E+00 -0.00000000000E+00 -0.17632205401E+03  0.17632205401E+03  0.00000000000E+00 0.  1.
         23    2    1    2    0    0  0.35456101735E+02 -0.95871247510E+02  0.26423378942E+03  0.29906822721E+03  0.95780362329E+02 0.  0.
         23    2    1    2    0    0 -0.26476776080E+02 -0.88590357721E+02  0.13429149790E+03  0.18792883619E+03  0.93454640920E+02 0.  0.
        -13    1    3    3    0    0  0.42459542703E+02 -0.37191043328E+02  0.21458337541E+03  0.22188287783E+03  0.00000000000E+00 0.  1.
         13    1    3    3    0    0 -0.70034409679E+01 -0.58680204182E+02  0.49650414004E+02  0.77185349380E+02  0.00000000000E+00 0. -1.
        -13    1    4    4    0    0  0.30917107238E+02 -0.22981722515E+02  0.17807540381E+02  0.42439787749E+02  0.00000000000E+00 0.  1.
         13    1    4    4    0    0 -0.57393883318E+02 -0.65608635205E+02  0.11648395752E+03  0.14548904844E+03  0.00000000000E+00 0. -1.
         21    1    1    2  502  501 -0.89793256554E+01  0.18446160523E+03 -0.67532259353E+02  0.19664007259E+03  0.00000000000E+00 0.  1.
<scales pt_clust_5="13000.00000" pt_clust_6="13000.00000" pt_clust_7="13000.00000" pt_clust_8="13000.00000" pt_clust_9="168.51849"></scales>
<clustering>
<clus scale="   93.455">  7  8 -1 -1</clus>
<clus scale="   95.780">  5  6 -1 -1</clus>
<clus scale="  131.465">  1  7  2 -1</clus>
<clus scale="  168.518">  2  9  1 -1</clus>
<clus scale="  131.465">  1  5  2 -1</clus>
</clustering>
</event>
<event>
 9    1  0.6202448E-006  0.2182894E+03  0.7546771E-02  0.1135179E+00
         -1   -1    0    0    0  501 -0.00000000000E+00  0.00000000000E+00  0.10849442392E+03  0.10849442392E+03  0.00000000000E+00 0.  1.
          1   -1    0    0  502    0  0.00000000000E+00 -0.00000000000E+00 -0.10052765123E+04  0.10052765123E+04  0.00000000000E+00 0. -1.
         23    2    1    2    0    0  0.23555675268E+03 -0.18716207434E+03 -0.44211035660E+03  0.54242303653E+03  0.90799544837E+02 0.  0.
         23    2    1    2    0    0 -0.95469551085E+02  0.11960449803E+03 -0.31775543332E+03  0.36414142550E+03  0.90613416382E+02 0.  0.
        -11    1    3    3    0    0  0.20705145834E+03 -0.18886485579E+03 -0.42515627935E+03  0.50921321863E+03  0.00000000000E+00 0. -1.
         11    1    3    3    0    0  0.28505294333E+02  0.17027814491E+01 -0.16954077250E+02  0.33209817902E+02  0.00000000000E+00 0.  1.
        -13    1    4    4    0    0 -0.11174188206E+03  0.92123819846E+02 -0.27466599238E+03  0.31050676926E+03  0.00000000000E+00 0.  1.
         13    1    4    4    0    0  0.16272330978E+02  0.27480678187E+02 -0.43089440939E+02  0.53634656235E+02  0.00000000000E+00 0. -1.
         21    1    1    2  502  501 -0.14008720159E+03  0.67557576311E+02 -0.13691629851E+03  0.20720647423E+03  0.00000000000E+00 0.  1.
<scales pt_clust_5="13000.00000" pt_clust_6="13000.00000" pt_clust_7="13000.00000" pt_clust_8="13000.00000" pt_clust_9="155.52636"></scales>
<clustering>
<clus scale="   90.613">  7  8 -1 -1</clus>
<clus scale="   90.800">  5  6 -1 -1</clus>
<clus scale="  155.526">  1  9  2 -1</clus>
<clus scale="  218.212">  2  7  1 -1</clus>
<clus scale="  218.212">  2  5  1 -1</clus>
</clustering>
</event>
<event>
 9    1  0.6202448E-006  0.1108385E+03  0.7546771E-02  0.1259498E+00
          1   -1    0    0  502    0  0.00000000000E+00  0.00000000000E+00  0.10690646043E+03  0.10690646043E+03  0.00000000000E+00 0. -1.
         -1   -1    0    0    0  501 -0.00000000000E+00 -0.00000000000E+00 -0.26943561388E+03  0.26943561388E+03  0.00000000000E+00 0.  1.
         23    2    1    2    0    0 -0.24998623873E+02  0.69083322933E+02 -0.98292613810E+02  0.15185372563E+03  0.89446516736E+02 0.  0.
         23    2    1    2    0    0 -0.64996733756E+02 -0.52943589445E+02 -0.32617642603E+02  0.12774430471E+03  0.90703350078E+02 0.  0.
        -11    1    4    4    0    0  0.65187431978E+01 -0.46652506513E+02 -0.30114251371E+02  0.55909019956E+02  0.00000000000E+00 0.  1.
         11    1    4    4    0    0 -0.71515476954E+02 -0.62910829318E+01 -0.25033912316E+01  0.71835284757E+02  0.00000000000E+00 0. -1.
        -13    1    3    3    0    0 -0.58580889523E+02  0.36904350031E+02 -0.58239199692E+02  0.90473510208E+02  0.00000000000E+00 0. -1.
         13    1    3    3    0    0  0.33582265650E+02  0.32178972902E+02 -0.40053414118E+02  0.61380215425E+02  0.00000000000E+00 0.  1.
         21    1    1    2  502  501  0.89995357629E+02 -0.16139733488E+02 -0.31618897036E+02  0.96744043960E+02  0.00000000000E+00 0.  1.
<scales pt_clust_5="13000.00000" pt_clust_6="13000.00000" pt_clust_7="13000.00000" pt_clust_8="13000.00000" pt_clust_9="91.43115"></scales>
<clustering>
<clus scale="   89.447">  7  8 -1 -1</clus>
<clus scale="   90.703">  5  6 -1 -1</clus>
<clus scale="   91.431">  1  9  2 -1</clus>
<clus scale="  109.812">  2  7  1 -1</clus>
<clus scale="   91.431">  1  5  2 -1</clus>
</clustering>
</event>
<event>
 9    1  0.6202448E-006  0.1014076E+03  0.7546771E-02  0.1282299E+00
         -2   -1    0    0    0  501 -0.00000000000E+00  0.00000000000E+00  0.57922680757E+02  0.57922680757E+02  0.00000000000E+00 0.  1.
          2   -1    0    0  502    0  0.00000000000E+00 -0.00000000000E+00 -0.42886767589E+03  0.42886767589E+03  0.00000000000E+00 0. -1.
         23    2    1    2    0    0 -0.52305729682E+02 -0.32992331360E+02 -0.38867089942E+02  0.10997068897E+03  0.82210209009E+02 0.  0.
         23    2    1    2    0    0 -0.10114933729E+02 -0.17733712659E+02 -0.21398785079E+03  0.23393953711E+03  0.92304443495E+02 0.  0.
        -11    1    3    3    0    0 -0.34392966640E+02  0.22667365469E+02 -0.28335378698E+01  0.41288188970E+02  0.00000000000E+00 0.  1.
         11    1    3    3    0    0 -0.17912763042E+02 -0.55659696829E+02 -0.36033552072E+02  0.68682499997E+02  0.00000000000E+00 0. -1.
        -11    1    4    4    0    0 -0.25438550826E+01 -0.50894330779E+02 -0.17466645340E+03  0.18194799820E+03  0.00000000000E+00 0. -1.
         11    1    4    4    0    0 -0.75710786464E+01  0.33160618120E+02 -0.39321397388E+02  0.51991538913E+02  0.00000000000E+00 0.  1.
         21    1    1    2  502  501  0.62420663411E+02  0.50726044019E+02 -0.11809005439E+03  0.14288013056E+03  0.00000000000E+00 0.  1.
<scales pt_clust_5="13000.00000" pt_clust_6="13000.00000" pt_clust_7="13000.00000" pt_clust_8="13000.00000" pt_clust_9="80.43302"></scales>
<clustering>
<clus scale="   80.433">  2  9  1 -1</clus>
<clus scale="   82.210">  5  6 -1 -1</clus>
<clus scale="   92.304">  7  8 -1 -1</clus>
<clus scale="   92.314">  1  5  2 -1</clus>
<clus scale="   80.433">  2  5  1 -1</clus>
</clustering>
</event>
<event>
 9    1  0.6202448E-006  0.1012748E+03  0.7546771E-02  0.1281813E+00
          1   -1    0    0  502    0  0.00000000000E+00  0.00000000000E+00  0.37531246955E+02  0.37531246955E+02  0.00000000000E+00 0. -1.
         -1   -1    0    0    0  501 -0.00000000000E+00 -0.00000000000E+00 -0.36384685187E+03  0.36384685187E+03  0.00000000000E+00 0.  1.
         23    2    1    2    0    0  0.13609928271E+02 -0.33686353701E+02 -0.16853294106E+03  0.19485183612E+03  0.90795843768E+02 0.  0.
         23    2    1    2    0    0  0.29892588550E+01  0.68012646187E+01 -0.13564187635E+03  0.16794446000E+03  0.98749329910E+02 0.  0.
        -11    1    3    3    0    0 -0.33762026361E+02 -0.36262812173E+02 -0.98548861816E+02  0.11030296522E+03  0.00000000000E+00 0.  1.
         11    1    3    3    0    0  0.47371954632E+02  0.25764584724E+01 -0.69984079243E+02  0.84548870905E+02  0.00000000000E+00 0. -1.
        -13    1    4    4    0    0 -0.26690637553E+02  0.43661778672E+02 -0.79116010522E+02  0.94223586064E+02  0.00000000000E+00 0.  1.
         13    1    4    4    0    0  0.29679896408E+02 -0.36860514053E+02 -0.56525865824E+02  0.73720873938E+02  0.00000000000E+00 0. -1.
         21    1    1    2  502  501 -0.16599187126E+02  0.26885089082E+02 -0.22140787514E+02  0.38581802704E+02  0.00000000000E+00 0. -1.
<scales pt_clust_5="13000.00000" pt_clust_6="13000.00000" pt_clust_7="13000.00000" pt_clust_8="13000.00000" pt_clust_9="31.59654"></scales>
<clustering>
<clus scale="   31.597">  1  9  2 -1</clus>
<clus scale="   90.796">  5  6 -1 -1</clus>
<clus scale="   93.536">  2  5  1 -1</clus>
<clus scale="   98.749">  7  8 -1 -1</clus>
<clus scale="   31.597">  1  5  2 -1</clus>
</clustering>
</event>
<event>
 9    1  0.6202448E-006  0.1150151E+03  0.7546771E-02  0.1258823E+00
         -1   -1    0    0    0  501 -0.00000000000E+00  0.00000000000E+00  0.21426252621E+03  0.21426252621E+03  0.00000000000E+00 0.  1.
          1   -1    0    0  502    0  0.00000000000E+00 -0.00000000000E+00 -0.24005010203E+03  0.24005010203E+03  0.00000000000E+00 0. -1.
         23    2    1    2    0    0 -0.30464011389E+02  0.65013489418E+02 -0.71346436308E+02  0.13946780453E+03  0.95948656743E+02 0.  0.
         23    2    1    2    0    0 -0.23130603362E+02  0.18929064057E+02 -0.89206425594E+02  0.14727269790E+03  0.11330545840E+03 0.  0.
        -11    1    4    4    0    0  0.30149110278E+02  0.44743043806E+02 -0.23559412010E+02  0.58872359506E+02  0.00000000000E+00 0.  1.
         11    1    4    4    0    0 -0.53279713640E+02 -0.25813979748E+02 -0.65647013584E+02  0.88400338396E+02  0.00000000000E+00 0. -1.
        -13    1    3    3    0    0 -0.37007589137E+02  0.40802748180E+02 -0.91831015722E+02  0.10708576638E+03  0.00000000000E+00 0. -1.
         13    1    3    3    0    0  0.65435777479E+01  0.24210741238E+02  0.20484579414E+02  0.32382038151E+02  0.00000000000E+00 0.  1.
         21    1    1    2  502  501  0.53594614751E+02 -0.83942553475E+02  0.13476528608E+03  0.16757212580E+03  0.00000000000E+00 0.  1.
<scales pt_clust_5="13000.00000" pt_clust_6="13000.00000" pt_clust_7="13000.00000" pt_clust_8="13000.00000" pt_clust_9="99.59285"></scales>
<clustering>
<clus scale="   95.949">  7  8 -1 -1</clus>
<clus scale="   99.593">  1  9  2 -1</clus>
<clus scale="   99.593">  1  7  2 -1</clus>
<clus scale="  113.305">  5  6 -1 -1</clus>
<clus scale="  115.015">  2  5  1 -1</clus>
</clustering>
</event>
<event>
 9    1  0.6202448E-006  0.1975165E+03  0.7546771E-02  0.1174434E+00
          1   -1    0    0  502    0  0.00000000000E+00  0.00000000000E+00  0.53707045045E+03  0.53707045045E+03  0.00000000000E+00 0. -1.
         -1   -1    0    0    0  501 -0.00000000000E+00 -0.00000000000E+00 -0.19767915584E+03  0.19767915584E+03  0.00000000000E+00 0.  1.
         23    2    1    2    0    0  0.60330940679E+02  0.42800024222E+02 -0.99148013100E+02  0.15343303538E+03  0.90772811825E+02 0.  0.
         23    2    1    2    0    0  0.12988362031E+03  0.51779362915E+02  0.18163352173E+03  0.24795877131E+03  0.94561931064E+02 0.  0.
        -13    1    3    3    0    0 -0.22394766140E+02  0.11265145273E+02 -0.78742689800E+01  0.26276094848E+02  0.00000000000E+00 0.  1.
         13    1    3    3    0    0  0.82725706818E+02  0.31534878949E+02 -0.91273744120E+02  0.12715694053E+03  0.00000000000E+00 0. -1.
        -13    1    4    4    0    0  0.82189900011E+01  0.26680514332E+02  0.13566238315E-01  0.27917768996E+02  0.00000000000E+00 0.  1.
         13    1    4    4    0    0  0.12166463031E+03  0.25098848583E+02  0.18161995549E+03  0.22004100232E+03  0.00000000000E+00 0. -1.
         21    1    1    2  502  501 -0.19021456099E+03 -0.94579387137E+02  0.25690578598E+03  0.33335779960E+03  0.00000000000E+00 0.  1.
<scales pt_clust_5="13000.00000" pt_clust_6="13000.00000" pt_clust_7="13000.00000" pt_clust_8="13000.00000" pt_clust_9="173.40934"></scales>
<clustering>
<clus scale="   90.773">  5  6 -1 -1</clus>
<clus scale="   94.562">  7  8 -1 -1</clus>
<clus scale="  117.096">  2  5  1 -1</clus>
<clus scale="  173.409">  2  9  1 -1</clus>
<clus scale="  197.516">  1  5  2 -1</clus>
</clustering>
</event>
<event>
 9    1  0.6202448E-006  0.1145106E+03  0.7546771E-02  0.1252792E+00
          1   -1    0    0  502    0  0.00000000000E+00  0.00000000000E+00  0.81166241274E+03  0.81166241274E+03  0.00000000000E+00 0. -1.
         -1   -1    0    0    0  501 -0.00000000000E+00 -0.00000000000E+00 -0.23922679789E+02  0.23922679789E+02  0.00000000000E+00 0.  1.
         23    2    1    2    0    0 -0.44845050252E+02 -0.10301794880E+01  0.22631746222E+03  0.24871663065E+03  0.92888260060E+02 0.  0.
         23    2    1    2    0    0  0.80275176023E+02  0.25342097072E+02  0.46291874100E+03  0.47940075268E+03  0.91896654651E+02 0.  0.
        -13    1    4    4    0    0  0.46241211420E+02  0.59437430845E+02  0.31300822795E+03  0.32193975924E+03  0.00000000000E+00 0.  1.
         13    1    4    4    0    0  0.34033964603E+02 -0.34095333773E+02  0.14991051305E+03  0.15746099344E+03  0.00000000000E+00 0. -1.
        -13    1    3    3    0    0 -0.57250822184E+02 -0.33171304630E+02  0.12102917857E+03  0.13793496350E+03  0.00000000000E+00 0.  1.
         13    1    3    3    0    0  0.12405771933E+02  0.32141125142E+02  0.10528828365E+03  0.11078166715E+03  0.00000000000E+00 0. -1.
         21    1    1    2  502  501 -0.35430125771E+02 -0.24311917584E+02  0.98503529732E+02  0.10746770919E+03  0.00000000000E+00 0. -1.
<scales pt_clust_5="13000.00000" pt_clust_6="13000.00000" pt_clust_7="13000.00000" pt_clust_8="13000.00000" pt_clust_9="42.96933"></scales>
<clustering>
<clus scale="   42.969">  2  9  1 -1</clus>
<clus scale="   91.897">  5  6 -1 -1</clus>
<clus scale="   92.888">  7  8 -1 -1</clus>
<clus scale="  113.708">  1  5  2 -1</clus>
<clus scale="  113.708">  1  5  2 -1</clus>
</clustering>
</event>
<event>
 9    1  0.6202448E-006  0.1238801E+03  0.7546771E-02  0.1237178E+00
         -1   -1    0    0    0  501 -0.00000000000E+00  0.00000000000E+00  0.38388157606E+03  0.38388157606E+03  0.00000000000E+00 0.  1.
          1   -1    0    0  502    0  0.00000000000E+00 -0.00000000000E+00 -0.54318029013E+02  0.54318029013E+02  0.00000000000E+00 0. -1.
         23    2    1    2    0    0  0.57947802499E+02 -0.38093211816E+02  0.13401099494E+03  0.17601386493E+03  0.90625014671E+02 0.  0.
         23    2    1    2    0    0 -0.81075049713E+02  0.58592727613E+02  0.18693358713E+03  0.23010169007E+03  0.89422314681E+02 0.  0.
        -11    1    4    4    0    0  0.14882099281E+02  0.28486584080E+02  0.60902802257E+02  0.68863006573E+02  0.00000000000E+00 0. -1.
         11    1    4    4    0    0 -0.95957148994E+02  0.30106143533E+02  0.12603078487E+03  0.16123868350E+03  0.00000000000E+00 0.  1.
        -13    1    3    3    0    0 -0.15417562947E+02 -0.34297878830E+02  0.65687663713E+02  0.75689595742E+02  0.00000000000E+00 0.  1.
         13    1    3    3    0    0  0.73365365446E+02 -0.37953329853E+01  0.68323331223E+02  0.10032426919E+03  0.00000000000E+00 0. -1.
         21    1    1    2  502  501  0.23127247214E+02 -0.20499515797E+02  0.86189649896E+01  0.32084050073E+02  0.00000000000E+00 0.  1.
<scales pt_clust_5="13000.00000" pt_clust_6="13000.00000" pt_clust_7="13000.00000" pt_clust_8="13000.00000" pt_clust_9="30.90469"></scales>
<clustering>
<clus scale="   30.905">  2  9  1 -1</clus>
<clus scale="   89.422">  5  6 -1 -1</clus>
<clus scale="   90.625">  7  8 -1 -1</clus>
<clus scale="  123.003">  2  5  1 -1</clus>
<clus scale="   30.905">  2  5  1 -1</clus>
</clustering>
</event>
<event>
 9    1  0.6202448E-006  0.3433189E+03  0.7546771E-02  0.1102773E+00
         -1   -1    0    0    0  501 -0.00000000000E+00  0.00000000000E+00  0.49244748547E+03  0.49244748547E+03  0.00000000000E+00 0.  1.
          1   -1    0    0  502    0  0.00000000000E+00 -0.00000000000E+00 -0.11487133999E+04  0.11487133999E+04  0.00000000000E+00 0. -1.
         23    2    1    2    0    0  0.14339449952E+02 -0.33493516239E+03  0.38502711268E+03  0.51843606984E+03  0.90238008506E+02 0.  0.
         23    2    1    2    0    0  0.68999699998E+02  0.53804421750E+02 -0.29764566614E+03  0.32335549868E+03  0.91158990538E+02 0.  0.
        -11    1    4    4    0    0 -0.13040991618E+02  0.40775033646E+02 -0.88275296389E+02  0.98108097442E+02  0.00000000000E+00 0.  1.
         11    1    4    4    0    0  0.82040691616E+02  0.13029388104E+02 -0.20937036975E+03  0.22524740124E+03  0.00000000000E+00 0. -1.
        -11    1    3    3    0    0  0.48832999251E+02 -0.12754310842E+03  0.16326186247E+03  0.21285286482E+03  0.00000000000E+00 0. -1.
         11    1    3    3    0    0 -0.34493549299E+02 -0.20739205396E+03  0.22176525021E+03  0.30558320502E+03  0.00000000000E+00 0.  1.
         21    1    1    2  502  501 -0.83339149950E+02  0.28113074064E+03 -0.74364736092E+03  0.79936931681E+03  0.00000000000E+00 0. -1.
<scales pt_clust_5="13000.00000" pt_clust_6="13000.00000" pt_clust_7="13000.00000" pt_clust_8="13000.00000" pt_clust_9="331.24755"></scales>
<clustering>
<clus scale="   90.238">  7  8 -1 -1</clus>
<clus scale="   91.159">  5  6 -1 -1</clus>
<clus scale="  126.356">  2  5  1 -1</clus>
<clus scale="  331.248">  2  9  1 -1</clus>
<clus scale="  126.356">  2  5  1 -1</clus>
</clustering>
</event>
<event>
 9    1  0.6202448E-006  0.1186391E+03  0.7546771E-02  0.1250686E+00
          1   -1    0    0  502    0  0.00000000000E+00  0.00000000000E+00  0.16304547904E+03  0.16304547904E+03  0.00000000000E+00 0. -1.
         -1   -1    0    0    0  501 -0.00000000000E+00 -0.00000000000E+00 -0.21620355446E+03  0.21620355446E+03  0.00000000000E+00 0.  1.
         23    2    1    2    0    0 -0.35238897758E+02 -0.38599175099E+02 -0.77635095931E+02  0.13189475795E+03  0.92937305860E+02 0.  0.
         23    2    1    2    0    0 -0.61879163077E+02 -0.20425271783E+02  0.63463560701E+02  0.12720539546E+03  0.88923374587E+02 0.  0.
        -11    1    3    3    0    0 -0.30054889171E+02  0.18554815383E+02 -0.63701958233E+02  0.72838980084E+02  0.00000000000E+00 0.  1.
         11    1    3    3    0    0 -0.51840085879E+01 -0.57153990482E+02 -0.13933137697E+02  0.59055777864E+02  0.00000000000E+00 0. -1.
        -13    1    4    4    0    0 -0.40137556042E+02 -0.38204982173E+02  0.77922088898E+02  0.95616400299E+02  0.00000000000E+00 0.  1.
         13    1    4    4    0    0 -0.21741607035E+02  0.17779710389E+02 -0.14458528197E+02  0.31588995166E+02  0.00000000000E+00 0. -1.
         21    1    1    2  502  501  0.97118060835E+02  0.59024446883E+02 -0.38986540194E+02  0.12014888009E+03  0.00000000000E+00 0.  1.
<scales pt_clust_5="13000.00000" pt_clust_6="13000.00000" pt_clust_7="13000.00000" pt_clust_8="13000.00000" pt_clust_9="78.53577"></scales>
<clustering>
<clus scale="   88.923">  7  8 -1 -1</clus>
<clus scale="   92.937">  5  6 -1 -1</clus>
<clus scale="  106.626">  2  5  1 -1</clus>
<clus scale="   78.536">  2  9  1 -1</clus>
<clus scale="  118.639">  1  5  2 -1</clus>
</clustering>
</event>
<event>
 9    1  0.3475946E-005  0.3660156E+03  0.7546771E-02  0.1076907E+00
          1   -1    0    0  502    0  0.00000000000E+00  0.00000000000E+00  0.66459131492E+03  0.66459131492E+03  0.00000000000E+00 0. -1.
         -1   -1    0    0    0  501 -0.00000000000E+00 -0.00000000000E+00 -0.11117049680E+04  0.11117049680E+04  0.00000000000E+00 0.  1.
         23    2    1    2    0    0  0.28459904535E+03 -0.30423343266E+03 -0.24322445542E+03  0.49098417188E+03  0.91393233677E+02 0.  0.
         23    2    1    2    0    0  0.36563436000E+02  0.18123124500E+03  0.47846295311E+03  0.52119213666E+03  0.92373138975E+02 0.  0.
        -11    1    3    3    0    0  0.12150925460E+03 -0.19352488117E+03 -0.11481661296E+03  0.25573273783E+03  0.00000000000E+00 0.  1.
         11    1    3    3    0    0  0.16308979075E+03 -0.11070855149E+03 -0.12840784246E+03  0.23525143406E+03  0.00000000000E+00 0. -1.
        -13    1    4    4    0    0 -0.31384225969E+02  0.58432231826E+02  0.15495051546E+03  0.16854957015E+03  0.00000000000E+00 0.  1.
         13    1    4    4    0    0  0.67947661970E+02  0.12279901317E+03  0.32351243765E+03  0.35264256651E+03  0.00000000000E+00 0. -1.
         21    1    1    2  502  501 -0.32116248135E+03  0.12300218766E+03 -0.68235215080E+03  0.76411997442E+03  0.00000000000E+00 0. -1.
<scales pt_clust_5="13000.00000" pt_clust_6="13000.00000" pt_clust_7="13000.00000" pt_clust_8="13000.00000" pt_clust_9="354.42165"></scales>
<clustering>
<clus scale="   91.393">  5  6 -1 -1</clus>
<clus scale="   92.373">  7  8 -1 -1</clus>
<clus scale="  206.675">  1  7  2 -1</clus>
<clus scale="  354.422">  2  9  1 -1</clus>
<clus scale="  206.675">  1  5  2 -1</clus>
</clustering>
</event>
<event>
 9    1  0.6202448E-006  0.9212864E+02  0.7546771E-02  0.1297960E+00
         -3   -1    0    0    0  501 -0.00000000000E+00  0.00000000000E+00  0.37897133921E+03  0.37897133921E+03  0.00000000000E+00 0.  1.
          3   -1    0    0  502    0  0.00000000000E+00 -0.00000000000E+00 -0.31761026061E+03  0.31761026061E+03  0.00000000000E+00 0. -1.
         23    2    1    2    0    0  0.28490266569E+02 -0.17993722910E+01  0.35120222348E+03  0.36298705659E+03  0.87187547537E+02 0.  0.
         23    2    1    2    0    0 -0.40724429330E+02 -0.49156998865E+02 -0.22878313741E+03  0.25313146614E+03  0.87515287267E+02 0.  0.
        -11    1    3    3    0    0  0.28857102538E+02  0.36092650353E+02  0.26239670211E+03  0.26643468441E+03  0.00000000000E+00 0.  1.
         11    1    3    3    0    0 -0.36683596937E+00 -0.37892022644E+02  0.88805521364E+02  0.96552372179E+02  0.00000000000E+00 0. -1.
        -11    1    4    4    0    0 -0.87918480290E+01 -0.34373600746E+02 -0.18670790197E+02  0.40092884987E+02  0.00000000000E+00 0.  1.
         11    1    4    4    0    0 -0.31932581301E+02 -0.14783398119E+02 -0.21011234721E+03  0.21303858115E+03  0.00000000000E+00 0. -1.
         21    1    1    2  502  501  0.12234162761E+02  0.50956371156E+02 -0.61058007465E+02  0.80463077094E+02  0.00000000000E+00 0. -1.
<scales pt_clust_5="13000.00000" pt_clust_6="13000.00000" pt_clust_7="13000.00000" pt_clust_8="13000.00000" pt_clust_9="52.40445"></scales>
<clustering>
<clus scale="   52.404">  2  9  1 -1</clus>
<clus scale="   87.188">  5  6 -1 -1</clus>
<clus scale="   87.515">  7  8 -1 -1</clus>
<clus scale="   91.817">  1  5  2 -1</clus>
<clus scale="   52.404">  2  5  1 -1</clus>
</clustering>
</event>
<event>
 9    1  0.6202448E-006  0.2319318E+03  0.7546771E-02  0.1140959E+00
         -2   -1    0    0    0  501 -0.00000000000E+00  0.00000000000E+00  0.79059338694E+02  0.79059338694E+02  0.00000000000E+00 0.  1.
          2   -1    0    0  502    0  0.00000000000E+00 -0.00000000000E+00 -0.12891836468E+04  0.12891836468E+04  0.00000000000E+00 0. -1.
         23    2    1    2    0    0 -0.11940030069E+03 -0.73938550131E+02 -0.48761796367E+03  0.51636474873E+03  0.95592542815E+02 0.  0.
         23    2    1    2    0    0 -0.61497906097E+02 -0.11347063257E+03 -0.44024437842E+03  0.46779728118E+03  0.91441821065E+02 0.  0.
        -11    1    4    4    0    0 -0.37604450272E+02 -0.41022477149E+02 -0.68256002624E+02  0.88067134653E+02  0.00000000000E+00 0.  1.
         11    1    4    4    0    0 -0.23893455825E+02 -0.72448155418E+02 -0.37198837580E+03  0.37973014653E+03  0.00000000000E+00 0. -1.
        -11    1    3    3    0    0 -0.42275788376E+02 -0.81484488134E+02 -0.24275886782E+03  0.25953580099E+03  0.00000000000E+00 0. -1.
         11    1    3    3    0    0 -0.77124512316E+02  0.75459380032E+01 -0.24485909585E+03  0.25682894775E+03  0.00000000000E+00 0.  1.
         21    1    1    2  502  501  0.18089820679E+03  0.18740918270E+03 -0.28226196602E+03  0.38408095558E+03  0.00000000000E+00 0. -1.
<scales pt_clust_5="13000.00000" pt_clust_6="13000.00000" pt_clust_7="13000.00000" pt_clust_8="13000.00000" pt_clust_9="211.31591"></scales>
<clustering>
<clus scale="   91.442">  5  6 -1 -1</clus>
<clus scale="   95.593">  7  8 -1 -1</clus>
<clus scale="  158.175">  2  5  1 -1</clus>
<clus scale="  211.316">  1  9  2 -1</clus>
<clus scale="  158.175">  2  5  1 -1</clus>
</clustering>
</event>
<event>
 9    1  0.6202448E-006  0.9746815E+02  0.7546771E-02  0.1285874E+00
         -1   -1    0    0    0  501 -0.00000000000E+00  0.00000000000E+00  0.32365601223E+03  0.32365601223E+03  0.00000000000E+00 0.  1.
          1   -1    0    0  502    0  0.00000000000E+00 -0.00000000000E+00 -0.10710775889E+03  0.10710775889E+03  0.00000000000E+00 0. -1.
         23    2    1    2    0    0  0.20820955422E+02 -0.65381184697E+01  0.11698319050E+03  0.15059830953E+03  0.92295854704E+02 0.  0.
         23    2    1    2    0    0  0.37205246411E+02  0.59606643573E+02  0.14794216695E+03  0.18784183158E+03  0.91980903506E+02 0.  0.
        -11    1    4    4    0    0  0.82886847148E+01  0.24677058245E+02  0.13926017800E+03  0.14167235677E+03  0.00000000000E+00 0.  1.
         11    1    4    4    0    0  0.28916561696E+02  0.34929585328E+02  0.86819889538E+01  0.46169474805E+02  0.00000000000E+00 0. -1.
        -13    1    3    3    0    0  0.42388698050E+02  0.29362069468E+02  0.77177898143E+02  0.92818967930E+02  0.00000000000E+00 0.  1.
         13    1    3    3    0    0 -0.21567742628E+02 -0.35900187938E+02  0.39805292361E+02  0.57779341602E+02  0.00000000000E+00 0. -1.
         21    1    1    2  502  501 -0.58026201833E+02 -0.53068525104E+02 -0.48377104115E+02  0.92323630011E+02  0.00000000000E+00 0. -1.
<scales pt_clust_5="13000.00000" pt_clust_6="13000.00000" pt_clust_7="13000.00000" pt_clust_8="13000.00000" pt_clust_9="78.63402"></scales>
<clustering>
<clus scale="   78.634">  2  9  1 -1</clus>
<clus scale="   91.981">  5  6 -1 -1</clus>
<clus scale="   92.296">  7  8 -1 -1</clus>
<clus scale="   97.170">  2  5  1 -1</clus>
<clus scale="   78.634">  2  5  1 -1</clus>
</clustering>
</event>
<event>
 9    1  0.6202448E-006  0.8778535E+02  0.7546771E-02  0.1309949E+00
          3   -1    0    0  502    0  0.00000000000E+00  0.00000000000E+00  0.15966675364E+02  0.15966675364E+02  0.00000000000E+00 0. -1.
         -3   -1    0    0    0  501 -0.00000000000E+00 -0.00000000000E+00 -0.99630299272E+03  0.99630299272E+03  0.00000000000E+00 0.  1.
         23    2    1    2    0    0 -0.35753200094E+02  0.17706630255E+02 -0.40125687727E+03  0.41266486690E+03  0.87711998857E+02 0.  0.
         23    2    1    2    0    0 -0.19790622907E+02  0.15057968768E+02 -0.28239515957E+03  0.29599288191E+03  0.85125488623E+02 0.  0.
        -11    1    4    4    0    0 -0.32001295584E+01 -0.33663709660E+02 -0.15393715167E+03  0.15760752788E+03  0.00000000000E+00 0.  1.
         11    1    4    4    0    0 -0.16590493349E+02  0.48721678428E+02 -0.12845800790E+03  0.13838535403E+03  0.00000000000E+00 0. -1.
        -11    1    3    3    0    0 -0.15119009588E+02 -0.31534731567E+02 -0.84676175252E+02  0.91613745700E+02  0.00000000000E+00 0.  1.
         11    1    3    3    0    0 -0.20634190506E+02  0.49241361822E+02 -0.31658070202E+03  0.32105112120E+03  0.00000000000E+00 0. -1.
         21    1    1    2  502  501  0.55543823001E+02 -0.32764599023E+02 -0.29668428052E+03  0.30361191928E+03  0.00000000000E+00 0. -1.
<scales pt_clust_5="13000.00000" pt_clust_6="13000.00000" pt_clust_7="13000.00000" pt_clust_8="13000.00000" pt_clust_9="64.48748"></scales>
<clustering>
<clus scale="   64.487">  2  9  1 -1</clus>
<clus scale="   85.125">  5  6 -1 -1</clus>
<clus scale="   85.201">  1  5  2 -1</clus>
<clus scale="   87.712">  7  8 -1 -1</clus>
<clus scale="   85.201">  1  5  2 -1</clus>
</clustering>
</event>
<event>
 9    1  0.6202448E-006  0.1010610E+03  0.7546771E-02  0.1280875E+00
         -1   -1    0    0    0  501 -0.00000000000E+00  0.00000000000E+00  0.22785184107E+03  0.22785184107E+03  0.00000000000E+00 0.  1.
          1   -1    0    0  502    0  0.00000000000E+00 -0.00000000000E+00 -0.12349607768E+03  0.12349607768E+03  0.00000000000E+00 0. -1.
         23    2    1    2    0    0  0.12426609638E+02 -0.44815370699E+01  0.16374535092E+03  0.18860739594E+03  0.92659079708E+02 0.  0.
         23    2    1    2    0    0 -0.51708346921E+01 -0.27785295094E+02 -0.74523009698E+02  0.12636999637E+03  0.98065982138E+02 0.  0.
        -13    1    4    4    0    0  0.12888947692E+02 -0.43403886768E+02  0.28793448980E+01  0.45368634388E+02  0.00000000000E+00 0. -1.
         13    1    4    4    0    0 -0.18059782384E+02  0.15618591674E+02 -0.77402354596E+02  0.81001361980E+02  0.00000000000E+00 0.  1.
        -13    1    3    3    0    0 -0.16740454382E+02 -0.42435388767E+02  0.84505356309E+02  0.96032079420E+02  0.00000000000E+00 0. -1.
         13    1    3    3    0    0  0.29167064020E+02  0.37953851697E+02  0.79239994609E+02  0.92575316515E+02  0.00000000000E+00 0.  1.
         21    1    1    2  502  501 -0.72557749462E+01  0.32266832164E+02  0.15133422168E+02  0.36370526453E+02  0.00000000000E+00 0.  1.
<scales pt_clust_5="13000.00000" pt_clust_6="13000.00000" pt_clust_7="13000.00000" pt_clust_8="13000.00000" pt_clust_9="33.07257"></scales>
<clustering>
<clus scale="   33.073">  1  9  2 -1</clus>
<clus scale="   92.659">  7  8 -1 -1</clus>
<clus scale="   95.823">  1  7  2 -1</clus>
<clus scale="   98.066">  5  6 -1 -1</clus>
<clus scale="  101.061">  2  5  1 -1</clus>
</clustering>
</event>
<event>
 9    1  0.6202448E-006  0.1157138E+03  0.7546771E-02  0.1251143E+00
         -2   -1    0    0    0  501 -0.00000000000E+00  0.00000000000E+00  0.30659819374E+02  0.30659819374E+02  0.00000000000E+00 0.  1.
          2   -1    0    0  502    0  0.00000000000E+00 -0.00000000000E+00 -0.78979541134E+03  0.78979541134E+03  0.00000000000E+00 0. -1.
         23    2    1    2    0    0  0.44945414363E+02  0.50980636042E+02 -0.11895988951E+03  0.16550197930E+03  0.92845755509E+02 0.  0.
         23    2    1    2    0    0 -0.54885581360E+02 -0.28157875278E+02 -0.53425981546E+03  0.54615131923E+03  0.95091640550E+02 0.  0.
        -11    1    4    4    0    0  0.15666642504E+02  0.21768197384E+02 -0.13639756064E+03  0.13900932578E+03  0.00000000000E+00 0.  1.
         11    1    4    4    0    0 -0.70552223864E+02 -0.49926072662E+02 -0.39786225482E+03  0.40714199345E+03  0.00000000000E+00 0. -1.
        -13    1    3    3    0    0  0.55129699599E+02 -0.47636953814E+01 -0.77767751518E+02  0.95445270955E+02  0.00000000000E+00 0.  1.
         13    1    3    3    0    0 -0.10184285236E+02  0.55744331423E+02 -0.41192137995E+02  0.70056708345E+02  0.00000000000E+00 0. -1.
         21    1    1    2  502  501  0.99401669970E+01 -0.22822760764E+02 -0.10591588699E+03  0.10880193218E+03  0.00000000000E+00 0.  1.
<scales pt_clust_5="13000.00000" pt_clust_6="13000.00000" pt_clust_7="13000.00000" pt_clust_8="13000.00000" pt_clust_9="24.89348"></scales>
<clustering>
<clus scale="   24.893">  2  9  1 -1</clus>
<clus scale="   92.846">  7  8 -1 -1</clus>
<clus scale="   95.092">  5  6 -1 -1</clus>
<clus scale="  113.875">  1  7  2 -1</clus>
<clus scale="   24.893">  2  5  1 -1</clus>
</clustering>
</event>
<event>
 9    1  0.6202448E-006  0.1478248E+03  0.7546771E-02  0.1221097E+00
          1   -1    0    0  502    0  0.00000000000E+00  0.00000000000E+00  0.50721932109E+03  0.50721932109E+03  0.00000000000E+00 0. -1.
         -1   -1    0    0    0  501 -0.00000000000E+00 -0.00000000000E+00 -0.11173303336E+03  0.11173303336E+03  0.00000000000E+00 0.  1.
         23    2    1    2    0    0  0.22807642446E+02  0.11468369700E+03 -0.22087360172E+02  0.15206663461E+03  0.94677721622E+02 0.  0.
         23    2    1    2    0    0  0.35224078123E+02 -0.25389735687E+02  0.17633504986E+03  0.20318673746E+03  0.91134110582E+02 0.  0.
        -11    1    3    3    0    0  0.32370677187E+02  0.95243787271E+02 -0.53477727057E+02  0.11392588401E+03  0.00000000000E+00 0.  1.
         11    1    3    3    0    0 -0.95630347407E+01  0.19439909728E+02  0.31390366885E+02  0.38140750607E+02  0.00000000000E+00 0. -1.
        -13    1    4    4    0    0  0.50302153778E+02  0.15738845634E+02  0.65927078154E+02  0.84406146521E+02  0.00000000000E+00 0.  1.
         13    1    4    4    0    0 -0.15078075655E+02 -0.41128581321E+02  0.11040797171E+03  0.11878059094E+03  0.00000000000E+00 0. -1.
         21    1    1    2  502  501 -0.58031720570E+02 -0.89293961312E+02  0.24123859805E+03  0.26369898238E+03  0.00000000000E+00 0. -1.
<scales pt_clust_5="13000.00000" pt_clust_6="13000.00000" pt_clust_7="13000.00000" pt_clust_8="13000.00000" pt_clust_9="113.52662"></scales>
<clustering>
<clus scale="   91.134">  7  8 -1 -1</clus>
<clus scale="   94.678">  5  6 -1 -1</clus>
<clus scale="  100.949">  1  7  2 -1</clus>
<clus scale="  113.527">  1  9  2 -1</clus>
<clus scale="  100.949">  1  5  2 -1</clus>
</clustering>
</event>
<event>
 9    1  0.6202448E-006  0.1265376E+03  0.7546771E-02  0.1233056E+00
          2   -1    0    0  502    0  0.00000000000E+00  0.00000000000E+00  0.35413241816E+03  0.35413241816E+03  0.00000000000E+00 0. -1.
         -2   -1    0    0    0  501 -0.00000000000E+00 -0.00000000000E+00 -0.26156416938E+03  0.26156416938E+03  0.00000000000E+00 0.  1.
         23    2    1    2    0    0 -0.68711615010E+02 -0.16939287518E+03 -0.44523201926E+02  0.20884692581E+03  0.90661406957E+02 0.  0.
         23    2    1    2    0    0  0.55547022313E+01  0.78192882166E+02  0.23212421018E+03  0.26077618800E+03  0.89317354059E+02 0.  0.
        -11    1    4    4    0    0  0.30651751398E+02  0.71119860702E+02  0.21750933739E+03  0.23088498501E+03  0.00000000000E+00 0.  1.
         11    1    4    4    0    0 -0.25097049166E+02  0.70730214648E+01  0.14614872790E+02  0.29891202990E+02  0.00000000000E+00 0. -1.
        -13    1    3    3    0    0  0.27242386344E+01 -0.98205225990E+02  0.88153387639E+00  0.98246959189E+02  0.00000000000E+00 0. -1.
         13    1    3    3    0    0 -0.71435853645E+02 -0.71187649186E+02 -0.45404735802E+02  0.11059996662E+03  0.00000000000E+00 0.  1.
         21    1    1    2  502  501  0.63156912779E+02  0.91199993010E+02 -0.95032759470E+02  0.14607347374E+03  0.00000000000E+00 0. -1.
<scales pt_clust_5="13000.00000" pt_clust_6="13000.00000" pt_clust_7="13000.00000" pt_clust_8="13000.00000" pt_clust_9="110.93347"></scales>
<clustering>
<clus scale="   89.317">  5  6 -1 -1</clus>
<clus scale="   90.661">  7  8 -1 -1</clus>
<clus scale="  110.933">  2  9  1 -1</clus>
<clus scale="  125.578">  1  5  2 -1</clus>
<clus scale="  125.578">  1  5  2 -1</clus>
</clustering>
</event>
<event>
 9    1  0.6202448E-006  0.1303011E+03  0.7546771E-02  0.1228176E+00
         -2   -1    0    0    0  501 -0.00000000000E+00  0.00000000000E+00  0.14475799071E+03  0.14475799071E+03  0.00000000000E+00 0.  1.
          2   -1    0    0  502    0  0.00000000000E+00 -0.00000000000E+00 -0.68337039475E+03  0.68337039475E+03  0.00000000000E+00 0. -1.
         23    2    1    2    0    0 -0.87407797671E+02  0.72799978644E+02  0.10726707967E+02  0.14572192088E+03  0.90442556219E+02 0.  0.
         23    2    1    2    0    0  0.86618058831E+02  0.35632763789E+02 -0.11494013589E+02  0.13373932212E+03  0.94771894369E+02 0.  0.
        -11    1    4    4    0    0  0.85206766739E+02 -0.10317286608E+02 -0.16814787926E+02  0.87460714576E+02  0.00000000000E+00 0.  1.
         11    1    4    4    0    0  0.14112920916E+01  0.45950050397E+02  0.53207743376E+01  0.46278607546E+02  0.00000000000E+00 0. -1.
        -13    1    3    3    0    0 -0.35256913187E+02  0.74596797137E+02  0.33158970261E+02  0.88922715767E+02  0.00000000000E+00 0.  1.
         13    1    3    3    0    0 -0.52150884485E+02 -0.17968184930E+01 -0.22432262295E+02  0.56799205108E+02  0.00000000000E+00 0. -1.
         21    1    1    2  502  501  0.78973884045E+00 -0.10843274243E+03 -0.53784509842E+03  0.54866714246E+03  0.00000000000E+00 0. -1.
<scales pt_clust_5="13000.00000" pt_clust_6="13000.00000" pt_clust_7="13000.00000" pt_clust_8="13000.00000" pt_clust_9="108.43562"></scales>
<clustering>
<clus scale="   90.443">  7  8 -1 -1</clus>
<clus scale="   94.772">  5  6 -1 -1</clus>
<clus scale="  108.436">  2  9  1 -1</clus>
<clus scale="  127.187">  1  7  2 -1</clus>
<clus scale="  108.436">  2  5  1 -1</clus>
</clustering>
</event>
<event>
 9    1  0.6202448E-006  0.1076283E+03  0.7546771E-02  0.1265371E+00
         -1   -1    0    0    0  501 -0.00000000000E+00  0.00000000000E+00  0.49954103476E+03  0.49954103476E+03  0.00000000000E+00 0.  1.
          1   -1    0    0  502    0  0.00000000000E+00 -0.00000000000E+00 -0.53173577452E+02  0.53173577452E+02  0.00000000000E+00 0. -1.
         23    2    1    2    0    0 -0.39270052555E+01  0.31998179413E+02  0.17829010247E+03  0.20245226705E+03  0.90334129433E+02 0.  0.
         23    2    1    2    0    0  0.51160812840E+02 -0.98190932247E+02  0.18388966638E+03  0.23321500433E+03  0.91186297754E+02 0.  0.
        -11    1    4    4    0    0  0.43204269792E+02 -0.82541849096E+01  0.10297212313E+03  0.11197320500E+03  0.00000000000E+00 0. -1.
         11    1    4    4    0    0  0.79565430486E+01 -0.89936747338E+02  0.80917543253E+02  0.12124179933E+03  0.00000000000E+00 0.  1.
        -11    1    3    3    0    0  0.35866450753E+02 -0.80133853063E+01  0.47894488222E+02  0.60369683084E+02  0.00000000000E+00 0.  1.
         11    1    3    3    0    0 -0.39793456008E+02  0.40011564719E+02  0.13039561425E+03  0.14208258397E+03  0.00000000000E+00 0. -1.
         21    1    1    2  502  501 -0.47233807585E+02  0.66192752835E+02  0.84187688458E+02  0.11704734083E+03  0.00000000000E+00 0. -1.
<scales pt_clust_5="13000.00000" pt_clust_6="13000.00000" pt_clust_7="13000.00000" pt_clust_8="13000.00000" pt_clust_9="81.31736"></scales>
<clustering>
<clus scale="   81.317">  2  9  1 -1</clus>
<clus scale="   90.334">  7  8 -1 -1</clus>
<clus scale="   91.186">  5  6 -1 -1</clus>
<clus scale="  106.907">  1  7  2 -1</clus>
<clus scale="   81.317">  2  5  1 -1</clus>
</clustering>
</event>
<event>
 9    1  0.6202448E-006  0.2526019E+03  0.7546771E-02  0.1135641E+00
          2   -1    0    0  502    0  0.00000000000E+00  0.00000000000E+00  0.56116511210E+03  0.56116511210E+03  0.00000000000E+00 0. -1.
         -2   -1    0    0    0  501 -0.00000000000E+00 -0.00000000000E+00 -0.20674486733E+03  0.20674486733E+03  0.00000000000E+00 0.  1.
         23    2    1    2    0    0 -0.76744224712E+02 -0.73387892216E+02  0.36766490929E+02  0.14402240454E+03  0.90084512558E+02 0.  0.
         23    2    1    2    0    0  0.20627949154E+03 -0.12645332413E+03  0.28274322546E+03  0.38319141353E+03  0.91379735439E+02 0.  0.
        -13    1    4    4    0    0  0.59224670836E+02  0.30578034055E+01  0.93851290884E+02  0.11101791116E+03  0.00000000000E+00 0.  1.
         13    1    4    4    0    0  0.14705482071E+03 -0.12951112753E+03  0.18889193457E+03  0.27217350237E+03  0.00000000000E+00 0. -1.
        -13    1    3    3    0    0 -0.89160059217E+02 -0.30007684015E+02  0.22964344849E+02  0.96836658316E+02  0.00000000000E+00 0.  1.
         13    1    3    3    0    0  0.12415834505E+02 -0.43380208201E+02  0.13802146080E+02  0.47185746221E+02  0.00000000000E+00 0. -1.
         21    1    1    2  502  501 -0.12953526683E+03  0.19984121634E+03  0.34910528385E+02  0.24069616136E+03  0.00000000000E+00 0.  1.
<scales pt_clust_5="13000.00000" pt_clust_6="13000.00000" pt_clust_7="13000.00000" pt_clust_8="13000.00000" pt_clust_9="235.49408"></scales>
<clustering>
<clus scale="   90.085">  7  8 -1 -1</clus>
<clus scale="   91.380">  5  6 -1 -1</clus>
<clus scale="  139.250">  2  7  1 -1</clus>
<clus scale="  235.494">  2  9  1 -1</clus>
<clus scale="  252.602">  1  5  2 -1</clus>
</clustering>
</event>
<event>
 9    1  0.6202448E-006  0.1727093E+03  0.7546771E-02  0.1175619E+00
          2   -1    0    0  502    0  0.00000000000E+00  0.00000000000E+00  0.32138505353E+03  0.32138505353E+03  0.00000000000E+00 0.  1.
         -2   -1    0    0    0  501 -0.00000000000E+00 -0.00000000000E+00 -0.26147743490E+03  0.26147743490E+03  0.00000000000E+00 0. -1.
         23    2    1    2    0    0  0.91029007218E+02 -0.85757245215E+02 -0.62181751433E+01  0.15806294083E+03  0.96460573818E+02 0.  0.
         23    2    1    2    0    0  0.18821909802E+02  0.17365148037E+03  0.16117286653E+03  0.25501566560E+03  0.92451045821E+02 0.  0.
        -11    1    3    3    0    0  0.55745167037E+02 -0.75383004122E+02  0.37461029507E+02  0.10096261531E+03  0.00000000000E+00 0.  1.
         11    1    3    3    0    0  0.35283840181E+02 -0.10374241093E+02 -0.43679204650E+02  0.57100325525E+02  0.00000000000E+00 0. -1.
        -13    1    4    4    0    0  0.45275992797E+02  0.16189543491E+03  0.14404347730E+03  0.22137879465E+03  0.00000000000E+00 0. -1.
         13    1    4    4    0    0 -0.26454082995E+02  0.11756045461E+02  0.17129389229E+02  0.33636870951E+02  0.00000000000E+00 0.  1.
         21    1    1    2  502  501 -0.10985091702E+03 -0.87894235159E+02 -0.95047072751E+02  0.16978388199E+03  0.00000000000E+00 0.  1.
<scales pt_clust_5="13000.00000" pt_clust_6="13000.00000" pt_clust_7="13000.00000" pt_clust_8="13000.00000" pt_clust_9="140.68625"></scales>
<clustering>
<clus scale="   92.451">  7  8 -1 -1</clus>
<clus scale="   96.461">  5  6 -1 -1</clus>
<clus scale="  140.686">  2  9  1 -1</clus>
<clus scale="  170.502">  1  7  2 -1</clus>
<clus scale="  170.502">  1  5  2 -1</clus>
</clustering>
</event>
<event>
 9    1  0.6202448E-006  0.3407850E+03  0.7546771E-02  0.1115221E+00
         -1   -1    0    0    0  501 -0.00000000000E+00  0.00000000000E+00  0.27446293488E+03  0.27446293488E+03  0.00000000000E+00 0.  1.
          1   -1    0    0  502    0  0.00000000000E+00 -0.00000000000E+00 -0.56095633780E+03  0.56095633780E+03  0.00000000000E+00 0. -1.
         23    2    1    2    0    0  0.21206611414E+03  0.26313968807E+03 -0.27693167875E+02  0.35186757890E+03  0.93964617453E+02 0.  0.
         23    2    1    2    0    0 -0.62842662352E+01 -0.29718908232E+02 -0.35361087962E+02  0.10046360751E+03  0.88993395172E+02 0.  0.
        -11    1    3    3    0    0  0.12331399867E+03  0.19203064695E+03  0.18838129166E+02  0.22899123727E+03  0.00000000000E+00 0.  1.
         11    1    3    3    0    0  0.88752115466E+02  0.71109041123E+02 -0.46531297041E+02  0.12287634163E+03  0.00000000000E+00 0. -1.
        -13    1    4    4    0    0  0.30951457960E+02 -0.12024685646E+02 -0.47073209162E+02  0.57606187476E+02  0.00000000000E+00 0. -1.
         13    1    4    4    0    0 -0.37235724195E+02 -0.17694222586E+02  0.11712121201E+02  0.42857420038E+02  0.00000000000E+00 0.  1.
         21    1    1    2  502  501 -0.20578184790E+03 -0.23342077984E+03 -0.22343914709E+03  0.38308808627E+03  0.00000000000E+00 0.  1.
<scales pt_clust_5="13000.00000" pt_clust_6="13000.00000" pt_clust_7="13000.00000" pt_clust_8="13000.00000" pt_clust_9="327.57449"></scales>
<clustering>
<clus scale="   88.993">  7  8 -1 -1</clus>
<clus scale="   93.965">  5  6 -1 -1</clus>
<clus scale="   94.035">  2  7  1 -1</clus>
<clus scale="  327.574">  2  9  1 -1</clus>
<clus scale="   94.035">  2  5  1 -1</clus>
</clustering>
</event>
<event>
 9    1  0.6202448E-006  0.1783992E+03  0.7546771E-02  0.1195161E+00
         -1   -1    0    0    0  501 -0.00000000000E+00  0.00000000000E+00  0.17546684479E+03  0.17546684479E+03  0.00000000000E+00 0.  1.
          1   -1    0    0  502    0  0.00000000000E+00 -0.00000000000E+00 -0.37714903560E+03  0.37714903560E+03  0.00000000000E+00 0. -1.
         23    2    1    2    0    0 -0.86721468331E+02 -0.12645268720E+03 -0.16960908127E+02  0.17957129508E+03  0.91909098804E+02 0.  0.
         23    2    1    2    0    0 -0.41279270763E+02  0.35946340359E+02 -0.19154696650E+03  0.21613002898E+03  0.83820233074E+02 0.  0.
        -13    1    4    4    0    0  0.10214514918E+02  0.41973801361E+02 -0.12173306388E+03  0.12917072098E+03  0.00000000000E+00 0.  1.
         13    1    4    4    0    0 -0.51493785681E+02 -0.60274610020E+01 -0.69813902613E+02  0.86959308000E+02  0.00000000000E+00 0. -1.
        -13    1    3    3    0    0 -0.85312700797E+02 -0.48012999511E+02 -0.24028772772E+02  0.10080122499E+03  0.00000000000E+00 0. -1.
         13    1    3    3    0    0 -0.14087675338E+01 -0.78439687694E+02  0.70678646442E+01  0.78770070091E+02  0.00000000000E+00 0.  1.
         21    1    1    2  502  501  0.12800073909E+03  0.90506346846E+02  0.68256838215E+01  0.15691455633E+03  0.00000000000E+00 0.  1.
<scales pt_clust_5="13000.00000" pt_clust_6="13000.00000" pt_clust_7="13000.00000" pt_clust_8="13000.00000" pt_clust_9="152.90189"></scales>
<clustering>
<clus scale="   83.820">  5  6 -1 -1</clus>
<clus scale="   91.909">  7  8 -1 -1</clus>
<clus scale="  100.110">  2  5  1 -1</clus>
<clus scale="  152.902">  1  9  2 -1</clus>
<clus scale="  100.110">  2  5  1 -1</clus>
</clustering>
</event>
<event>
 9    1  0.6202448E-006  0.1032307E+03  0.7546771E-02  0.1274315E+00
          3   -1    0    0  502    0  0.00000000000E+00  0.00000000000E+00  0.18189529534E+03  0.18189529534E+03  0.00000000000E+00 0. -1.
         -3   -1    0    0    0  501 -0.00000000000E+00 -0.00000000000E+00 -0.30293952991E+03  0.30293952991E+03  0.00000000000E+00 0.  1.
         23    2    1    2    0    0 -0.29564158967E+00 -0.27982367911E+02 -0.13989436642E+03  0.17042833526E+03  0.93232415951E+02 0.  0.
         23    2    1    2    0    0 -0.40000814662E+02  0.25365445601E+02  0.14722298282E+03  0.17983219254E+03  0.91768947898E+02 0.  0.
        -11    1    4    4    0    0 -0.64146007909E+01 -0.31689451541E+02  0.25152668755E+02  0.40963705737E+02  0.00000000000E+00 0.  1.
         11    1    4    4    0    0 -0.33586213871E+02  0.57054897142E+02  0.12207031406E+03  0.13886848680E+03  0.00000000000E+00 0. -1.
        -13    1    3    3    0    0  0.26708082218E+02 -0.50829874054E+02 -0.11012738439E+03  0.12419757866E+03  0.00000000000E+00 0.  1.
         13    1    3    3    0    0 -0.27003723808E+02  0.22847506143E+02 -0.29766982036E+02  0.46230756602E+02  0.00000000000E+00 0. -1.
         21    1    1    2  502  501  0.40296456251E+02  0.26169223099E+01 -0.12837285097E+03  0.13457429745E+03  0.00000000000E+00 0.  1.
<scales pt_clust_5="13000.00000" pt_clust_6="13000.00000" pt_clust_7="13000.00000" pt_clust_8="13000.00000" pt_clust_9="40.38134"></scales>
<clustering>
<clus scale="   40.381">  2  9  1 -1</clus>
<clus scale="   91.769">  5  6 -1 -1</clus>
<clus scale="   93.232">  7  8 -1 -1</clus>
<clus scale="  101.911">  1  5  2 -1</clus>
<clus scale="  101.911">  1  5  2 -1</clus>
</clustering>
</event>
<event>
 9    1  0.6202448E-006  0.1145653E+03  0.7546771E-02  0.1252875E+00
          1   -1    0    0  502    0  0.00000000000E+00  0.00000000000E+00  0.11579798686E+04  0.11579798686E+04  0.00000000000E+00 0. -1.
         -1   -1    0    0    0  501 -0.00000000000E+00 -0.00000000000E+00 -0.28485798974E+02  0.28485798974E+02  0.00000000000E+00 0.  1.
         23    2    1    2    0    0  0.16846912710E+02  0.63351382271E+02  0.14761442213E+03  0.18598325120E+03  0.92209196949E+02 0.  0.
         23    2    1    2    0    0  0.43692345663E+02 -0.74547091281E+02  0.57377967216E+03  0.58776467315E+03  0.93690495419E+02 0.  0.
        -11    1    3    3    0    0  0.11797954519E+02 -0.19982290778E+02  0.10541900406E+02  0.25487552644E+02  0.00000000000E+00 0. -1.
         11    1    3    3    0    0  0.50489581908E+01  0.83333673049E+02  0.13707252173E+03  0.16049569856E+03  0.00000000000E+00 0.  1.
        -13    1    4    4    0    0  0.15617187516E+02 -0.91899693865E+02  0.45702241386E+03  0.46643213552E+03  0.00000000000E+00 0. -1.
         13    1    4    4    0    0  0.28075158147E+02  0.17352602584E+02  0.11675725831E+03  0.12133253763E+03  0.00000000000E+00 0.  1.
         21    1    1    2  502  501 -0.60539258373E+02  0.11195709010E+02  0.40809997535E+03  0.41271774324E+03  0.00000000000E+00 0.  1.
<scales pt_clust_5="13000.00000" pt_clust_6="13000.00000" pt_clust_7="13000.00000" pt_clust_8="13000.00000" pt_clust_9="61.56578"></scales>
<clustering>
<clus scale="   61.566">  1  9  2 -1</clus>
<clus scale="   92.209">  5  6 -1 -1</clus>
<clus scale="   93.690">  7  8 -1 -1</clus>
<clus scale="  113.357">  2  5  1 -1</clus>
<clus scale="   61.566">  1  5  2 -1</clus>
</clustering>
</event>
<event>
 9    1  0.6202448E-006  0.9759611E+02  0.7546771E-02  0.1289833E+00
          3   -1    0    0  502    0  0.00000000000E+00  0.00000000000E+00  0.77069103475E+02  0.77069103475E+02  0.00000000000E+00 0. -1.
         -3   -1    0    0    0  501 -0.00000000000E+00 -0.00000000000E+00 -0.28633824432E+03  0.28633824432E+03  0.00000000000E+00 0.  1.
         23    2    1    2    0    0 -0.23818493579E+02 -0.11670503675E+02 -0.19661758981E+03  0.21701789480E+03  0.87947534072E+02 0.  0.
         23    2    1    2    0    0  0.88488535123E+01 -0.19656001025E+02  0.18234125910E+02  0.99920484199E+02  0.95848626647E+02 0.  0.
        -11    1    4    4    0    0 -0.14624091350E+02  0.32796462491E+02 -0.79378623327E+01  0.36776101725E+02  0.00000000000E+00 0. -1.
         11    1    4    4    0    0  0.23472944862E+02 -0.52452463515E+02  0.26171988243E+02  0.63144382473E+02  0.00000000000E+00 0.  1.
        -13    1    3    3    0    0  0.32560788135E+02  0.49880887673E+01 -0.65134011663E+02  0.72989899499E+02  0.00000000000E+00 0. -1.
         13    1    3    3    0    0 -0.56379281714E+02 -0.16658592443E+02 -0.13148357815E+03  0.14402799531E+03  0.00000000000E+00 0.  1.
         21    1    1    2  502  501  0.14969640067E+02  0.31326504700E+02 -0.30885676944E+02  0.46468968794E+02  0.00000000000E+00 0. -1.
<scales pt_clust_5="13000.00000" pt_clust_6="13000.00000" pt_clust_7="13000.00000" pt_clust_8="13000.00000" pt_clust_9="34.71945"></scales>
<clustering>
<clus scale="   34.719">  2  9  1 -1</clus>
<clus scale="   87.948">  7  8 -1 -1</clus>
<clus scale="   89.849">  2  7  1 -1</clus>
<clus scale="   95.849">  5  6 -1 -1</clus>
<clus scale="   97.596">  1  5  2 -1</clus>
</clustering>
</event>
<event>
 9    1  0.6202448E-006  0.1117531E+03  0.7546771E-02  0.1258064E+00
          1   -1    0    0  502    0  0.00000000000E+00  0.00000000000E+00  0.84803750712E+02  0.84803750712E+02  0.00000000000E+00 0. -1.
         -1   -1    0    0    0  501 -0.00000000000E+00 -0.00000000000E+00 -0.24782274486E+03  0.24782274486E+03  0.00000000000E+00 0.  1.
         23    2    1    2    0    0  0.78929636231E+02 -0.15048623589E+02 -0.13420200335E+03  0.18046959262E+03  0.90015263195E+02 0.  0.
         23    2    1    2    0    0 -0.28492803968E+02  0.16888034632E+02 -0.96301230908E+01  0.98162520153E+02  0.91902641422E+02 0.  0.
        -11    1    3    3    0    0  0.22489457725E+02  0.37041658626E+02 -0.40508958267E+02  0.59319776487E+02  0.00000000000E+00 0.  1.
         11    1    3    3    0    0  0.56440178506E+02 -0.52090282215E+02 -0.93693045084E+02  0.12114981613E+03  0.00000000000E+00 0. -1.
        -13    1    4    4    0    0  0.32750867580E+02  0.15541394448E+02 -0.64577180509E+01  0.36821955286E+02  0.00000000000E+00 0.  1.
         13    1    4    4    0    0 -0.61243671548E+02  0.13466401835E+01 -0.31724050400E+01  0.61340564867E+02  0.00000000000E+00 0. -1.
         21    1    1    2  502  501 -0.50436832263E+02 -0.18394110425E+01 -0.19186867703E+02  0.53994382800E+02  0.00000000000E+00 0.  1.
<scales pt_clust_5="13000.00000" pt_clust_6="13000.00000" pt_clust_7="13000.00000" pt_clust_8="13000.00000" pt_clust_9="50.47036"></scales>
<clustering>
<clus scale="   50.470">  1  9  2 -1</clus>
<clus scale="   90.015">  5  6 -1 -1</clus>
<clus scale="   91.903">  7  8 -1 -1</clus>
<clus scale="  110.206">  2  5  1 -1</clus>
<clus scale="   50.470">  1  5  2 -1</clus>
</clustering>
</event>
<event>
 9    1  0.6202448E-006  0.2990779E+03  0.7546771E-02  0.1085808E+00
          2   -1    0    0  502    0  0.00000000000E+00  0.00000000000E+00  0.10890162437E+04  0.10890162437E+04  0.00000000000E+00 0. -1.
         -2   -1    0    0    0  501 -0.00000000000E+00 -0.00000000000E+00 -0.94939701433E+02  0.94939701433E+02  0.00000000000E+00 0.  1.
         23    2    1    2    0    0  0.24898482954E+03 -0.98158465074E+02  0.32814139042E+03  0.43338402535E+03  0.92284406673E+02 0.  0.
         23    2    1    2    0    0 -0.26547949662E+03  0.12878309986E+03  0.61757492167E+03  0.69100133846E+03  0.94971658579E+02 0.  0.
        -11    1    3    3    0    0  0.18912512407E+03 -0.39346298434E+02  0.26701030663E+03  0.32956175082E+03  0.00000000000E+00 0.  1.
         11    1    3    3    0    0  0.59859705473E+02 -0.58812166640E+02  0.61131083792E+02  0.10382227454E+03  0.00000000000E+00 0. -1.
        -13    1    4    4    0    0 -0.92516317320E+02  0.70306726414E+02  0.15517214481E+03  0.19385741997E+03  0.00000000000E+00 0.  1.
         13    1    4    4    0    0 -0.17296317930E+03  0.58476373442E+02  0.46240277686E+03  0.49714391849E+03  0.00000000000E+00 0. -1.
         21    1    1    2  502  501  0.16494667083E+02 -0.30624634782E+02  0.48360230197E+02  0.59570581350E+02  0.00000000000E+00 0.  1.
<scales pt_clust_5="13000.00000" pt_clust_6="13000.00000" pt_clust_7="13000.00000" pt_clust_8="13000.00000" pt_clust_9="34.78422"></scales>
<clustering>
<clus scale="   34.784">  2  9  1 -1</clus>
<clus scale="   92.284">  5  6 -1 -1</clus>
<clus scale="   94.972">  7  8 -1 -1</clus>
<clus scale="  298.235">  2  5  1 -1</clus>
<clus scale="  299.078">  1  5  2 -1</clus>
</clustering>
</event>
<event>
 9    1  0.6202448E-006  0.9771440E+02  0.7546771E-02  0.1285438E+00
          1   -1    0    0  502    0  0.00000000000E+00  0.00000000000E+00  0.50142808927E+02  0.50142808927E+02  0.00000000000E+00 0. -1.
         -1   -1    0    0    0  501 -0.00000000000E+00 -0.00000000000E+00 -0.29651479048E+03  0.29651479048E+03  0.00000000000E+00 0.  1.
         23    2    1    2    0    0 -0.57839433732E+02 -0.21545608324E+01 -0.99301971843E+02  0.14623730739E+03  0.90412533614E+02 0.  0.
         23    2    1    2    0    0  0.14430160123E+02  0.73837506604E+01 -0.96743768603E+02  0.13375365864E+03  0.90928186726E+02 0.  0.
        -13    1    4    4    0    0  0.36344342288E+02 -0.29961053595E+02 -0.64014275686E+02  0.79475804120E+02  0.00000000000E+00 0.  1.
         13    1    4    4    0    0 -0.21914182165E+02  0.37344804255E+02 -0.32729492917E+02  0.54277854521E+02  0.00000000000E+00 0. -1.
        -13    1    3    3    0    0 -0.30714450422E+02 -0.66570327181E+01 -0.11172786252E+03  0.11606381353E+03  0.00000000000E+00 0.  1.
         13    1    3    3    0    0 -0.27124983310E+02  0.45024718856E+01  0.12425890673E+02  0.30173493859E+02  0.00000000000E+00 0. -1.
         21    1    1    2  502  501  0.43409273609E+02 -0.52291898280E+01 -0.50326241110E+02  0.66666633376E+02  0.00000000000E+00 0.  1.
<scales pt_clust_5="13000.00000" pt_clust_6="13000.00000" pt_clust_7="13000.00000" pt_clust_8="13000.00000" pt_clust_9="43.72310"></scales>
<clustering>
<clus scale="   43.723">  2  9  1 -1</clus>
<clus scale="   90.413">  7  8 -1 -1</clus>
<clus scale="   90.928">  5  6 -1 -1</clus>
<clus scale="   97.235">  2  7  1 -1</clus>
<clus scale="   97.714">  1  5  2 -1</clus>
</clustering>
</event>
<event>
 9    1  0.6202448E-006  0.1330974E+03  0.7546771E-02  0.1238269E+00
          2   -1    0    0  502    0  0.00000000000E+00  0.00000000000E+00  0.84542352824E+03  0.84542352824E+03  0.00000000000E+00 0. -1.
         -2   -1    0    0    0  501 -0.00000000000E+00 -0.00000000000E+00 -0.13056057048E+03  0.13056057048E+03  0.00000000000E+00 0.  1.
         23    2    1    2    0    0 -0.96672385625E+02  0.44353130279E+00 -0.75959084915E+02  0.15237736869E+03  0.90018515011E+02 0.  0.
         23    2    1    2    0    0 -0.21620808024E+02  0.21818177462E+02  0.22324137935E+03  0.24340273769E+03  0.92003733920E+02 0.  0.
        -11    1    4    4    0    0 -0.44115908392E+02 -0.19682387719E+02  0.13406971948E+03  0.14250719084E+03  0.00000000000E+00 0.  1.
         11    1    4    4    0    0  0.22495100368E+02  0.41500565181E+02  0.89171659863E+02  0.10089554685E+03  0.00000000000E+00 0. -1.
        -13    1    3    3    0    0 -0.98926721680E+02 -0.22410904117E+02 -0.38611354973E+02  0.10853378100E+03  0.00000000000E+00 0.  1.
         13    1    3    3    0    0  0.22543360544E+01  0.22854435420E+02 -0.37347729942E+02  0.43843587687E+02  0.00000000000E+00 0. -1.
         21    1    1    2  502  501  0.11829319365E+03 -0.22261708765E+02  0.56758066333E+03  0.58020399234E+03  0.00000000000E+00 0. -1.
<scales pt_clust_5="13000.00000" pt_clust_6="13000.00000" pt_clust_7="13000.00000" pt_clust_8="13000.00000" pt_clust_9="98.03865"></scales>
<clustering>
<clus scale="   90.019">  7  8 -1 -1</clus>
<clus scale="   92.004">  5  6 -1 -1</clus>
<clus scale="   96.996">  1  5  2 -1</clus>
<clus scale="   98.039">  1  9  2 -1</clus>
<clus scale="   96.996">  1  5  2 -1</clus>
</clustering>
</event>
<event>
 9    1  0.6202448E-006  0.1624015E+03  0.7546771E-02  0.1220940E+00
         -1   -1    0    0    0  501 -0.00000000000E+00  0.00000000000E+00  0.12192122909E+03  0.12192122909E+03  0.00000000000E+00 0.  1.
          1   -1    0    0  502    0  0.00000000000E+00 -0.00000000000E+00 -0.31460638057E+03  0.31460638057E+03  0.00000000000E+00 0. -1.
         23    2    1    2    0    0 -0.40914407461E+01  0.14287305012E+02 -0.92266264613E+01  0.76938564473E+02  0.74923595051E+02 0.  0.
         23    2    1    2    0    0  0.10287032324E+03 -0.10077207599E+03 -0.61700500097E+02  0.18053067518E+03  0.89705397087E+02 0.  0.
        -13    1    3    3    0    0 -0.22109889838E+01 -0.30904648882E+02 -0.62646471608E+01  0.31610624778E+02  0.00000000000E+00 0. -1.
         13    1    3    3    0    0 -0.18804517623E+01  0.45191953894E+02 -0.29619793005E+01  0.45327939695E+02  0.00000000000E+00 0.  1.
        -13    1    4    4    0    0  0.43378776425E+02 -0.93804393237E+02 -0.14690240221E+02  0.10438766973E+03  0.00000000000E+00 0. -1.
         13    1    4    4    0    0  0.59491546810E+02 -0.69676827553E+01 -0.47010259876E+02  0.76143005447E+02  0.00000000000E+00 0.  1.
         21    1    1    2  502  501 -0.98778882490E+02  0.86484770981E+02 -0.12175802492E+03  0.17905837001E+03  0.00000000000E+00 0.  1.
<scales pt_clust_5="13000.00000" pt_clust_6="13000.00000" pt_clust_7="13000.00000" pt_clust_8="13000.00000" pt_clust_9="135.37798"></scales>
<clustering>
<clus scale="   74.924">  5  6 -1 -1</clus>
<clus scale="   76.383">  1  5  2 -1</clus>
<clus scale="   89.705">  7  8 -1 -1</clus>
<clus scale="  135.378">  2  9  1 -1</clus>
<clus scale="  135.378">  2  5  1 -1</clus>
</clustering>
</event>
<event>
 9    1  0.6202448E-006  0.9750643E+02  0.7546771E-02  0.1289270E+00
         -2   -1    0    0    0  501 -0.00000000000E+00  0.00000000000E+00  0.40101205393E+03  0.40101205393E+03  0.00000000000E+00 0.  1.
          2   -1    0    0  502    0  0.00000000000E+00 -0.00000000000E+00 -0.60036181054E+02  0.60036181054E+02  0.00000000000E+00 0. -1.
         23    2    1    2    0    0  0.35532230665E+02 -0.61383617758E+02  0.19089828036E+03  0.22326318729E+03  0.91508520969E+02 0.  0.
         23    2    1    2    0    0  0.36237212690E+02  0.17225585373E+02  0.47365361950E+02  0.10492953546E+03  0.84598306860E+02 0.  0.
        -13    1    4    4    0    0  0.58205156329E+02  0.17992778944E+02  0.54578642422E+02  0.81794917483E+02  0.00000000000E+00 0.  1.
         13    1    4    4    0    0 -0.21967943638E+02 -0.76719357055E+00 -0.72132804717E+01  0.23134617975E+02  0.00000000000E+00 0. -1.
        -13    1    3    3    0    0  0.40538948371E+02  0.11519308493E+02  0.80625353565E+02  0.90975537595E+02  0.00000000000E+00 0.  1.
         13    1    3    3    0    0 -0.50067177064E+01 -0.72902926251E+02  0.11027292679E+03  0.13228764969E+03  0.00000000000E+00 0. -1.
         21    1    1    2  502  501 -0.71769443355E+02  0.44158032385E+02  0.10271223056E+03  0.13285551223E+03  0.00000000000E+00 0. -1.
<scales pt_clust_5="13000.00000" pt_clust_6="13000.00000" pt_clust_7="13000.00000" pt_clust_8="13000.00000" pt_clust_9="84.26615"></scales>
<clustering>
<clus scale="   84.266">  1  9  2 -1</clus>
<clus scale="   84.598">  5  6 -1 -1</clus>
<clus scale="   91.053">  2  5  1 -1</clus>
<clus scale="   91.509">  7  8 -1 -1</clus>
<clus scale="   91.053">  2  5  1 -1</clus>
</clustering>
</event>
<event>
 9    1  0.6202448E-006  0.1458351E+03  0.7546771E-02  0.1212115E+00
          1   -1    0    0  502    0  0.00000000000E+00  0.00000000000E+00  0.35935460991E+03  0.35935460991E+03  0.00000000000E+00 0. -1.
         -1   -1    0    0    0  501 -0.00000000000E+00 -0.00000000000E+00 -0.80451327331E+02  0.80451327331E+02  0.00000000000E+00 0.  1.
         23    2    1    2    0    0 -0.72555320697E+02  0.30893697137E+02  0.43029219516E+02  0.14743976904E+03  0.11691140526E+03 0.  0.
         23    2    1    2    0    0  0.10327982271E+03 -0.24671104367E+02  0.18313894180E+03  0.23101709567E+03  0.92485897962E+02 0.  0.
        -11    1    3    3    0    0 -0.79343235191E+02 -0.12752767856E+01 -0.14986148499E+02  0.80756175915E+02  0.00000000000E+00 0.  1.
         11    1    3    3    0    0  0.67879144948E+01  0.32168973922E+02  0.58015368015E+02  0.66683593127E+02  0.00000000000E+00 0. -1.
        -13    1    4    4    0    0  0.10720574959E+02  0.28751847308E+02  0.22393399092E+02  0.37987679239E+02  0.00000000000E+00 0.  1.
         13    1    4    4    0    0  0.92559247752E+02 -0.53422951675E+02  0.16074554270E+03  0.19302941644E+03  0.00000000000E+00 0. -1.
         21    1    1    2  502  501 -0.30724502014E+02 -0.62225927695E+01  0.52735121271E+02  0.61349072529E+02  0.00000000000E+00 0. -1.
<scales pt_clust_5="13000.00000" pt_clust_6="13000.00000" pt_clust_7="13000.00000" pt_clust_8="13000.00000" pt_clust_9="31.34830"></scales>
<clustering>
<clus scale="   31.348">  1  9  2 -1</clus>
<clus scale="   92.486">  7  8 -1 -1</clus>
<clus scale="  116.911">  5  6 -1 -1</clus>
<clus scale="  127.095">  1  7  2 -1</clus>
<clus scale="   31.348">  1  5  2 -1</clus>
</clustering>
</event>
<event>
 9    1  0.6202450E-006  0.2022136E+03  0.7546771E-02  0.1180429E+00
         -2   -1    0    0    0  501 -0.00000000000E+00  0.00000000000E+00  0.44200882777E+03  0.44200882777E+03  0.00000000000E+00 0.  1.
          2   -1    0    0  502    0  0.00000000000E+00 -0.00000000000E+00 -0.33507105341E+03  0.33507105341E+03  0.00000000000E+00 0. -1.
         23    2    1    2    0    0 -0.26861017145E+02 -0.19284629468E+02  0.32151229850E+03  0.33534148020E+03  0.89388696586E+02 0.  0.
         23    2    1    2    0    0 -0.12081511234E+03  0.13081102744E+03 -0.12878404525E+03  0.23776197358E+03  0.90761277545E+02 0.  0.
        -11    1    4    4    0    0 -0.34306271447E+02  0.22550643274E+01 -0.57961732731E+02  0.67391156964E+02  0.00000000000E+00 0. -1.
         11    1    4    4    0    0 -0.86508840892E+02  0.12855596312E+03 -0.70822312515E+02  0.17037081662E+03  0.00000000000E+00 0.  1.
        -11    1    3    3    0    0 -0.46522424056E+02  0.16964311104E+02  0.12305178095E+03  0.13264186589E+03  0.00000000000E+00 0.  1.
         11    1    3    3    0    0  0.19661406910E+02 -0.36248940572E+02  0.19846051756E+03  0.20269961431E+03  0.00000000000E+00 0. -1.
         21    1    1    2  502  501  0.14767612948E+03 -0.11152639798E+03 -0.85790478891E+02  0.20397642740E+03  0.00000000000E+00 0. -1.
<scales pt_clust_5="13000.00000" pt_clust_6="13000.00000" pt_clust_7="13000.00000" pt_clust_8="13000.00000" pt_clust_9="180.70070"></scales>
<clustering>
<clus scale="   89.389">  7  8 -1 -1</clus>
<clus scale="   90.761">  5  6 -1 -1</clus>
<clus scale="   95.309">  1  7  2 -1</clus>
<clus scale="  180.701">  1  9  2 -1</clus>
<clus scale="  202.214">  2  5  1 -1</clus>
</clustering>
</event>
<event>
 9    1  0.6202448E-006  0.1317048E+03  0.7546771E-02  0.1241490E+00
         -2   -1    0    0    0  501 -0.00000000000E+00  0.00000000000E+00  0.78342442827E+02  0.78342442827E+02  0.00000000000E+00 0.  1.
          2   -1    0    0  502    0  0.00000000000E+00 -0.00000000000E+00 -0.73027645852E+03  0.73027645852E+03  0.00000000000E+00 0. -1.
         23    2    1    2    0    0 -0.86218247629E+02  0.31101733849E+02 -0.58251154199E+01  0.12949740327E+03  0.91294804957E+02 0.  0.
         23    2    1    2    0    0 -0.23447641016E+02 -0.15837539530E+02 -0.36860608492E+03  0.38034496739E+03  0.89393673427E+02 0.  0.
        -11    1    4    4    0    0 -0.41576210968E+02 -0.38851821346E+02 -0.30570400034E+03  0.31095495038E+03  0.00000000000E+00 0.  1.
         11    1    4    4    0    0  0.18128569952E+02  0.23014281816E+02 -0.62902084575E+02  0.69390017005E+02  0.00000000000E+00 0. -1.
        -11    1    3    3    0    0  0.18225540386E+02  0.15087310173E+02  0.20727596878E+00  0.23660942795E+02  0.00000000000E+00 0. -1.
         11    1    3    3    0    0 -0.10444378802E+03  0.16014423677E+02 -0.60323913887E+01  0.10583646048E+03  0.00000000000E+00 0.  1.
         21    1    1    2  502  501  0.10966588865E+03 -0.15264194319E+02 -0.27750281535E+03  0.29877653069E+03  0.00000000000E+00 0. -1.
<scales pt_clust_5="13000.00000" pt_clust_6="13000.00000" pt_clust_7="13000.00000" pt_clust_8="13000.00000" pt_clust_9="94.92839"></scales>
<clustering>
<clus scale="   89.394">  5  6 -1 -1</clus>
<clus scale="   91.295">  7  8 -1 -1</clus>
<clus scale="   93.765">  2  5  1 -1</clus>
<clus scale="   94.928">  2  9  1 -1</clus>
<clus scale="   93.765">  2  5  1 -1</clus>
</clustering>
</event>
<event>
 9    1  0.6202448E-006  0.1051988E+03  0.7546771E-02  0.1269837E+00
         -1   -1    0    0    0  501 -0.00000000000E+00  0.00000000000E+00  0.53336779077E+03  0.53336779077E+03  0.00000000000E+00 0.  1.
          1   -1    0    0  502    0  0.00000000000E+00 -0.00000000000E+00 -0.26711439040E+03  0.26711439040E+03  0.00000000000E+00 0. -1.
         23    2    1    2    0    0 -0.53279608787E+02 -0.20377506037E+02  0.17938559838E+02  0.11030747362E+03  0.92692973535E+02 0.  0.
         23    2    1    2    0    0 -0.35556695529E+02  0.51026534859E+02 -0.20160520203E+03  0.23054518648E+03  0.92943206666E+02 0.  0.
        -11    1    4    4    0    0 -0.35977035946E+02  0.10644045606E+02 -0.16327660410E+02  0.40917420700E+02  0.00000000000E+00 0.  1.
         11    1    4    4    0    0  0.42034041725E+00  0.40382489254E+02 -0.18527754162E+03  0.18962776578E+03  0.00000000000E+00 0. -1.
        -13    1    3    3    0    0 -0.45673152418E+02 -0.43705951794E+02  0.42035967358E+02  0.75916201339E+02  0.00000000000E+00 0.  1.
         13    1    3    3    0    0 -0.76064563690E+01  0.23328445757E+02 -0.24097407520E+02  0.34391272281E+02  0.00000000000E+00 0. -1.
         21    1    1    2  502  501  0.88836304315E+02 -0.30649028822E+02  0.44992004257E+03  0.45962952106E+03  0.00000000000E+00 0.  1.
<scales pt_clust_5="13000.00000" pt_clust_6="13000.00000" pt_clust_7="13000.00000" pt_clust_8="13000.00000" pt_clust_9="93.97474"></scales>
<clustering>
<clus scale="   92.693">  7  8 -1 -1</clus>
<clus scale="   92.943">  5  6 -1 -1</clus>
<clus scale="   93.975">  1  9  2 -1</clus>
<clus scale="  104.978">  1  7  2 -1</clus>
<clus scale="  105.199">  2  5  1 -1</clus>
</clustering>
</event>
<event>
 9    1  0.6202448E-006  0.2526661E+03  0.7546771E-02  0.1139009E+00
         -1   -1    0    0    0  501 -0.00000000000E+00  0.00000000000E+00  0.82756261632E+03  0.82756261632E+03  0.00000000000E+00 0.  1.
          1   -1    0    0  502    0  0.00000000000E+00 -0.00000000000E+00 -0.50723313010E+03  0.50723313010E+03  0.00000000000E+00 0. -1.
         23    2    1    2    0    0 -0.31795685236E+02  0.66434056935E+02  0.16044629116E+03  0.20539567453E+03  0.10497581268E+03 0.  0.
         23    2    1    2    0    0  0.66657912880E+02  0.22205607136E+03 -0.41545702939E+03  0.48483952168E+03  0.93341535967E+02 0.  0.
        -13    1    4    4    0    0  0.25060542395E+02  0.19188073047E+01 -0.31458505651E+02  0.40265992902E+02  0.00000000000E+00 0.  1.
         13    1    4    4    0    0  0.41597370485E+02  0.22013726405E+03 -0.38399852374E+03  0.44457352877E+03  0.00000000000E+00 0. -1.
        -13    1    3    3    0    0 -0.57235866043E+02  0.70124174228E+02  0.79523213270E+02  0.12048769905E+03  0.00000000000E+00 0. -1.
         13    1    3    3    0    0  0.25440180808E+02 -0.36901172928E+01  0.80923077891E+02  0.84907975483E+02  0.00000000000E+00 0.  1.
         21    1    1    2  502  501 -0.34862227644E+02 -0.28849012829E+03  0.57534022444E+03  0.64456055022E+03  0.00000000000E+00 0.  1.
<scales pt_clust_5="13000.00000" pt_clust_6="13000.00000" pt_clust_7="13000.00000" pt_clust_8="13000.00000" pt_clust_9="234.79253"></scales>
<clustering>
<clus scale="   93.342">  5  6 -1 -1</clus>
<clus scale="  104.976">  7  8 -1 -1</clus>
<clus scale="  128.236">  1  7  2 -1</clus>
<clus scale="  234.793">  1  9  2 -1</clus>
<clus scale="  252.666">  2  5  1 -1</clus>
</clustering>
</event>
<event>
 9    1  0.6202448E-006  0.2370053E+03  0.7546771E-02  0.1148373E+00
         -1   -1    0    0    0  501 -0.00000000000E+00  0.00000000000E+00  0.40542478265E+03  0.40542478265E+03  0.00000000000E+00 0.  1.
          1   -1    0    0  502    0  0.00000000000E+00 -0.00000000000E+00 -0.21842182636E+03  0.21842182636E+03  0.00000000000E+00 0. -1.
         23    2    1    2    0    0  0.19217191171E+03  0.14761846187E+03  0.16052782158E+03  0.30459704201E+03  0.91043520158E+02 0.  0.
         23    2    1    2    0    0 -0.11264337186E+02 -0.78210253545E+02  0.16396963536E+02  0.12522219925E+03  0.95749724381E+02 0.  0.
        -11    1    4    4    0    0 -0.35396907771E+02  0.82831073015E+00 -0.12690155574E+02  0.37612062253E+02  0.00000000000E+00 0. -1.
         11    1    4    4    0    0  0.24132570586E+02 -0.79038564275E+02  0.29087119110E+02  0.87610136992E+02  0.00000000000E+00 0.  1.
        -11    1    3    3    0    0  0.12899457294E+03  0.63142601196E+02  0.13260801711E+03  0.19547755405E+03  0.00000000000E+00 0.  1.
         11    1    3    3    0    0  0.63177338768E+02  0.84475860679E+02  0.27919804468E+02  0.10911948796E+03  0.00000000000E+00 0. -1.
         21    1    1    2  502  501 -0.18090757452E+03 -0.69408208330E+02  0.10078171176E+02  0.19402736775E+03  0.00000000000E+00 0. -1.
<scales pt_clust_5="13000.00000" pt_clust_6="13000.00000" pt_clust_7="13000.00000" pt_clust_8="13000.00000" pt_clust_9="218.82088"></scales>
<clustering>
<clus scale="   91.044">  7  8 -1 -1</clus>
<clus scale="   95.750">  5  6 -1 -1</clus>
<clus scale="  124.144">  2  5  1 -1</clus>
<clus scale="  218.821">  2  9  1 -1</clus>
<clus scale="  124.144">  2  5  1 -1</clus>
</clustering>
</event>
<event>
 9    1  0.6202448E-006  0.1148795E+03  0.7546771E-02  0.1257416E+00
         -4   -1    0    0    0  501 -0.00000000000E+00  0.00000000000E+00  0.93123114166E+02  0.93123114166E+02  0.00000000000E+00 0.  1.
          4   -1    0    0  502    0  0.00000000000E+00 -0.00000000000E+00 -0.21971681953E+03  0.21971681953E+03  0.00000000000E+00 0. -1.
         23    2    1    2    0    0  0.43069879499E+02  0.22326895469E+02  0.53917102650E+01  0.10129456579E+03  0.88758175615E+02 0.  0.
         23    2    1    2    0    0 -0.55368826890E+02  0.16059902681E+02 -0.12308617890E+03  0.17026575074E+03  0.10255043136E+03 0.  0.
        -13    1    3    3    0    0  0.14154870333E+02  0.31985331759E+02 -0.35798873821E+02  0.50049786899E+02  0.00000000000E+00 0. -1.
         13    1    3    3    0    0  0.28915009166E+02 -0.96584362893E+01  0.41190584086E+02  0.51244778894E+02  0.00000000000E+00 0.  1.
        -13    1    4    4    0    0  0.21731122221E+02 -0.21383168710E+02 -0.21259557659E+02  0.37167867425E+02  0.00000000000E+00 0.  1.
         13    1    4    4    0    0 -0.77099949111E+02  0.37443071391E+02 -0.10182662125E+03  0.13309788331E+03  0.00000000000E+00 0. -1.
         21    1    1    2  502  501  0.12298947392E+02 -0.38386798150E+02 -0.88992367290E+01  0.41279617168E+02  0.00000000000E+00 0. -1.
<scales pt_clust_5="13000.00000" pt_clust_6="13000.00000" pt_clust_7="13000.00000" pt_clust_8="13000.00000" pt_clust_9="40.30894"></scales>
<clustering>
<clus scale="   40.309">  1  9  2 -1</clus>
<clus scale="   88.758">  5  6 -1 -1</clus>
<clus scale="  102.550">  7  8 -1 -1</clus>
<clus scale="  102.756">  1  5  2 -1</clus>
<clus scale="  114.880">  2  5  1 -1</clus>
</clustering>
</event>
<event>
 9    1  0.6202448E-006  0.9237534E+02  0.7546771E-02  0.1298891E+00
          1   -1    0    0  502    0  0.00000000000E+00  0.00000000000E+00  0.17741777470E+03  0.17741777470E+03  0.00000000000E+00 0. -1.
         -1   -1    0    0    0  501 -0.00000000000E+00 -0.00000000000E+00 -0.38177167048E+03  0.38177167048E+03  0.00000000000E+00 0.  1.
         23    2    1    2    0    0  0.19101245852E+02  0.37193139307E+02 -0.91637265192E+02  0.13641795300E+03  0.92001534361E+02 0.  0.
         23    2    1    2    0    0 -0.65318683631E+01  0.73616821655E+01  0.13977300601E+03  0.16607295701E+03  0.89145242009E+02 0.  0.
        -13    1    3    3    0    0  0.41754862211E+02  0.52075531109E+02 -0.85775455564E+02  0.10868651359E+03  0.00000000000E+00 0. -1.
         13    1    3    3    0    0 -0.22653616359E+02 -0.14882391802E+02 -0.58618096273E+01  0.27731439414E+02  0.00000000000E+00 0.  1.
        -13    1    4    4    0    0  0.97034059614E+01 -0.35937920548E+02  0.33118897485E+02  0.49825210397E+02  0.00000000000E+00 0.  1.
         13    1    4    4    0    0 -0.16235274325E+02  0.43299602713E+02  0.10665410852E+03  0.11624774661E+03  0.00000000000E+00 0. -1.
         21    1    1    2  502  501 -0.12569377489E+02 -0.44554821472E+02 -0.25248963660E+03  0.25669853517E+03  0.00000000000E+00 0.  1.
<scales pt_clust_5="13000.00000" pt_clust_6="13000.00000" pt_clust_7="13000.00000" pt_clust_8="13000.00000" pt_clust_9="46.29386"></scales>
<clustering>
<clus scale="   46.294">  2  9  1 -1</clus>
<clus scale="   89.145">  7  8 -1 -1</clus>
<clus scale="   89.531">  1  7  2 -1</clus>
<clus scale="   92.002">  5  6 -1 -1</clus>
<clus scale="   89.531">  1  5  2 -1</clus>
</clustering>
</event>
<event>
 9    1  0.6202448E-006  0.1740599E+03  0.7546771E-02  0.1195427E+00
          1   -1    0    0  502    0  0.00000000000E+00  0.00000000000E+00  0.84515086329E+03  0.84515086329E+03  0.00000000000E+00 0. -1.
         -1   -1    0    0    0  501 -0.00000000000E+00 -0.00000000000E+00 -0.10946493530E+03  0.10946493530E+03  0.00000000000E+00 0.  1.
         23    2    1    2    0    0  0.40145764979E+02  0.91954645193E+02  0.59413270145E+03  0.60919880619E+03  0.89789639199E+02 0.  0.
         23    2    1    2    0    0  0.35301802753E+01  0.56656082210E+02  0.15664061299E+03  0.18978805640E+03  0.90889223183E+02 0.  0.
        -11    1    4    4    0    0  0.11206823682E+02 -0.17664346741E+02  0.62057427567E+01  0.21820478592E+02  0.00000000000E+00 0.  1.
         11    1    4    4    0    0 -0.76766434062E+01  0.74320428951E+02  0.15043487023E+03  0.16796757781E+03  0.00000000000E+00 0. -1.
        -13    1    3    3    0    0  0.23547541005E+02 -0.13117073875E+02  0.89241617262E+02  0.93223444293E+02  0.00000000000E+00 0.  1.
         13    1    3    3    0    0  0.16598223974E+02  0.10507171907E+03  0.50489108419E+03  0.51597536189E+03  0.00000000000E+00 0. -1.
         21    1    1    2  502  501 -0.43675945255E+02 -0.14861072740E+03 -0.15087386449E+02  0.15562893601E+03  0.00000000000E+00 0.  1.
<scales pt_clust_5="13000.00000" pt_clust_6="13000.00000" pt_clust_7="13000.00000" pt_clust_8="13000.00000" pt_clust_9="149.11296"></scales>
<clustering>
<clus scale="   89.790">  7  8 -1 -1</clus>
<clus scale="   90.889">  5  6 -1 -1</clus>
<clus scale="  107.160">  1  5  2 -1</clus>
<clus scale="  149.113">  2  9  1 -1</clus>
<clus scale="  107.160">  1  5  2 -1</clus>
</clustering>
</event>
<event>
 9    1  0.6202448E-006  0.1101182E+03  0.7546771E-02  0.1260401E+00
          2   -1    0    0  502    0  0.00000000000E+00  0.00000000000E+00  0.18258905462E+03  0.18258905462E+03  0.00000000000E+00 0. -1.
         -2   -1    0    0    0  501 -0.00000000000E+00 -0.00000000000E+00 -0.86609551435E+02  0.86609551435E+02  0.00000000000E+00 0.  1.
         23    2    1    2    0    0  0.33347628278E+02 -0.33140243223E+02  0.26142213773E+02  0.10572797349E+03  0.91020047270E+02 0.  0.
         23    2    1    2    0    0 -0.49243770861E+02  0.55977210843E+02  0.67046727866E+02  0.13550633975E+03  0.91149916574E+02 0.  0.
        -13    1    3    3    0    0  0.60945608603E+02 -0.20025495401E+02  0.36074495351E+02  0.73598620155E+02  0.00000000000E+00 0. -1.
         13    1    3    3    0    0 -0.27597980325E+02 -0.13114747822E+02 -0.99322815778E+01  0.32129353336E+02  0.00000000000E+00 0.  1.
        -13    1    4    4    0    0  0.14722031344E+02  0.32431533389E+02 -0.54129120881E+01  0.36025576778E+02  0.00000000000E+00 0. -1.
         13    1    4    4    0    0 -0.63965802205E+02  0.23545677454E+02  0.72459639954E+02  0.99480762968E+02  0.00000000000E+00 0.  1.
         21    1    1    2  502  501  0.15896142583E+02 -0.22836967620E+02  0.27905615467E+01  0.27964292819E+02  0.00000000000E+00 0. -1.
<scales pt_clust_5="13000.00000" pt_clust_6="13000.00000" pt_clust_7="13000.00000" pt_clust_8="13000.00000" pt_clust_9="27.82471"></scales>
<clustering>
<clus scale="   27.825">  2  9  1 -1</clus>
<clus scale="   91.020">  5  6 -1 -1</clus>
<clus scale="   91.150">  7  8 -1 -1</clus>
<clus scale="  110.011">  2  5  1 -1</clus>
<clus scale="  110.118">  1  5  2 -1</clus>
</clustering>
</event>
<event>
 9    1  0.6202448E-006  0.1498999E+03  0.7546771E-02  0.1201673E+00
          2   -1    0    0  502    0  0.00000000000E+00  0.00000000000E+00  0.82532628849E+03  0.82532628849E+03  0.00000000000E+00 0. -1.
         -2   -1    0    0    0  501 -0.00000000000E+00 -0.00000000000E+00 -0.45967449856E+02  0.45967449856E+02  0.00000000000E+00 0.  1.
         23    2    1    2    0    0  0.58133440839E+02 -0.11151624216E+03  0.13929107953E+03  0.20841977499E+03  0.90672093616E+02 0.  0.
         23    2    1    2    0    0 -0.33085901225E+02  0.75817722579E+02  0.51612051403E+03  0.53147882226E+03  0.96157940875E+02 0.  0.
        -13    1    4    4    0    0  0.12404374699E+02  0.74196229712E+02  0.39473649995E+03  0.40184058208E+03  0.00000000000E+00 0.  1.
         13    1    4    4    0    0 -0.45490275925E+02  0.16214928675E+01  0.12138401408E+03  0.12963824018E+03  0.00000000000E+00 0. -1.
        -13    1    3    3    0    0  0.31266290711E+02  0.77769528926E+01  0.36387605393E+02  0.48601643567E+02  0.00000000000E+00 0. -1.
         13    1    3    3    0    0  0.26867150128E+02 -0.11929319506E+03  0.10290347413E+03  0.15981813142E+03  0.00000000000E+00 0.  1.
         21    1    1    2  502  501 -0.25047539614E+02  0.35698519584E+02  0.12394724508E+03  0.13139514110E+03  0.00000000000E+00 0. -1.
<scales pt_clust_5="13000.00000" pt_clust_6="13000.00000" pt_clust_7="13000.00000" pt_clust_8="13000.00000" pt_clust_9="43.60921"></scales>
<clustering>
<clus scale="   43.609">  1  9  2 -1</clus>
<clus scale="   90.672">  7  8 -1 -1</clus>
<clus scale="   96.158">  5  6 -1 -1</clus>
<clus scale="  146.441">  2  7  1 -1</clus>
<clus scale="   43.609">  1  5  2 -1</clus>
</clustering>
</event>
<event>
 9    1  0.6202448E-006  0.1935393E+03  0.7546771E-02  0.1173160E+00
          1   -1    0    0  502    0  0.00000000000E+00  0.00000000000E+00  0.49650435240E+03  0.49650435240E+03  0.00000000000E+00 0. -1.
         -1   -1    0    0    0  501 -0.00000000000E+00 -0.00000000000E+00 -0.45013921478E+03  0.45013921478E+03  0.00000000000E+00 0.  1.
         23    2    1    2    0    0 -0.89653384450E+02 -0.14570916873E+03 -0.19245924695E+03  0.27317020997E+03  0.91172971243E+02 0.  0.
         23    2    1    2    0    0 -0.70494982660E+02  0.58724976047E+02  0.40626402430E+03  0.42598642377E+03  0.89419295503E+02 0.  0.
        -11    1    4    4    0    0 -0.36090585893E+02 -0.20229684484E+02  0.15210860601E+03  0.15763501688E+03  0.00000000000E+00 0.  1.
         11    1    4    4    0    0 -0.34404396767E+02  0.78954660531E+02  0.25415541829E+03  0.26835140690E+03  0.00000000000E+00 0. -1.
        -11    1    3    3    0    0 -0.42291133813E+02 -0.18811030792E+02 -0.96956668470E+02  0.10743830992E+03  0.00000000000E+00 0.  1.
         11    1    3    3    0    0 -0.47362250637E+02 -0.12689813794E+03 -0.95502578475E+02  0.16573190004E+03  0.00000000000E+00 0. -1.
         21    1    1    2  502  501  0.16014836711E+03  0.86984192681E+02 -0.16743963974E+03  0.24748693343E+03  0.00000000000E+00 0.  1.
<scales pt_clust_5="13000.00000" pt_clust_6="13000.00000" pt_clust_7="13000.00000" pt_clust_8="13000.00000" pt_clust_9="170.71894"></scales>
<clustering>
<clus scale="   89.419">  5  6 -1 -1</clus>
<clus scale="   91.173">  7  8 -1 -1</clus>
<clus scale="  128.117">  1  5  2 -1</clus>
<clus scale="  170.719">  1  9  2 -1</clus>
<clus scale="  128.117">  1  5  2 -1</clus>
</clustering>
</event>
<event>
 9    1  0.6202448E-006  0.1630304E+03  0.7546771E-02  0.1210756E+00
         -1   -1    0    0    0  501 -0.00000000000E+00  0.00000000000E+00  0.19898993486E+03  0.19898993486E+03  0.00000000000E+00 0.  1.
          1   -1    0    0  502    0  0.00000000000E+00 -0.00000000000E+00 -0.22633318422E+03  0.22633318422E+03  0.00000000000E+00 0. -1.
         23    2    1    2    0    0 -0.45523767845E+02 -0.13484432154E+03  0.75356902220E+02  0.18497598811E+03  0.91005763413E+02 0.  0.
         23    2    1    2    0    0  0.16072979984E+02  0.16872603891E+02 -0.28423702765E+02  0.97863216375E+02  0.90698824649E+02 0.  0.
        -13    1    3    3    0    0  0.12003989653E+01 -0.79729411108E+02  0.79504558782E+02  0.11260193080E+03  0.00000000000E+00 0. -1.
         13    1    3    3    0    0 -0.46724166810E+02 -0.55114910432E+02 -0.41476565624E+01  0.72374057306E+02  0.00000000000E+00 0.  1.
        -13    1    4    4    0    0  0.24781733870E+01  0.41053766674E+02 -0.48521486053E+02  0.63607292901E+02  0.00000000000E+00 0. -1.
         13    1    4    4    0    0  0.13594806597E+02 -0.24181162783E+02  0.20097783288E+02  0.34255923473E+02  0.00000000000E+00 0.  1.
         21    1    1    2  502  501  0.29450787861E+02  0.11797171765E+03 -0.74276448810E+02  0.14248391460E+03  0.00000000000E+00 0. -1.
<scales pt_clust_5="13000.00000" pt_clust_6="13000.00000" pt_clust_7="13000.00000" pt_clust_8="13000.00000" pt_clust_9="135.26587"></scales>
<clustering>
<clus scale="   90.699">  7  8 -1 -1</clus>
<clus scale="   91.006">  5  6 -1 -1</clus>
<clus scale="   93.645">  2  7  1 -1</clus>
<clus scale="  135.266">  2  9  1 -1</clus>
<clus scale="   93.645">  2  5  1 -1</clus>
</clustering>
</event>
<event>
 9    1  0.6202448E-006  0.9798998E+02  0.7546771E-02  0.1285128E+00
         -2   -1    0    0    0  501 -0.00000000000E+00  0.00000000000E+00  0.46186191380E+03  0.46186191380E+03  0.00000000000E+00 0.  1.
          2   -1    0    0  502    0  0.00000000000E+00 -0.00000000000E+00 -0.36871710494E+02  0.36871710494E+02  0.00000000000E+00 0. -1.
         23    2    1    2    0    0 -0.29289423749E+02 -0.34243259307E+02  0.24851348534E+03  0.26790648273E+03  0.89355805305E+02 0.  0.
         23    2    1    2    0    0 -0.10541849085E+02  0.39103327774E+02  0.83601723692E+02  0.12965444207E+03  0.90447914953E+02 0.  0.
        -11    1    4    4    0    0  0.14440526113E+02  0.62685583706E+02  0.60066448301E+02  0.88011302743E+02  0.00000000000E+00 0. -1.
         11    1    4    4    0    0 -0.24982375198E+02 -0.23582255932E+02  0.23535275392E+02  0.41643139329E+02  0.00000000000E+00 0.  1.
        -11    1    3    3    0    0 -0.41200991094E+02  0.16038698470E+02  0.77140063847E+02  0.88912040613E+02  0.00000000000E+00 0. -1.
         11    1    3    3    0    0  0.11911567345E+02 -0.50281957777E+02  0.17137342150E+03  0.17899444212E+03  0.00000000000E+00 0.  1.
         21    1    1    2  502  501  0.39831272834E+02 -0.48600684667E+01  0.92874994268E+02  0.10117269949E+03  0.00000000000E+00 0. -1.
<scales pt_clust_5="13000.00000" pt_clust_6="13000.00000" pt_clust_7="13000.00000" pt_clust_8="13000.00000" pt_clust_9="40.12668"></scales>
<clustering>
<clus scale="   40.127">  1  9  2 -1</clus>
<clus scale="   89.356">  7  8 -1 -1</clus>
<clus scale="   90.448">  5  6 -1 -1</clus>
<clus scale="   96.983">  1  7  2 -1</clus>
<clus scale="   97.990">  2  5  1 -1</clus>
</clustering>
</event>
<event>
 9    1  0.6202448E-006  0.1171512E+03  0.7546771E-02  0.1248620E+00
         -2   -1    0    0    0  501 -0.00000000000E+00  0.00000000000E+00  0.23670707852E+03  0.23670707852E+03  0.00000000000E+00 0.  1.
          2   -1    0    0  502    0  0.00000000000E+00 -0.00000000000E+00 -0.76601878879E+02  0.76601878879E+02  0.00000000000E+00 0. -1.
         23    2    1    2    0    0 -0.62168320110E+02 -0.47741927905E+02  0.81356003803E+02  0.14532198779E+03  0.91408364367E+02 0.  0.
         23    2    1    2    0    0  0.70142106885E+02  0.14706598826E+02  0.61335243363E+02  0.12980110856E+03  0.89163425782E+02 0.  0.
        -11    1    3    3    0    0 -0.73158554236E+02 -0.64862326375E+02  0.55513665402E+02  0.11243247968E+03  0.00000000000E+00 0.  1.
         11    1    3    3    0    0  0.10990234126E+02  0.17120398471E+02  0.25842338400E+02  0.32889508113E+02  0.00000000000E+00 0. -1.
        -11    1    4    4    0    0  0.32954214975E+02  0.44894481200E+02  0.50882597114E+01  0.55923028474E+02  0.00000000000E+00 0. -1.
         11    1    4    4    0    0  0.37187891910E+02 -0.30187882374E+02  0.56246983652E+02  0.73878080084E+02  0.00000000000E+00 0.  1.
         21    1    1    2  502  501 -0.79737867752E+01  0.33035329079E+02  0.17413952471E+02  0.38185861042E+02  0.00000000000E+00 0.  1.
<scales pt_clust_5="13000.00000" pt_clust_6="13000.00000" pt_clust_7="13000.00000" pt_clust_8="13000.00000" pt_clust_9="33.98403"></scales>
<clustering>
<clus scale="   33.984">  2  9  1 -1</clus>
<clus scale="   89.163">  7  8 -1 -1</clus>
<clus scale="   91.408">  5  6 -1 -1</clus>
<clus scale="  115.408">  2  7  1 -1</clus>
<clus scale="   33.984">  2  5  1 -1</clus>
</clustering>
</event>
<event>
 9    1  0.6202448E-006  0.1011278E+03  0.7546771E-02  0.1278344E+00
         -3   -1    0    0    0  501 -0.00000000000E+00  0.00000000000E+00  0.26430646328E+03  0.26430646328E+03  0.00000000000E+00 0.  1.
          3   -1    0    0  502    0  0.00000000000E+00 -0.00000000000E+00 -0.11821472248E+03  0.11821472248E+03  0.00000000000E+00 0. -1.
         23    2    1    2    0    0 -0.90310075075E+01 -0.12048511952E+02  0.52899008179E+02  0.10823870659E+03  0.93223316830E+02 0.  0.
         23    2    1    2    0    0 -0.62077403785E+02 -0.11619865939E+02 -0.42143483636E+02  0.11958118732E+03  0.92384856995E+02 0.  0.
        -11    1    3    3    0    0 -0.37908211158E+02  0.21792786670E+02  0.45563635086E+02  0.63150636309E+02  0.00000000000E+00 0. -1.
         11    1    3    3    0    0  0.28877203650E+02 -0.33841298622E+02  0.73353730928E+01  0.45088070279E+02  0.00000000000E+00 0.  1.
        -11    1    4    4    0    0 -0.28348208047E+02 -0.24638962245E+02  0.23737495032E+02  0.44431610711E+02  0.00000000000E+00 0.  1.
         11    1    4    4    0    0 -0.33729195738E+02  0.13019096306E+02 -0.65880978668E+02  0.75149576606E+02  0.00000000000E+00 0. -1.
         21    1    1    2  502  501  0.71108411292E+02  0.23668377891E+02  0.13533621626E+03  0.15470129185E+03  0.00000000000E+00 0.  1.
<scales pt_clust_5="13000.00000" pt_clust_6="13000.00000" pt_clust_7="13000.00000" pt_clust_8="13000.00000" pt_clust_9="74.94397"></scales>
<clustering>
<clus scale="   74.944">  1  9  2 -1</clus>
<clus scale="   92.385">  7  8 -1 -1</clus>
<clus scale="   93.223">  5  6 -1 -1</clus>
<clus scale="  100.355">  2  7  1 -1</clus>
<clus scale="  100.355">  2  5  1 -1</clus>
</clustering>
</event>
<event>
 9    1  0.6202448E-006  0.9676953E+02  0.7546771E-02  0.1289932E+00
          2   -1    0    0  502    0  0.00000000000E+00  0.00000000000E+00  0.32959604255E+03  0.32959604255E+03  0.00000000000E+00 0. -1.
         -2   -1    0    0    0  501 -0.00000000000E+00 -0.00000000000E+00 -0.82525896903E+02  0.82525896903E+02  0.00000000000E+00 0.  1.
         23    2    1    2    0    0  0.23602147243E+01 -0.12364199615E+01 -0.31464729144E+02  0.10174625113E+03  0.96722133413E+02 0.  0.
         23    2    1    2    0    0  0.30840671696E+02  0.10971637744E+02  0.23704539616E+03  0.25635300641E+03  0.91950096170E+02 0.  0.
        -11    1    4    4    0    0 -0.30100417473E+02  0.15974767945E+02  0.11348289299E+03  0.11848879839E+03  0.00000000000E+00 0.  1.
         11    1    4    4    0    0  0.60941089169E+02 -0.50031302002E+01  0.12356250318E+03  0.13786420802E+03  0.00000000000E+00 0. -1.
        -11    1    3    3    0    0 -0.19866989339E+02  0.24907537869E+02 -0.52561950903E+02  0.61464147199E+02  0.00000000000E+00 0.  1.
         11    1    3    3    0    0  0.22227204063E+02 -0.26143957831E+02  0.21097221760E+02  0.40282103936E+02  0.00000000000E+00 0. -1.
         21    1    1    2  502  501 -0.33200886420E+02 -0.97352177830E+01  0.41489478631E+02  0.54022681917E+02  0.00000000000E+00 0.  1.
<scales pt_clust_5="13000.00000" pt_clust_6="13000.00000" pt_clust_7="13000.00000" pt_clust_8="13000.00000" pt_clust_9="34.59875"></scales>
<clustering>
<clus scale="   34.599">  1  9  2 -1</clus>
<clus scale="   91.950">  5  6 -1 -1</clus>
<clus scale="   92.000">  1  5  2 -1</clus>
<clus scale="   96.722">  7  8 -1 -1</clus>
<clus scale="   34.599">  1  5  2 -1</clus>
</clustering>
</event>
<event>
 9    1  0.6202448E-006  0.2780651E+03  0.7546771E-02  0.1119074E+00
          2   -1    0    0  502    0  0.00000000000E+00  0.00000000000E+00  0.60663659689E+03  0.60663659689E+03  0.00000000000E+00 0. -1.
         -2   -1    0    0    0  501 -0.00000000000E+00 -0.00000000000E+00 -0.21288483060E+03  0.21288483060E+03  0.00000000000E+00 0.  1.
         23    2    1    2    0    0  0.12398456304E+03  0.29776822982E+02  0.84629171287E+02  0.17845743264E+03  0.91793940830E+02 0.  0.
         23    2    1    2    0    0 -0.51699431900E+02 -0.27544616102E+03  0.22682632733E+03  0.37208213763E+03  0.91932124420E+02 0.  0.
        -13    1    3    3    0    0  0.11343865664E+03  0.55001803675E+02  0.53294326546E+02  0.13687151811E+03  0.00000000000E+00 0. -1.
         13    1    3    3    0    0  0.10545906408E+02 -0.25224980693E+02  0.31334844741E+02  0.41585914537E+02  0.00000000000E+00 0.  1.
        -13    1    4    4    0    0 -0.64432357992E+02 -0.24813512017E+03  0.16953977166E+03  0.30735370633E+03  0.00000000000E+00 0.  1.
         13    1    4    4    0    0  0.12732926092E+02 -0.27311040844E+02  0.57286555673E+02  0.64728431309E+02  0.00000000000E+00 0. -1.
         21    1    1    2  502  501 -0.72285131145E+02  0.24566933803E+03  0.82296267670E+02  0.26898185721E+03  0.00000000000E+00 0. -1.
<scales pt_clust_5="13000.00000" pt_clust_6="13000.00000" pt_clust_7="13000.00000" pt_clust_8="13000.00000" pt_clust_9="262.42842"></scales>
<clustering>
<clus scale="   91.794">  5  6 -1 -1</clus>
<clus scale="   91.932">  7  8 -1 -1</clus>
<clus scale="  157.114">  2  5  1 -1</clus>
<clus scale="  262.428">  2  9  1 -1</clus>
<clus scale="  278.065">  1  5  2 -1</clus>
</clustering>
</event>
<event>
 9    1  0.6202448E-006  0.9772603E+02  0.7546771E-02  0.1286892E+00
         -1   -1    0    0    0  501 -0.00000000000E+00  0.00000000000E+00  0.29569937634E+02  0.29569937634E+02  0.00000000000E+00 0.  1.
          1   -1    0    0  502    0  0.00000000000E+00 -0.00000000000E+00 -0.48870325157E+03  0.48870325157E+03  0.00000000000E+00 0. -1.
         23    2    1    2    0    0 -0.43201338370E+01 -0.33854948683E+02 -0.12535244351E+03  0.16024896034E+03  0.93817232366E+02 0.  0.
         23    2    1    2    0    0  0.26659156794E+02  0.82602747607E+01 -0.22714131259E+03  0.24610410300E+03  0.90526851515E+02 0.  0.
        -11    1    4    4    0    0  0.59604346140E+02 -0.34434597419E+01 -0.14762632604E+03  0.15924216663E+03  0.00000000000E+00 0.  1.
         11    1    4    4    0    0 -0.32945189346E+02  0.11703734503E+02 -0.79514986552E+02  0.86861936363E+02  0.00000000000E+00 0. -1.
        -13    1    3    3    0    0  0.18252012534E+02  0.25017895696E+02 -0.69218019327E+02  0.75829844165E+02  0.00000000000E+00 0. -1.
         13    1    3    3    0    0 -0.22572146371E+02 -0.58872844379E+02 -0.56134424183E+02  0.84419116173E+02  0.00000000000E+00 0.  1.
         21    1    1    2  502  501 -0.22339022957E+02  0.25594673923E+02 -0.10663955784E+03  0.11192012587E+03  0.00000000000E+00 0. -1.
<scales pt_clust_5="13000.00000" pt_clust_6="13000.00000" pt_clust_7="13000.00000" pt_clust_8="13000.00000" pt_clust_9="33.97233"></scales>
<clustering>
<clus scale="   33.972">  2  9  1 -1</clus>
<clus scale="   90.527">  5  6 -1 -1</clus>
<clus scale="   93.817">  7  8 -1 -1</clus>
<clus scale="   94.572">  2  5  1 -1</clus>
<clus scale="   33.972">  2  5  1 -1</clus>
</clustering>
</event>
<event>
 9    1  0.6202448E-006  0.1850170E+03  0.7546771E-02  0.1179757E+00
          2   -1    0    0  502    0  0.00000000000E+00  0.00000000000E+00  0.71374687359E+03  0.71374687359E+03  0.00000000000E+00 0. -1.
         -2   -1    0    0    0  501 -0.00000000000E+00 -0.00000000000E+00 -0.14871448622E+03  0.14871448622E+03  0.00000000000E+00 0.  1.
         23    2    1    2    0    0 -0.45846592369E+02 -0.75484518671E+02  0.52585129197E+01  0.12643208642E+03  0.90319421651E+02 0.  0.
         23    2    1    2    0    0  0.67725919245E+02  0.22289400979E+03  0.13190425375E+03  0.28295016844E+03  0.91616188116E+02 0.  0.
        -13    1    4    4    0    0  0.13567254789E+02  0.34864323038E+02  0.67099488965E+02  0.76824038183E+02  0.00000000000E+00 0. -1.
         13    1    4    4    0    0  0.54158664456E+02  0.18802968676E+03  0.64804764787E+02  0.20612613026E+03  0.00000000000E+00 0.  1.
        -13    1    3    3    0    0 -0.19851330001E+02  0.18196403966E+02 -0.85085376288E+01  0.28241452383E+02  0.00000000000E+00 0.  1.
         13    1    3    3    0    0 -0.25995262368E+02 -0.93680922637E+02  0.13767050549E+02  0.98190634037E+02  0.00000000000E+00 0. -1.
         21    1    1    2  502  501 -0.21879326876E+02 -0.14740949112E+03  0.42786962070E+03  0.45307910494E+03  0.00000000000E+00 0. -1.
<scales pt_clust_5="13000.00000" pt_clust_6="13000.00000" pt_clust_7="13000.00000" pt_clust_8="13000.00000" pt_clust_9="160.74126"></scales>
<clustering>
<clus scale="   90.319">  7  8 -1 -1</clus>
<clus scale="   91.616">  5  6 -1 -1</clus>
<clus scale="  126.323">  2  7  1 -1</clus>
<clus scale="  160.741">  1  9  2 -1</clus>
<clus scale="  160.741">  1  5  2 -1</clus>
</clustering>
</event>
<event>
 9    1  0.6202448E-006  0.1531204E+03  0.7546771E-02  0.1196782E+00
         -2   -1    0    0    0  501 -0.00000000000E+00  0.00000000000E+00  0.10493780718E+03  0.10493780718E+03  0.00000000000E+00 0.  1.
          2   -1    0    0  502    0  0.00000000000E+00 -0.00000000000E+00 -0.54942675002E+03  0.54942675002E+03  0.00000000000E+00 0. -1.
         23    2    1    2    0    0  0.15027085537E+03  0.15875944545E+02 -0.29165279786E+03  0.34105429735E+03  0.91778557674E+02 0.  0.
         23    2    1    2    0    0 -0.97249411815E+02 -0.18996452423E+02 -0.20076216399E+03  0.24177066002E+03  0.91264956345E+02 0.  0.
        -11    1    4    4    0    0 -0.46230828218E+02  0.36688155439E+02 -0.82059536518E+02  0.10107956154E+03  0.00000000000E+00 0.  1.
         11    1    4    4    0    0 -0.51018583597E+02 -0.55684607862E+02 -0.11870262747E+03  0.14069109848E+03  0.00000000000E+00 0. -1.
        -11    1    3    3    0    0  0.70764251123E+02  0.52430576082E+02 -0.12631451218E+03  0.15398668946E+03  0.00000000000E+00 0.  1.
         11    1    3    3    0    0  0.79506604249E+02 -0.36554631538E+02 -0.16533828569E+03  0.18706760788E+03  0.00000000000E+00 0. -1.
         21    1    1    2  502  501 -0.53021443557E+02  0.31205078786E+01  0.47926019004E+02  0.71539599830E+02  0.00000000000E+00 0.  1.
<scales pt_clust_5="13000.00000" pt_clust_6="13000.00000" pt_clust_7="13000.00000" pt_clust_8="13000.00000" pt_clust_9="53.11319"></scales>
<clustering>
<clus scale="   53.113">  1  9  2 -1</clus>
<clus scale="   91.265">  5  6 -1 -1</clus>
<clus scale="   91.779">  7  8 -1 -1</clus>
<clus scale="  152.813">  2  5  1 -1</clus>
<clus scale="  152.813">  2  5  1 -1</clus>
</clustering>
</event>
<event>
 9    1  0.6202448E-006  0.1140991E+03  0.7546771E-02  0.1253606E+00
          2   -1    0    0  502    0  0.00000000000E+00  0.00000000000E+00  0.39513947709E+03  0.39513947709E+03  0.00000000000E+00 0. -1.
         -2   -1    0    0    0  501 -0.00000000000E+00 -0.00000000000E+00 -0.12001667054E+03  0.12001667054E+03  0.00000000000E+00 0.  1.
         23    2    1    2    0    0  0.62472049169E+02  0.56416327953E+02  0.27102457800E+02  0.12573732693E+03  0.89385531149E+02 0.  0.
         23    2    1    2    0    0 -0.79823730067E+01 -0.69284625546E+02  0.29495848243E+03  0.31635784421E+03  0.90651539547E+02 0.  0.
        -13    1    3    3    0    0  0.41072711516E+02  0.71576605672E+02  0.44991655232E+02  0.93991633411E+02  0.00000000000E+00 0.  1.
         13    1    3    3    0    0  0.21399337653E+02 -0.15160277719E+02 -0.17889197432E+02  0.31745693523E+02  0.00000000000E+00 0. -1.
        -13    1    4    4    0    0 -0.46827555107E+02 -0.27889328601E+02  0.18123816963E+03  0.18925619857E+03  0.00000000000E+00 0.  1.
         13    1    4    4    0    0  0.38845182100E+02 -0.41395296946E+02  0.11372031280E+03  0.12710164564E+03  0.00000000000E+00 0. -1.
         21    1    1    2  502  501 -0.54489676163E+02  0.12868297593E+02 -0.46938133682E+02  0.73060976484E+02  0.00000000000E+00 0. -1.
<scales pt_clust_5="13000.00000" pt_clust_6="13000.00000" pt_clust_7="13000.00000" pt_clust_8="13000.00000" pt_clust_9="55.98855"></scales>
<clustering>
<clus scale="   55.989">  2  9  1 -1</clus>
<clus scale="   89.386">  5  6 -1 -1</clus>
<clus scale="   90.652">  7  8 -1 -1</clus>
<clus scale="  113.096">  2  5  1 -1</clus>
<clus scale="  114.099">  1  5  2 -1</clus>
</clustering>
</event>
<event>
 9    1  0.6202448E-006  0.1061530E+03  0.7546771E-02  0.1268897E+00
         -1   -1    0    0    0  501 -0.00000000000E+00  0.00000000000E+00  0.25357498336E+03  0.25357498336E+03  0.00000000000E+00 0.  1.
          1   -1    0    0  502    0  0.00000000000E+00 -0.00000000000E+00 -0.15371833170E+03  0.15371833170E+03  0.00000000000E+00 0. -1.
         23    2    1    2    0    0  0.44407332498E+02 -0.62892554064E+01  0.14488472650E+03  0.17777645923E+03  0.92743299330E+02 0.  0.
         23    2    1    2    0    0 -0.38134858452E+02  0.37576327700E+02 -0.11310634416E+03  0.15433124831E+03  0.90326304481E+02 0.  0.
        -11    1    4    4    0    0  0.19057197588E+02  0.30712182016E+02 -0.80256887450E+02  0.88020354960E+02  0.00000000000E+00 0. -1.
         11    1    4    4    0    0 -0.57192056040E+02  0.68641456842E+01 -0.32849456714E+02  0.66310893347E+02  0.00000000000E+00 0.  1.
        -13    1    3    3    0    0 -0.23125655558E+02  0.14488983154E+02  0.68435353123E+02  0.73675804271E+02  0.00000000000E+00 0. -1.
         13    1    3    3    0    0  0.67532988056E+02 -0.20778238561E+02  0.76449373379E+02  0.10410065496E+03  0.00000000000E+00 0.  1.
         21    1    1    2  502  501 -0.62724740460E+01 -0.31287072294E+02  0.68078269321E+02  0.75185607513E+02  0.00000000000E+00 0. -1.
<scales pt_clust_5="13000.00000" pt_clust_6="13000.00000" pt_clust_7="13000.00000" pt_clust_8="13000.00000" pt_clust_9="31.90964"></scales>
<clustering>
<clus scale="   31.910">  1  9  2 -1</clus>
<clus scale="   90.326">  5  6 -1 -1</clus>
<clus scale="   92.743">  7  8 -1 -1</clus>
<clus scale="  104.048">  2  5  1 -1</clus>
<clus scale="  104.048">  2  5  1 -1</clus>
</clustering>
</event>
<event>
 9    1  0.6202448E-006  0.1359274E+03  0.7546771E-02  0.1230087E+00
          1   -1    0    0  502    0  0.00000000000E+00  0.00000000000E+00  0.93836240041E+02  0.93836240041E+02  0.00000000000E+00 0. -1.
         -1   -1    0    0    0  501 -0.00000000000E+00 -0.00000000000E+00 -0.89586022863E+03  0.89586022863E+03  0.00000000000E+00 0.  1.
         23    2    1    2    0    0 -0.35599609077E+02  0.49720721454E+02 -0.17622014564E+03  0.20652453582E+03  0.88653042020E+02 0.  0.
         23    2    1    2    0    0  0.73428246621E+02  0.62307311156E+02  0.10563779516E+02  0.13591229651E+03  0.95323923964E+02 0.  0.
        -11    1    4    4    0    0  0.42801476193E+01  0.58534038989E+02 -0.17420020002E+02  0.61220997059E+02  0.00000000000E+00 0.  1.
         11    1    4    4    0    0  0.69148099001E+02  0.37732721667E+01  0.27983799518E+02  0.74691299452E+02  0.00000000000E+00 0. -1.
        -11    1    3    3    0    0  0.27986630139E+02  0.36864753103E+01 -0.35129428673E+02  0.45065711197E+02  0.00000000000E+00 0.  1.
         11    1    3    3    0    0 -0.63586239216E+02  0.46034246143E+02 -0.14109071696E+03  0.16145882462E+03  0.00000000000E+00 0. -1.
         21    1    1    2  502  501 -0.37828637543E+02 -0.11202803261E+03 -0.63636762247E+03  0.64725963635E+03  0.00000000000E+00 0.  1.
<scales pt_clust_5="13000.00000" pt_clust_6="13000.00000" pt_clust_7="13000.00000" pt_clust_8="13000.00000" pt_clust_9="96.90002"></scales>
<clustering>
<clus scale="   88.653">  7  8 -1 -1</clus>
<clus scale="   95.324">  5  6 -1 -1</clus>
<clus scale="  107.698">  2  7  1 -1</clus>
<clus scale="   96.900">  2  9  1 -1</clus>
<clus scale="  135.927">  1  5  2 -1</clus>
</clustering>
</event>
<event>
 9    1  0.6202448E-006  0.1051934E+03  0.7546771E-02  0.1278969E+00
         -3   -1    0    0    0  501 -0.00000000000E+00  0.00000000000E+00  0.11254124791E+03  0.11254124791E+03  0.00000000000E+00 0.  1.
          3   -1    0    0  502    0  0.00000000000E+00 -0.00000000000E+00 -0.21479503968E+03  0.21479503968E+03  0.00000000000E+00 0. -1.
         23    2    1    2    0    0 -0.58675072166E+02 -0.85054990440E+02 -0.53771110278E+02  0.14730625259E+03  0.90170306970E+02 0.  0.
         23    2    1    2    0    0  0.30358086001E+02  0.21278149607E+02 -0.71684059112E+02  0.10649337030E+03  0.69482807596E+02 0.  0.
        -11    1    4    4    0    0 -0.49704266481E+01 -0.20944871520E+02 -0.97617532989E+01  0.23636510138E+02  0.00000000000E+00 0.  1.
         11    1    4    4    0    0  0.35328512650E+02  0.42223021127E+02 -0.61922305813E+02  0.82856860164E+02  0.00000000000E+00 0. -1.
        -13    1    3    3    0    0 -0.73342756303E+02 -0.34174347777E+02 -0.47900310100E+02  0.94029174493E+02  0.00000000000E+00 0. -1.
         13    1    3    3    0    0  0.14667684138E+02 -0.50880642663E+02 -0.58708001775E+01  0.53277078096E+02  0.00000000000E+00 0.  1.
         21    1    1    2  502  501  0.28316986164E+02  0.63776840833E+02  0.23201377617E+02  0.73536664701E+02  0.00000000000E+00 0.  1.
<scales pt_clust_5="13000.00000" pt_clust_6="13000.00000" pt_clust_7="13000.00000" pt_clust_8="13000.00000" pt_clust_9="69.78064"></scales>
<clustering>
<clus scale="   69.483">  5  6 -1 -1</clus>
<clus scale="   69.781">  1  9  2 -1</clus>
<clus scale="   88.107">  2  5  1 -1</clus>
<clus scale="   90.170">  7  8 -1 -1</clus>
<clus scale="   88.107">  2  5  1 -1</clus>
</clustering>
</event>
<event>
 9    1  0.6202448E-006  0.1314714E+03  0.7546771E-02  0.1244523E+00
          2   -1    0    0  502    0  0.00000000000E+00  0.00000000000E+00  0.64983449335E+03  0.64983449335E+03  0.00000000000E+00 0. -1.
         -2   -1    0    0    0  501 -0.00000000000E+00 -0.00000000000E+00 -0.41215370525E+02  0.41215370525E+02  0.00000000000E+00 0.  1.
         23    2    1    2    0    0 -0.11904104353E+02 -0.43929515342E+01  0.10597653839E+03  0.13817252800E+03  0.87747450565E+02 0.  0.
         23    2    1    2    0    0 -0.19511771475E+02 -0.89269487584E+02  0.32428198726E+03  0.34898493195E+03  0.91005081314E+02 0.  0.
        -13    1    4    4    0    0 -0.31761900491E+02 -0.28257992093E+02  0.24261145681E+03  0.24630804172E+03  0.00000000000E+00 0. -1.
         13    1    4    4    0    0  0.12250129016E+02 -0.61011495490E+02  0.81670530452E+02  0.10267689023E+03  0.00000000000E+00 0.  1.
        -13    1    3    3    0    0  0.34704546888E+02 -0.19312921318E+02  0.48225897021E+02  0.62475048203E+02  0.00000000000E+00 0.  1.
         13    1    3    3    0    0 -0.46608651241E+02  0.14919969783E+02  0.57750641371E+02  0.75697479796E+02  0.00000000000E+00 0. -1.
         21    1    1    2  502  501  0.31415875827E+02  0.93662439118E+02  0.17836059716E+03  0.20389240392E+03  0.00000000000E+00 0.  1.
<scales pt_clust_5="13000.00000" pt_clust_6="13000.00000" pt_clust_7="13000.00000" pt_clust_8="13000.00000" pt_clust_9="94.88313"></scales>
<clustering>
<clus scale="   87.747">  7  8 -1 -1</clus>
<clus scale="   88.660">  2  7  1 -1</clus>
<clus scale="   91.005">  5  6 -1 -1</clus>
<clus scale="   94.883">  2  9  1 -1</clus>
<clus scale="  131.471">  1  5  2 -1</clus>
</clustering>
</event>
<event>
 9    1  0.6202448E-006  0.9358563E+02  0.7546771E-02  0.1295338E+00
         -1   -1    0    0    0  501 -0.00000000000E+00  0.00000000000E+00  0.28306545921E+03  0.28306545921E+03  0.00000000000E+00 0.  1.
          1   -1    0    0  502    0  0.00000000000E+00 -0.00000000000E+00 -0.40217665768E+02  0.40217665768E+02  0.00000000000E+00 0. -1.
         23    2    1    2    0    0 -0.55475342516E+01 -0.27536243800E+02  0.12776552092E+03  0.15847574065E+03  0.89451172044E+02 0.  0.
         23    2    1    2    0    0 -0.10457634750E+02  0.14195653729E+02  0.10887250711E+03  0.14306576606E+03  0.91124705236E+02 0.  0.
        -11    1    3    3    0    0 -0.34027705896E+02 -0.23886347539E+02  0.18507708636E+02  0.45507995410E+02  0.00000000000E+00 0. -1.
         11    1    3    3    0    0  0.28480171644E+02 -0.36498962607E+01  0.10925781229E+03  0.11296774524E+03  0.00000000000E+00 0.  1.
        -13    1    4    4    0    0  0.34492405530E+02  0.28604824146E+02  0.62422073032E+02  0.76840596076E+02  0.00000000000E+00 0.  1.
         13    1    4    4    0    0 -0.44950040280E+02 -0.14409170417E+02  0.46450434081E+02  0.66225169986E+02  0.00000000000E+00 0. -1.
         21    1    1    2  502  501  0.16005169002E+02  0.13340590071E+02  0.62097654037E+01  0.21741618260E+02  0.00000000000E+00 0.  1.
<scales pt_clust_5="13000.00000" pt_clust_6="13000.00000" pt_clust_7="13000.00000" pt_clust_8="13000.00000" pt_clust_9="20.83595"></scales>
<clustering>
<clus scale="   20.836">  2  9  1 -1</clus>
<clus scale="   89.451">  5  6 -1 -1</clus>
<clus scale="   91.125">  7  8 -1 -1</clus>
<clus scale="   91.957">  1  5  2 -1</clus>
<clus scale="   20.836">  2  5  1 -1</clus>
</clustering>
</event>
<event>
 9    1  0.6202448E-006  0.3354452E+03  0.7546771E-02  0.1111567E+00
          2   -1    0    0  502    0  0.00000000000E+00  0.00000000000E+00  0.12900963645E+04  0.12900963645E+04  0.00000000000E+00 0. -1.
         -2   -1    0    0    0  501 -0.00000000000E+00 -0.00000000000E+00 -0.22363807023E+03  0.22363807023E+03  0.00000000000E+00 0.  1.
         23    2    1    2    0    0 -0.27388735938E+02 -0.56617270422E+02 -0.46786204070E+02  0.11783795114E+03  0.87983951217E+02 0.  0.
         23    2    1    2    0    0  0.27438255727E+03 -0.15582230457E+03  0.11822655969E+03  0.34890210965E+03  0.90491902230E+02 0.  0.
        -11    1    3    3    0    0 -0.46093702290E+02 -0.46486070945E+01 -0.13977737075E+01  0.46348599872E+02  0.00000000000E+00 0. -1.
         11    1    3    3    0    0  0.18704966352E+02 -0.51968663327E+02 -0.45388430362E+02  0.71489351270E+02  0.00000000000E+00 0.  1.
        -13    1    4    4    0    0  0.13131930675E+03 -0.12065085396E+03  0.42803240636E+02  0.18339440094E+03  0.00000000000E+00 0.  1.
         13    1    4    4    0    0  0.14306325052E+03 -0.35171450609E+02  0.75423319051E+02  0.16550770872E+03  0.00000000000E+00 0. -1.
         21    1    1    2  502  501 -0.24699382133E+03  0.21243957499E+03  0.99501793868E+03  0.10469943740E+04  0.00000000000E+00 0. -1.
<scales pt_clust_5="13000.00000" pt_clust_6="13000.00000" pt_clust_7="13000.00000" pt_clust_8="13000.00000" pt_clust_9="323.00884"></scales>
<clustering>
<clus scale="   87.984">  5  6 -1 -1</clus>
<clus scale="   90.492">  7  8 -1 -1</clus>
<clus scale="  108.152">  2  5  1 -1</clus>
<clus scale="  323.009">  1  9  2 -1</clus>
<clus scale="  323.009">  1  5  2 -1</clus>
</clustering>
</event>
<event>
 9    1  0.6202448E-006  0.9979636E+02  0.7546771E-02  0.1286215E+00
          1   -1    0    0  502    0  0.00000000000E+00  0.00000000000E+00  0.53570788314E+02  0.53570788314E+02  0.00000000000E+00 0. -1.
         -1   -1    0    0    0  501 -0.00000000000E+00 -0.00000000000E+00 -0.47563495336E+03  0.47563495336E+03  0.00000000000E+00 0.  1.
         23    2    1    2    0    0 -0.37559926090E+02  0.35861874283E+02 -0.23685799317E+03  0.26159686394E+03  0.98154919488E+02 0.  0.
         23    2    1    2    0    0 -0.14623082519E+02  0.36713298613E+02 -0.59754932143E+02  0.11356915669E+03  0.88122645209E+02 0.  0.
        -13    1    4    4    0    0 -0.35208348201E+02 -0.16914540831E+02 -0.22007778137E+02  0.44833823984E+02  0.00000000000E+00 0. -1.
         13    1    4    4    0    0  0.20585265681E+02  0.53627839445E+02 -0.37747154007E+02  0.68735332707E+02  0.00000000000E+00 0.  1.
        -13    1    3    3    0    0 -0.65548279116E+02  0.10831800428E+02 -0.19159570006E+03  0.20278761569E+03  0.00000000000E+00 0.  1.
         13    1    3    3    0    0  0.27988353026E+02  0.25030073855E+02 -0.45262293115E+02  0.58809248255E+02  0.00000000000E+00 0. -1.
         21    1    1    2  502  501  0.52183008609E+02 -0.72575172897E+02 -0.12545123973E+03  0.15403972104E+03  0.00000000000E+00 0. -1.
<scales pt_clust_5="13000.00000" pt_clust_6="13000.00000" pt_clust_7="13000.00000" pt_clust_8="13000.00000" pt_clust_9="89.38804"></scales>
<clustering>
<clus scale="   88.123">  5  6 -1 -1</clus>
<clus scale="   89.388">  2  9  1 -1</clus>
<clus scale="   89.947">  1  5  2 -1</clus>
<clus scale="   98.155">  7  8 -1 -1</clus>
<clus scale="   89.947">  1  5  2 -1</clus>
</clustering>
</event>
<event>
 9    1  0.6202448E-006  0.9597131E+02  0.7546771E-02  0.1289842E+00
          1   -1    0    0  502    0  0.00000000000E+00  0.00000000000E+00  0.33643954602E+03  0.33643954602E+03  0.00000000000E+00 0. -1.
         -1   -1    0    0    0  501 -0.00000000000E+00 -0.00000000000E+00 -0.17902093494E+03  0.17902093494E+03  0.00000000000E+00 0.  1.
         23    2    1    2    0    0  0.23020964413E+02 -0.17266581602E+02 -0.15101689017E+03  0.17819369313E+03  0.90104336821E+02 0.  0.
         23    2    1    2    0    0 -0.37093063606E+02 -0.13842025398E+02  0.19932950914E+03  0.22294318170E+03  0.91672853223E+02 0.  0.
        -11    1    4    4    0    0 -0.15343334879E+02 -0.45984357108E+02  0.16198878938E+03  0.16908680288E+03  0.00000000000E+00 0. -1.
         11    1    4    4    0    0 -0.21749728728E+02  0.32142331710E+02  0.37340719767E+02  0.53856378826E+02  0.00000000000E+00 0.  1.
        -11    1    3    3    0    0  0.41086256881E+02 -0.78033814725E+01 -0.15212601184E+03  0.15776975866E+03  0.00000000000E+00 0.  1.
         11    1    3    3    0    0 -0.18065292468E+02 -0.94632001295E+01  0.11091216763E+01  0.20423934477E+02  0.00000000000E+00 0. -1.
         21    1    1    2  502  501  0.14072099193E+02  0.31108607000E+02  0.10910599210E+03  0.11432360613E+03  0.00000000000E+00 0. -1.
<scales pt_clust_5="13000.00000" pt_clust_6="13000.00000" pt_clust_7="13000.00000" pt_clust_8="13000.00000" pt_clust_9="34.14337"></scales>
<clustering>
<clus scale="   34.143">  1  9  2 -1</clus>
<clus scale="   90.104">  7  8 -1 -1</clus>
<clus scale="   91.673">  5  6 -1 -1</clus>
<clus scale="   94.474">  2  7  1 -1</clus>
<clus scale="   34.143">  1  5  2 -1</clus>
</clustering>
</event>
<event>
 9    1  0.6202448E-006  0.1047823E+03  0.7546771E-02  0.1273018E+00
          1   -1    0    0  502    0  0.00000000000E+00  0.00000000000E+00  0.31386624578E+03  0.31386624578E+03  0.00000000000E+00 0. -1.
         -1   -1    0    0    0  501 -0.00000000000E+00 -0.00000000000E+00 -0.25889023413E+03  0.25889023413E+03  0.00000000000E+00 0.  1.
         23    2    1    2    0    0 -0.48637443049E+02 -0.27515951244E+02 -0.18976948513E+03  0.21871480582E+03  0.93279045653E+02 0.  0.
         23    2    1    2    0    0  0.47644940930E+02  0.10843180953E+01  0.28717288588E+03  0.30404467781E+03  0.87770630495E+02 0.  0.
        -11    1    3    3    0    0 -0.70241507303E+01 -0.45484977660E+02 -0.15471110515E+03  0.16141173422E+03  0.00000000000E+00 0. -1.
         11    1    3    3    0    0 -0.41613292319E+02  0.17969026416E+02 -0.35058379979E+02  0.57303071599E+02  0.00000000000E+00 0.  1.
        -13    1    4    4    0    0 -0.20877398580E+02  0.19864456636E+02  0.84548753749E+02  0.89324991852E+02  0.00000000000E+00 0.  1.
         13    1    4    4    0    0  0.68522339510E+02 -0.18780138541E+02  0.20262413213E+03  0.21471968596E+03  0.00000000000E+00 0. -1.
         21    1    1    2  502  501  0.99250211913E+00  0.26431633149E+02 -0.42427389105E+02  0.49996996287E+02  0.00000000000E+00 0.  1.
<scales pt_clust_5="13000.00000" pt_clust_6="13000.00000" pt_clust_7="13000.00000" pt_clust_8="13000.00000" pt_clust_9="26.45026"></scales>
<clustering>
<clus scale="   26.450">  2  9  1 -1</clus>
<clus scale="   87.771">  7  8 -1 -1</clus>
<clus scale="   93.279">  5  6 -1 -1</clus>
<clus scale="   99.910">  1  7  2 -1</clus>
<clus scale="   99.910">  1  5  2 -1</clus>
</clustering>
</event>
<event>
 9    1  0.6202448E-006  0.9429342E+02  0.7546771E-02  0.1293589E+00
          1   -1    0    0  502    0  0.00000000000E+00  0.00000000000E+00  0.19533106939E+03  0.19533106939E+03  0.00000000000E+00 0. -1.
         -1   -1    0    0    0  501 -0.00000000000E+00 -0.00000000000E+00 -0.65171307725E+02  0.65171307725E+02  0.00000000000E+00 0.  1.
         23    2    1    2    0    0  0.31986824143E+01 -0.27079285751E+02  0.29539141424E+02  0.98863874460E+02  0.90321567254E+02 0.  0.
         23    2    1    2    0    0 -0.31927925851E+02  0.16340947146E+02  0.74852754882E+02  0.12158024222E+03  0.88839188318E+02 0.  0.
        -11    1    3    3    0    0 -0.74837766128E+01 -0.58396175037E+02  0.29328559884E+02  0.65774498069E+02  0.00000000000E+00 0.  1.
         11    1    3    3    0    0  0.10682459027E+02  0.31316889285E+02  0.21058153975E+00  0.33089376391E+02  0.00000000000E+00 0. -1.
        -13    1    4    4    0    0  0.29413598394E+02 -0.21844347270E+01  0.36401830176E+02  0.46851091404E+02  0.00000000000E+00 0. -1.
         13    1    4    4    0    0 -0.61341524245E+02  0.18525381873E+02  0.38450924705E+02  0.74729150811E+02  0.00000000000E+00 0.  1.
         21    1    1    2  502  501  0.28729243437E+02  0.10738338605E+02  0.25767865363E+02  0.40058260444E+02  0.00000000000E+00 0. -1.
<scales pt_clust_5="13000.00000" pt_clust_6="13000.00000" pt_clust_7="13000.00000" pt_clust_8="13000.00000" pt_clust_9="30.67053"></scales>
<clustering>
<clus scale="   30.671">  1  9  2 -1</clus>
<clus scale="   88.839">  7  8 -1 -1</clus>
<clus scale="   90.322">  5  6 -1 -1</clus>
<clus scale="   92.874">  1  7  2 -1</clus>
<clus scale="   30.671">  1  5  2 -1</clus>
</clustering>
</event>
<event>
 9    1  0.6202448E-006  0.1771520E+03  0.7546771E-02  0.1199671E+00
          1   -1    0    0  502    0  0.00000000000E+00  0.00000000000E+00  0.48755903441E+03  0.48755903441E+03  0.00000000000E+00 0. -1.
         -1   -1    0    0    0  501 -0.00000000000E+00 -0.00000000000E+00 -0.11098822732E+03  0.11098822732E+03  0.00000000000E+00 0.  1.
         23    2    1    2    0    0  0.15857329395E+02  0.93699546433E+01  0.56188312697E+02  0.10836550548E+03  0.90811372356E+02 0.  0.
         23    2    1    2    0    0 -0.14562331813E+03 -0.59601551762E+02  0.29818478368E+03  0.34927340468E+03  0.91209924027E+02 0.  0.
        -11    1    3    3    0    0 -0.13166539563E+02  0.44814200068E+02  0.25380708935E+02  0.53158730965E+02  0.00000000000E+00 0.  1.
         11    1    3    3    0    0  0.29023868959E+02 -0.35444245425E+02  0.30807603762E+02  0.55206774517E+02  0.00000000000E+00 0. -1.
        -11    1    4    4    0    0 -0.12109646367E+03 -0.30995335515E+02  0.14462602216E+03  0.19115896689E+03  0.00000000000E+00 0.  1.
         11    1    4    4    0    0 -0.24526854467E+02 -0.28606216246E+02  0.15355876152E+03  0.15811443779E+03  0.00000000000E+00 0. -1.
         21    1    1    2  502  501  0.12976598874E+03  0.50231597118E+02  0.22197710709E+02  0.14090835157E+03  0.00000000000E+00 0. -1.
<scales pt_clust_5="13000.00000" pt_clust_6="13000.00000" pt_clust_7="13000.00000" pt_clust_8="13000.00000" pt_clust_9="151.86699"></scales>
<clustering>
<clus scale="   90.811">  5  6 -1 -1</clus>
<clus scale="   91.210">  7  8 -1 -1</clus>
<clus scale="   92.660">  2  5  1 -1</clus>
<clus scale="  151.867">  2  9  1 -1</clus>
<clus scale="  177.152">  1  5  2 -1</clus>
</clustering>
</event>
<event>
 9    1  0.6202448E-006  0.9073313E+02  0.7546771E-02  0.1301278E+00
          2   -1    0    0  502    0  0.00000000000E+00  0.00000000000E+00  0.22054781729E+03  0.22054781729E+03  0.00000000000E+00 0. -1.
         -2   -1    0    0    0  501 -0.00000000000E+00 -0.00000000000E+00 -0.37493957336E+03  0.37493957336E+03  0.00000000000E+00 0.  1.
         23    2    1    2    0    0  0.34345541629E+01  0.41294391707E+01 -0.32273974467E+03  0.33515138355E+03  0.90203429390E+02 0.  0.
         23    2    1    2    0    0 -0.59353414108E+02  0.26976805178E+02  0.16107595965E+03  0.19593569856E+03  0.90524899387E+02 0.  0.
        -13    1    4    4    0    0 -0.45233103302E+02 -0.27368696619E+02  0.99001057065E+02  0.11223318800E+03  0.00000000000E+00 0. -1.
         13    1    4    4    0    0 -0.14120310806E+02  0.54345501797E+02  0.62074902584E+02  0.83702510557E+02  0.00000000000E+00 0.  1.
        -13    1    3    3    0    0 -0.38229565117E+02 -0.43833684453E+01 -0.80704476450E+02  0.89408758447E+02  0.00000000000E+00 0. -1.
         13    1    3    3    0    0  0.41664119280E+02  0.85128076160E+01 -0.24203526822E+03  0.24574262510E+03  0.00000000000E+00 0.  1.
         21    1    1    2  502  501  0.55918859945E+02 -0.31106244349E+02  0.72720289577E+01  0.64400308541E+02  0.00000000000E+00 0.  1.
<scales pt_clust_5="13000.00000" pt_clust_6="13000.00000" pt_clust_7="13000.00000" pt_clust_8="13000.00000" pt_clust_9="63.98842"></scales>
<clustering>
<clus scale="   63.988">  1  9  2 -1</clus>
<clus scale="   90.203">  7  8 -1 -1</clus>
<clus scale="   90.412">  2  7  1 -1</clus>
<clus scale="   90.525">  5  6 -1 -1</clus>
<clus scale="   63.988">  1  5  2 -1</clus>
</clustering>
</event>
<event>
 9    1  0.6202448E-006  0.1160028E+03  0.7546771E-02  0.1253844E+00
          1   -1    0    0  502    0  0.00000000000E+00  0.00000000000E+00  0.56644838322E+03  0.56644838322E+03  0.00000000000E+00 0. -1.
         -1   -1    0    0    0  501 -0.00000000000E+00 -0.00000000000E+00 -0.52245358592E+02  0.52245358592E+02  0.00000000000E+00 0.  1.
         23    2    1    2    0    0 -0.52329248706E+02 -0.98485705700E+02  0.13439596150E+03  0.19262940992E+03  0.81277491356E+02 0.  0.
         23    2    1    2    0    0  0.26070943366E+02  0.51453197239E+02  0.34517456412E+03  0.36202555115E+03  0.92681683066E+02 0.  0.
        -11    1    4    4    0    0  0.57957239410E+02  0.32739451100E+02  0.27218255500E+03  0.28020395519E+03  0.00000000000E+00 0. -1.
         11    1    4    4    0    0 -0.31886296044E+02  0.18713746139E+02  0.72992009127E+02  0.81821595965E+02  0.00000000000E+00 0.  1.
        -13    1    3    3    0    0 -0.12374529396E+02 -0.67807128451E+02  0.12297864493E+03  0.14097759664E+03  0.00000000000E+00 0. -1.
         13    1    3    3    0    0 -0.39954719310E+02 -0.30678577249E+02  0.11417316571E+02  0.51651813277E+02  0.00000000000E+00 0.  1.
         21    1    1    2  502  501  0.26258305340E+02  0.47032508461E+02  0.34632499010E+02  0.64038780744E+02  0.00000000000E+00 0. -1.
<scales pt_clust_5="13000.00000" pt_clust_6="13000.00000" pt_clust_7="13000.00000" pt_clust_8="13000.00000" pt_clust_9="53.86609"></scales>
<clustering>
<clus scale="   53.866">  2  9  1 -1</clus>
<clus scale="   81.277">  7  8 -1 -1</clus>
<clus scale="   92.682">  5  6 -1 -1</clus>
<clus scale="  107.111">  2  7  1 -1</clus>
<clus scale="  116.003">  1  5  2 -1</clus>
</clustering>
</event>
<event>
 9    1  0.6202448E-006  0.1012467E+03  0.7546771E-02  0.1279137E+00
          1   -1    0    0  502    0  0.00000000000E+00  0.00000000000E+00  0.13329363521E+03  0.13329363521E+03  0.00000000000E+00 0. -1.
         -1   -1    0    0    0  501 -0.00000000000E+00 -0.00000000000E+00 -0.12840859817E+03  0.12840859817E+03  0.00000000000E+00 0.  1.
         23    2    1    2    0    0  0.77101891678E+01  0.44656284613E+02 -0.27234878237E+01  0.10437107453E+03  0.93980173658E+02 0.  0.
         23    2    1    2    0    0 -0.41313077892E+02 -0.12525521933E+02  0.30850514898E+02  0.10535298899E+03  0.91015597095E+02 0.  0.
        -13    1    4    4    0    0 -0.17646110975E+02  0.38552551910E+02  0.28915093336E+01  0.42497591903E+02  0.00000000000E+00 0.  1.
         13    1    4    4    0    0 -0.23666966917E+02 -0.51078073843E+02  0.27959005564E+02  0.62855397085E+02  0.00000000000E+00 0. -1.
        -13    1    3    3    0    0 -0.19295940972E+02  0.38173896046E+02 -0.39542949800E+02  0.58251391024E+02  0.00000000000E+00 0.  1.
         13    1    3    3    0    0  0.27006130140E+02  0.64823885670E+01  0.36819461977E+02  0.46119683508E+02  0.00000000000E+00 0. -1.
         21    1    1    2  502  501  0.33602888725E+02 -0.32130762680E+02 -0.23241990029E+02  0.51978169856E+02  0.00000000000E+00 0. -1.
<scales pt_clust_5="13000.00000" pt_clust_6="13000.00000" pt_clust_7="13000.00000" pt_clust_8="13000.00000" pt_clust_9="46.49237"></scales>
<clustering>
<clus scale="   46.492">  2  9  1 -1</clus>
<clus scale="   91.016">  5  6 -1 -1</clus>
<clus scale="   93.980">  7  8 -1 -1</clus>
<clus scale="   98.501">  1  5  2 -1</clus>
<clus scale="   98.501">  1  5  2 -1</clus>
</clustering>
</event>
<event>
 9    1  0.6202448E-006  0.1031589E+03  0.7546771E-02  0.1275634E+00
         -2   -1    0    0    0  501 -0.00000000000E+00  0.00000000000E+00  0.25233201517E+03  0.25233201517E+03  0.00000000000E+00 0.  1.
          2   -1    0    0  502    0  0.00000000000E+00 -0.00000000000E+00 -0.85032427806E+02  0.85032427806E+02  0.00000000000E+00 0. -1.
         23    2    1    2    0    0 -0.24005935461E+02 -0.33444681215E+02  0.18310044771E+03  0.21042061609E+03  0.95164226917E+02 0.  0.
         23    2    1    2    0    0  0.36162510864E+01  0.39144756949E+02  0.18377046950E+01  0.99387537784E+02  0.91263992021E+02 0.  0.
        -11    1    3    3    0    0  0.17891306869E+02 -0.17750801319E+02  0.36365837414E+01  0.25463985357E+02  0.00000000000E+00 0. -1.
         11    1    3    3    0    0 -0.41897242330E+02 -0.15693879897E+02  0.17946386397E+03  0.18495663073E+03  0.00000000000E+00 0.  1.
        -13    1    4    4    0    0 -0.22005962970E+01  0.67539348435E+02 -0.95495220394E+01  0.68246608577E+02  0.00000000000E+00 0.  1.
         13    1    4    4    0    0  0.58168473834E+01 -0.28394591486E+02  0.11387226734E+02  0.31140929206E+02  0.00000000000E+00 0. -1.
         21    1    1    2  502  501  0.20389684374E+02 -0.57000757340E+01 -0.17638565043E+02  0.27556289101E+02  0.00000000000E+00 0. -1.
<scales pt_clust_5="13000.00000" pt_clust_6="13000.00000" pt_clust_7="13000.00000" pt_clust_8="13000.00000" pt_clust_9="21.17145"></scales>
<clustering>
<clus scale="   21.171">  2  9  1 -1</clus>
<clus scale="   91.264">  7  8 -1 -1</clus>
<clus scale="   95.164">  5  6 -1 -1</clus>
<clus scale="   99.572">  2  7  1 -1</clus>
<clus scale="   21.171">  2  5  1 -1</clus>
</clustering>
</event>
<event>
 9    1  0.6202448E-006  0.9269801E+02  0.7546771E-02  0.1297159E+00
         -1   -1    0    0    0  501 -0.00000000000E+00  0.00000000000E+00  0.21643584344E+03  0.21643584344E+03  0.00000000000E+00 0.  1.
          1   -1    0    0  502    0  0.00000000000E+00 -0.00000000000E+00 -0.12007140760E+03  0.12007140760E+03  0.00000000000E+00 0. -1.
         23    2    1    2    0    0  0.52511540849E+01  0.53541751551E+02  0.18488662166E+02  0.10561037293E+03  0.88979921688E+02 0.  0.
         23    2    1    2    0    0  0.24513539279E+02  0.32962767296E+02 -0.13592954578E+02  0.10153112916E+03  0.91849573428E+02 0.  0.
        -11    1    3    3    0    0 -0.12810160628E+02  0.63459191830E+02  0.39777485602E+02  0.75983008652E+02  0.00000000000E+00 0.  1.
         11    1    3    3    0    0  0.18061314713E+02 -0.99174402788E+01 -0.21288823436E+02  0.29627364279E+02  0.00000000000E+00 0. -1.
        -13    1    4    4    0    0  0.49587175020E+02  0.13961120427E+02  0.20224371468E+02  0.55342804513E+02  0.00000000000E+00 0. -1.
         13    1    4    4    0    0 -0.25073635741E+02  0.19001646869E+02 -0.33817326045E+02  0.46188324649E+02  0.00000000000E+00 0.  1.
         21    1    1    2  502  501 -0.29764693364E+02 -0.86504518848E+02  0.91468728252E+02  0.12936574895E+03  0.00000000000E+00 0.  1.
<scales pt_clust_5="13000.00000" pt_clust_6="13000.00000" pt_clust_7="13000.00000" pt_clust_8="13000.00000" pt_clust_9="91.48207"></scales>
<clustering>
<clus scale="   88.980">  5  6 -1 -1</clus>
<clus scale="   91.482">  1  9  2 -1</clus>
<clus scale="   91.482">  1  5  2 -1</clus>
<clus scale="   91.850">  7  8 -1 -1</clus>
<clus scale="   92.698">  2  5  1 -1</clus>
</clustering>
</event>
<event>
 9    1  0.6202448E-006  0.1799898E+03  0.7546771E-02  0.1183198E+00
          1   -1    0    0  502    0  0.00000000000E+00  0.00000000000E+00  0.33410608077E+03  0.33410608077E+03  0.00000000000E+00 0. -1.
         -1   -1    0    0    0  501 -0.00000000000E+00 -0.00000000000E+00 -0.38806273361E+03  0.38806273361E+03  0.00000000000E+00 0.  1.
         23    2    1    2    0    0 -0.76965289990E+02 -0.14125573393E+03 -0.30550948207E+03  0.35709013178E+03  0.91106971990E+02 0.  0.
         23    2    1    2    0    0  0.85631773575E+02  0.79895978210E+01  0.91054500362E+02  0.15628528103E+03  0.93474770450E+02 0.  0.
        -11    1    4    4    0    0  0.12361279963E+02  0.34650197769E+02  0.50530630007E+00  0.36792564224E+02  0.00000000000E+00 0.  1.
         11    1    4    4    0    0  0.73270493612E+02 -0.26660599948E+02  0.90549194062E+02  0.11949271680E+03  0.00000000000E+00 0. -1.
        -13    1    3    3    0    0 -0.91176809557E+01 -0.24764889066E+02 -0.38381246119E+01  0.26667640260E+02  0.00000000000E+00 0. -1.
         13    1    3    3    0    0 -0.67847609034E+02 -0.11649084487E+03 -0.30167135746E+03  0.33042249152E+03  0.00000000000E+00 0.  1.
         21    1    1    2  502  501 -0.86664835854E+01  0.13326613611E+03  0.16049832887E+03  0.20879340158E+03  0.00000000000E+00 0. -1.
<scales pt_clust_5="13000.00000" pt_clust_6="13000.00000" pt_clust_7="13000.00000" pt_clust_8="13000.00000" pt_clust_9="155.22837"></scales>
<clustering>
<clus scale="   91.107">  7  8 -1 -1</clus>
<clus scale="   93.475">  5  6 -1 -1</clus>
<clus scale="  127.020">  1  5  2 -1</clus>
<clus scale="  155.228">  1  9  2 -1</clus>
<clus scale="  127.020">  1  5  2 -1</clus>
</clustering>
</event>
<event>
 9    1  0.6202448E-006  0.1711051E+03  0.7546771E-02  0.1207453E+00
          2   -1    0    0  502    0  0.00000000000E+00  0.00000000000E+00  0.23769248151E+03  0.23769248151E+03  0.00000000000E+00 0. -1.
         -2   -1    0    0    0  501 -0.00000000000E+00 -0.00000000000E+00 -0.33562576479E+03  0.33562576479E+03  0.00000000000E+00 0.  1.
         23    2    1    2    0    0  0.30136449458E+01 -0.39235510838E+01 -0.19618331989E+03  0.21458095879E+03  0.86790647903E+02 0.  0.
         23    2    1    2    0    0  0.11462849067E+03  0.89839884622E+02 -0.18440733136E+02  0.17208781875E+03  0.89795662377E+02 0.  0.
        -13    1    4    4    0    0 -0.83990246450E+01  0.19842020311E+02 -0.21595466618E+02  0.30505959474E+02  0.00000000000E+00 0. -1.
         13    1    4    4    0    0  0.12302751532E+03  0.69997864311E+02  0.31547334823E+01  0.14158185928E+03  0.00000000000E+00 0.  1.
        -13    1    3    3    0    0 -0.29071691445E+02  0.37605587337E+01 -0.20364558251E+02  0.35693420657E+02  0.00000000000E+00 0. -1.
         13    1    3    3    0    0  0.32085336391E+02 -0.76841098174E+01 -0.17581876164E+03  0.17888753814E+03  0.00000000000E+00 0.  1.
         21    1    1    2  502  501 -0.11764213562E+03 -0.85916333538E+02  0.11669076974E+03  0.18664946875E+03  0.00000000000E+00 0. -1.
<scales pt_clust_5="13000.00000" pt_clust_6="13000.00000" pt_clust_7="13000.00000" pt_clust_8="13000.00000" pt_clust_9="145.64920"></scales>
<clustering>
<clus scale="   86.791">  7  8 -1 -1</clus>
<clus scale="   86.932">  2  7  1 -1</clus>
<clus scale="   89.796">  5  6 -1 -1</clus>
<clus scale="  145.649">  1  9  2 -1</clus>
<clus scale="  145.649">  1  5  2 -1</clus>
</clustering>
</event>
<event>
 9    1  0.6202448E-006  0.1106041E+03  0.7546771E-02  0.1260522E+00
          1   -1    0    0  502    0  0.00000000000E+00  0.00000000000E+00  0.34285488443E+03  0.34285488443E+03  0.00000000000E+00 0. -1.
         -1   -1    0    0    0  501 -0.00000000000E+00 -0.00000000000E+00 -0.10541789248E+03  0.10541789248E+03  0.00000000000E+00 0.  1.
         23    2    1    2    0    0 -0.85644632225E+01  0.11586561545E+02 -0.23621531568E+02  0.95501827947E+02  0.91405820104E+02 0.  0.
         23    2    1    2    0    0  0.68142208604E+02  0.53762800961E+01  0.26630964459E+03  0.29060327237E+03  0.94112539693E+02 0.  0.
        -11    1    4    4    0    0  0.83248248948E+02  0.24796003348E+02  0.23652804267E+03  0.25197346627E+03  0.00000000000E+00 0. -1.
         11    1    4    4    0    0 -0.15106040344E+02 -0.19419723252E+02  0.29781601918E+02  0.38629806094E+02  0.00000000000E+00 0.  1.
        -11    1    3    3    0    0 -0.30188559139E+02  0.44098339640E+02 -0.15141058466E+02  0.55545155624E+02  0.00000000000E+00 0.  1.
         11    1    3    3    0    0  0.21624095916E+02 -0.32511778095E+02 -0.84804731023E+01  0.39956672323E+02  0.00000000000E+00 0. -1.
         21    1    1    2  502  501 -0.59577745381E+02 -0.16962841641E+02 -0.52511210675E+01  0.62167676599E+02  0.00000000000E+00 0.  1.
<scales pt_clust_5="13000.00000" pt_clust_6="13000.00000" pt_clust_7="13000.00000" pt_clust_8="13000.00000" pt_clust_9="61.94551"></scales>
<clustering>
<clus scale="   61.946">  2  9  1 -1</clus>
<clus scale="   91.406">  7  8 -1 -1</clus>
<clus scale="   94.113">  5  6 -1 -1</clus>
<clus scale="  108.310">  2  7  1 -1</clus>
<clus scale="  110.604">  1  5  2 -1</clus>
</clustering>
</event>
<event>
 9    1  0.6202448E-006  0.1409474E+03  0.7546771E-02  0.1226246E+00
         -1   -1    0    0    0  501 -0.00000000000E+00  0.00000000000E+00  0.71218307492E+02  0.71218307492E+02  0.00000000000E+00 0.  1.
          1   -1    0    0  502    0  0.00000000000E+00 -0.00000000000E+00 -0.66557678489E+03  0.66557678489E+03  0.00000000000E+00 0. -1.
         23    2    1    2    0    0 -0.68303518505E+02  0.70765045073E+02 -0.10376283958E+03  0.16837624967E+03  0.88942522620E+02 0.  0.
         23    2    1    2    0    0 -0.51664935067E+02 -0.33206920112E+02 -0.40004260943E+03  0.41349017024E+03  0.84664434513E+02 0.  0.
        -11    1    4    4    0    0 -0.48703345260E+02 -0.59017452397E+02 -0.25867419700E+03  0.26975436182E+03  0.00000000000E+00 0.  1.
         11    1    4    4    0    0 -0.29615898067E+01  0.25810532285E+02 -0.14136841243E+03  0.14373580842E+03  0.00000000000E+00 0. -1.
        -11    1    3    3    0    0 -0.65679687661E+02  0.54646213512E+01 -0.40138581181E+02  0.77167280352E+02  0.00000000000E+00 0.  1.
         11    1    3    3    0    0 -0.26238308435E+01  0.65300423722E+02 -0.63624258403E+02  0.91208969317E+02  0.00000000000E+00 0. -1.
         21    1    1    2  502  501  0.11996845357E+03 -0.37558124961E+02 -0.90553028387E+02  0.15492867247E+03  0.00000000000E+00 0.  1.
<scales pt_clust_5="13000.00000" pt_clust_6="13000.00000" pt_clust_7="13000.00000" pt_clust_8="13000.00000" pt_clust_9="109.34079"></scales>
<clustering>
<clus scale="   84.664">  5  6 -1 -1</clus>
<clus scale="   88.943">  7  8 -1 -1</clus>
<clus scale="  104.595">  2  5  1 -1</clus>
<clus scale="  109.341">  2  9  1 -1</clus>
<clus scale="  104.595">  2  5  1 -1</clus>
</clustering>
</event>
<event>
 9    1  0.6202448E-006  0.1056330E+03  0.7546771E-02  0.1269388E+00
          1   -1    0    0  502    0  0.00000000000E+00  0.00000000000E+00  0.36648589024E+03  0.36648589024E+03  0.00000000000E+00 0. -1.
         -1   -1    0    0    0  501 -0.00000000000E+00 -0.00000000000E+00 -0.54984292572E+02  0.54984292572E+02  0.00000000000E+00 0.  1.
         23    2    1    2    0    0  0.24446170492E+02  0.47619994493E+02  0.47593588009E+02  0.11609575783E+03  0.91366275171E+02 0.  0.
         23    2    1    2    0    0  0.89411710682E+01 -0.52359692911E+02  0.13475508779E+03  0.17189163004E+03  0.92554399204E+02 0.  0.
        -13    1    3    3    0    0 -0.15683790787E+02  0.42505278042E+02  0.58693643350E+02  0.74145962295E+02  0.00000000000E+00 0.  1.
         13    1    3    3    0    0  0.40129961279E+02  0.51147164506E+01 -0.11100055341E+02  0.41949795532E+02  0.00000000000E+00 0. -1.
        -13    1    4    4    0    0  0.37447993160E+02 -0.62413391638E+02  0.11389058472E+03  0.13516230590E+03  0.00000000000E+00 0. -1.
         13    1    4    4    0    0 -0.28506822092E+02  0.10053698727E+02  0.20864503065E+02  0.36729324143E+02  0.00000000000E+00 0.  1.
         21    1    1    2  502  501 -0.33387341560E+02  0.47396984182E+01  0.12915292187E+03  0.13348279494E+03  0.00000000000E+00 0.  1.
<scales pt_clust_5="13000.00000" pt_clust_6="13000.00000" pt_clust_7="13000.00000" pt_clust_8="13000.00000" pt_clust_9="33.72209"></scales>
<clustering>
<clus scale="   33.722">  1  9  2 -1</clus>
<clus scale="   91.366">  5  6 -1 -1</clus>
<clus scale="   92.554">  7  8 -1 -1</clus>
<clus scale="  104.594">  2  5  1 -1</clus>
<clus scale="   33.722">  1  5  2 -1</clus>
</clustering>
</event>
<event>
 9    1  0.6202448E-006  0.1848205E+03  0.7546771E-02  0.1189357E+00
         -2   -1    0    0    0  501 -0.00000000000E+00  0.00000000000E+00  0.11110463230E+03  0.11110463230E+03  0.00000000000E+00 0.  1.
          2   -1    0    0  502    0  0.00000000000E+00 -0.00000000000E+00 -0.67215934636E+03  0.67215934636E+03  0.00000000000E+00 0. -1.
         23    2    1    2    0    0  0.13634371282E+03 -0.68536099578E+02 -0.41578104655E+02  0.18063615810E+03  0.87257537518E+02 0.  0.
         23    2    1    2    0    0  0.32125376878E+02 -0.41342738515E+02 -0.14350458382E+03  0.17623579758E+03  0.87887592418E+02 0.  0.
        -11    1    4    4    0    0  0.14172736190E+02  0.27294729325E+02 -0.52487944917E+02  0.60834637022E+02  0.00000000000E+00 0.  1.
         11    1    4    4    0    0  0.17952640688E+02 -0.68637467840E+02 -0.91016638908E+02  0.11540116055E+03  0.00000000000E+00 0. -1.
        -11    1    3    3    0    0  0.40328405049E+00 -0.23615364352E+02  0.13537806167E+02  0.27223524153E+02  0.00000000000E+00 0. -1.
         11    1    3    3    0    0  0.13594042877E+03 -0.44920735226E+02 -0.55115910821E+02  0.15341263394E+03  0.00000000000E+00 0.  1.
         21    1    1    2  502  501 -0.16846908970E+03  0.10987883809E+03 -0.37597202558E+03  0.42639202299E+03  0.00000000000E+00 0. -1.
<scales pt_clust_5="13000.00000" pt_clust_6="13000.00000" pt_clust_7="13000.00000" pt_clust_8="13000.00000" pt_clust_9="162.92562"></scales>
<clustering>
<clus scale="   87.258">  7  8 -1 -1</clus>
<clus scale="   87.888">  5  6 -1 -1</clus>
<clus scale="  102.301">  2  5  1 -1</clus>
<clus scale="  162.926">  2  9  1 -1</clus>
<clus scale="  102.301">  2  5  1 -1</clus>
</clustering>
</event>
<event>
 9    1  0.6202448E-006  0.1298906E+03  0.7546771E-02  0.1227630E+00
         -3   -1    0    0    0  501 -0.00000000000E+00  0.00000000000E+00  0.45912022658E+03  0.45912022658E+03  0.00000000000E+00 0.  1.
          3   -1    0    0  502    0  0.00000000000E+00 -0.00000000000E+00 -0.73127838961E+02  0.73127838961E+02  0.00000000000E+00 0. -1.
         23    2    1    2    0    0 -0.69885196302E+02  0.76438006217E+02  0.33658078513E+03  0.36395054162E+03  0.91905725459E+02 0.  0.
         23    2    1    2    0    0  0.38441340796E+02 -0.35864727073E+02  0.16180838540E+02  0.10714860159E+03  0.91951008455E+02 0.  0.
        -11    1    4    4    0    0  0.16100413290E+02  0.29775416113E+02  0.16840794857E+02  0.37807553270E+02  0.00000000000E+00 0.  1.
         11    1    4    4    0    0  0.22340927506E+02 -0.65640143186E+02 -0.65995631753E+00  0.69341048317E+02  0.00000000000E+00 0. -1.
        -13    1    3    3    0    0 -0.48704078258E+02  0.92671548485E+02  0.30573727555E+03  0.32316464039E+03  0.00000000000E+00 0.  1.
         13    1    3    3    0    0 -0.21181118044E+02 -0.16233542268E+02  0.30843509578E+02  0.40785901231E+02  0.00000000000E+00 0. -1.
         21    1    1    2  502  501  0.31443855506E+02 -0.40573279144E+02  0.33230763948E+02  0.61148922330E+02  0.00000000000E+00 0.  1.
<scales pt_clust_5="13000.00000" pt_clust_6="13000.00000" pt_clust_7="13000.00000" pt_clust_8="13000.00000" pt_clust_9="51.33135"></scales>
<clustering>
<clus scale="   51.331">  2  9  1 -1</clus>
<clus scale="   91.906">  7  8 -1 -1</clus>
<clus scale="   91.951">  5  6 -1 -1</clus>
<clus scale="  129.859">  1  7  2 -1</clus>
<clus scale="   51.331">  2  5  1 -1</clus>
</clustering>
</event>
<event>
 9    1  0.6202448E-006  0.1310988E+03  0.7546771E-02  0.1226059E+00
         -1   -1    0    0    0  501 -0.00000000000E+00  0.00000000000E+00  0.15617987991E+03  0.15617987991E+03  0.00000000000E+00 0.  1.
          1   -1    0    0  502    0  0.00000000000E+00 -0.00000000000E+00 -0.73165524094E+03  0.73165524094E+03  0.00000000000E+00 0. -1.
         23    2    1    2    0    0 -0.47511779421E+02  0.41324603903E+01 -0.21416308142E+02  0.10603981828E+03  0.92256915155E+02 0.  0.
         23    2    1    2    0    0  0.89480600718E+02  0.46913329314E+02 -0.65051824252E+03  0.66487041269E+03  0.93118437728E+02 0.  0.
        -13    1    4    4    0    0  0.45247712159E+02  0.73040266734E+02 -0.39428324163E+03  0.40353625693E+03  0.00000000000E+00 0. -1.
         13    1    4    4    0    0  0.44232888559E+02 -0.26126937420E+02 -0.25623500089E+03  0.26133415576E+03  0.00000000000E+00 0.  1.
        -13    1    3    3    0    0  0.77002287407E+01  0.35722138255E+02 -0.21561148511E+02  0.42429327231E+02  0.00000000000E+00 0. -1.
         13    1    3    3    0    0 -0.55212008162E+02 -0.31589677865E+02  0.14484036809E+00  0.63610491050E+02  0.00000000000E+00 0.  1.
         21    1    1    2  502  501 -0.41968821296E+02 -0.51045789705E+02  0.96459189641E+02  0.11692488988E+03  0.00000000000E+00 0.  1.
<scales pt_clust_5="13000.00000" pt_clust_6="13000.00000" pt_clust_7="13000.00000" pt_clust_8="13000.00000" pt_clust_9="66.08369"></scales>
<clustering>
<clus scale="   66.084">  1  9  2 -1</clus>
<clus scale="   92.257">  7  8 -1 -1</clus>
<clus scale="   93.118">  5  6 -1 -1</clus>
<clus scale="  130.488">  1  7  2 -1</clus>
<clus scale="  131.099">  2  5  1 -1</clus>
</clustering>
</event>
<event>
 9    1  0.6202448E-006  0.9462216E+02  0.7546771E-02  0.1292758E+00
         -2   -1    0    0    0  501 -0.00000000000E+00  0.00000000000E+00  0.24699803969E+03  0.24699803969E+03  0.00000000000E+00 0.  1.
          2   -1    0    0  502    0  0.00000000000E+00 -0.00000000000E+00 -0.63832432816E+02  0.63832432816E+02  0.00000000000E+00 0. -1.
         23    2    1    2    0    0 -0.20650036782E+01 -0.21237840521E+02  0.94652040890E+02  0.13410183440E+03  0.92568801628E+02 0.  0.
         23    2    1    2    0    0 -0.39657035473E+02 -0.33504911200E+01  0.79634176704E+02  0.12749289745E+03  0.91262974686E+02 0.  0.
        -11    1    4    4    0    0 -0.59638044395E+02  0.10194813713E+02  0.20932919035E+02  0.64022009225E+02  0.00000000000E+00 0.  1.
         11    1    4    4    0    0  0.19981008922E+02 -0.13545304833E+02  0.58701257669E+02  0.63470888229E+02  0.00000000000E+00 0. -1.
        -13    1    3    3    0    0  0.20093048223E+02  0.10028654908E+02 -0.85385124745E+01  0.24025209706E+02  0.00000000000E+00 0. -1.
         13    1    3    3    0    0 -0.22158051901E+02 -0.31266495429E+02  0.10319055336E+03  0.11007662469E+03  0.00000000000E+00 0.  1.
         21    1    1    2  502  501  0.41722039151E+02  0.24588331641E+02  0.88793892831E+01  0.49235740655E+02  0.00000000000E+00 0. -1.
<scales pt_clust_5="13000.00000" pt_clust_6="13000.00000" pt_clust_7="13000.00000" pt_clust_8="13000.00000" pt_clust_9="48.42845"></scales>
<clustering>
<clus scale="   48.428">  2  9  1 -1</clus>
<clus scale="   91.263">  5  6 -1 -1</clus>
<clus scale="   92.569">  7  8 -1 -1</clus>
<clus scale="   93.345">  2  5  1 -1</clus>
<clus scale="   48.428">  2  5  1 -1</clus>
</clustering>
</event>
<event>
 9    1  0.6202448E-006  0.1801025E+03  0.7546771E-02  0.1189859E+00
          1   -1    0    0  502    0  0.00000000000E+00  0.00000000000E+00  0.60247139098E+03  0.60247139098E+03  0.00000000000E+00 0. -1.
         -1   -1    0    0    0  501 -0.00000000000E+00 -0.00000000000E+00 -0.85426238121E+02  0.85426238121E+02  0.00000000000E+00 0.  1.
         23    2    1    2    0    0  0.62388139896E+02  0.11574319392E+03  0.22515311638E+03  0.27641548547E+03  0.91775965565E+02 0.  0.
         23    2    1    2    0    0 -0.31945256738E+02  0.56680365421E+02  0.15269708835E+03  0.18780405678E+03  0.87868081241E+02 0.  0.
        -11    1    3    3    0    0 -0.21368372210E+01  0.34636473878E+02  0.13390497223E+03  0.13832856894E+03  0.00000000000E+00 0. -1.
         11    1    3    3    0    0  0.64524977117E+02  0.81106720040E+02  0.91248144148E+02  0.13808691653E+03  0.00000000000E+00 0.  1.
        -13    1    4    4    0    0 -0.48319717394E+02  0.90101186799E+01  0.36740976349E+02  0.61366739124E+02  0.00000000000E+00 0. -1.
         13    1    4    4    0    0  0.16374460656E+02  0.47670246741E+02  0.11595611200E+03  0.12643731766E+03  0.00000000000E+00 0.  1.
         21    1    1    2  502  501 -0.30442883158E+02 -0.17242355934E+03  0.13919494813E+03  0.22367808685E+03  0.00000000000E+00 0. -1.
<scales pt_clust_5="13000.00000" pt_clust_6="13000.00000" pt_clust_7="13000.00000" pt_clust_8="13000.00000" pt_clust_9="154.96474"></scales>
<clustering>
<clus scale="   87.868">  7  8 -1 -1</clus>
<clus scale="   91.776">  5  6 -1 -1</clus>
<clus scale="  109.334">  1  7  2 -1</clus>
<clus scale="  154.965">  2  9  1 -1</clus>
<clus scale="  109.334">  1  5  2 -1</clus>
</clustering>
</event>
<event>
 9    1  0.6202448E-006  0.1008547E+03  0.7546771E-02  0.1283358E+00
          1   -1    0    0  502    0  0.00000000000E+00  0.00000000000E+00  0.19683514789E+03  0.19683514789E+03  0.00000000000E+00 0. -1.
         -1   -1    0    0    0  501 -0.00000000000E+00 -0.00000000000E+00 -0.82131077723E+02  0.82131077723E+02  0.00000000000E+00 0.  1.
         23    2    1    2    0    0 -0.12783002717E+02  0.37118027140E+02  0.22833199428E+02  0.10928132165E+03  0.99397681900E+02 0.  0.
         23    2    1    2    0    0 -0.19072654731E+01  0.42944013712E+01  0.33228534071E+02  0.96406552018E+02  0.90377033867E+02 0.  0.
        -11    1    3    3    0    0  0.13290393400E+02  0.65091447084E+02  0.37408950931E+01  0.66539652361E+02  0.00000000000E+00 0. -1.
         11    1    3    3    0    0 -0.26073396116E+02 -0.27973419944E+02  0.19092304335E+02  0.42741669284E+02  0.00000000000E+00 0.  1.
        -13    1    4    4    0    0 -0.19147047909E+02 -0.32679791055E+02 -0.76647384929E+01  0.38643581656E+02  0.00000000000E+00 0.  1.
         13    1    4    4    0    0  0.17239782436E+02  0.36974192426E+02  0.40893272564E+02  0.57762970362E+02  0.00000000000E+00 0. -1.
         21    1    1    2  502  501  0.14690268190E+02 -0.41412428512E+02  0.58642336669E+02  0.73278351951E+02  0.00000000000E+00 0. -1.
<scales pt_clust_5="13000.00000" pt_clust_6="13000.00000" pt_clust_7="13000.00000" pt_clust_8="13000.00000" pt_clust_9="43.94079"></scales>
<clustering>
<clus scale="   43.941">  1  9  2 -1</clus>
<clus scale="   90.377">  7  8 -1 -1</clus>
<clus scale="   91.977">  1  7  2 -1</clus>
<clus scale="   99.398">  5  6 -1 -1</clus>
<clus scale="   43.941">  1  5  2 -1</clus>
</clustering>
</event>
<event>
 9    1  0.6202448E-006  0.1324514E+03  0.7546771E-02  0.1226198E+00
         -1   -1    0    0    0  501 -0.00000000000E+00  0.00000000000E+00  0.70319219617E+02  0.70319219617E+02  0.00000000000E+00 0.  1.
          1   -1    0    0  502    0  0.00000000000E+00 -0.00000000000E+00 -0.34518242544E+03  0.34518242544E+03  0.00000000000E+00 0. -1.
         23    2    1    2    0    0 -0.60218602446E+02  0.57515452114E+02 -0.60430038285E+02  0.14297825720E+03  0.99280840005E+02 0.  0.
         23    2    1    2    0    0  0.84345898673E+02 -0.35503552833E+02 -0.19726754972E+03  0.23562747252E+03  0.90725336859E+02 0.  0.
        -11    1    4    4    0    0  0.10911262471E+02 -0.47480179915E+02 -0.45773152207E+02  0.66847622220E+02  0.00000000000E+00 0. -1.
         11    1    4    4    0    0  0.73434636202E+02  0.11976627082E+02 -0.15149439751E+03  0.16877985030E+03  0.00000000000E+00 0.  1.
        -13    1    3    3    0    0 -0.56916862184E+02  0.16764738796E+02  0.11313131128E+02  0.60403415497E+02  0.00000000000E+00 0.  1.
         13    1    3    3    0    0 -0.33017402619E+01  0.40750713318E+02 -0.71743169413E+02  0.82574841702E+02  0.00000000000E+00 0. -1.
         21    1    1    2  502  501 -0.24127296228E+02 -0.22011899281E+02 -0.17165617815E+02  0.36895915332E+02  0.00000000000E+00 0.  1.
<scales pt_clust_5="13000.00000" pt_clust_6="13000.00000" pt_clust_7="13000.00000" pt_clust_8="13000.00000" pt_clust_9="32.65961"></scales>
<clustering>
<clus scale="   32.660">  1  9  2 -1</clus>
<clus scale="   90.725">  5  6 -1 -1</clus>
<clus scale="   99.281">  7  8 -1 -1</clus>
<clus scale="  126.166">  2  5  1 -1</clus>
<clus scale="  126.166">  2  5  1 -1</clus>
</clustering>
</event>
<event>
 9    1  0.6202448E-006  0.1412889E+03  0.7546771E-02  0.1224086E+00
          1   -1    0    0  502    0  0.00000000000E+00  0.00000000000E+00  0.57451507449E+03  0.57451507449E+03  0.00000000000E+00 0. -1.
         -1   -1    0    0    0  501 -0.00000000000E+00 -0.00000000000E+00 -0.10513210065E+03  0.10513210065E+03  0.00000000000E+00 0.  1.
         23    2    1    2    0    0  0.10061645867E+03  0.31720848242E+01 -0.10247270601E+02  0.13647815118E+03  0.91583542834E+02 0.  0.
         23    2    1    2    0    0  0.36761207412E+02  0.46858201929E+02  0.19660601039E+03  0.22461232604E+03  0.90827838407E+02 0.  0.
        -11    1    4    4    0    0  0.61415118684E+01  0.69957304511E+02  0.12971433364E+03  0.14750441001E+03  0.00000000000E+00 0.  1.
         11    1    4    4    0    0  0.30619695544E+02 -0.23099102582E+02  0.66891676750E+02  0.77107916025E+02  0.00000000000E+00 0. -1.
        -11    1    3    3    0    0  0.54636099687E+02 -0.72523019571E+01  0.39599719728E+02  0.67866317678E+02  0.00000000000E+00 0. -1.
         11    1    3    3    0    0  0.45980358984E+02  0.10424386781E+02 -0.49846990329E+02  0.68611833505E+02  0.00000000000E+00 0.  1.
         21    1    1    2  502  501 -0.13737766608E+03 -0.50030286753E+02  0.28302423405E+03  0.31855669792E+03  0.00000000000E+00 0. -1.
<scales pt_clust_5="13000.00000" pt_clust_6="13000.00000" pt_clust_7="13000.00000" pt_clust_8="13000.00000" pt_clust_9="107.58726"></scales>
<clustering>
<clus scale="   90.828">  5  6 -1 -1</clus>
<clus scale="   91.584">  7  8 -1 -1</clus>
<clus scale="  108.613">  1  5  2 -1</clus>
<clus scale="  107.587">  1  9  2 -1</clus>
<clus scale="  108.613">  1  5  2 -1</clus>
</clustering>
</event>
<event>
 9    1  0.6202448E-006  0.1475559E+03  0.7546771E-02  0.1217088E+00
         -2   -1    0    0    0  501 -0.00000000000E+00  0.00000000000E+00  0.91452478557E+02  0.91452478557E+02  0.00000000000E+00 0.  1.
          2   -1    0    0  502    0  0.00000000000E+00 -0.00000000000E+00 -0.97787403984E+03  0.97787403984E+03  0.00000000000E+00 0. -1.
         23    2    1    2    0    0 -0.57191617497E+02 -0.24098696497E+02  0.10997666447E+02  0.11097731902E+03  0.91342150096E+02 0.  0.
         23    2    1    2    0    0 -0.62515954028E+02  0.59745614472E+02 -0.12713456424E+03  0.17800371932E+03  0.89690265417E+02 0.  0.
        -11    1    4    4    0    0  0.15956122873E+01  0.43252421257E+02 -0.11537255942E+02  0.44793149006E+02  0.00000000000E+00 0. -1.
         11    1    4    4    0    0 -0.64111566315E+02  0.16493193216E+02 -0.11559730830E+03  0.13321057032E+03  0.00000000000E+00 0.  1.
        -13    1    3    3    0    0 -0.61914969743E+02  0.47056232483E+01 -0.22956609692E+02  0.66201301324E+02  0.00000000000E+00 0. -1.
         13    1    3    3    0    0  0.47233522453E+01 -0.28804319745E+02  0.33954276139E+02  0.44776017694E+02  0.00000000000E+00 0.  1.
         21    1    1    2  502  501  0.11970757153E+03 -0.35646917976E+02 -0.77028466348E+03  0.78034548005E+03  0.00000000000E+00 0. -1.
<scales pt_clust_5="13000.00000" pt_clust_6="13000.00000" pt_clust_7="13000.00000" pt_clust_8="13000.00000" pt_clust_9="117.16820"></scales>
<clustering>
<clus scale="   89.690">  5  6 -1 -1</clus>
<clus scale="   91.342">  7  8 -1 -1</clus>
<clus scale="  110.431">  1  7  2 -1</clus>
<clus scale="  117.168">  2  9  1 -1</clus>
<clus scale="  117.168">  2  5  1 -1</clus>
</clustering>
</event>
<event>
 9    1  0.6202448E-006  0.1496853E+03  0.7546771E-02  0.1201851E+00
          1   -1    0    0  502    0  0.00000000000E+00  0.00000000000E+00  0.11530603345E+03  0.11530603345E+03  0.00000000000E+00 0. -1.
         -1   -1    0    0    0  501 -0.00000000000E+00 -0.00000000000E+00 -0.45612959904E+03  0.45612959904E+03  0.00000000000E+00 0.  1.
         23    2    1    2    0    0  0.79305893726E+02 -0.11421464999E+02 -0.23904591047E+03  0.26772900869E+03  0.90088845816E+02 0.  0.
         23    2    1    2    0    0 -0.12460727769E+03 -0.36152887016E+01  0.33396212688E+02  0.16035288687E+03  0.95171935683E+02 0.  0.
        -11    1    3    3    0    0  0.15482256826E+02 -0.30249547540E+02 -0.21448328013E+02  0.40184153311E+02  0.00000000000E+00 0. -1.
         11    1    3    3    0    0  0.63823636900E+02  0.18828082541E+02 -0.21759758246E+03  0.22754485538E+03  0.00000000000E+00 0.  1.
        -13    1    4    4    0    0 -0.39439257792E+02  0.42387493567E+01  0.58981115674E+02  0.71078787675E+02  0.00000000000E+00 0. -1.
         13    1    4    4    0    0 -0.85168019896E+02 -0.78540380583E+01 -0.25584902986E+02  0.89274099198E+02  0.00000000000E+00 0.  1.
         21    1    1    2  502  501  0.45301383961E+02  0.15036753701E+02 -0.13517386781E+03  0.14335373692E+03  0.00000000000E+00 0.  1.
<scales pt_clust_5="13000.00000" pt_clust_6="13000.00000" pt_clust_7="13000.00000" pt_clust_8="13000.00000" pt_clust_9="47.73174"></scales>
<clustering>
<clus scale="   47.732">  2  9  1 -1</clus>
<clus scale="   90.089">  5  6 -1 -1</clus>
<clus scale="   95.172">  7  8 -1 -1</clus>
<clus scale="  146.506">  2  5  1 -1</clus>
<clus scale="  149.685">  1  5  2 -1</clus>
</clustering>
</event>
<event>
 9    1  0.6202448E-006  0.1069078E+03  0.7546771E-02  0.1266802E+00
          1   -1    0    0  502    0  0.00000000000E+00  0.00000000000E+00  0.20149501567E+03  0.20149501567E+03  0.00000000000E+00 0. -1.
         -1   -1    0    0    0  501 -0.00000000000E+00 -0.00000000000E+00 -0.18030150550E+03  0.18030150550E+03  0.00000000000E+00 0.  1.
         23    2    1    2    0    0 -0.48166213806E+02  0.18087814644E+02 -0.63298896466E+02  0.12198286540E+03  0.90696835479E+02 0.  0.
         23    2    1    2    0    0  0.83384787477E+02  0.71440711019E+02  0.79123807637E+02  0.16345740691E+03  0.91656690791E+02 0.  0.
        -11    1    4    4    0    0 -0.12886143439E+02  0.22923451877E+02 -0.49319519645E+01  0.26755587993E+02  0.00000000000E+00 0.  1.
         11    1    4    4    0    0  0.96270930917E+02  0.48517259143E+02  0.84055759601E+02  0.13670181892E+03  0.00000000000E+00 0. -1.
        -13    1    3    3    0    0  0.93360962064E+01 -0.27002258740E+02 -0.61716291903E+01  0.29229671163E+02  0.00000000000E+00 0.  1.
         13    1    3    3    0    0 -0.57502310012E+02  0.45090073384E+02 -0.57127267275E+02  0.92753194235E+02  0.00000000000E+00 0. -1.
         21    1    1    2  502  501 -0.35218573671E+02 -0.89528525663E+02  0.53685989918E+01  0.96356248858E+02  0.00000000000E+00 0.  1.
<scales pt_clust_5="13000.00000" pt_clust_6="13000.00000" pt_clust_7="13000.00000" pt_clust_8="13000.00000" pt_clust_9="96.20657"></scales>
<clustering>
<clus scale="   90.697">  7  8 -1 -1</clus>
<clus scale="   91.657">  5  6 -1 -1</clus>
<clus scale="   96.207">  1  9  2 -1</clus>
<clus scale="  106.086">  2  7  1 -1</clus>
<clus scale="   96.207">  1  5  2 -1</clus>
</clustering>
</event>
<event>
 9    1  0.6202448E-006  0.1016930E+03  0.7546771E-02  0.1277320E+00
         -1   -1    0    0    0  501 -0.00000000000E+00  0.00000000000E+00  0.14708987629E+03  0.14708987629E+03  0.00000000000E+00 0.  1.
          1   -1    0    0  502    0  0.00000000000E+00 -0.00000000000E+00 -0.14901549257E+03  0.14901549257E+03  0.00000000000E+00 0. -1.
         23    2    1    2    0    0 -0.44673205547E+02 -0.26263641915E+02  0.65981489404E+02  0.12452875934E+03  0.92023805502E+02 0.  0.
         23    2    1    2    0    0  0.22342373149E+02 -0.26423858952E+02 -0.52046150902E+02  0.11219472078E+03  0.93174307552E+02 0.  0.
        -11    1    3    3    0    0  0.50458924012E+01  0.20005417336E+02 -0.97359547569E+01  0.22813736387E+02  0.00000000000E+00 0.  1.
         11    1    3    3    0    0 -0.49719097948E+02 -0.46269059250E+02  0.75717444160E+02  0.10171502296E+03  0.00000000000E+00 0. -1.
        -11    1    4    4    0    0  0.23685834094E+02  0.20939956558E+02  0.10870481858E+02  0.33431540395E+02  0.00000000000E+00 0.  1.
         11    1    4    4    0    0 -0.13434609442E+01 -0.47363815510E+02 -0.62916632760E+02  0.78763180387E+02  0.00000000000E+00 0. -1.
         21    1    1    2  502  501  0.22330832397E+02  0.52687500866E+02 -0.15860954777E+02  0.59381888733E+02  0.00000000000E+00 0. -1.
<scales pt_clust_5="13000.00000" pt_clust_6="13000.00000" pt_clust_7="13000.00000" pt_clust_8="13000.00000" pt_clust_9="57.22446"></scales>
<clustering>
<clus scale="   57.224">  2  9  1 -1</clus>
<clus scale="   92.024">  5  6 -1 -1</clus>
<clus scale="   93.174">  7  8 -1 -1</clus>
<clus scale="  100.640">  1  5  2 -1</clus>
<clus scale="   57.224">  2  5  1 -1</clus>
</clustering>
</event>
<event>
 9    1  0.6202448E-006  0.3258072E+03  0.7546771E-02  0.1093414E+00
          1   -1    0    0  502    0  0.00000000000E+00  0.00000000000E+00  0.45116110834E+03  0.45116110834E+03  0.00000000000E+00 0. -1.
         -1   -1    0    0    0  501 -0.00000000000E+00 -0.00000000000E+00 -0.72546295771E+03  0.72546295771E+03  0.00000000000E+00 0.  1.
         23    2    1    2    0    0  0.21303226928E+03  0.23756360780E+03 -0.49833488719E+03  0.59856824854E+03  0.90150279334E+02 0.  0.
         23    2    1    2    0    0 -0.14511325321E+03  0.79137915245E+02  0.16115102394E+03  0.24810582871E+03  0.90918556079E+02 0.  0.
        -13    1    3    3    0    0  0.85000668670E+02  0.35921774363E+02 -0.12522944417E+03  0.15555674603E+03  0.00000000000E+00 0.  1.
         13    1    3    3    0    0  0.12803160061E+03  0.20164183344E+03 -0.37310544302E+03  0.44301150251E+03  0.00000000000E+00 0. -1.
        -13    1    4    4    0    0 -0.42723263585E+02 -0.80098741034E+01  0.78079556511E+01  0.44163327614E+02  0.00000000000E+00 0. -1.
         13    1    4    4    0    0 -0.10238998963E+03  0.87147789348E+02  0.15334306828E+03  0.20394250110E+03  0.00000000000E+00 0.  1.
         21    1    1    2  502  501 -0.67919016067E+02 -0.31670152304E+03  0.62882013879E+02  0.32994998880E+03  0.00000000000E+00 0. -1.
<scales pt_clust_5="13000.00000" pt_clust_6="13000.00000" pt_clust_7="13000.00000" pt_clust_8="13000.00000" pt_clust_9="313.08662"></scales>
<clustering>
<clus scale="   90.150">  5  6 -1 -1</clus>
<clus scale="   90.919">  7  8 -1 -1</clus>
<clus scale="  188.645">  1  7  2 -1</clus>
<clus scale="  313.087">  1  9  2 -1</clus>
<clus scale="  188.645">  1  5  2 -1</clus>
</clustering>
</event>
<event>
 9    1  0.6202448E-006  0.1568373E+03  0.7546771E-02  0.1214878E+00
          1   -1    0    0  502    0  0.00000000000E+00  0.00000000000E+00  0.20731717934E+03  0.20731717934E+03  0.00000000000E+00 0. -1.
         -1   -1    0    0    0  501 -0.00000000000E+00 -0.00000000000E+00 -0.37387738148E+03  0.37387738148E+03  0.00000000000E+00 0.  1.
         23    2    1    2    0    0  0.59833451615E+02  0.81470203111E+02  0.64826023591E+02  0.14943824098E+03  0.88949078719E+02 0.  0.
         23    2    1    2    0    0  0.14418296442E+02  0.28864952543E+02  0.58564011974E+02  0.11276053772E+03  0.90797150897E+02 0.  0.
        -11    1    3    3    0    0  0.50117818925E+02  0.99946692239E+02  0.63356414065E+02  0.12851137018E+03  0.00000000000E+00 0.  1.
         11    1    3    3    0    0  0.97156326900E+01 -0.18476489128E+02  0.14696095259E+01  0.20926870794E+02  0.00000000000E+00 0. -1.
        -13    1    4    4    0    0  0.27444764941E+02  0.51096480118E+02  0.64057837768E+02  0.86414535714E+02  0.00000000000E+00 0. -1.
         13    1    4    4    0    0 -0.13026468499E+02 -0.22231527576E+02 -0.54938257940E+01  0.26346002007E+02  0.00000000000E+00 0.  1.
         21    1    1    2  502  501 -0.74251748057E+02 -0.11033515565E+03 -0.28995023771E+03  0.31899578212E+03  0.00000000000E+00 0.  1.
<scales pt_clust_5="13000.00000" pt_clust_6="13000.00000" pt_clust_7="13000.00000" pt_clust_8="13000.00000" pt_clust_9="129.17435"></scales>
<clustering>
<clus scale="   88.949">  5  6 -1 -1</clus>
<clus scale="   90.797">  7  8 -1 -1</clus>
<clus scale="   96.360">  1  7  2 -1</clus>
<clus scale="  129.174">  2  9  1 -1</clus>
<clus scale="   96.360">  1  5  2 -1</clus>
</clustering>
</event>
<event>
 9    1  0.6202448E-006  0.1141100E+03  0.7546771E-02  0.1253441E+00
         -1   -1    0    0    0  501 -0.00000000000E+00  0.00000000000E+00  0.21192713250E+03  0.21192713250E+03  0.00000000000E+00 0.  1.
          1   -1    0    0  502    0  0.00000000000E+00 -0.00000000000E+00 -0.15869157299E+03  0.15869157299E+03  0.00000000000E+00 0. -1.
         23    2    1    2    0    0  0.34068954243E+02  0.88982306575E+01  0.42203434682E+02  0.10746095619E+03  0.92340971704E+02 0.  0.
         23    2    1    2    0    0 -0.12759207355E+03 -0.36903571827E+02  0.29038722775E+02  0.16388483986E+03  0.91506188150E+02 0.  0.
        -11    1    4    4    0    0 -0.65127617277E+02  0.23378800494E+02 -0.76962777993E+01  0.69623326096E+02  0.00000000000E+00 0.  1.
         11    1    4    4    0    0 -0.62464456271E+02 -0.60282372322E+02  0.36735000574E+02  0.94261513764E+02  0.00000000000E+00 0. -1.
        -13    1    3    3    0    0 -0.24840256508E+02  0.27084190929E+02  0.20618254170E+02  0.42139104721E+02  0.00000000000E+00 0.  1.
         13    1    3    3    0    0  0.58909210751E+02 -0.18185960271E+02  0.21585180512E+02  0.65321851474E+02  0.00000000000E+00 0. -1.
         21    1    1    2  502  501  0.93523119305E+02  0.28005341170E+02 -0.18006597939E+02  0.99272909436E+02  0.00000000000E+00 0. -1.
<scales pt_clust_5="13000.00000" pt_clust_6="13000.00000" pt_clust_7="13000.00000" pt_clust_8="13000.00000" pt_clust_9="97.62619"></scales>
<clustering>
<clus scale="   91.506">  5  6 -1 -1</clus>
<clus scale="   92.341">  7  8 -1 -1</clus>
<clus scale="   97.626">  2  9  1 -1</clus>
<clus scale="  113.435">  2  5  1 -1</clus>
<clus scale="   97.626">  2  5  1 -1</clus>
</clustering>
</event>
<event>
 9    1  0.7266835E-006  0.1257857E+03  0.7546771E-02  0.1247526E+00
          1   -1    0    0  502    0  0.00000000000E+00  0.00000000000E+00  0.57019815122E+03  0.57019815122E+03  0.00000000000E+00 0. -1.
         -1   -1    0    0    0  501 -0.00000000000E+00 -0.00000000000E+00 -0.18645442937E+03  0.18645442937E+03  0.00000000000E+00 0.  1.
         23    2    1    2    0    0 -0.45612856983E+02  0.10898649309E+02 -0.15144345061E+03  0.17893503845E+03  0.82965751815E+02 0.  0.
         23    2    1    2    0    0 -0.28582622871E+02 -0.73218111365E+02  0.29057539214E+03  0.31461374578E+03  0.91487115779E+02 0.  0.
        -11    1    3    3    0    0  0.20887544943E+02  0.67088276801E+00 -0.71267750869E+02  0.74268647028E+02  0.00000000000E+00 0.  1.
         11    1    3    3    0    0 -0.66500401927E+02  0.10227766541E+02 -0.80175699744E+02  0.10466639143E+03  0.00000000000E+00 0. -1.
        -13    1    4    4    0    0 -0.47978278191E+02 -0.15466057165E+02  0.73312524049E+02  0.88971008114E+02  0.00000000000E+00 0.  1.
         13    1    4    4    0    0  0.19395655320E+02 -0.57752054200E+02  0.21726286809E+03  0.22564273766E+03  0.00000000000E+00 0. -1.
         21    1    1    2  502  501  0.74195479854E+02  0.62319462056E+02  0.24461178033E+03  0.26310379636E+03  0.00000000000E+00 0. -1.
<scales pt_clust_5="13000.00000" pt_clust_6="13000.00000" pt_clust_7="13000.00000" pt_clust_8="13000.00000" pt_clust_9="86.32586"></scales>
<clustering>
<clus scale="   82.966">  5  6 -1 -1</clus>
<clus scale="   91.487">  7  8 -1 -1</clus>
<clus scale="   95.303">  2  5  1 -1</clus>
<clus scale="   86.326">  2  9  1 -1</clus>
<clus scale="  125.786">  1  5  2 -1</clus>
</clustering>
</event>
<event>
 9    1  0.6202448E-006  0.1221645E+03  0.7546771E-02  0.1244129E+00
         -1   -1    0    0    0  501 -0.00000000000E+00  0.00000000000E+00  0.19795061724E+03  0.19795061724E+03  0.00000000000E+00 0.  1.
          1   -1    0    0  502    0  0.00000000000E+00 -0.00000000000E+00 -0.13000587303E+03  0.13000587303E+03  0.00000000000E+00 0. -1.
         23    2    1    2    0    0  0.11092751158E+02 -0.79836038518E+02  0.25095443766E+02  0.12398257380E+03  0.90802285954E+02 0.  0.
         23    2    1    2    0    0  0.34889354291E+02  0.50445622375E+02 -0.18431159200E+02  0.12191634329E+03  0.10373938149E+03 0.  0.
        -11    1    3    3    0    0  0.24191064983E+02 -0.75451541675E+01 -0.24574840223E+02  0.35299571504E+02  0.00000000000E+00 0. -1.
         11    1    3    3    0    0 -0.13098313824E+02 -0.72290884350E+02  0.49670283989E+02  0.88683002299E+02  0.00000000000E+00 0.  1.
        -13    1    4    4    0    0  0.24455947723E+02 -0.19150658933E+02  0.24429588570E+02  0.39517665851E+02  0.00000000000E+00 0.  1.
         13    1    4    4    0    0  0.10433406568E+02  0.69596281309E+02 -0.42860747771E+02  0.82398677441E+02  0.00000000000E+00 0. -1.
         21    1    1    2  502  501 -0.45982105449E+02  0.29390416142E+02  0.61280459642E+02  0.82057573182E+02  0.00000000000E+00 0.  1.
<scales pt_clust_5="13000.00000" pt_clust_6="13000.00000" pt_clust_7="13000.00000" pt_clust_8="13000.00000" pt_clust_9="54.57243"></scales>
<clustering>
<clus scale="   54.572">  1  9  2 -1</clus>
<clus scale="   90.802">  5  6 -1 -1</clus>
<clus scale="  103.739">  7  8 -1 -1</clus>
<clus scale="  111.388">  1  5  2 -1</clus>
<clus scale="  122.165">  2  5  1 -1</clus>
</clustering>
</event>
<event>
 9    1  0.6202448E-006  0.1012954E+03  0.7546771E-02  0.1280508E+00
         -1   -1    0    0    0  501 -0.00000000000E+00  0.00000000000E+00  0.18665283324E+03  0.18665283324E+03  0.00000000000E+00 0.  1.
          1   -1    0    0  502    0  0.00000000000E+00 -0.00000000000E+00 -0.26279457068E+03  0.26279457068E+03  0.00000000000E+00 0. -1.
         23    2    1    2    0    0  0.41502690186E+01 -0.18216567520E+02  0.14730988090E+03  0.17592062131E+03  0.94333429517E+02 0.  0.
         23    2    1    2    0    0  0.24579024085E+02 -0.72004597710E+01 -0.20802870561E+03  0.23218353896E+03  0.99886327196E+02 0.  0.
        -13    1    4    4    0    0  0.46683994980E+02 -0.38639232283E+02 -0.93892372001E+02  0.11175045046E+03  0.00000000000E+00 0.  1.
         13    1    4    4    0    0 -0.22104970895E+02  0.31438772512E+02 -0.11413633361E+03  0.12043308850E+03  0.00000000000E+00 0. -1.
        -13    1    3    3    0    0  0.34914359028E+02 -0.21335236150E+02  0.21215482931E+02  0.46090145193E+02  0.00000000000E+00 0. -1.
         13    1    3    3    0    0 -0.30764090010E+02  0.31186686296E+01  0.12609439797E+03  0.12983047612E+03  0.00000000000E+00 0.  1.
         21    1    1    2  502  501 -0.28729293103E+02  0.25417027291E+02 -0.15422912723E+02  0.41343243649E+02  0.00000000000E+00 0. -1.
<scales pt_clust_5="13000.00000" pt_clust_6="13000.00000" pt_clust_7="13000.00000" pt_clust_8="13000.00000" pt_clust_9="38.35880"></scales>
<clustering>
<clus scale="   38.359">  2  9  1 -1</clus>
<clus scale="   94.333">  7  8 -1 -1</clus>
<clus scale="   95.824">  1  7  2 -1</clus>
<clus scale="   99.886">  5  6 -1 -1</clus>
<clus scale="   38.359">  2  5  1 -1</clus>
</clustering>
</event>
<event>
 9    1  0.6202448E-006  0.1157533E+03  0.7546771E-02  0.1250287E+00
          1   -1    0    0  502    0  0.00000000000E+00  0.00000000000E+00  0.42970643507E+03  0.42970643507E+03  0.00000000000E+00 0. -1.
         -1   -1    0    0    0  501 -0.00000000000E+00 -0.00000000000E+00 -0.75179146775E+02  0.75179146775E+02  0.00000000000E+00 0.  1.
         23    2    1    2    0    0 -0.71429287927E+01  0.44579162108E+02  0.11036118218E+02  0.10289837200E+03  0.91803899317E+02 0.  0.
         23    2    1    2    0    0  0.15010097396E+02 -0.74374527695E+02  0.35066233809E+03  0.37034733306E+03  0.91848779813E+02 0.  0.
        -13    1    3    3    0    0  0.39813405799E+02  0.37596126281E+02  0.78471026235E+01  0.55318649768E+02  0.00000000000E+00 0.  1.
         13    1    3    3    0    0 -0.46956334591E+02  0.69830358277E+01  0.31890155947E+01  0.47579722236E+02  0.00000000000E+00 0. -1.
        -13    1    4    4    0    0  0.46366961493E+02 -0.25522283119E+02  0.10102755342E+03  0.11405195572E+03  0.00000000000E+00 0.  1.
         13    1    4    4    0    0 -0.31356864097E+02 -0.48852244576E+02  0.24963478467E+03  0.25629537734E+03  0.00000000000E+00 0. -1.
         21    1    1    2  502  501 -0.78671686035E+01  0.29795365586E+02 -0.71711680128E+01  0.31639876784E+02  0.00000000000E+00 0.  1.
<scales pt_clust_5="13000.00000" pt_clust_6="13000.00000" pt_clust_7="13000.00000" pt_clust_8="13000.00000" pt_clust_9="30.81649"></scales>
<clustering>
<clus scale="   30.816">  2  9  1 -1</clus>
<clus scale="   91.804">  5  6 -1 -1</clus>
<clus scale="   91.849">  7  8 -1 -1</clus>
<clus scale="  115.718">  2  5  1 -1</clus>
<clus scale="  115.753">  1  5  2 -1</clus>
</clustering>
</event>
<event>
 9    1  0.6202448E-006  0.2023543E+03  0.7546771E-02  0.1147895E+00
         -2   -1    0    0    0  501 -0.00000000000E+00  0.00000000000E+00  0.66121828805E+03  0.66121828805E+03  0.00000000000E+00 0.  1.
          2   -1    0    0  502    0  0.00000000000E+00 -0.00000000000E+00 -0.40229130179E+03  0.40229130179E+03  0.00000000000E+00 0. -1.
         23    2    1    2    0    0  0.13051940590E+03  0.14852306006E+03  0.52514447110E+03  0.56832000061E+03  0.90091580534E+02 0.  0.
         23    2    1    2    0    0 -0.53413938645E+02 -0.12593621193E+03  0.47563543085E+02  0.17128535604E+03  0.91451649776E+02 0.  0.
        -11    1    4    4    0    0  0.17529174772E+02 -0.27134804576E+02  0.37114357707E+02  0.49204117059E+02  0.00000000000E+00 0.  1.
         11    1    4    4    0    0 -0.70943113417E+02 -0.98801407354E+02  0.10449185378E+02  0.12208123898E+03  0.00000000000E+00 0. -1.
        -13    1    3    3    0    0  0.10383685849E+03  0.13065886888E+03  0.50122248656E+03  0.52827815990E+03  0.00000000000E+00 0.  1.
         13    1    3    3    0    0  0.26682547416E+02  0.17864191181E+02  0.23921984542E+02  0.40041840712E+02  0.00000000000E+00 0. -1.
         21    1    1    2  502  501 -0.77105467259E+02 -0.22586848132E+02 -0.31378102793E+03  0.32390423319E+03  0.00000000000E+00 0. -1.
<scales pt_clust_5="13000.00000" pt_clust_6="13000.00000" pt_clust_7="13000.00000" pt_clust_8="13000.00000" pt_clust_9="80.34562"></scales>
<clustering>
<clus scale="   80.346">  2  9  1 -1</clus>
<clus scale="   90.092">  7  8 -1 -1</clus>
<clus scale="   91.452">  5  6 -1 -1</clus>
<clus scale="  201.743">  1  7  2 -1</clus>
<clus scale="   80.346">  2  5  1 -1</clus>
</clustering>
</event>
<event>
 9    1  0.6202448E-006  0.1105810E+03  0.7546771E-02  0.1259624E+00
          1   -1    0    0  502    0  0.00000000000E+00  0.00000000000E+00  0.52171367855E+03  0.52171367855E+03  0.00000000000E+00 0. -1.
         -1   -1    0    0    0  501 -0.00000000000E+00 -0.00000000000E+00 -0.54185991099E+02  0.54185991099E+02  0.00000000000E+00 0.  1.
         23    2    1    2    0    0 -0.13702748977E+02  0.10543077215E+03  0.12467019219E+03  0.18902192362E+03  0.94250823571E+02 0.  0.
         23    2    1    2    0    0 -0.98604045405E+01 -0.42102525846E+02  0.25958668833E+03  0.27964101598E+03  0.94572717013E+02 0.  0.
        -11    1    3    3    0    0  0.21643262340E+01  0.30660869854E+02  0.10596299387E+03  0.11033099890E+03  0.00000000000E+00 0. -1.
         11    1    3    3    0    0 -0.15867075211E+02  0.74769902292E+02  0.18707198320E+02  0.78690924722E+02  0.00000000000E+00 0.  1.
        -13    1    4    4    0    0 -0.26458419011E+02  0.23227818242E+02  0.68579957849E+02  0.77089494066E+02  0.00000000000E+00 0.  1.
         13    1    4    4    0    0  0.16598014470E+02 -0.65330344088E+02  0.19100673048E+03  0.20255152192E+03  0.00000000000E+00 0. -1.
         21    1    1    2  502  501  0.23563153518E+02 -0.63328246300E+02  0.83270806934E+02  0.10723673004E+03  0.00000000000E+00 0. -1.
<scales pt_clust_5="13000.00000" pt_clust_6="13000.00000" pt_clust_7="13000.00000" pt_clust_8="13000.00000" pt_clust_9="67.56988"></scales>
<clustering>
<clus scale="   67.570">  2  9  1 -1</clus>
<clus scale="   94.251">  5  6 -1 -1</clus>
<clus scale="   94.573">  7  8 -1 -1</clus>
<clus scale="  110.306">  2  5  1 -1</clus>
<clus scale="  110.581">  1  5  2 -1</clus>
</clustering>
</event>
<event>
 9    1  0.6202448E-006  0.1662880E+03  0.7546771E-02  0.1191252E+00
         -2   -1    0    0    0  501 -0.00000000000E+00  0.00000000000E+00  0.11235483100E+03  0.11235483100E+03  0.00000000000E+00 0.  1.
          2   -1    0    0  502    0  0.00000000000E+00 -0.00000000000E+00 -0.77794480974E+03  0.77794480974E+03  0.00000000000E+00 0. -1.
         23    2    1    2    0    0 -0.98093604522E+02  0.15340536058E+02  0.15227536540E+02  0.13556182070E+03  0.91035389097E+02 0.  0.
         23    2    1    2    0    0 -0.79531800052E+02 -0.69530200109E+02 -0.27351165474E+03  0.30709357729E+03  0.91313109628E+02 0.  0.
        -11    1    4    4    0    0 -0.62657262892E+02 -0.29372974699E+01 -0.18308095159E+03  0.19352827996E+03  0.00000000000E+00 0.  1.
         11    1    4    4    0    0 -0.16874537160E+02 -0.66592902639E+02 -0.90430703150E+02  0.11356529733E+03  0.00000000000E+00 0. -1.
        -13    1    3    3    0    0 -0.47315784220E+01  0.26146491418E+02  0.30382618754E+02  0.40362487166E+02  0.00000000000E+00 0.  1.
         13    1    3    3    0    0 -0.93362026100E+02 -0.10805955360E+02 -0.15155082214E+02  0.95199333535E+02  0.00000000000E+00 0. -1.
         21    1    1    2  502  501  0.17762540457E+03  0.54189664051E+02 -0.40730586054E+03  0.44764424275E+03  0.00000000000E+00 0.  1.
<scales pt_clust_5="13000.00000" pt_clust_6="13000.00000" pt_clust_7="13000.00000" pt_clust_8="13000.00000" pt_clust_9="138.97340"></scales>
<clustering>
<clus scale="   91.035">  7  8 -1 -1</clus>
<clus scale="   91.313">  5  6 -1 -1</clus>
<clus scale="  134.704">  1  7  2 -1</clus>
<clus scale="  138.973">  1  9  2 -1</clus>
<clus scale="  166.288">  2  5  1 -1</clus>
</clustering>
</event>
<event>
 9    1  0.6202448E-006  0.1475617E+03  0.7546771E-02  0.1236606E+00
         -1   -1    0    0    0  501 -0.00000000000E+00  0.00000000000E+00  0.52278256010E+02  0.52278256010E+02  0.00000000000E+00 0.  1.
          1   -1    0    0  502    0  0.00000000000E+00 -0.00000000000E+00 -0.10556161245E+04  0.10556161245E+04  0.00000000000E+00 0. -1.
         23    2    1    2    0    0 -0.23050844180E+02  0.16929063557E+02 -0.40844142970E+01  0.73745990998E+02  0.67851706962E+02 0.  0.
         23    2    1    2    0    0  0.63227556596E+02 -0.11403834212E+03 -0.56588819696E+03  0.58822258136E+03  0.93669025688E+02 0.  0.
        -11    1    3    3    0    0 -0.46741168967E+02  0.50788604732E+01 -0.46948561715E+01  0.47250115075E+02  0.00000000000E+00 0.  1.
         11    1    3    3    0    0  0.23690324787E+02  0.11850203084E+02  0.61044187452E+00  0.26495875923E+02  0.00000000000E+00 0. -1.
        -13    1    4    4    0    0  0.23136405287E+02  0.11361349895E+02 -0.14337186556E+03  0.14567039972E+03  0.00000000000E+00 0. -1.
         13    1    4    4    0    0  0.40091151309E+02 -0.12539969201E+03 -0.42251633141E+03  0.44255218164E+03  0.00000000000E+00 0.  1.
         21    1    1    2  502  501 -0.40176712416E+02  0.97109278560E+02 -0.43336525720E+03  0.44592580813E+03  0.00000000000E+00 0. -1.
<scales pt_clust_5="13000.00000" pt_clust_6="13000.00000" pt_clust_7="13000.00000" pt_clust_8="13000.00000" pt_clust_9="114.02005"></scales>
<clustering>
<clus scale="   67.852">  5  6 -1 -1</clus>
<clus scale="   73.633">  1  5  2 -1</clus>
<clus scale="   93.669">  7  8 -1 -1</clus>
<clus scale="  114.020">  2  9  1 -1</clus>
<clus scale="  114.020">  2  5  1 -1</clus>
</clustering>
</event>
<event>
 9    1  0.6202448E-006  0.9359424E+02  0.7546771E-02  0.1294518E+00
         -2   -1    0    0    0  501 -0.00000000000E+00  0.00000000000E+00  0.21623835431E+03  0.21623835431E+03  0.00000000000E+00 0.  1.
          2   -1    0    0  502    0  0.00000000000E+00 -0.00000000000E+00 -0.12916814052E+03  0.12916814052E+03  0.00000000000E+00 0. -1.
         23    2    1    2    0    0  0.74595953155E+01 -0.11827747178E+02  0.52073281111E+02  0.10560358625E+03  0.90801705144E+02 0.  0.
         23    2    1    2    0    0  0.19154286815E+02 -0.27909593137E+02 -0.73367362136E+02  0.12135386752E+03  0.90543686934E+02 0.  0.
        -11    1    4    4    0    0 -0.19205555641E+02 -0.41752463929E+02 -0.11703490666E+02  0.47424606539E+02  0.00000000000E+00 0.  1.
         11    1    4    4    0    0  0.38359842456E+02  0.13842870792E+02 -0.61663871470E+02  0.73929260985E+02  0.00000000000E+00 0. -1.
        -11    1    3    3    0    0  0.22171245942E+02 -0.47920840820E+02  0.32320195481E+02  0.61907723003E+02  0.00000000000E+00 0.  1.
         11    1    3    3    0    0 -0.14711650627E+02  0.36093093641E+02  0.19753085630E+02  0.43695863245E+02  0.00000000000E+00 0. -1.
         21    1    1    2  502  501 -0.26613882131E+02  0.39737340316E+02  0.10836429481E+03  0.11844904106E+03  0.00000000000E+00 0.  1.
<scales pt_clust_5="13000.00000" pt_clust_6="13000.00000" pt_clust_7="13000.00000" pt_clust_8="13000.00000" pt_clust_9="47.82630"></scales>
<clustering>
<clus scale="   47.826">  1  9  2 -1</clus>
<clus scale="   90.544">  5  6 -1 -1</clus>
<clus scale="   90.802">  7  8 -1 -1</clus>
<clus scale="   93.344">  2  5  1 -1</clus>
<clus scale="   93.344">  2  5  1 -1</clus>
</clustering>
</event>
<event>
 9    1  0.6202448E-006  0.9534621E+02  0.7546771E-02  0.1292884E+00
          2   -1    0    0  502    0  0.00000000000E+00  0.00000000000E+00  0.96347282286E+02  0.96347282286E+02  0.00000000000E+00 0. -1.
         -2   -1    0    0    0  501 -0.00000000000E+00 -0.00000000000E+00 -0.27251909557E+03  0.27251909557E+03  0.00000000000E+00 0.  1.
         23    2    1    2    0    0 -0.20669565285E+02  0.64516779786E+01 -0.20675044699E+03  0.22558479167E+03  0.87600775257E+02 0.  0.
         23    2    1    2    0    0  0.50941038507E+02  0.18111261267E+01  0.36394687355E+02  0.11136822687E+03  0.92087127798E+02 0.  0.
        -11    1    4    4    0    0 -0.12505280141E+02  0.31489080050E+02  0.37436311266E+01  0.34087519238E+02  0.00000000000E+00 0. -1.
         11    1    4    4    0    0  0.63446318648E+02 -0.29677953923E+02  0.32651056228E+02  0.77280707631E+02  0.00000000000E+00 0.  1.
        -13    1    3    3    0    0  0.34470138312E+02 -0.16173377158E+01 -0.79825299681E+02  0.86964847413E+02  0.00000000000E+00 0.  1.
         13    1    3    3    0    0 -0.55139703596E+02  0.80690156944E+01 -0.12692514731E+03  0.13861994426E+03  0.00000000000E+00 0. -1.
         21    1    1    2  502  501 -0.30271473223E+02 -0.82628041053E+01 -0.58160536488E+01  0.31913359316E+02  0.00000000000E+00 0. -1.
<scales pt_clust_5="13000.00000" pt_clust_6="13000.00000" pt_clust_7="13000.00000" pt_clust_8="13000.00000" pt_clust_9="31.37891"></scales>
<clustering>
<clus scale="   31.379">  1  9  2 -1</clus>
<clus scale="   87.601">  7  8 -1 -1</clus>
<clus scale="   91.021">  2  7  1 -1</clus>
<clus scale="   92.087">  5  6 -1 -1</clus>
<clus scale="   31.379">  1  5  2 -1</clus>
</clustering>
</event>
<event>
 9    1  0.6202448E-006  0.1019346E+03  0.7546771E-02  0.1288209E+00
          2   -1    0    0  502    0  0.00000000000E+00  0.00000000000E+00  0.45044946088E+02  0.45044946088E+02  0.00000000000E+00 0. -1.
         -2   -1    0    0    0  501 -0.00000000000E+00 -0.00000000000E+00 -0.49889664280E+03  0.49889664280E+03  0.00000000000E+00 0.  1.
         23    2    1    2    0    0 -0.13493547189E+02  0.32536018374E+02 -0.25254026113E+03  0.26715223646E+03  0.79706120525E+02 0.  0.
         23    2    1    2    0    0  0.70313125356E+01  0.28374587581E+02 -0.18623135705E+03  0.21370788793E+03  0.10066968976E+03 0.  0.
        -11    1    3    3    0    0 -0.47017771081E+02  0.17185367999E+02 -0.15450349701E+03  0.16241101643E+03  0.00000000000E+00 0. -1.
         11    1    3    3    0    0  0.33524223892E+02  0.15350650375E+02 -0.98036764123E+02  0.10474122003E+03  0.00000000000E+00 0.  1.
        -13    1    4    4    0    0 -0.77793058481E+01 -0.36620308260E+02 -0.79424599486E+02  0.87805646630E+02  0.00000000000E+00 0.  1.
         13    1    4    4    0    0  0.14810618384E+02  0.64994895841E+02 -0.10680675756E+03  0.12590224130E+03  0.00000000000E+00 0. -1.
         21    1    1    2  502  501  0.64622346535E+01 -0.60910605955E+02 -0.15080078531E+02  0.63081464497E+02  0.00000000000E+00 0. -1.
<scales pt_clust_5="13000.00000" pt_clust_6="13000.00000" pt_clust_7="13000.00000" pt_clust_8="13000.00000" pt_clust_9="61.25245"></scales>
<clustering>
<clus scale="   61.252">  1  9  2 -1</clus>
<clus scale="   79.706">  5  6 -1 -1</clus>
<clus scale="   81.298">  2  5  1 -1</clus>
<clus scale="  100.670">  7  8 -1 -1</clus>
<clus scale="   61.252">  1  5  2 -1</clus>
</clustering>
</event>
<event>
 9    1  0.6202448E-006  0.2228345E+03  0.7546771E-02  0.1168832E+00
          2   -1    0    0  502    0  0.00000000000E+00  0.00000000000E+00  0.13344077551E+04  0.13344077551E+04  0.00000000000E+00 0. -1.
         -2   -1    0    0    0  501 -0.00000000000E+00 -0.00000000000E+00 -0.74455664111E+02  0.74455664111E+02  0.00000000000E+00 0.  1.
         23    2    1    2    0    0  0.14532969165E+02  0.18723334498E+02  0.11947484350E+03  0.15119607287E+03  0.89578143402E+02 0.  0.
         23    2    1    2    0    0 -0.10733666600E+03 -0.17985731197E+03  0.99744032652E+03  0.10230692952E+04  0.88959346081E+02 0.  0.
        -11    1    3    3    0    0  0.93595381058E+01 -0.36213910557E+02  0.45270482370E+02  0.58723631065E+02  0.00000000000E+00 0.  1.
         11    1    3    3    0    0  0.51734310591E+01  0.54937245055E+02  0.74204361130E+02  0.92472441808E+02  0.00000000000E+00 0. -1.
        -11    1    4    4    0    0  0.10337962947E+02 -0.39265841956E+02  0.12012556000E+03  0.12680232643E+03  0.00000000000E+00 0.  1.
         11    1    4    4    0    0 -0.11767462895E+03 -0.14059147001E+03  0.87731476651E+03  0.89626696875E+03  0.00000000000E+00 0. -1.
         21    1    1    2  502  501  0.92803696838E+02  0.16113397747E+03  0.14303692096E+03  0.23459805114E+03  0.00000000000E+00 0.  1.
<scales pt_clust_5="13000.00000" pt_clust_6="13000.00000" pt_clust_7="13000.00000" pt_clust_8="13000.00000" pt_clust_9="204.30726"></scales>
<clustering>
<clus scale="   88.959">  7  8 -1 -1</clus>
<clus scale="   89.578">  5  6 -1 -1</clus>
<clus scale="   92.661">  2  5  1 -1</clus>
<clus scale="  204.307">  2  9  1 -1</clus>
<clus scale="  222.835">  1  5  2 -1</clus>
</clustering>
</event>
<event>
 9    1  0.6202448E-006  0.1187470E+03  0.7546771E-02  0.1246050E+00
          1   -1    0    0  502    0  0.00000000000E+00  0.00000000000E+00  0.29277151239E+02  0.29277151239E+02  0.00000000000E+00 0. -1.
         -1   -1    0    0    0  501 -0.00000000000E+00 -0.00000000000E+00 -0.78204968167E+03  0.78204968167E+03  0.00000000000E+00 0.  1.
         23    2    1    2    0    0  0.63347424319E+02 -0.33674089167E+02 -0.34532460153E+03  0.36334658288E+03  0.87320206228E+02 0.  0.
         23    2    1    2    0    0 -0.88129521654E+02 -0.18845860253E+02 -0.26096346828E+03  0.29040425365E+03  0.90059534318E+02 0.  0.
        -11    1    4    4    0    0 -0.63670143719E+02  0.65726018855E+01 -0.64758934989E+02  0.91053862947E+02  0.00000000000E+00 0.  1.
         11    1    4    4    0    0 -0.24459377935E+02 -0.25418462138E+02 -0.19620453329E+03  0.19935039070E+03  0.00000000000E+00 0. -1.
        -11    1    3    3    0    0  0.45587411781E+02  0.19981606494E+02 -0.10137282840E+03  0.11293328583E+03  0.00000000000E+00 0. -1.
         11    1    3    3    0    0  0.17760012537E+02 -0.53655695662E+02 -0.24395177314E+03  0.25041329705E+03  0.00000000000E+00 0.  1.
         21    1    1    2  502  501  0.24782097335E+02  0.52519949420E+02 -0.14648446062E+03  0.15757599639E+03  0.00000000000E+00 0. -1.
<scales pt_clust_5="13000.00000" pt_clust_6="13000.00000" pt_clust_7="13000.00000" pt_clust_8="13000.00000" pt_clust_9="58.07321"></scales>
<clustering>
<clus scale="   58.073">  2  9  1 -1</clus>
<clus scale="   87.320">  7  8 -1 -1</clus>
<clus scale="   90.060">  5  6 -1 -1</clus>
<clus scale="  116.683">  2  7  1 -1</clus>
<clus scale="  118.747">  1  5  2 -1</clus>
</clustering>
</event>
<event>
 9    1  0.6202448E-006  0.9557809E+02  0.7546771E-02  0.1296245E+00
          1   -1    0    0  502    0  0.00000000000E+00  0.00000000000E+00  0.22103834661E+03  0.22103834661E+03  0.00000000000E+00 0. -1.
         -1   -1    0    0    0  501 -0.00000000000E+00 -0.00000000000E+00 -0.24303412376E+03  0.24303412376E+03  0.00000000000E+00 0.  1.
         23    2    1    2    0    0 -0.28460380432E+02 -0.94821859749E+01 -0.20910978298E+03  0.22586083390E+03  0.79914390756E+02 0.  0.
         23    2    1    2    0    0 -0.10538514085E+02  0.29969395777E+02  0.15876137779E+03  0.18582355523E+03  0.91192070041E+02 0.  0.
        -11    1    4    4    0    0 -0.32117824383E+02  0.28702658889E+01  0.11022480626E+02  0.34077678157E+02  0.00000000000E+00 0.  1.
         11    1    4    4    0    0  0.21579310298E+02  0.27099129888E+02  0.14773889717E+03  0.15174587708E+03  0.00000000000E+00 0. -1.
        -13    1    3    3    0    0 -0.34996172025E+01 -0.42850855690E+02 -0.91787679713E+02  0.10135788722E+03  0.00000000000E+00 0. -1.
         13    1    3    3    0    0 -0.24960763230E+02  0.33368669715E+02 -0.11732210326E+03  0.12450294669E+03  0.00000000000E+00 0.  1.
         21    1    1    2  502  501  0.38998894517E+02 -0.20487209802E+02  0.28352628031E+02  0.52388081234E+02  0.00000000000E+00 0.  1.
<scales pt_clust_5="13000.00000" pt_clust_6="13000.00000" pt_clust_7="13000.00000" pt_clust_8="13000.00000" pt_clust_9="44.05269"></scales>
<clustering>
<clus scale="   44.053">  1  9  2 -1</clus>
<clus scale="   79.914">  7  8 -1 -1</clus>
<clus scale="   84.885">  2  7  1 -1</clus>
<clus scale="   91.192">  5  6 -1 -1</clus>
<clus scale="   44.053">  1  5  2 -1</clus>
</clustering>
</event>
<event>
 9    1  0.6202448E-006  0.9897331E+02  0.7546771E-02  0.1283947E+00
         -1   -1    0    0    0  501 -0.00000000000E+00  0.00000000000E+00  0.11299667618E+03  0.11299667618E+03  0.00000000000E+00 0.  1.
          1   -1    0    0  502    0  0.00000000000E+00 -0.00000000000E+00 -0.30338352483E+03  0.30338352483E+03  0.00000000000E+00 0. -1.
         23    2    1    2    0    0 -0.16815498467E+02 -0.39559157792E+02 -0.13057603403E+02  0.10212668046E+03  0.91715156330E+02 0.  0.
         23    2    1    2    0    0  0.38180655072E+02 -0.29724490386E+02 -0.21126081752E+03  0.23420325248E+03  0.88762169319E+02 0.  0.
        -11    1    4    4    0    0  0.53589101862E+02 -0.64321162830E+01 -0.61348291263E+02  0.81711546303E+02  0.00000000000E+00 0.  1.
         11    1    4    4    0    0 -0.15408446790E+02 -0.23292374103E+02 -0.14991252626E+03  0.15249170618E+03  0.00000000000E+00 0. -1.
        -13    1    3    3    0    0 -0.36453965524E+02  0.13235466623E+02  0.11827490783E+02  0.40545760782E+02  0.00000000000E+00 0. -1.
         13    1    3    3    0    0  0.19638467056E+02 -0.52794624415E+02 -0.24885094186E+02  0.61580919675E+02  0.00000000000E+00 0.  1.
         21    1    1    2  502  501 -0.21365156605E+02  0.69283648177E+02  0.33931572272E+02  0.80050268072E+02  0.00000000000E+00 0. -1.
<scales pt_clust_5="13000.00000" pt_clust_6="13000.00000" pt_clust_7="13000.00000" pt_clust_8="13000.00000" pt_clust_9="72.50306"></scales>
<clustering>
<clus scale="   72.503">  1  9  2 -1</clus>
<clus scale="   88.762">  5  6 -1 -1</clus>
<clus scale="   91.715">  7  8 -1 -1</clus>
<clus scale="   96.243">  2  5  1 -1</clus>
<clus scale="   96.243">  2  5  1 -1</clus>
</clustering>
</event>
<event>
 9    1  0.6202448E-006  0.9573686E+02  0.7546771E-02  0.1290317E+00
          2   -1    0    0  502    0  0.00000000000E+00  0.00000000000E+00  0.16216331412E+03  0.16216331412E+03  0.00000000000E+00 0. -1.
         -2   -1    0    0    0  501 -0.00000000000E+00 -0.00000000000E+00 -0.10400514280E+03  0.10400514280E+03  0.00000000000E+00 0.  1.
         23    2    1    2    0    0  0.13605688726E+02  0.16616330642E+02 -0.23991381614E+02  0.98828177568E+02  0.93435566462E+02 0.  0.
         23    2    1    2    0    0 -0.30199261267E+02  0.10594117453E+02  0.22886624122E+02  0.10005097957E+03  0.91990055131E+02 0.  0.
        -11    1    4    4    0    0 -0.21423845037E+02 -0.37439899809E+02 -0.56343851079E+01  0.43502569228E+02  0.00000000000E+00 0.  1.
         11    1    4    4    0    0 -0.87754162300E+01  0.48034017262E+02  0.28521009230E+02  0.56548410339E+02  0.00000000000E+00 0. -1.
        -13    1    3    3    0    0  0.38036211605E+02 -0.19149767315E+02 -0.33858850947E+02  0.54404859792E+02  0.00000000000E+00 0.  1.
         13    1    3    3    0    0 -0.24430522879E+02  0.35766097958E+02  0.98674693335E+01  0.44423317777E+02  0.00000000000E+00 0. -1.
         21    1    1    2  502  501  0.16593572541E+02 -0.27210448095E+02  0.59262928813E+02  0.67289299793E+02  0.00000000000E+00 0.  1.
<scales pt_clust_5="13000.00000" pt_clust_6="13000.00000" pt_clust_7="13000.00000" pt_clust_8="13000.00000" pt_clust_9="31.87091"></scales>
<clustering>
<clus scale="   31.871">  1  9  2 -1</clus>
<clus scale="   91.990">  5  6 -1 -1</clus>
<clus scale="   93.436">  7  8 -1 -1</clus>
<clus scale="   94.327">  1  5  2 -1</clus>
<clus scale="   31.871">  1  5  2 -1</clus>
</clustering>
</event>
<event>
 9    1  0.6202448E-006  0.9355681E+02  0.7546771E-02  0.1295371E+00
          4   -1    0    0  502    0  0.00000000000E+00  0.00000000000E+00  0.76906489845E+02  0.76906489845E+02  0.00000000000E+00 0. -1.
         -4   -1    0    0    0  501 -0.00000000000E+00 -0.00000000000E+00 -0.30437121863E+03  0.30437121863E+03  0.00000000000E+00 0.  1.
         23    2    1    2    0    0  0.18889873353E+00  0.79124072820E+01 -0.17428214183E+03  0.19658240132E+03  0.90596543409E+02 0.  0.
         23    2    1    2    0    0  0.20662207472E+02 -0.26262192106E+02 -0.93661352353E+02  0.13560341698E+03  0.92191150447E+02 0.  0.
        -11    1    4    4    0    0  0.36792921102E+02 -0.51015911845E+02 -0.40581247966E+02  0.74854391929E+02  0.00000000000E+00 0. -1.
         11    1    4    4    0    0 -0.16130713630E+02  0.24753719739E+02 -0.53080104386E+02  0.60749025052E+02  0.00000000000E+00 0.  1.
        -13    1    3    3    0    0 -0.25655954177E+02 -0.20730338151E+02 -0.14345854769E+03  0.14720166375E+03  0.00000000000E+00 0.  1.
         13    1    3    3    0    0  0.25844852910E+02  0.28642745433E+02 -0.30823594138E+02  0.49380737576E+02  0.00000000000E+00 0. -1.
         21    1    1    2  502  501 -0.20851106206E+02  0.18349784824E+02  0.40478765393E+02  0.49091890174E+02  0.00000000000E+00 0. -1.
<scales pt_clust_5="13000.00000" pt_clust_6="13000.00000" pt_clust_7="13000.00000" pt_clust_8="13000.00000" pt_clust_9="27.77559"></scales>
<clustering>
<clus scale="   27.776">  1  9  2 -1</clus>
<clus scale="   90.597">  7  8 -1 -1</clus>
<clus scale="   91.986">  2  7  1 -1</clus>
<clus scale="   92.191">  5  6 -1 -1</clus>
<clus scale="   27.776">  1  5  2 -1</clus>
</clustering>
</event>
<event>
 9    1  0.6202448E-006  0.2012557E+03  0.7546771E-02  0.1178436E+00
         -1   -1    0    0    0  501 -0.00000000000E+00  0.00000000000E+00  0.73666978423E+02  0.73666978423E+02  0.00000000000E+00 0.  1.
          1   -1    0    0  502    0  0.00000000000E+00 -0.00000000000E+00 -0.10625594315E+04  0.10625594315E+04  0.00000000000E+00 0. -1.
         23    2    1    2    0    0 -0.16646566291E+03 -0.25874635534E+02 -0.43597127471E+03  0.47652148639E+03  0.92851822450E+02 0.  0.
         23    2    1    2    0    0 -0.16591733771E+02  0.26488505246E+02 -0.42378902559E+03  0.43568371874E+03  0.96157360758E+02 0.  0.
        -11    1    3    3    0    0 -0.10879958846E+03  0.14409167003E+02 -0.17785150197E+03  0.20898835206E+03  0.00000000000E+00 0.  1.
         11    1    3    3    0    0 -0.57666074447E+02 -0.40283802537E+02 -0.25811977274E+03  0.26753313433E+03  0.00000000000E+00 0. -1.
        -13    1    4    4    0    0  0.38948313425E+02  0.20374750059E+02 -0.15293850802E+03  0.15912978600E+03  0.00000000000E+00 0.  1.
         13    1    4    4    0    0 -0.55540047196E+02  0.61137551861E+01 -0.27085051757E+03  0.27655393274E+03  0.00000000000E+00 0. -1.
         21    1    1    2  502  501  0.18305739668E+03 -0.61386971175E+00 -0.12913215279E+03  0.22402120480E+03  0.00000000000E+00 0.  1.
<scales pt_clust_5="13000.00000" pt_clust_6="13000.00000" pt_clust_7="13000.00000" pt_clust_8="13000.00000" pt_clust_9="178.55647"></scales>
<clustering>
<clus scale="   92.852">  5  6 -1 -1</clus>
<clus scale="   96.157">  7  8 -1 -1</clus>
<clus scale="  101.110">  2  7  1 -1</clus>
<clus scale="  178.556">  1  9  2 -1</clus>
<clus scale="  101.110">  2  5  1 -1</clus>
</clustering>
</event>
<event>
 9    1  0.6202448E-006  0.1628044E+03  0.7546771E-02  0.1207015E+00
         -1   -1    0    0    0  501 -0.00000000000E+00  0.00000000000E+00  0.11583142317E+03  0.11583142317E+03  0.00000000000E+00 0.  1.
          1   -1    0    0  502    0  0.00000000000E+00 -0.00000000000E+00 -0.37400023536E+03  0.37400023536E+03  0.00000000000E+00 0. -1.
         23    2    1    2    0    0  0.12423368829E+02  0.46699552408E+02 -0.31086799079E+02  0.10650952385E+03  0.89681108969E+02 0.  0.
         23    2    1    2    0    0 -0.14197392031E+03 -0.30485220175E+02 -0.91644488394E+02  0.19520096878E+03  0.92837294567E+02 0.  0.
        -11    1    4    4    0    0 -0.68874690479E+02 -0.28055931750E+02 -0.96579274092E+02  0.12189509621E+03  0.00000000000E+00 0. -1.
         11    1    4    4    0    0 -0.73099229828E+02 -0.24292884256E+01  0.49347856982E+01  0.73305872573E+02  0.00000000000E+00 0.  1.
        -11    1    3    3    0    0 -0.38853641564E+02  0.21423727918E+02 -0.93154071151E+01  0.45336060597E+02  0.00000000000E+00 0.  1.
         11    1    3    3    0    0  0.51277010393E+02  0.25275824490E+02 -0.21771391964E+02  0.61173463254E+02  0.00000000000E+00 0. -1.
         21    1    1    2  502  501  0.12955055148E+03 -0.16214332233E+02 -0.13543752471E+03  0.18812116590E+03  0.00000000000E+00 0. -1.
<scales pt_clust_5="13000.00000" pt_clust_6="13000.00000" pt_clust_7="13000.00000" pt_clust_8="13000.00000" pt_clust_9="133.74049"></scales>
<clustering>
<clus scale="   89.681">  7  8 -1 -1</clus>
<clus scale="   92.837">  5  6 -1 -1</clus>
<clus scale="  101.872">  1  7  2 -1</clus>
<clus scale="  133.740">  2  9  1 -1</clus>
<clus scale="  133.740">  2  5  1 -1</clus>
</clustering>
</event>
<event>
 9    1  0.6202448E-006  0.1456805E+03  0.7546771E-02  0.1226644E+00
         -2   -1    0    0    0  501 -0.00000000000E+00  0.00000000000E+00  0.18277512125E+03  0.18277512125E+03  0.00000000000E+00 0.  1.
          2   -1    0    0  502    0  0.00000000000E+00 -0.00000000000E+00 -0.30124343941E+03  0.30124343941E+03  0.00000000000E+00 0. -1.
         23    2    1    2    0    0  0.97864046748E+02  0.18510232496E+02  0.18715862342E+02  0.13627185292E+03  0.91102876148E+02 0.  0.
         23    2    1    2    0    0  0.25613167255E+02 -0.10594104859E+02 -0.19097267789E+03  0.21283010422E+03  0.89765361716E+02 0.  0.
        -13    1    3    3    0    0  0.78141814143E+02  0.33589370424E+02  0.48171734357E+02  0.97749193930E+02  0.00000000000E+00 0.  1.
         13    1    3    3    0    0  0.19722232606E+02 -0.15079137928E+02 -0.29455872015E+02  0.38522658991E+02  0.00000000000E+00 0. -1.
        -13    1    4    4    0    0  0.47011674771E+02  0.18458944303E+02 -0.68201035624E+02  0.84865843834E+02  0.00000000000E+00 0.  1.
         13    1    4    4    0    0 -0.21398507515E+02 -0.29053049162E+02 -0.12277164227E+03  0.12796426038E+03  0.00000000000E+00 0. -1.
         21    1    1    2  502  501 -0.12347721400E+03 -0.79161276369E+01  0.53788497389E+02  0.13491660352E+03  0.00000000000E+00 0.  1.
<scales pt_clust_5="13000.00000" pt_clust_6="13000.00000" pt_clust_7="13000.00000" pt_clust_8="13000.00000" pt_clust_9="113.67975"></scales>
<clustering>
<clus scale="   89.765">  7  8 -1 -1</clus>
<clus scale="   91.103">  5  6 -1 -1</clus>
<clus scale="   93.947">  2  7  1 -1</clus>
<clus scale="  113.680">  1  9  2 -1</clus>
<clus scale="   93.947">  2  5  1 -1</clus>
</clustering>
</event>
<event>
 9    1  0.6202448E-006  0.9756212E+02  0.7546771E-02  0.1285658E+00
          1   -1    0    0  502    0  0.00000000000E+00  0.00000000000E+00  0.84073814096E+02  0.84073814096E+02  0.00000000000E+00 0. -1.
         -1   -1    0    0    0  501 -0.00000000000E+00 -0.00000000000E+00 -0.22675000517E+03  0.22675000517E+03  0.00000000000E+00 0.  1.
         23    2    1    2    0    0 -0.14884191765E+02 -0.46768020568E+02 -0.13705641686E+03  0.17147328781E+03  0.90608168059E+02 0.  0.
         23    2    1    2    0    0  0.92117088535E+01 -0.54087453367E-02 -0.10550725247E+02  0.91977068098E+02  0.90904387371E+02 0.  0.
        -11    1    4    4    0    0 -0.15000200900E+02  0.35193043927E+02  0.16228349007E+02  0.41556174985E+02  0.00000000000E+00 0. -1.
         11    1    4    4    0    0  0.24211909754E+02 -0.35198452672E+02 -0.26779074254E+02  0.50420893113E+02  0.00000000000E+00 0.  1.
        -11    1    3    3    0    0 -0.10404860731E+02 -0.73979165351E+02 -0.10889425972E+03  0.13205732783E+03  0.00000000000E+00 0.  1.
         11    1    3    3    0    0 -0.44793310344E+01  0.27211144783E+02 -0.28162157138E+02  0.39415959986E+02  0.00000000000E+00 0. -1.
         21    1    1    2  502  501  0.56724829118E+01  0.46773429313E+02  0.49309510308E+01  0.47373463354E+02  0.00000000000E+00 0.  1.
<scales pt_clust_5="13000.00000" pt_clust_6="13000.00000" pt_clust_7="13000.00000" pt_clust_8="13000.00000" pt_clust_9="47.11614"></scales>
<clustering>
<clus scale="   47.116">  1  9  2 -1</clus>
<clus scale="   90.608">  7  8 -1 -1</clus>
<clus scale="   90.904">  5  6 -1 -1</clus>
<clus scale="   97.286">  2  7  1 -1</clus>
<clus scale="   47.116">  1  5  2 -1</clus>
</clustering>
</event>
<event>
 9    1  0.6202448E-006  0.9819208E+02  0.7546771E-02  0.1284193E+00
          1   -1    0    0  502    0  0.00000000000E+00  0.00000000000E+00  0.61639786038E+02  0.61639786038E+02  0.00000000000E+00 0. -1.
         -1   -1    0    0    0  501 -0.00000000000E+00 -0.00000000000E+00 -0.29946963196E+03  0.29946963196E+03  0.00000000000E+00 0.  1.
         23    2    1    2    0    0  0.76603988816E+01  0.20491219848E+02 -0.14609591318E+03  0.17361509032E+03  0.91211906770E+02 0.  0.
         23    2    1    2    0    0 -0.87651770820E+01 -0.66880972955E+02 -0.82434446100E+02  0.14016875130E+03  0.91115026559E+02 0.  0.
        -13    1    4    4    0    0 -0.26648691071E+02 -0.84152741538E+02 -0.67941126727E+02  0.11139045446E+03  0.00000000000E+00 0. -1.
         13    1    4    4    0    0  0.17883513989E+02  0.17271768583E+02 -0.14493319373E+02  0.28778296840E+02  0.00000000000E+00 0.  1.
        -13    1    3    3    0    0 -0.30567336225E+02  0.92019780952E+01 -0.12640014778E+02  0.34333779552E+02  0.00000000000E+00 0. -1.
         13    1    3    3    0    0  0.38227735106E+02  0.11289241753E+02 -0.13345589840E+03  0.13928131076E+03  0.00000000000E+00 0.  1.
         21    1    1    2  502  501  0.11047782003E+01  0.46389753107E+02 -0.92994866475E+01  0.47325576384E+02  0.00000000000E+00 0.  1.
<scales pt_clust_5="13000.00000" pt_clust_6="13000.00000" pt_clust_7="13000.00000" pt_clust_8="13000.00000" pt_clust_9="46.40291"></scales>
<clustering>
<clus scale="   46.403">  1  9  2 -1</clus>
<clus scale="   91.115">  5  6 -1 -1</clus>
<clus scale="   91.212">  7  8 -1 -1</clus>
<clus scale="   98.102">  1  5  2 -1</clus>
<clus scale="   46.403">  1  5  2 -1</clus>
</clustering>
</event>
<event>
 9    1  0.6202448E-006  0.1141799E+03  0.7546771E-02  0.1254304E+00
         -1   -1    0    0    0  501 -0.00000000000E+00  0.00000000000E+00  0.12016074965E+03  0.12016074965E+03  0.00000000000E+00 0.  1.
          1   -1    0    0  502    0  0.00000000000E+00 -0.00000000000E+00 -0.24193025602E+03  0.24193025602E+03  0.00000000000E+00 0. -1.
         23    2    1    2    0    0 -0.16284050675E+02 -0.28537610807E+02  0.39173844125E+02  0.10279729348E+03  0.89180311422E+02 0.  0.
         23    2    1    2    0    0 -0.15329124602E+02  0.76836565915E+02 -0.16090255392E+03  0.20156864329E+03  0.92743981895E+02 0.  0.
        -11    1    3    3    0    0  0.23697468855E+02  0.28235961179E+01  0.45709824274E+02  0.51564820958E+02  0.00000000000E+00 0.  1.
         11    1    3    3    0    0 -0.39981519530E+02 -0.31361206925E+02 -0.65359801491E+01  0.51232472517E+02  0.00000000000E+00 0. -1.
        -13    1    4    4    0    0  0.11262914880E+02  0.70627449385E+02 -0.49776506909E+02  0.87136619732E+02  0.00000000000E+00 0. -1.
         13    1    4    4    0    0 -0.26592039482E+02  0.62091165301E+01 -0.11112604701E+03  0.11443202356E+03  0.00000000000E+00 0.  1.
         21    1    1    2  502  501  0.31613175277E+02 -0.48298955107E+02 -0.40796579026E-01  0.57725068904E+02  0.00000000000E+00 0. -1.
<scales pt_clust_5="13000.00000" pt_clust_6="13000.00000" pt_clust_7="13000.00000" pt_clust_8="13000.00000" pt_clust_9="57.72505"></scales>
<clustering>
<clus scale="   57.725">  1  9  2 -1</clus>
<clus scale="   89.180">  5  6 -1 -1</clus>
<clus scale="   92.744">  7  8 -1 -1</clus>
<clus scale="  111.305">  1  5  2 -1</clus>
<clus scale="  114.180">  2  5  1 -1</clus>
</clustering>
</event>
<event>
 9    1  0.6202448E-006  0.1015698E+03  0.7546771E-02  0.1277467E+00
         -1   -1    0    0    0  501 -0.00000000000E+00  0.00000000000E+00  0.65095514968E+03  0.65095514968E+03  0.00000000000E+00 0.  1.
          1   -1    0    0  502    0  0.00000000000E+00 -0.00000000000E+00 -0.37622927485E+02  0.37622927485E+02  0.00000000000E+00 0. -1.
         23    2    1    2    0    0  0.68062730055E+01 -0.88735371099E+02  0.19287819062E+03  0.23052448779E+03  0.89550274262E+02 0.  0.
         23    2    1    2    0    0 -0.20222503032E+02  0.24094269063E+01  0.18594185395E+03  0.20779746992E+03  0.90502267850E+02 0.  0.
        -11    1    4    4    0    0  0.29792647749E+02 -0.60864712309E+01  0.26017838941E+02  0.40019681846E+02  0.00000000000E+00 0. -1.
         11    1    4    4    0    0 -0.50015150780E+02  0.84958981372E+01  0.15992401501E+03  0.16777778807E+03  0.00000000000E+00 0.  1.
        -13    1    3    3    0    0 -0.17140647654E+02  0.11422880414E+02  0.16965971804E+02  0.26685730236E+02  0.00000000000E+00 0.  1.
         13    1    3    3    0    0  0.23946920659E+02 -0.10015825151E+03  0.17591221881E+03  0.20383875756E+03  0.00000000000E+00 0. -1.
         21    1    1    2  502  501  0.13416230026E+02  0.86325944193E+02  0.23451217762E+03  0.25025611945E+03  0.00000000000E+00 0.  1.
<scales pt_clust_5="13000.00000" pt_clust_6="13000.00000" pt_clust_7="13000.00000" pt_clust_8="13000.00000" pt_clust_9="87.36226"></scales>
<clustering>
<clus scale="   87.362">  1  9  2 -1</clus>
<clus scale="   89.550">  7  8 -1 -1</clus>
<clus scale="   90.502">  5  6 -1 -1</clus>
<clus scale="  100.722">  1  7  2 -1</clus>
<clus scale="  101.570">  2  5  1 -1</clus>
</clustering>
</event>
<event>
 9    1  0.6202448E-006  0.9743614E+02  0.7546771E-02  0.1285977E+00
         -3   -1    0    0    0  501 -0.00000000000E+00  0.00000000000E+00  0.34661094493E+02  0.34661094493E+02  0.00000000000E+00 0.  1.
          3   -1    0    0  502    0  0.00000000000E+00 -0.00000000000E+00 -0.53477980116E+03  0.53477980116E+03  0.00000000000E+00 0. -1.
         23    2    1    2    0    0 -0.27125110106E+02 -0.24334532309E+02 -0.71618970078E+02  0.12184243074E+03  0.91587990434E+02 0.  0.
         23    2    1    2    0    0 -0.10687594117E+01  0.32961128099E+02 -0.28347491944E+03  0.29960687725E+03  0.91206758120E+02 0.  0.
        -11    1    4    4    0    0  0.25386930695E+02 -0.21441728598E+02 -0.66265470813E+02  0.74130672447E+02  0.00000000000E+00 0.  1.
         11    1    4    4    0    0 -0.26455690107E+02  0.54402856697E+02 -0.21720944863E+03  0.22547620480E+03  0.00000000000E+00 0. -1.
        -11    1    3    3    0    0 -0.52149797957E+02 -0.24449827005E+02 -0.14369244500E+02  0.59362198873E+02  0.00000000000E+00 0.  1.
         11    1    3    3    0    0  0.25024687851E+02  0.11529469636E+00 -0.57249725578E+02  0.62480231863E+02  0.00000000000E+00 0. -1.
         21    1    1    2  502  501  0.28193869518E+02 -0.86265957901E+01 -0.14502481715E+03  0.14799158767E+03  0.00000000000E+00 0. -1.
<scales pt_clust_5="13000.00000" pt_clust_6="13000.00000" pt_clust_7="13000.00000" pt_clust_8="13000.00000" pt_clust_9="29.48410"></scales>
<clustering>
<clus scale="   29.484">  2  9  1 -1</clus>
<clus scale="   91.207">  5  6 -1 -1</clus>
<clus scale="   91.588">  7  8 -1 -1</clus>
<clus scale="   97.078">  2  5  1 -1</clus>
<clus scale="   29.484">  2  5  1 -1</clus>
</clustering>
</event>
<event>
 9    1  0.6202448E-006  0.1838615E+03  0.7546771E-02  0.1182963E+00
          1   -1    0    0  502    0  0.00000000000E+00  0.00000000000E+00  0.43603519289E+03  0.43603519289E+03  0.00000000000E+00 0. -1.
         -1   -1    0    0    0  501 -0.00000000000E+00 -0.00000000000E+00 -0.15418648057E+03  0.15418648057E+03  0.00000000000E+00 0.  1.
         23    2    1    2    0    0 -0.73667233441E+02 -0.24882258410E+02  0.54264605513E+02  0.13150797242E+03  0.91124702090E+02 0.  0.
         23    2    1    2    0    0 -0.90710293543E+02 -0.10735498615E+03  0.17386466860E+03  0.24101565726E+03  0.90034291529E+02 0.  0.
        -11    1    3    3    0    0 -0.25219631609E+02  0.34318096351E+02  0.26326892443E+02  0.50068621125E+02  0.00000000000E+00 0.  1.
         11    1    3    3    0    0 -0.48447601832E+02 -0.59200354761E+02  0.27937713070E+02  0.81439351291E+02  0.00000000000E+00 0. -1.
        -13    1    4    4    0    0 -0.72205077946E+02 -0.27381301388E+02  0.48573581417E+02  0.91228842799E+02  0.00000000000E+00 0.  1.
         13    1    4    4    0    0 -0.18505215598E+02 -0.79973684761E+02  0.12529108718E+03  0.14978681446E+03  0.00000000000E+00 0. -1.
         21    1    1    2  502  501  0.16437752698E+03  0.13223724456E+03  0.53719438215E+02  0.21769804379E+03  0.00000000000E+00 0.  1.
<scales pt_clust_5="13000.00000" pt_clust_6="13000.00000" pt_clust_7="13000.00000" pt_clust_8="13000.00000" pt_clust_9="160.30869"></scales>
<clustering>
<clus scale="   90.034">  7  8 -1 -1</clus>
<clus scale="   91.125">  5  6 -1 -1</clus>
<clus scale="  119.790">  2  5  1 -1</clus>
<clus scale="  160.309">  2  9  1 -1</clus>
<clus scale="  183.861">  1  5  2 -1</clus>
</clustering>
</event>
<event>
 9    1  0.6202448E-006  0.1545437E+03  0.7546771E-02  0.1213301E+00
          3   -1    0    0  502    0  0.00000000000E+00  0.00000000000E+00  0.15811356091E+03  0.15811356091E+03  0.00000000000E+00 0. -1.
         -3   -1    0    0    0  501 -0.00000000000E+00 -0.00000000000E+00 -0.38874310920E+03  0.38874310920E+03  0.00000000000E+00 0.  1.
         23    2    1    2    0    0 -0.60181752093E+01 -0.49883166013E+02 -0.24311653225E+03  0.26448186869E+03  0.91216566096E+02 0.  0.
         23    2    1    2    0    0  0.12411339345E+03  0.51333328992E+02  0.61139026561E+01  0.16409885413E+03  0.94084052962E+02 0.  0.
        -13    1    4    4    0    0 -0.37560972717E+01  0.20005717866E+02 -0.21473844073E+02  0.29588223896E+02  0.00000000000E+00 0.  1.
         13    1    4    4    0    0  0.12786949072E+03  0.31327611126E+02  0.27587746729E+02  0.13451063023E+03  0.00000000000E+00 0. -1.
        -13    1    3    3    0    0  0.10667211415E+02  0.25121063426E+02 -0.62153045680E+02  0.67881207372E+02  0.00000000000E+00 0.  1.
         13    1    3    3    0    0 -0.16685386624E+02 -0.75004229440E+02 -0.18096348657E+03  0.19660066132E+03  0.00000000000E+00 0. -1.
         21    1    1    2  502  501 -0.11809521824E+03 -0.14501629791E+01  0.63730813006E+01  0.11827594729E+03  0.00000000000E+00 0.  1.
<scales pt_clust_5="13000.00000" pt_clust_6="13000.00000" pt_clust_7="13000.00000" pt_clust_8="13000.00000" pt_clust_9="122.60484"></scales>
<clustering>
<clus scale="   91.217">  7  8 -1 -1</clus>
<clus scale="   94.084">  5  6 -1 -1</clus>
<clus scale="  104.139">  2  7  1 -1</clus>
<clus scale="  122.605">  1  9  2 -1</clus>
<clus scale="  122.605">  1  5  2 -1</clus>
</clustering>
</event>
<event>
 9    1  0.6202448E-006  0.9490724E+02  0.7546771E-02  0.1295973E+00
         -1   -1    0    0    0  501 -0.00000000000E+00  0.00000000000E+00  0.59681920384E+02  0.59681920384E+02  0.00000000000E+00 0.  1.
          1   -1    0    0  502    0  0.00000000000E+00 -0.00000000000E+00 -0.27002837831E+03  0.27002837831E+03  0.00000000000E+00 0. -1.
         23    2    1    2    0    0  0.14744910320E+02  0.46334239526E+02 -0.69345252245E+02  0.12586441989E+03  0.93106466226E+02 0.  0.
         23    2    1    2    0    0 -0.32598327286E+01 -0.43645735836E+01 -0.13528938830E+03  0.15995983632E+03  0.85171912255E+02 0.  0.
        -11    1    4    4    0    0  0.18646120367E+01 -0.44254202239E+02 -0.59695702841E+02  0.74333627192E+02  0.00000000000E+00 0.  1.
         11    1    4    4    0    0 -0.51244447652E+01  0.39889628656E+02 -0.75593685460E+02  0.85626209129E+02  0.00000000000E+00 0. -1.
        -13    1    3    3    0    0  0.51230271686E+02  0.17617783158E+02 -0.19081051455E+02  0.57437039836E+02  0.00000000000E+00 0. -1.
         13    1    3    3    0    0 -0.36485361366E+02  0.28716456368E+02 -0.50264200790E+02  0.68427380057E+02  0.00000000000E+00 0.  1.
         21    1    1    2  502  501 -0.11485077592E+02 -0.41969665943E+02 -0.57118173782E+01  0.43886042478E+02  0.00000000000E+00 0.  1.
<scales pt_clust_5="13000.00000" pt_clust_6="13000.00000" pt_clust_7="13000.00000" pt_clust_8="13000.00000" pt_clust_9="43.51276"></scales>
<clustering>
<clus scale="   43.513">  1  9  2 -1</clus>
<clus scale="   85.172">  5  6 -1 -1</clus>
<clus scale="   87.137">  2  5  1 -1</clus>
<clus scale="   93.106">  7  8 -1 -1</clus>
<clus scale="   87.137">  2  5  1 -1</clus>
</clustering>
</event>
<event>
 9    1  0.6202448E-006  0.2273506E+03  0.7546771E-02  0.1128695E+00
         -1   -1    0    0    0  501 -0.00000000000E+00  0.00000000000E+00  0.47736285046E+03  0.47736285046E+03  0.00000000000E+00 0.  1.
          1   -1    0    0  502    0  0.00000000000E+00 -0.00000000000E+00 -0.31141618447E+03  0.31141618447E+03  0.00000000000E+00 0. -1.
         23    2    1    2    0    0 -0.16314378330E+03  0.18205781005E+03  0.29453719481E+03  0.39357074742E+03  0.91568738506E+02 0.  0.
         23    2    1    2    0    0  0.13069276225E+03 -0.92495196076E+02  0.52485795055E+02  0.19060338615E+03  0.89100688716E+02 0.  0.
        -11    1    4    4    0    0  0.63987253495E+02 -0.57388758659E+02  0.72683921113E+02  0.11256460642E+03  0.00000000000E+00 0.  1.
         11    1    4    4    0    0  0.66705508750E+02 -0.35106437417E+02 -0.20198126058E+02  0.78038779731E+02  0.00000000000E+00 0. -1.
        -11    1    3    3    0    0 -0.10228033368E+03  0.46407567709E+02  0.13067004123E+03  0.17230667042E+03  0.00000000000E+00 0.  1.
         11    1    3    3    0    0 -0.60863449620E+02  0.13565024235E+03  0.16386715358E+03  0.22126407700E+03  0.00000000000E+00 0. -1.
         21    1    1    2  502  501  0.32451021054E+02 -0.89562613979E+02 -0.18107632387E+03  0.20460490135E+03  0.00000000000E+00 0. -1.
<scales pt_clust_5="13000.00000" pt_clust_6="13000.00000" pt_clust_7="13000.00000" pt_clust_8="13000.00000" pt_clust_9="95.26033"></scales>
<clustering>
<clus scale="   89.101">  5  6 -1 -1</clus>
<clus scale="   91.569">  7  8 -1 -1</clus>
<clus scale="   95.260">  2  9  1 -1</clus>
<clus scale="  226.368">  2  5  1 -1</clus>
<clus scale="   95.260">  2  5  1 -1</clus>
</clustering>
</event>
<event>
 9    1  0.6202448E-006  0.1267064E+03  0.7546771E-02  0.1232923E+00
         -2   -1    0    0    0  501 -0.00000000000E+00  0.00000000000E+00  0.27788659372E+03  0.27788659372E+03  0.00000000000E+00 0.  1.
          2   -1    0    0  502    0  0.00000000000E+00 -0.00000000000E+00 -0.75844643146E+02  0.75844643146E+02  0.00000000000E+00 0. -1.
         23    2    1    2    0    0  0.39420883416E+02  0.59931105664E+02  0.15085290171E+03  0.19035042241E+03  0.91273993455E+02 0.  0.
         23    2    1    2    0    0 -0.54329709042E+02 -0.75733315591E+02  0.34930005949E+02  0.13624524008E+03  0.93034443915E+02 0.  0.
        -13    1    3    3    0    0  0.68263377909E+02  0.34255570383E+02  0.11207689728E+03  0.13562655997E+03  0.00000000000E+00 0.  1.
         13    1    3    3    0    0 -0.28842494493E+02  0.25675535280E+02  0.38776004433E+02  0.54723862439E+02  0.00000000000E+00 0. -1.
        -13    1    4    4    0    0 -0.44379968294E+02  0.59803582425E+01 -0.44343474783E+01  0.45000107867E+02  0.00000000000E+00 0. -1.
         13    1    4    4    0    0 -0.99497407475E+01 -0.81713673834E+02  0.39364353427E+02  0.91245132216E+02  0.00000000000E+00 0.  1.
         21    1    1    2  502  501  0.14908825626E+02  0.15802209928E+02  0.16259042913E+02  0.27135574373E+02  0.00000000000E+00 0.  1.
<scales pt_clust_5="13000.00000" pt_clust_6="13000.00000" pt_clust_7="13000.00000" pt_clust_8="13000.00000" pt_clust_9="21.72517"></scales>
<clustering>
<clus scale="   21.725">  1  9  2 -1</clus>
<clus scale="   91.274">  5  6 -1 -1</clus>
<clus scale="   93.034">  7  8 -1 -1</clus>
<clus scale="  125.419">  1  5  2 -1</clus>
<clus scale="  126.706">  2  5  1 -1</clus>
</clustering>
</event>
<event>
 9    1  0.6202448E-006  0.1197697E+03  0.7546771E-02  0.1246179E+00
         -2   -1    0    0    0  501 -0.00000000000E+00  0.00000000000E+00  0.24990509710E+03  0.24990509710E+03  0.00000000000E+00 0.  1.
          2   -1    0    0  502    0  0.00000000000E+00 -0.00000000000E+00 -0.27129532833E+03  0.27129532833E+03  0.00000000000E+00 0. -1.
         23    2    1    2    0    0 -0.67345054872E+02 -0.54290355412E+02  0.13278914660E+03  0.18262119623E+03  0.90745494368E+02 0.  0.
         23    2    1    2    0    0 -0.26723018833E+02  0.67005796874E+02  0.34883858209E+02  0.12702452667E+03  0.98561910807E+02 0.  0.
        -11    1    4    4    0    0 -0.28081976236E+02 -0.19693952499E+02  0.22383340771E+01  0.34372362354E+02  0.00000000000E+00 0. -1.
         11    1    4    4    0    0  0.13589574033E+01  0.86699749373E+02  0.32645524132E+02  0.92652164316E+02  0.00000000000E+00 0.  1.
        -13    1    3    3    0    0 -0.25438361205E+02 -0.56706521627E+00 -0.76136215079E+01  0.26559348942E+02  0.00000000000E+00 0. -1.
         13    1    3    3    0    0 -0.41906693667E+02 -0.53723290196E+02  0.14040276811E+03  0.15606184728E+03  0.00000000000E+00 0.  1.
         21    1    1    2  502  501  0.94068073705E+02 -0.12715441462E+02 -0.18906323605E+03  0.21155470254E+03  0.00000000000E+00 0. -1.
<scales pt_clust_5="13000.00000" pt_clust_6="13000.00000" pt_clust_7="13000.00000" pt_clust_8="13000.00000" pt_clust_9="94.92357"></scales>
<clustering>
<clus scale="   90.745">  7  8 -1 -1</clus>
<clus scale="   94.924">  2  9  1 -1</clus>
<clus scale="   98.562">  5  6 -1 -1</clus>
<clus scale="  113.424">  1  7  2 -1</clus>
<clus scale="   94.924">  2  5  1 -1</clus>
</clustering>
</event>
<event>
 9    1  0.6202448E-006  0.2118727E+03  0.7546771E-02  0.1172229E+00
          2   -1    0    0  502    0  0.00000000000E+00  0.00000000000E+00  0.14233037036E+04  0.14233037036E+04  0.00000000000E+00 0. -1.
         -2   -1    0    0    0  501 -0.00000000000E+00 -0.00000000000E+00 -0.68025260141E+02  0.68025260141E+02  0.00000000000E+00 0.  1.
         23    2    1    2    0    0  0.17270337337E+03 -0.14085531705E+03  0.96799704836E+03  0.99719774868E+03  0.87854361438E+02 0.  0.
         23    2    1    2    0    0 -0.17542513609E+02  0.36922270782E+02  0.22729818237E+03  0.24822147783E+03  0.90985957623E+02 0.  0.
        -11    1    3    3    0    0  0.16660104869E+03 -0.95457592418E+02  0.72980268118E+03  0.75463899636E+03  0.00000000000E+00 0. -1.
         11    1    3    3    0    0  0.61023246720E+01 -0.45397724634E+02  0.23819436718E+03  0.24255875232E+03  0.00000000000E+00 0.  1.
        -13    1    4    4    0    0  0.27763865788E+01  0.63514082217E+02  0.17439678088E+03  0.18562323169E+03  0.00000000000E+00 0.  1.
         13    1    4    4    0    0 -0.20318900188E+02 -0.26591811434E+02  0.52901401496E+02  0.62598246145E+02  0.00000000000E+00 0. -1.
         21    1    1    2  502  501 -0.15516085976E+03  0.10393304627E+03  0.15998321272E+03  0.24590973722E+03  0.00000000000E+00 0.  1.
<scales pt_clust_5="13000.00000" pt_clust_6="13000.00000" pt_clust_7="13000.00000" pt_clust_8="13000.00000" pt_clust_9="192.79952"></scales>
<clustering>
<clus scale="   87.854">  5  6 -1 -1</clus>
<clus scale="   90.986">  7  8 -1 -1</clus>
<clus scale="   99.747">  1  7  2 -1</clus>
<clus scale="  192.800">  2  9  1 -1</clus>
<clus scale="   99.747">  1  5  2 -1</clus>
</clustering>
</event>
<event>
 9    1  0.6202448E-006  0.1481632E+03  0.7546771E-02  0.1221151E+00
          1   -1    0    0  502    0  0.00000000000E+00  0.00000000000E+00  0.39874200505E+02  0.39874200505E+02  0.00000000000E+00 0. -1.
         -1   -1    0    0    0  501 -0.00000000000E+00 -0.00000000000E+00 -0.11012422557E+04  0.11012422557E+04  0.00000000000E+00 0.  1.
         23    2    1    2    0    0  0.19625124710E+01 -0.11688798092E+03 -0.49857683196E+03  0.51982831953E+03  0.89308302400E+02 0.  0.
         23    2    1    2    0    0 -0.43961756017E+02  0.16926939061E+01 -0.96237729580E+02  0.13889197889E+03  0.89965437803E+02 0.  0.
        -11    1    3    3    0    0 -0.33640875593E+02 -0.59170762718E+02 -0.15006389920E+03  0.16477882605E+03  0.00000000000E+00 0. -1.
         11    1    3    3    0    0  0.35603388064E+02 -0.57717218207E+02 -0.34851293276E+03  0.35504949348E+03  0.00000000000E+00 0.  1.
        -11    1    4    4    0    0  0.62947998407E+01  0.22005806185E+02 -0.78635959994E+02  0.81899293129E+02  0.00000000000E+00 0.  1.
         11    1    4    4    0    0 -0.50256555858E+02 -0.20313112279E+02 -0.17601769586E+02  0.56992685756E+02  0.00000000000E+00 0. -1.
         21    1    1    2  502  501  0.41999243546E+02  0.11519528702E+03 -0.46655349368E+03  0.48239615782E+03  0.00000000000E+00 0.  1.
<scales pt_clust_5="13000.00000" pt_clust_6="13000.00000" pt_clust_7="13000.00000" pt_clust_8="13000.00000" pt_clust_9="118.22168"></scales>
<clustering>
<clus scale="   89.308">  5  6 -1 -1</clus>
<clus scale="   89.965">  7  8 -1 -1</clus>
<clus scale="  100.146">  1  7  2 -1</clus>
<clus scale="  118.222">  2  9  1 -1</clus>
<clus scale="  100.146">  1  5  2 -1</clus>
</clustering>
</event>
<event>
 9    1  0.6202448E-006  0.1278830E+03  0.7546771E-02  0.1250472E+00
         -2   -1    0    0    0  501 -0.00000000000E+00  0.00000000000E+00  0.73283007801E+02  0.73283007801E+02  0.00000000000E+00 0.  1.
          2   -1    0    0  502    0  0.00000000000E+00 -0.00000000000E+00 -0.32942042653E+03  0.32942042653E+03  0.00000000000E+00 0. -1.
         23    2    1    2    0    0  0.29660115051E+02 -0.41863190172E+02 -0.65513277173E+02  0.10771308365E+03  0.68394954396E+02 0.  0.
         23    2    1    2    0    0  0.53739311563E+02 -0.23338692119E+02 -0.52102988096E+02  0.12064913419E+03  0.91699967579E+02 0.  0.
        -11    1    4    4    0    0  0.18311722885E+02  0.24127170235E+02 -0.53414973218E+02  0.61405202568E+02  0.00000000000E+00 0. -1.
         11    1    4    4    0    0  0.35427588678E+02 -0.47465862354E+02  0.13119851215E+01  0.59243931618E+02  0.00000000000E+00 0.  1.
        -13    1    3    3    0    0  0.50993419806E+02 -0.21209706564E+02 -0.48438874340E+02  0.73460908403E+02  0.00000000000E+00 0. -1.
         13    1    3    3    0    0 -0.21333304755E+02 -0.20653483608E+02 -0.17074402833E+02  0.34252175245E+02  0.00000000000E+00 0.  1.
         21    1    1    2  502  501 -0.83399426614E+02  0.65201882292E+02 -0.13852115346E+03  0.17434121650E+03  0.00000000000E+00 0.  1.
<scales pt_clust_5="13000.00000" pt_clust_6="13000.00000" pt_clust_7="13000.00000" pt_clust_8="13000.00000" pt_clust_9="89.13579"></scales>
<clustering>
<clus scale="   68.395">  7  8 -1 -1</clus>
<clus scale="   85.499">  1  7  2 -1</clus>
<clus scale="   89.136">  2  9  1 -1</clus>
<clus scale="   91.700">  5  6 -1 -1</clus>
<clus scale="   89.136">  2  5  1 -1</clus>
</clustering>
</event>
<event>
 9    1  0.6202448E-006  0.1382133E+03  0.7546771E-02  0.1229345E+00
          1   -1    0    0  502    0  0.00000000000E+00  0.00000000000E+00  0.25249246843E+03  0.25249246843E+03  0.00000000000E+00 0. -1.
         -1   -1    0    0    0  501 -0.00000000000E+00 -0.00000000000E+00 -0.13307403702E+03  0.13307403702E+03  0.00000000000E+00 0.  1.
         23    2    1    2    0    0  0.29090798166E+02 -0.63230979322E+02  0.95650466228E+02  0.14744346823E+03  0.88012120465E+02 0.  0.
         23    2    1    2    0    0  0.14160344487E+02 -0.50881047692E+02  0.46578335253E+02  0.11397583012E+03  0.89618927502E+02 0.  0.
        -13    1    3    3    0    0  0.55783889362E+02 -0.56562063826E+02  0.88681619641E+02  0.11906107273E+03  0.00000000000E+00 0. -1.
         13    1    3    3    0    0 -0.26693091196E+02 -0.66689154956E+01  0.69688465870E+01  0.28382395499E+02  0.00000000000E+00 0.  1.
        -13    1    4    4    0    0 -0.22423790421E+02  0.11260599289E+02  0.31556753740E+02  0.40316946559E+02  0.00000000000E+00 0.  1.
         13    1    4    4    0    0  0.36584134909E+02 -0.62141646981E+02  0.15021581513E+02  0.73658883562E+02  0.00000000000E+00 0. -1.
         21    1    1    2  502  501 -0.43251142654E+02  0.11411202701E+03 -0.22810370074E+02  0.12414720711E+03  0.00000000000E+00 0.  1.
<scales pt_clust_5="13000.00000" pt_clust_6="13000.00000" pt_clust_7="13000.00000" pt_clust_8="13000.00000" pt_clust_9="106.56818"></scales>
<clustering>
<clus scale="   88.012">  5  6 -1 -1</clus>
<clus scale="   89.619">  7  8 -1 -1</clus>
<clus scale="  104.024">  1  7  2 -1</clus>
<clus scale="  106.568">  2  9  1 -1</clus>
<clus scale="  104.024">  1  5  2 -1</clus>
</clustering>
</event>
<event>
 9    1  0.6202448E-006  0.9729542E+02  0.7546771E-02  0.1291062E+00
          2   -1    0    0  502    0  0.00000000000E+00  0.00000000000E+00  0.34455751531E+03  0.34455751531E+03  0.00000000000E+00 0. -1.
         -2   -1    0    0    0  501 -0.00000000000E+00 -0.00000000000E+00 -0.67121553501E+02  0.67121553501E+02  0.00000000000E+00 0.  1.
         23    2    1    2    0    0  0.40733319521E+02  0.11438550046E+02  0.51460409976E+02  0.10794350104E+03  0.84932808008E+02 0.  0.
         23    2    1    2    0    0  0.28081873005E+02 -0.37882372463E+02  0.57452351008E+02  0.11979297976E+03  0.93946365702E+02 0.  0.
        -11    1    4    4    0    0 -0.20745286023E+02 -0.63061481767E+01 -0.15389147262E+02  0.26588724122E+02  0.00000000000E+00 0.  1.
         11    1    4    4    0    0  0.48827159028E+02 -0.31576224287E+02  0.72841498270E+02  0.93204255638E+02  0.00000000000E+00 0. -1.
        -13    1    3    3    0    0 -0.22823949551E+02  0.38869747865E+01 -0.37039797999E+01  0.23446976616E+02  0.00000000000E+00 0.  1.
         13    1    3    3    0    0  0.63557269072E+02  0.75515752596E+01  0.55164389775E+02  0.84496524426E+02  0.00000000000E+00 0. -1.
         21    1    1    2  502  501 -0.68815192526E+02  0.26443822417E+02  0.16852320082E+03  0.18394258800E+03  0.00000000000E+00 0.  1.
<scales pt_clust_5="13000.00000" pt_clust_6="13000.00000" pt_clust_7="13000.00000" pt_clust_8="13000.00000" pt_clust_9="73.72114"></scales>
<clustering>
<clus scale="   73.721">  1  9  2 -1</clus>
<clus scale="   84.933">  7  8 -1 -1</clus>
<clus scale="   88.623">  2  7  1 -1</clus>
<clus scale="   93.946">  5  6 -1 -1</clus>
<clus scale="   73.721">  1  5  2 -1</clus>
</clustering>
</event>
<event>
 9    1  0.6202448E-006  0.2123310E+03  0.7546771E-02  0.1139762E+00
         -1   -1    0    0    0  501 -0.00000000000E+00  0.00000000000E+00  0.19015183756E+03  0.19015183756E+03  0.00000000000E+00 0.  1.
          1   -1    0    0  502    0  0.00000000000E+00 -0.00000000000E+00 -0.60277879392E+03  0.60277879392E+03  0.00000000000E+00 0. -1.
         23    2    1    2    0    0 -0.14335256293E+02  0.13249925643E+03  0.80959157123E+02  0.18035664745E+03  0.90623300710E+02 0.  0.
         23    2    1    2    0    0  0.99307073063E+02 -0.17984178482E+03 -0.45590290057E+03  0.50825931979E+03  0.90967681499E+02 0.  0.
        -11    1    4    4    0    0  0.64979845306E+02 -0.66395692217E+02 -0.11806812412E+03  0.15023598162E+03  0.00000000000E+00 0.  1.
         11    1    4    4    0    0  0.34327227756E+02 -0.11344609260E+03 -0.33783477645E+03  0.35802333817E+03  0.00000000000E+00 0. -1.
        -13    1    3    3    0    0 -0.37457876939E+02  0.37922990544E+02  0.60931792517E+02  0.80956340677E+02  0.00000000000E+00 0.  1.
         13    1    3    3    0    0  0.23122620646E+02  0.94576265884E+02  0.20027364606E+02  0.99400306776E+02  0.00000000000E+00 0. -1.
         21    1    1    2  502  501 -0.84971816770E+02  0.47342528389E+02 -0.37683212918E+02  0.10431466424E+03  0.00000000000E+00 0.  1.
<scales pt_clust_5="13000.00000" pt_clust_6="13000.00000" pt_clust_7="13000.00000" pt_clust_8="13000.00000" pt_clust_9="97.27037"></scales>
<clustering>
<clus scale="   90.623">  7  8 -1 -1</clus>
<clus scale="   90.968">  5  6 -1 -1</clus>
<clus scale="   97.270">  1  9  2 -1</clus>
<clus scale="  212.184">  1  7  2 -1</clus>
<clus scale="  212.331">  2  5  1 -1</clus>
</clustering>
</event>
<event>
 9    1  0.6202448E-006  0.1019252E+03  0.7546771E-02  0.1278982E+00
         -3   -1    0    0    0  501 -0.00000000000E+00  0.00000000000E+00  0.14177471760E+03  0.14177471760E+03  0.00000000000E+00 0.  1.
          3   -1    0    0  502    0  0.00000000000E+00 -0.00000000000E+00 -0.26557491591E+03  0.26557491591E+03  0.00000000000E+00 0. -1.
         23    2    1    2    0    0  0.63190300773E+02  0.90139492783E+01 -0.69526332046E+01  0.11278609907E+03  0.92725938342E+02 0.  0.
         23    2    1    2    0    0  0.19910269314E+02  0.39520948451E+02 -0.15698181687E+03  0.19029417550E+03  0.98031924446E+02 0.  0.
        -13    1    3    3    0    0 -0.12832572748E+02  0.23333879228E+02 -0.21308347651E+02  0.34105579056E+02  0.00000000000E+00 0. -1.
         13    1    3    3    0    0  0.76022873521E+02 -0.14319929950E+02  0.14355714446E+02  0.78680520013E+02  0.00000000000E+00 0.  1.
        -13    1    4    4    0    0 -0.31672129056E+02  0.22788376670E+02 -0.21923713806E+02  0.44755816351E+02  0.00000000000E+00 0. -1.
         13    1    4    4    0    0  0.51582398370E+02  0.16732571781E+02 -0.13505810307E+03  0.14553835915E+03  0.00000000000E+00 0.  1.
         21    1    1    2  502  501 -0.83100570087E+02 -0.48534897730E+02  0.40134251769E+02  0.10426935893E+03  0.00000000000E+00 0. -1.
<scales pt_clust_5="13000.00000" pt_clust_6="13000.00000" pt_clust_7="13000.00000" pt_clust_8="13000.00000" pt_clust_9="96.23586"></scales>
<clustering>
<clus scale="   92.726">  5  6 -1 -1</clus>
<clus scale="   96.236">  1  9  2 -1</clus>
<clus scale="   96.833">  1  5  2 -1</clus>
<clus scale="   98.032">  7  8 -1 -1</clus>
<clus scale="  101.925">  2  5  1 -1</clus>
</clustering>
</event>
<event>
 9    1  0.6202448E-006  0.1026761E+03  0.7546771E-02  0.1276082E+00
         -1   -1    0    0    0  501 -0.00000000000E+00  0.00000000000E+00  0.13110150776E+03  0.13110150776E+03  0.00000000000E+00 0.  1.
          1   -1    0    0  502    0  0.00000000000E+00 -0.00000000000E+00 -0.18190855174E+03  0.18190855174E+03  0.00000000000E+00 0. -1.
         23    2    1    2    0    0 -0.12741444073E+02 -0.21730716252E+02  0.65509923942E+01  0.95116849368E+02  0.91486234519E+02 0.  0.
         23    2    1    2    0    0 -0.90129314792E+00  0.48320008873E+02 -0.11289933445E+03  0.15482221401E+03  0.94276310087E+02 0.  0.
        -11    1    3    3    0    0  0.40186116756E+01 -0.35464848049E+02  0.41037876610E+02  0.54387608916E+02  0.00000000000E+00 0.  1.
         11    1    3    3    0    0 -0.16760055749E+02  0.13734131796E+02 -0.34486884216E+02  0.40729240452E+02  0.00000000000E+00 0. -1.
        -11    1    4    4    0    0 -0.28180627042E+02 -0.18587718011E+01 -0.88172144671E+02  0.92584717253E+02  0.00000000000E+00 0. -1.
         11    1    4    4    0    0  0.27279333894E+02  0.50178780674E+02 -0.24727189779E+02  0.62237496752E+02  0.00000000000E+00 0.  1.
         21    1    1    2  502  501  0.13642737221E+02 -0.26589292621E+02  0.55541298071E+02  0.63070996126E+02  0.00000000000E+00 0.  1.
<scales pt_clust_5="13000.00000" pt_clust_6="13000.00000" pt_clust_7="13000.00000" pt_clust_8="13000.00000" pt_clust_9="29.88503"></scales>
<clustering>
<clus scale="   29.885">  1  9  2 -1</clus>
<clus scale="   91.486">  5  6 -1 -1</clus>
<clus scale="   94.276">  7  8 -1 -1</clus>
<clus scale="  100.120">  1  5  2 -1</clus>
<clus scale="  102.676">  2  5  1 -1</clus>
</clustering>
</event>
<event>
 9    1  0.6202448E-006  0.1038418E+03  0.7546771E-02  0.1273470E+00
         -2   -1    0    0    0  501 -0.00000000000E+00  0.00000000000E+00  0.59159985451E+02  0.59159985451E+02  0.00000000000E+00 0.  1.
          2   -1    0    0  502    0  0.00000000000E+00 -0.00000000000E+00 -0.52668169216E+03  0.52668169216E+03  0.00000000000E+00 0. -1.
         23    2    1    2    0    0 -0.15481623239E+02  0.40138454265E+02 -0.14055121038E+02  0.10102831959E+03  0.90323854893E+02 0.  0.
         23    2    1    2    0    0 -0.94028229623E+01 -0.78897860410E+02 -0.36814392097E+03  0.38785210628E+03  0.92660802622E+02 0.  0.
        -11    1    4    4    0    0  0.31079349417E+02  0.15770774992E+01 -0.75659616124E+02  0.81809477725E+02  0.00000000000E+00 0. -1.
         11    1    4    4    0    0 -0.40482172380E+02 -0.80474937909E+02 -0.29248430485E+03  0.30604262856E+03  0.00000000000E+00 0.  1.
        -13    1    3    3    0    0 -0.24404978647E+01  0.60831697166E+02  0.15344031183E+02  0.62784478201E+02  0.00000000000E+00 0. -1.
         13    1    3    3    0    0 -0.13041125374E+02 -0.20693242902E+02 -0.29399152221E+02  0.38243841388E+02  0.00000000000E+00 0.  1.
         21    1    1    2  502  501  0.24884446201E+02  0.38759406146E+02 -0.85322664701E+02  0.96961251741E+02  0.00000000000E+00 0.  1.
<scales pt_clust_5="13000.00000" pt_clust_6="13000.00000" pt_clust_7="13000.00000" pt_clust_8="13000.00000" pt_clust_9="46.06004"></scales>
<clustering>
<clus scale="   46.060">  2  9  1 -1</clus>
<clus scale="   90.324">  7  8 -1 -1</clus>
<clus scale="   92.661">  5  6 -1 -1</clus>
<clus scale="  101.762">  1  7  2 -1</clus>
<clus scale="   46.060">  2  5  1 -1</clus>
</clustering>
</event>
<event>
 9    1  0.6202448E-006  0.1289170E+03  0.7546771E-02  0.1244561E+00
         -2   -1    0    0    0  501 -0.00000000000E+00  0.00000000000E+00  0.29614614403E+03  0.29614614403E+03  0.00000000000E+00 0.  1.
          2   -1    0    0  502    0  0.00000000000E+00 -0.00000000000E+00 -0.10043280740E+03  0.10043280740E+03  0.00000000000E+00 0. -1.
         23    2    1    2    0    0  0.28494535502E+02 -0.91711078826E+01  0.13013243139E+03  0.16051040630E+03  0.89067912612E+02 0.  0.
         23    2    1    2    0    0  0.75035934416E+02 -0.12583204824E+02  0.21391375909E+02  0.12141897982E+03  0.92175100764E+02 0.  0.
        -11    1    3    3    0    0  0.25923547653E+02  0.25726003326E+02  0.11792404549E+03  0.12345014408E+03  0.00000000000E+00 0.  1.
         11    1    3    3    0    0  0.25709878499E+01 -0.34897111208E+02  0.12208385906E+02  0.37060262218E+02  0.00000000000E+00 0. -1.
        -13    1    4    4    0    0  0.55536438209E+02 -0.24662059008E+02 -0.28041158451E+02  0.66923984421E+02  0.00000000000E+00 0. -1.
         13    1    4    4    0    0  0.19499496207E+02  0.12078854184E+02  0.49432534360E+02  0.54494995403E+02  0.00000000000E+00 0.  1.
         21    1    1    2  502  501 -0.10353046992E+03  0.21754312706E+02  0.44189529330E+02  0.11464956531E+03  0.00000000000E+00 0.  1.
<scales pt_clust_5="13000.00000" pt_clust_6="13000.00000" pt_clust_7="13000.00000" pt_clust_8="13000.00000" pt_clust_9="90.12956"></scales>
<clustering>
<clus scale="   89.068">  5  6 -1 -1</clus>
<clus scale="   92.175">  7  8 -1 -1</clus>
<clus scale="   93.964">  1  5  2 -1</clus>
<clus scale="   90.130">  1  9  2 -1</clus>
<clus scale="  128.917">  2  5  1 -1</clus>
</clustering>
</event>
<event>
 9    1  0.6202448E-006  0.2530895E+03  0.7546771E-02  0.1139004E+00
          1   -1    0    0  502    0  0.00000000000E+00  0.00000000000E+00  0.70411122153E+03  0.70411122153E+03  0.00000000000E+00 0. -1.
         -1   -1    0    0    0  501 -0.00000000000E+00 -0.00000000000E+00 -0.17794311564E+03  0.17794311564E+03  0.00000000000E+00 0.  1.
         23    2    1    2    0    0 -0.69212997945E+02 -0.58246788308E+02  0.83553239716E+02  0.15252764077E+03  0.90002277189E+02 0.  0.
         23    2    1    2    0    0  0.21855792365E+03 -0.12262536948E+03  0.49812456796E+02  0.27202000014E+03  0.93322303842E+02 0.  0.
        -11    1    3    3    0    0 -0.23253809620E+02 -0.69540084899E+02  0.74138196445E+02  0.10427384735E+03  0.00000000000E+00 0. -1.
         11    1    3    3    0    0 -0.45959188325E+02  0.11293296591E+02  0.94150432715E+01  0.48253793418E+02  0.00000000000E+00 0.  1.
        -13    1    4    4    0    0  0.39241346397E+02  0.35294312831E+01  0.34276437896E+02  0.52222737836E+02  0.00000000000E+00 0. -1.
         13    1    4    4    0    0  0.17931657725E+03 -0.12615480077E+03  0.15536018899E+02  0.21979726231E+03  0.00000000000E+00 0.  1.
         21    1    1    2  502  501 -0.14934492571E+03  0.18087215779E+03  0.39280240938E+03  0.45750669625E+03  0.00000000000E+00 0. -1.
<scales pt_clust_5="13000.00000" pt_clust_6="13000.00000" pt_clust_7="13000.00000" pt_clust_8="13000.00000" pt_clust_9="235.25571"></scales>
<clustering>
<clus scale="   90.002">  5  6 -1 -1</clus>
<clus scale="   93.322">  7  8 -1 -1</clus>
<clus scale="  127.607">  2  5  1 -1</clus>
<clus scale="  235.256">  1  9  2 -1</clus>
<clus scale="  235.256">  1  5  2 -1</clus>
</clustering>
</event>
<event>
 9    1  0.6202448E-006  0.1024386E+03  0.7546771E-02  0.1275916E+00
          1   -1    0    0  502    0  0.00000000000E+00  0.00000000000E+00  0.16154438814E+03  0.16154438814E+03  0.00000000000E+00 0. -1.
         -1   -1    0    0    0  501 -0.00000000000E+00 -0.00000000000E+00 -0.28120557271E+03  0.28120557271E+03  0.00000000000E+00 0.  1.
         23    2    1    2    0    0 -0.15612221950E+02  0.31522729760E+02 -0.14810885331E+02  0.10607326865E+03  0.98968439580E+02 0.  0.
         23    2    1    2    0    0  0.20519968718E+02  0.40196838158E+02  0.82797492302E+02  0.13573024144E+03  0.97623863863E+02 0.  0.
        -11    1    3    3    0    0  0.22118203662E+02  0.54972603159E+02 -0.31481511336E-01  0.59255405006E+02  0.00000000000E+00 0.  1.
         11    1    3    3    0    0 -0.37730425612E+02 -0.23449873399E+02 -0.14779403820E+02  0.46817863648E+02  0.00000000000E+00 0. -1.
        -11    1    4    4    0    0  0.52036694374E+02  0.51639687764E+02  0.49373485478E+02  0.88386740985E+02  0.00000000000E+00 0.  1.
         11    1    4    4    0    0 -0.31516725656E+02 -0.11442849605E+02  0.33424006824E+02  0.47343500455E+02  0.00000000000E+00 0. -1.
         21    1    1    2  502  501 -0.49077467680E+01 -0.71719567919E+02 -0.18764779154E+03  0.20094645075E+03  0.00000000000E+00 0.  1.
<scales pt_clust_5="13000.00000" pt_clust_6="13000.00000" pt_clust_7="13000.00000" pt_clust_8="13000.00000" pt_clust_9="71.88729"></scales>
<clustering>
<clus scale="   71.887">  2  9  1 -1</clus>
<clus scale="   97.624">  7  8 -1 -1</clus>
<clus scale="   98.968">  5  6 -1 -1</clus>
<clus scale="  101.140">  1  7  2 -1</clus>
<clus scale="  101.140">  1  5  2 -1</clus>
</clustering>
</event>
<event>
 9    1  0.6202448E-006  0.1517093E+03  0.7546771E-02  0.1215901E+00
          1   -1    0    0  502    0  0.00000000000E+00  0.00000000000E+00  0.77921044170E+03  0.77921044170E+03  0.00000000000E+00 0. -1.
         -1   -1    0    0    0  501 -0.00000000000E+00 -0.00000000000E+00 -0.67167954274E+02  0.67167954274E+02  0.00000000000E+00 0.  1.
         23    2    1    2    0    0  0.21851489983E+02 -0.94925794030E+01  0.75020451097E+02  0.12838421483E+03  0.10142406941E+03 0.  0.
         23    2    1    2    0    0  0.67544273749E+02  0.76461577103E+02  0.11989238232E+03  0.18893886430E+03  0.10447540100E+03 0.  0.
        -11    1    4    4    0    0  0.25182896035E+02  0.96030884914E+02  0.84545785545E+02  0.13039976596E+03  0.00000000000E+00 0.  1.
         11    1    4    4    0    0  0.42361377714E+02 -0.19569307811E+02  0.35346596772E+02  0.58539098331E+02  0.00000000000E+00 0. -1.
        -13    1    3    3    0    0  0.39431222455E+02  0.37249694924E+02  0.38636911467E+02  0.66597087053E+02  0.00000000000E+00 0.  1.
         13    1    3    3    0    0 -0.17579732471E+02 -0.46742274327E+02  0.36383539630E+02  0.61787127778E+02  0.00000000000E+00 0. -1.
         21    1    1    2  502  501 -0.89395763732E+02 -0.66968997700E+02  0.51712965402E+03  0.52905531685E+03  0.00000000000E+00 0. -1.
<scales pt_clust_5="13000.00000" pt_clust_6="13000.00000" pt_clust_7="13000.00000" pt_clust_8="13000.00000" pt_clust_9="110.00277"></scales>
<clustering>
<clus scale="  101.424">  7  8 -1 -1</clus>
<clus scale="  104.185">  2  7  1 -1</clus>
<clus scale="  104.475">  5  6 -1 -1</clus>
<clus scale="  110.003">  1  9  2 -1</clus>
<clus scale="  110.003">  1  5  2 -1</clus>
</clustering>
</event>
<event>
 9    1  0.6202448E-006  0.9435064E+02  0.7546771E-02  0.1294171E+00
         -2   -1    0    0    0  501 -0.00000000000E+00  0.00000000000E+00  0.10536413541E+03  0.10536413541E+03  0.00000000000E+00 0.  1.
          2   -1    0    0  502    0  0.00000000000E+00 -0.00000000000E+00 -0.16574478807E+03  0.16574478807E+03  0.00000000000E+00 0. -1.
         23    2    1    2    0    0  0.27722173536E+02 -0.35750901161E+01  0.23475210458E+02  0.98683403033E+02  0.91684395364E+02 0.  0.
         23    2    1    2    0    0  0.95902259289E+01 -0.38160313857E+01 -0.93466293097E+02  0.13319282751E+03  0.94328398830E+02 0.  0.
        -11    1    3    3    0    0  0.23777773566E+02 -0.45635740761E+02  0.25047442931E+01  0.51519676770E+02  0.00000000000E+00 0.  1.
         11    1    3    3    0    0  0.39443999705E+01  0.42060650645E+02  0.20970466165E+02  0.47163726262E+02  0.00000000000E+00 0. -1.
        -13    1    4    4    0    0  0.43559381875E+02 -0.29067852310E+02 -0.55933604434E+02  0.76621980477E+02  0.00000000000E+00 0.  1.
         13    1    4    4    0    0 -0.33969155946E+02  0.25251820924E+02 -0.37532688663E+02  0.56570847032E+02  0.00000000000E+00 0. -1.
         21    1    1    2  502  501 -0.37312399465E+02  0.73911215019E+01  0.96104299748E+01  0.39232692939E+02  0.00000000000E+00 0. -1.
<scales pt_clust_5="13000.00000" pt_clust_6="13000.00000" pt_clust_7="13000.00000" pt_clust_8="13000.00000" pt_clust_9="38.03740"></scales>
<clustering>
<clus scale="   38.037">  1  9  2 -1</clus>
<clus scale="   91.684">  5  6 -1 -1</clus>
<clus scale="   91.707">  1  5  2 -1</clus>
<clus scale="   94.328">  7  8 -1 -1</clus>
<clus scale="   94.351">  2  5  1 -1</clus>
</clustering>
</event>
<event>
 9    1  0.6202448E-006  0.2655567E+03  0.7546771E-02  0.1147282E+00
         -1   -1    0    0    0  501 -0.00000000000E+00  0.00000000000E+00  0.33690576718E+03  0.33690576718E+03  0.00000000000E+00 0.  1.
          1   -1    0    0  502    0  0.00000000000E+00 -0.00000000000E+00 -0.51281629822E+03  0.51281629822E+03  0.00000000000E+00 0. -1.
         23    2    1    2    0    0  0.22884977287E+02  0.23589414799E+01  0.94291014958E+02  0.13074499118E+03  0.87602342582E+02 0.  0.
         23    2    1    2    0    0 -0.18862454010E+03 -0.16421266360E+03 -0.37766198697E+03  0.46360680105E+03  0.98780937237E+02 0.  0.
        -13    1    4    4    0    0 -0.13395998657E+03 -0.96707080312E+02 -0.31758757129E+03  0.35799357930E+03  0.00000000000E+00 0. -1.
         13    1    4    4    0    0 -0.54664553530E+02 -0.67505583293E+02 -0.60074415678E+02  0.10561322175E+03  0.00000000000E+00 0.  1.
        -13    1    3    3    0    0  0.23153613034E+01 -0.25165209890E+02 -0.49253671141E+01  0.25746998426E+02  0.00000000000E+00 0. -1.
         13    1    3    3    0    0  0.20569615983E+02  0.27524151369E+02  0.99216382073E+02  0.10499799275E+03  0.00000000000E+00 0.  1.
         21    1    1    2  502  501  0.16573956281E+03  0.16185372212E+03  0.10746044097E+03  0.25537027317E+03  0.00000000000E+00 0.  1.
<scales pt_clust_5="13000.00000" pt_clust_6="13000.00000" pt_clust_7="13000.00000" pt_clust_8="13000.00000" pt_clust_9="246.50090"></scales>
<clustering>
<clus scale="   87.602">  7  8 -1 -1</clus>
<clus scale="   90.573">  1  7  2 -1</clus>
<clus scale="   98.781">  5  6 -1 -1</clus>
<clus scale="  246.501">  1  9  2 -1</clus>
<clus scale="  265.557">  2  5  1 -1</clus>
</clustering>
</event>
<event>
 9    1  0.6202448E-006  0.9193014E+02  0.7546771E-02  0.1299260E+00
          1   -1    0    0  502    0  0.00000000000E+00  0.00000000000E+00  0.38104980577E+02  0.38104980577E+02  0.00000000000E+00 0. -1.
         -1   -1    0    0    0  501 -0.00000000000E+00 -0.00000000000E+00 -0.38272523900E+03  0.38272523900E+03  0.00000000000E+00 0.  1.
         23    2    1    2    0    0 -0.15702194637E+02  0.14775505685E+02 -0.19630199131E+03  0.21778132762E+03  0.91811548193E+02 0.  0.
         23    2    1    2    0    0 -0.15852370695E+02  0.17847848076E+02 -0.10292697416E+03  0.13885899182E+03  0.90100023651E+02 0.  0.
        -11    1    3    3    0    0  0.29842841556E+02 -0.15038568093E+02 -0.39175114107E+02  0.51492167247E+02  0.00000000000E+00 0.  1.
         11    1    3    3    0    0 -0.45545036194E+02  0.29814073778E+02 -0.15712687720E+03  0.16628916037E+03  0.00000000000E+00 0. -1.
        -13    1    4    4    0    0  0.10620536803E+02  0.42661737683E+02 -0.19916139895E+02  0.48264607037E+02  0.00000000000E+00 0. -1.
         13    1    4    4    0    0 -0.26472907498E+02 -0.24813889607E+02 -0.83010834268E+02  0.90594384785E+02  0.00000000000E+00 0.  1.
         21    1    1    2  502  501  0.31554565333E+02 -0.32623353761E+02 -0.45391292944E+02  0.64189900133E+02  0.00000000000E+00 0.  1.
<scales pt_clust_5="13000.00000" pt_clust_6="13000.00000" pt_clust_7="13000.00000" pt_clust_8="13000.00000" pt_clust_9="45.38693"></scales>
<clustering>
<clus scale="   45.387">  1  9  2 -1</clus>
<clus scale="   90.100">  7  8 -1 -1</clus>
<clus scale="   90.221">  1  7  2 -1</clus>
<clus scale="   91.812">  5  6 -1 -1</clus>
<clus scale="   45.387">  1  5  2 -1</clus>
</clustering>
</event>
<event>
 9    1  0.6202448E-006  0.1709777E+03  0.7546771E-02  0.1176955E+00
          1   -1    0    0  502    0  0.00000000000E+00  0.00000000000E+00  0.39906690024E+03  0.39906690024E+03  0.00000000000E+00 0. -1.
         -1   -1    0    0    0  501 -0.00000000000E+00 -0.00000000000E+00 -0.98273682805E+02  0.98273682805E+02  0.00000000000E+00 0.  1.
         23    2    1    2    0    0  0.73375039918E+02 -0.11169505042E+03  0.98475940097E+02  0.18918599507E+03  0.90742212783E+02 0.  0.
         23    2    1    2    0    0 -0.12148076672E+03  0.99012656879E+02  0.17082910003E+03  0.24927751802E+03  0.91627597748E+02 0.  0.
        -11    1    4    4    0    0 -0.10440225183E+03  0.82886409833E+02  0.18006430025E+03  0.22403825421E+03  0.00000000000E+00 0. -1.
         11    1    4    4    0    0 -0.17078514890E+02  0.16126247046E+02 -0.92352002260E+01  0.25239263814E+02  0.00000000000E+00 0.  1.
        -13    1    3    3    0    0  0.27332701084E+01 -0.32634616571E+02 -0.13098758921E+02  0.35271326166E+02  0.00000000000E+00 0. -1.
         13    1    3    3    0    0  0.70641769810E+02 -0.79060433845E+02  0.11157469902E+03  0.15391466890E+03  0.00000000000E+00 0.  1.
         21    1    1    2  502  501  0.48105726800E+02  0.12682393537E+02  0.31488177312E+02  0.58877069961E+02  0.00000000000E+00 0. -1.
<scales pt_clust_5="13000.00000" pt_clust_6="13000.00000" pt_clust_7="13000.00000" pt_clust_8="13000.00000" pt_clust_9="49.74941"></scales>
<clustering>
<clus scale="   49.749">  2  9  1 -1</clus>
<clus scale="   90.742">  7  8 -1 -1</clus>
<clus scale="   91.628">  5  6 -1 -1</clus>
<clus scale="  170.505">  2  7  1 -1</clus>
<clus scale="  170.978">  1  5  2 -1</clus>
</clustering>
</event>
<event>
 9    1  0.6202448E-006  0.1121897E+03  0.7546771E-02  0.1262494E+00
         -2   -1    0    0    0  501 -0.00000000000E+00  0.00000000000E+00  0.15917705722E+03  0.15917705722E+03  0.00000000000E+00 0.  1.
          2   -1    0    0  502    0  0.00000000000E+00 -0.00000000000E+00 -0.42379600891E+03  0.42379600891E+03  0.00000000000E+00 0. -1.
         23    2    1    2    0    0 -0.13062628206E+02 -0.72651452776E+02  0.45122745663E+02  0.12548377351E+03  0.90891415392E+02 0.  0.
         23    2    1    2    0    0 -0.39562981570E+02  0.21931246990E+01  0.22487655324E+02  0.11381768544E+03  0.10430115805E+03 0.  0.
        -11    1    3    3    0    0 -0.17877376247E+02 -0.40147682508E+02  0.71107424564E+02  0.83592480645E+02  0.00000000000E+00 0.  1.
         11    1    3    3    0    0  0.48147480407E+01 -0.32503770268E+02 -0.25984678901E+02  0.41891292865E+02  0.00000000000E+00 0. -1.
        -13    1    4    4    0    0  0.13423642045E+02 -0.40056358969E+02  0.17938066183E+02  0.45896408117E+02  0.00000000000E+00 0. -1.
         13    1    4    4    0    0 -0.52986623615E+02  0.42249483668E+02  0.45495891402E+01  0.67921277327E+02  0.00000000000E+00 0.  1.
         21    1    1    2  502  501  0.52625609776E+02  0.70458328077E+02 -0.33222935268E+03  0.34367160718E+03  0.00000000000E+00 0. -1.
<scales pt_clust_5="13000.00000" pt_clust_6="13000.00000" pt_clust_7="13000.00000" pt_clust_8="13000.00000" pt_clust_9="87.94220"></scales>
<clustering>
<clus scale="   87.942">  2  9  1 -1</clus>
<clus scale="   90.891">  5  6 -1 -1</clus>
<clus scale="   99.845">  1  5  2 -1</clus>
<clus scale="  104.301">  7  8 -1 -1</clus>
<clus scale="   87.942">  2  5  1 -1</clus>
</clustering>
</event>
<event>
 9    1  0.6202448E-006  0.9824547E+02  0.7546771E-02  0.1285937E+00
         -1   -1    0    0    0  501 -0.00000000000E+00  0.00000000000E+00  0.61163982693E+02  0.61163982693E+02  0.00000000000E+00 0.  1.
          1   -1    0    0  502    0  0.00000000000E+00 -0.00000000000E+00 -0.11929630215E+04  0.11929630215E+04  0.00000000000E+00 0. -1.
         23    2    1    2    0    0  0.24292799694E+02 -0.21755079734E+02  0.18217994505E+01  0.98012439700E+02  0.92410474360E+02 0.  0.
         23    2    1    2    0    0  0.36858792105E+02  0.88790345828E+02 -0.54112903900E+03  0.55671505142E+03  0.88705780901E+02 0.  0.
        -11    1    3    3    0    0  0.44048662508E+02  0.12701558232E+02  0.24804725428E+02  0.52123782038E+02  0.00000000000E+00 0.  1.
         11    1    3    3    0    0 -0.19755862814E+02 -0.34456637967E+02 -0.22982925978E+02  0.45888657662E+02  0.00000000000E+00 0. -1.
        -13    1    4    4    0    0  0.16827884595E+02 -0.16090263658E+02 -0.75939865349E+02  0.79428819919E+02  0.00000000000E+00 0.  1.
         13    1    4    4    0    0  0.20030907510E+02  0.10488060949E+03 -0.46518917365E+03  0.47728623151E+03  0.00000000000E+00 0. -1.
         21    1    1    2  502  501 -0.61151591799E+02 -0.67035266094E+02 -0.59249179921E+03  0.59939951303E+03  0.00000000000E+00 0. -1.
<scales pt_clust_5="13000.00000" pt_clust_6="13000.00000" pt_clust_7="13000.00000" pt_clust_8="13000.00000" pt_clust_9="90.73723"></scales>
<clustering>
<clus scale="   88.706">  7  8 -1 -1</clus>
<clus scale="   90.737">  2  9  1 -1</clus>
<clus scale="   92.410">  5  6 -1 -1</clus>
<clus scale="   94.769">  2  7  1 -1</clus>
<clus scale="   90.737">  2  5  1 -1</clus>
</clustering>
</event>
<event>
 9    1  0.6202448E-006  0.1307705E+03  0.7546771E-02  0.1226410E+00
         -2   -1    0    0    0  501 -0.00000000000E+00  0.00000000000E+00  0.25696134995E+02  0.25696134995E+02  0.00000000000E+00 0.  1.
          2   -1    0    0  502    0  0.00000000000E+00 -0.00000000000E+00 -0.10102912608E+04  0.10102912608E+04  0.00000000000E+00 0. -1.
         23    2    1    2    0    0  0.21125284912E+02  0.66413077894E+02 -0.27249892026E+03  0.29428913330E+03  0.86564761076E+02 0.  0.
         23    2    1    2    0    0 -0.48090435466E+02 -0.11435810907E+03 -0.55226184043E+03  0.57266314889E+03  0.86945239101E+02 0.  0.
        -11    1    4    4    0    0  0.29661890781E+01 -0.87058730773E+02 -0.40842994093E+03  0.41761589713E+03  0.00000000000E+00 0. -1.
         11    1    4    4    0    0 -0.51056624544E+02 -0.27299378301E+02 -0.14383189950E+03  0.15504725176E+03  0.00000000000E+00 0.  1.
        -11    1    3    3    0    0 -0.13758321798E+02  0.39332042467E+02 -0.40442676253E+02  0.58068158623E+02  0.00000000000E+00 0.  1.
         11    1    3    3    0    0  0.34883606710E+02  0.27081035427E+02 -0.23205624401E+03  0.23622097468E+03  0.00000000000E+00 0. -1.
         21    1    1    2  502  501  0.26965150555E+02  0.47945031180E+02 -0.15983436509E+03  0.16903511358E+03  0.00000000000E+00 0. -1.
<scales pt_clust_5="13000.00000" pt_clust_6="13000.00000" pt_clust_7="13000.00000" pt_clust_8="13000.00000" pt_clust_9="55.00768"></scales>
<clustering>
<clus scale="   55.008">  1  9  2 -1</clus>
<clus scale="   86.565">  7  8 -1 -1</clus>
<clus scale="   86.945">  5  6 -1 -1</clus>
<clus scale="  130.518">  1  7  2 -1</clus>
<clus scale="  130.771">  2  5  1 -1</clus>
</clustering>
</event>
<event>
 9    1  0.6202448E-006  0.1628573E+03  0.7546771E-02  0.1195447E+00
         -2   -1    0    0    0  501 -0.00000000000E+00  0.00000000000E+00  0.52538907726E+03  0.52538907726E+03  0.00000000000E+00 0.  1.
          2   -1    0    0  502    0  0.00000000000E+00 -0.00000000000E+00 -0.87460686936E+03  0.87460686936E+03  0.00000000000E+00 0. -1.
         23    2    1    2    0    0 -0.15612523921E+02  0.96591500452E+02  0.48165361862E+03  0.49909087022E+03  0.86763007887E+02 0.  0.
         23    2    1    2    0    0 -0.10987096371E+03  0.41367553816E+02 -0.49441697829E+03  0.51622288105E+03  0.90857092867E+02 0.  0.
        -13    1    4    4    0    0  0.59925896043E+01  0.31074400887E+02 -0.89546096801E+02  0.94973854154E+02  0.00000000000E+00 0.  1.
         13    1    4    4    0    0 -0.11586355332E+03  0.10293152929E+02 -0.40487088149E+03  0.42124902690E+03  0.00000000000E+00 0. -1.
        -13    1    3    3    0    0 -0.34385364705E+02  0.81561829752E+02  0.45353353232E+03  0.46209019717E+03  0.00000000000E+00 0.  1.
         13    1    3    3    0    0  0.18772840785E+02  0.15029670700E+02  0.28120086304E+02  0.37000673051E+02  0.00000000000E+00 0. -1.
         21    1    1    2  502  501  0.12548348764E+03 -0.13795905427E+03 -0.33645443243E+03  0.38468219536E+03  0.00000000000E+00 0. -1.
<scales pt_clust_5="13000.00000" pt_clust_6="13000.00000" pt_clust_7="13000.00000" pt_clust_8="13000.00000" pt_clust_9="135.15733"></scales>
<clustering>
<clus scale="   86.763">  7  8 -1 -1</clus>
<clus scale="   90.857">  5  6 -1 -1</clus>
<clus scale="  130.773">  1  7  2 -1</clus>
<clus scale="  135.157">  1  9  2 -1</clus>
<clus scale="  162.857">  2  5  1 -1</clus>
</clustering>
</event>
<event>
 9    1  0.6202448E-006  0.9477672E+02  0.7546771E-02  0.1291743E+00
         -3   -1    0    0    0  501 -0.00000000000E+00  0.00000000000E+00  0.22706676467E+03  0.22706676467E+03  0.00000000000E+00 0.  1.
          3   -1    0    0  502    0  0.00000000000E+00 -0.00000000000E+00 -0.54517943927E+02  0.54517943927E+02  0.00000000000E+00 0. -1.
         23    2    1    2    0    0  0.27623406764E+02 -0.80050837785E+01  0.91904000484E+02  0.13272440103E+03  0.91336122952E+02 0.  0.
         23    2    1    2    0    0 -0.11516117630E+02  0.22585393299E+02  0.84169989098E+02  0.12684992356E+03  0.91452693168E+02 0.  0.
        -11    1    4    4    0    0 -0.46888127234E+02  0.30410620514E+02  0.65476158893E+02  0.86083852719E+02  0.00000000000E+00 0.  1.
         11    1    4    4    0    0  0.35372009604E+02 -0.78252272151E+01  0.18693830205E+02  0.40766070845E+02  0.00000000000E+00 0. -1.
        -11    1    3    3    0    0 -0.32753874692E+02 -0.99016354342E+01  0.23745956020E+02  0.41650079459E+02  0.00000000000E+00 0.  1.
         11    1    3    3    0    0  0.60377281456E+02  0.18965516557E+01  0.68158044464E+02  0.91074321569E+02  0.00000000000E+00 0. -1.
         21    1    1    2  502  501 -0.16107289134E+02 -0.14580309520E+02 -0.35251688345E+01  0.22010384010E+02  0.00000000000E+00 0. -1.
<scales pt_clust_5="13000.00000" pt_clust_6="13000.00000" pt_clust_7="13000.00000" pt_clust_8="13000.00000" pt_clust_9="21.72626"></scales>
<clustering>
<clus scale="   21.726">  2  9  1 -1</clus>
<clus scale="   91.336">  7  8 -1 -1</clus>
<clus scale="   91.453">  5  6 -1 -1</clus>
<clus scale="   94.664">  1  7  2 -1</clus>
<clus scale="   21.726">  2  5  1 -1</clus>
</clustering>
</event>
<event>
 9    1  0.6202448E-006  0.1059991E+03  0.7546771E-02  0.1271662E+00
          1   -1    0    0  502    0  0.00000000000E+00  0.00000000000E+00  0.49870948506E+02  0.49870948506E+02  0.00000000000E+00 0. -1.
         -1   -1    0    0    0  501 -0.00000000000E+00 -0.00000000000E+00 -0.32152929860E+03  0.32152929860E+03  0.00000000000E+00 0.  1.
         23    2    1    2    0    0 -0.50900202844E+02 -0.38622302504E+02 -0.13249902747E+03  0.17558512483E+03  0.95872993485E+02 0.  0.
         23    2    1    2    0    0  0.14403661916E+02  0.32976519601E+02 -0.72721110389E+02  0.11980256799E+03  0.88144081365E+02 0.  0.
        -13    1    3    3    0    0 -0.33279867199E+02 -0.52877273411E+02 -0.27665526664E+02  0.68329620004E+02  0.00000000000E+00 0. -1.
         13    1    3    3    0    0 -0.17620335645E+02  0.14254970908E+02 -0.10483350080E+03  0.10725550482E+03  0.00000000000E+00 0.  1.
        -13    1    4    4    0    0 -0.22339703751E+02 -0.11761892298E+02 -0.52890693765E+02  0.58607422406E+02  0.00000000000E+00 0.  1.
         13    1    4    4    0    0  0.36743365667E+02  0.44738411899E+02 -0.19830416625E+02  0.61195145586E+02  0.00000000000E+00 0. -1.
         21    1    1    2  502  501  0.36496540928E+02  0.56457829028E+01 -0.66438212236E+02  0.76012554288E+02  0.00000000000E+00 0. -1.
<scales pt_clust_5="13000.00000" pt_clust_6="13000.00000" pt_clust_7="13000.00000" pt_clust_8="13000.00000" pt_clust_9="36.93064"></scales>
<clustering>
<clus scale="   36.931">  2  9  1 -1</clus>
<clus scale="   88.144">  7  8 -1 -1</clus>
<clus scale="   95.873">  5  6 -1 -1</clus>
<clus scale="   99.063">  1  7  2 -1</clus>
<clus scale="   99.063">  1  5  2 -1</clus>
</clustering>
</event>
<event>
 9    1  0.6202448E-006  0.1730223E+03  0.7546771E-02  0.1201696E+00
          1   -1    0    0  502    0  0.00000000000E+00  0.00000000000E+00  0.87811430447E+03  0.87811430447E+03  0.00000000000E+00 0. -1.
         -1   -1    0    0    0  501 -0.00000000000E+00 -0.00000000000E+00 -0.71301956820E+02  0.71301956820E+02  0.00000000000E+00 0.  1.
         23    2    1    2    0    0  0.23889989177E+02  0.14855731140E+02  0.55558266750E+02  0.11020819712E+03  0.90926901286E+02 0.  0.
         23    2    1    2    0    0  0.12850535352E+03  0.13139877020E+02  0.14359980087E+03  0.21211013036E+03  0.87655703401E+02 0.  0.
        -11    1    3    3    0    0 -0.14722825647E+02  0.38264101343E+02  0.50081699642E+02  0.64723100093E+02  0.00000000000E+00 0.  1.
         11    1    3    3    0    0  0.38612814824E+02 -0.23408370203E+02  0.54765671086E+01  0.45485097027E+02  0.00000000000E+00 0. -1.
        -11    1    4    4    0    0  0.78051035193E+02  0.18980975334E+02  0.26690196109E+02  0.84644007984E+02  0.00000000000E+00 0.  1.
         11    1    4    4    0    0  0.50454318330E+02 -0.58410983140E+01  0.11690960476E+03  0.12746612238E+03  0.00000000000E+00 0. -1.
         21    1    1    2  502  501 -0.15239534270E+03 -0.27995608160E+02  0.60765428003E+03  0.62709793381E+03  0.00000000000E+00 0. -1.
<scales pt_clust_5="13000.00000" pt_clust_6="13000.00000" pt_clust_7="13000.00000" pt_clust_8="13000.00000" pt_clust_9="149.17510"></scales>
<clustering>
<clus scale="   87.656">  7  8 -1 -1</clus>
<clus scale="   90.927">  5  6 -1 -1</clus>
<clus scale="   95.179">  2  5  1 -1</clus>
<clus scale="  149.175">  1  9  2 -1</clus>
<clus scale="  149.175">  1  5  2 -1</clus>
</clustering>
</event>
<event>
 9    1  0.6202448E-006  0.1357671E+03  0.7546771E-02  0.1220873E+00
         -2   -1    0    0    0  501 -0.00000000000E+00  0.00000000000E+00  0.23636110792E+03  0.23636110792E+03  0.00000000000E+00 0.  1.
          2   -1    0    0  502    0  0.00000000000E+00 -0.00000000000E+00 -0.14416098778E+03  0.14416098778E+03  0.00000000000E+00 0. -1.
         23    2    1    2    0    0 -0.82302436038E+02  0.22928069996E+02  0.16182087928E+03  0.20682131604E+03  0.96382946756E+02 0.  0.
         23    2    1    2    0    0  0.88149638938E+02 -0.42837748383E+02 -0.74811645065E+02  0.15231082006E+03  0.89422436437E+02 0.  0.
        -13    1    4    4    0    0  0.75725177395E+02 -0.39946122252E+01 -0.11062489444E+02  0.76633139640E+02  0.00000000000E+00 0.  1.
         13    1    4    4    0    0  0.12424461542E+02 -0.38843136158E+02 -0.63749155621E+02  0.75677680419E+02  0.00000000000E+00 0. -1.
        -13    1    3    3    0    0  0.39604855936E+01  0.39752257663E+02  0.62724267056E+02  0.74365725392E+02  0.00000000000E+00 0.  1.
         13    1    3    3    0    0 -0.86262921632E+02 -0.16824187667E+02  0.99096612220E+02  0.13245559064E+03  0.00000000000E+00 0. -1.
         21    1    1    2  502  501 -0.58472028997E+01  0.19909678387E+02  0.51908859344E+01  0.21389959608E+02  0.00000000000E+00 0. -1.
<scales pt_clust_5="13000.00000" pt_clust_6="13000.00000" pt_clust_7="13000.00000" pt_clust_8="13000.00000" pt_clust_9="20.75054"></scales>
<clustering>
<clus scale="   20.751">  1  9  2 -1</clus>
<clus scale="   89.422">  5  6 -1 -1</clus>
<clus scale="   96.383">  7  8 -1 -1</clus>
<clus scale="  130.918">  2  5  1 -1</clus>
<clus scale="  130.918">  2  5  1 -1</clus>
</clustering>
</event>
<event>
 9    1  0.6202448E-006  0.1833101E+03  0.7546771E-02  0.1182422E+00
          1   -1    0    0  502    0  0.00000000000E+00  0.00000000000E+00  0.12692999273E+04  0.12692999273E+04  0.00000000000E+00 0. -1.
         -1   -1    0    0    0  501 -0.00000000000E+00 -0.00000000000E+00 -0.15130000986E+03  0.15130000986E+03  0.00000000000E+00 0.  1.
         23    2    1    2    0    0  0.47481190865E+02 -0.64154224496E+02 -0.95903271415E+02  0.15545530904E+03  0.92729108878E+02 0.  0.
         23    2    1    2    0    0  0.47049509434E+02 -0.10991494385E+03  0.35526197046E+03  0.38395176013E+03  0.83144063135E+02 0.  0.
        -11    1    3    3    0    0  0.70195442190E+02 -0.27402104527E+02 -0.78679864460E+02  0.10894400630E+03  0.00000000000E+00 0.  1.
         11    1    3    3    0    0 -0.22714251325E+02 -0.36752119969E+02 -0.17223406955E+02  0.46511302740E+02  0.00000000000E+00 0. -1.
        -11    1    4    4    0    0  0.41260346208E+02 -0.16601529995E+02  0.63125060346E+02  0.77219169971E+02  0.00000000000E+00 0.  1.
         11    1    4    4    0    0  0.57891632251E+01 -0.93313413860E+02  0.29213691011E+03  0.30673259016E+03  0.00000000000E+00 0. -1.
         21    1    1    2  502  501 -0.94530700298E+02  0.17406916835E+03  0.85864121844E+03  0.88119286803E+03  0.00000000000E+00 0. -1.
<scales pt_clust_5="13000.00000" pt_clust_6="13000.00000" pt_clust_7="13000.00000" pt_clust_8="13000.00000" pt_clust_9="163.36973"></scales>
<clustering>
<clus scale="   83.144">  7  8 -1 -1</clus>
<clus scale="   92.729">  5  6 -1 -1</clus>
<clus scale="  122.348">  2  5  1 -1</clus>
<clus scale="  163.370">  1  9  2 -1</clus>
<clus scale="  163.370">  1  5  2 -1</clus>
</clustering>
</event>
<event>
 9    1  0.6202448E-006  0.9609127E+02  0.7546771E-02  0.1290175E+00
         -1   -1    0    0    0  501 -0.00000000000E+00  0.00000000000E+00  0.39789017611E+02  0.39789017611E+02  0.00000000000E+00 0.  1.
          1   -1    0    0  502    0  0.00000000000E+00 -0.00000000000E+00 -0.65948882954E+03  0.65948882954E+03  0.00000000000E+00 0. -1.
         23    2    1    2    0    0 -0.32545892490E+02 -0.52065019030E+01 -0.31764699395E+03  0.33206692464E+03  0.91008169395E+02 0.  0.
         23    2    1    2    0    0 -0.41389184818E+00  0.23570186395E+02 -0.31329897009E+03  0.32784027063E+03  0.93633719324E+02 0.  0.
        -11    1    3    3    0    0 -0.40124447208E+02 -0.42474147396E+02 -0.17873626052E+03  0.18804434393E+03  0.00000000000E+00 0.  1.
         11    1    3    3    0    0  0.75785547181E+01  0.37267645493E+02 -0.13891073343E+03  0.14402258071E+03  0.00000000000E+00 0. -1.
        -13    1    4    4    0    0  0.75775676309E+01  0.56361363925E+02 -0.13690534566E+03  0.14824674211E+03  0.00000000000E+00 0. -1.
         13    1    4    4    0    0 -0.79914594790E+01 -0.32791177530E+02 -0.17639362443E+03  0.17959352852E+03  0.00000000000E+00 0.  1.
         21    1    1    2  502  501  0.32959784338E+02 -0.18363684492E+02  0.11246152113E+02  0.39370651875E+02  0.00000000000E+00 0.  1.
<scales pt_clust_5="13000.00000" pt_clust_6="13000.00000" pt_clust_7="13000.00000" pt_clust_8="13000.00000" pt_clust_9="37.73026"></scales>
<clustering>
<clus scale="   37.730">  1  9  2 -1</clus>
<clus scale="   91.008">  5  6 -1 -1</clus>
<clus scale="   93.535">  1  5  2 -1</clus>
<clus scale="   93.634">  7  8 -1 -1</clus>
<clus scale="   96.091">  2  5  1 -1</clus>
</clustering>
</event>
<event>
 9    1  0.6202448E-006  0.1382516E+03  0.7546771E-02  0.1218990E+00
         -1   -1    0    0    0  501 -0.00000000000E+00  0.00000000000E+00  0.33142786760E+02  0.33142786760E+02  0.00000000000E+00 0.  1.
          1   -1    0    0  502    0  0.00000000000E+00 -0.00000000000E+00 -0.10664091958E+04  0.10664091958E+04  0.00000000000E+00 0. -1.
         23    2    1    2    0    0 -0.11739659992E+03 -0.33447044844E+02 -0.29009703415E+03  0.32802050901E+03  0.92414818236E+02 0.  0.
         23    2    1    2    0    0  0.57225228507E+02 -0.18451686505E+02 -0.34718846612E+03  0.36765655186E+03  0.10495864715E+03 0.  0.
        -11    1    3    3    0    0 -0.10981741434E+03  0.43873455661E+01 -0.17521799236E+03  0.20683437369E+03  0.00000000000E+00 0.  1.
         11    1    3    3    0    0 -0.75791855758E+01 -0.37834390410E+02 -0.11487904178E+03  0.12118613532E+03  0.00000000000E+00 0. -1.
        -13    1    4    4    0    0 -0.30879945992E+02 -0.95819181421E+01 -0.98804838602E+02  0.10396047495E+03  0.00000000000E+00 0.  1.
         13    1    4    4    0    0  0.88105174499E+02 -0.88697683627E+01 -0.24838362752E+03  0.26369607692E+03  0.00000000000E+00 0. -1.
         21    1    1    2  502  501  0.60171371409E+02  0.51898731348E+02 -0.39598090875E+03  0.40387492166E+03  0.00000000000E+00 0. -1.
<scales pt_clust_5="13000.00000" pt_clust_6="13000.00000" pt_clust_7="13000.00000" pt_clust_8="13000.00000" pt_clust_9="79.46114"></scales>
<clustering>
<clus scale="   79.461">  2  9  1 -1</clus>
<clus scale="   92.415">  5  6 -1 -1</clus>
<clus scale="  104.959">  7  8 -1 -1</clus>
<clus scale="  128.987">  1  5  2 -1</clus>
<clus scale="   79.461">  2  5  1 -1</clus>
</clustering>
</event>
<event>
 9    1  0.6202448E-006  0.1238072E+03  0.7546771E-02  0.1252497E+00
          1   -1    0    0  502    0  0.00000000000E+00  0.00000000000E+00  0.16657004545E+03  0.16657004545E+03  0.00000000000E+00 0. -1.
         -1   -1    0    0    0  501 -0.00000000000E+00 -0.00000000000E+00 -0.36599772180E+03  0.36599772180E+03  0.00000000000E+00 0.  1.
         23    2    1    2    0    0  0.24870924724E+02  0.54691724071E+02 -0.11352042849E+03  0.15802603483E+03  0.92062980724E+02 0.  0.
         23    2    1    2    0    0  0.70025893996E+01  0.32818085136E+02  0.11897665174E+03  0.14948329574E+03  0.84046112807E+02 0.  0.
        -11    1    3    3    0    0 -0.26614155480E+02  0.39889526981E+02 -0.23812295214E+02  0.53539826654E+02  0.00000000000E+00 0. -1.
         11    1    3    3    0    0  0.51485080204E+02  0.14802197089E+02 -0.89708133279E+02  0.10448620817E+03  0.00000000000E+00 0.  1.
        -13    1    4    4    0    0 -0.37257259763E+02  0.42025825973E+01  0.43534272647E+02  0.57454312288E+02  0.00000000000E+00 0.  1.
         13    1    4    4    0    0  0.44259849163E+02  0.28615502539E+02  0.75442379089E+02  0.92028983457E+02  0.00000000000E+00 0. -1.
         21    1    1    2  502  501 -0.31873514123E+02 -0.87509809207E+02 -0.20488389959E+03  0.22505843668E+03  0.00000000000E+00 0.  1.
<scales pt_clust_5="13000.00000" pt_clust_6="13000.00000" pt_clust_7="13000.00000" pt_clust_8="13000.00000" pt_clust_9="82.78068"></scales>
<clustering>
<clus scale="   84.046">  7  8 -1 -1</clus>
<clus scale="   90.498">  1  7  2 -1</clus>
<clus scale="   82.781">  2  9  1 -1</clus>
<clus scale="   92.063">  5  6 -1 -1</clus>
<clus scale="   90.498">  1  5  2 -1</clus>
</clustering>
</event>
<event>
 9    1  0.6202448E-006  0.1107184E+03  0.7546771E-02  0.1259821E+00
          1   -1    0    0  502    0  0.00000000000E+00  0.00000000000E+00  0.96712614598E+03  0.96712614598E+03  0.00000000000E+00 0. -1.
         -1   -1    0    0    0  501 -0.00000000000E+00 -0.00000000000E+00 -0.50971302900E+02  0.50971302900E+02  0.00000000000E+00 0.  1.
         23    2    1    2    0    0  0.63282814821E+02  0.21043945366E+01  0.28388108454E+02  0.11381871009E+03  0.90220124900E+02 0.  0.
         23    2    1    2    0    0 -0.51387006023E+02  0.49253804511E+02  0.52379844200E+03  0.53651238237E+03  0.91728768377E+02 0.  0.
        -13    1    4    4    0    0 -0.72454454995E+02  0.21443280828E+02  0.42663956888E+03  0.43327910644E+03  0.00000000000E+00 0. -1.
         13    1    4    4    0    0  0.21067448972E+02  0.27810523683E+02  0.97158873114E+02  0.10323327593E+03  0.00000000000E+00 0.  1.
        -13    1    3    3    0    0  0.32127015291E+02  0.33884734710E+02 -0.17526462005E+02  0.49874815571E+02  0.00000000000E+00 0.  1.
         13    1    3    3    0    0  0.31155799530E+02 -0.31780340173E+02  0.45914570459E+02  0.63943894519E+02  0.00000000000E+00 0. -1.
         21    1    1    2  502  501 -0.11895808799E+02 -0.51358199048E+02  0.36396829263E+03  0.36776635643E+03  0.00000000000E+00 0. -1.
<scales pt_clust_5="13000.00000" pt_clust_6="13000.00000" pt_clust_7="13000.00000" pt_clust_8="13000.00000" pt_clust_9="52.71788"></scales>
<clustering>
<clus scale="   52.718">  1  9  2 -1</clus>
<clus scale="   90.220">  7  8 -1 -1</clus>
<clus scale="   91.729">  5  6 -1 -1</clus>
<clus scale="  109.472">  2  7  1 -1</clus>
<clus scale="   52.718">  1  5  2 -1</clus>
</clustering>
</event>
<event>
 9    1  0.6202448E-006  0.1082039E+03  0.7546771E-02  0.1264582E+00
         -2   -1    0    0    0  501 -0.00000000000E+00  0.00000000000E+00  0.30802233358E+02  0.30802233358E+02  0.00000000000E+00 0.  1.
          2   -1    0    0  502    0  0.00000000000E+00 -0.00000000000E+00 -0.62490504607E+03  0.62490504607E+03  0.00000000000E+00 0. -1.
         23    2    1    2    0    0 -0.53461727260E+02  0.21932609451E+02 -0.16833472745E+03  0.20020826005E+03  0.91692809353E+02 0.  0.
         23    2    1    2    0    0  0.37118929000E+02 -0.46639428286E+02 -0.40541545158E+03  0.41955818397E+03  0.90079577027E+02 0.  0.
        -11    1    3    3    0    0 -0.44929015332E+02  0.51040363511E+02 -0.71227169720E+02  0.98473574284E+02  0.00000000000E+00 0.  1.
         11    1    3    3    0    0 -0.85327119286E+01 -0.29107754059E+02 -0.97107557731E+02  0.10173468576E+03  0.00000000000E+00 0. -1.
        -11    1    4    4    0    0 -0.29953702991E+02 -0.18959755686E+02 -0.13516156864E+03  0.13973312526E+03  0.00000000000E+00 0.  1.
         11    1    4    4    0    0  0.67072631991E+02 -0.27679672600E+02 -0.27025388294E+03  0.27982505871E+03  0.00000000000E+00 0. -1.
         21    1    1    2  502  501  0.16342798261E+02  0.24706818835E+02 -0.20352633682E+02  0.35940835406E+02  0.00000000000E+00 0. -1.
<scales pt_clust_5="13000.00000" pt_clust_6="13000.00000" pt_clust_7="13000.00000" pt_clust_8="13000.00000" pt_clust_9="29.62286"></scales>
<clustering>
<clus scale="   29.623">  1  9  2 -1</clus>
<clus scale="   90.080">  7  8 -1 -1</clus>
<clus scale="   91.693">  5  6 -1 -1</clus>
<clus scale="  106.840">  2  7  1 -1</clus>
<clus scale="  106.840">  2  5  1 -1</clus>
</clustering>
</event>
<event>
 9    1  0.6202448E-006  0.1103765E+03  0.7546771E-02  0.1261551E+00
         -1   -1    0    0    0  501 -0.00000000000E+00  0.00000000000E+00  0.39880024639E+02  0.39880024639E+02  0.00000000000E+00 0.  1.
          1   -1    0    0  502    0  0.00000000000E+00 -0.00000000000E+00 -0.65681065178E+03  0.65681065178E+03  0.00000000000E+00 0. -1.
         23    2    1    2    0    0 -0.41423267966E+02 -0.34644082795E+02 -0.59664601499E+02  0.12097763149E+03  0.90330631833E+02 0.  0.
         23    2    1    2    0    0  0.51398592266E+02  0.53661866727E+02 -0.50679223851E+03  0.52086063944E+03  0.94530531978E+02 0.  0.
        -11    1    3    3    0    0 -0.22705990335E+02  0.78332056794E+01  0.18330562486E+02  0.30214741921E+02  0.00000000000E+00 0. -1.
         11    1    3    3    0    0 -0.18717277630E+02 -0.42477288474E+02 -0.77995163984E+02  0.90762889569E+02  0.00000000000E+00 0.  1.
        -13    1    4    4    0    0 -0.14019172685E+02  0.52891564443E+02 -0.22034206568E+03  0.22703453636E+03  0.00000000000E+00 0.  1.
         13    1    4    4    0    0  0.65417764951E+02  0.77030228336E+00 -0.28645017283E+03  0.29382610308E+03  0.00000000000E+00 0. -1.
         21    1    1    2  502  501 -0.99753243000E+01 -0.19017783932E+02 -0.50473787135E+02  0.54852405492E+02  0.00000000000E+00 0. -1.
<scales pt_clust_5="13000.00000" pt_clust_6="13000.00000" pt_clust_7="13000.00000" pt_clust_8="13000.00000" pt_clust_9="21.47518"></scales>
<clustering>
<clus scale="   21.475">  2  9  1 -1</clus>
<clus scale="   90.331">  5  6 -1 -1</clus>
<clus scale="   94.531">  7  8 -1 -1</clus>
<clus scale="  106.802">  1  5  2 -1</clus>
<clus scale="   21.475">  2  5  1 -1</clus>
</clustering>
</event>
<event>
 9    1  0.6202448E-006  0.2169061E+03  0.7546771E-02  0.1136259E+00
         -1   -1    0    0    0  501 -0.00000000000E+00  0.00000000000E+00  0.23963887474E+03  0.23963887474E+03  0.00000000000E+00 0.  1.
          1   -1    0    0  502    0  0.00000000000E+00 -0.00000000000E+00 -0.64150230689E+03  0.64150230689E+03  0.00000000000E+00 0. -1.
         23    2    1    2    0    0 -0.47516208518E+02  0.15654750558E+03  0.40060480321E+02  0.19290008945E+03  0.94024948030E+02 0.  0.
         23    2    1    2    0    0  0.73982460865E+02 -0.25698910833E+03 -0.56233546538E+02  0.28880894969E+03  0.93442984477E+02 0.  0.
        -11    1    3    3    0    0 -0.35588246387E+02  0.12949389703E+03  0.69468450673E+02  0.15119873772E+03  0.00000000000E+00 0. -1.
         11    1    3    3    0    0 -0.11927962132E+02  0.27053608548E+02 -0.29407970352E+02  0.41701351732E+02  0.00000000000E+00 0.  1.
        -13    1    4    4    0    0 -0.19864790583E+02 -0.22617577794E+02  0.25632198739E+00  0.30103661424E+02  0.00000000000E+00 0.  1.
         13    1    4    4    0    0  0.93847251448E+02 -0.23437153054E+03 -0.56489868525E+02  0.25870528827E+03  0.00000000000E+00 0. -1.
         21    1    1    2  502  501 -0.26466252347E+02  0.10044160275E+03 -0.38569036593E+03  0.39943214248E+03  0.00000000000E+00 0.  1.
<scales pt_clust_5="13000.00000" pt_clust_6="13000.00000" pt_clust_7="13000.00000" pt_clust_8="13000.00000" pt_clust_9="103.87001"></scales>
<clustering>
<clus scale="   93.443">  7  8 -1 -1</clus>
<clus scale="   94.025">  5  6 -1 -1</clus>
<clus scale="  103.870">  2  9  1 -1</clus>
<clus scale="  216.654">  2  7  1 -1</clus>
<clus scale="  103.870">  2  5  1 -1</clus>
</clustering>
</event>
<event>
 9    1  0.6202448E-006  0.1106985E+03  0.7546771E-02  0.1261244E+00
         -1   -1    0    0    0  501 -0.00000000000E+00  0.00000000000E+00  0.11196216154E+03  0.11196216154E+03  0.00000000000E+00 0.  1.
          1   -1    0    0  502    0  0.00000000000E+00 -0.00000000000E+00 -0.23984696832E+03  0.23984696832E+03  0.00000000000E+00 0. -1.
         23    2    1    2    0    0  0.35902801203E+01 -0.29678472869E+02  0.54600165844E+02  0.11623153065E+03  0.98157469123E+02 0.  0.
         23    2    1    2    0    0 -0.74416293862E+01  0.54415555961E+02 -0.18041656394E+03  0.21045719942E+03  0.93411271611E+02 0.  0.
        -13    1    4    4    0    0 -0.48250498726E+02  0.13894723137E+02 -0.72770387873E+02  0.88412121961E+02  0.00000000000E+00 0.  1.
         13    1    4    4    0    0  0.40808869340E+02  0.40520832824E+02 -0.10764617607E+03  0.12204507746E+03  0.00000000000E+00 0. -1.
        -13    1    3    3    0    0  0.88025446457E+01  0.22515410271E+02 -0.15471664981E+02  0.28701932151E+02  0.00000000000E+00 0. -1.
         13    1    3    3    0    0 -0.52122645254E+01 -0.52193883140E+02  0.70071830826E+02  0.87529598502E+02  0.00000000000E+00 0.  1.
         21    1    1    2  502  501  0.38513492659E+01 -0.24737083093E+02 -0.20684086801E+01  0.25120399789E+02  0.00000000000E+00 0.  1.
<scales pt_clust_5="13000.00000" pt_clust_6="13000.00000" pt_clust_7="13000.00000" pt_clust_8="13000.00000" pt_clust_9="25.03510"></scales>
<clustering>
<clus scale="   25.035">  1  9  2 -1</clus>
<clus scale="   93.411">  5  6 -1 -1</clus>
<clus scale="   98.157">  7  8 -1 -1</clus>
<clus scale="  106.513">  2  5  1 -1</clus>
<clus scale="  106.513">  2  5  1 -1</clus>
</clustering>
</event>
<event>
 9    1  0.6202448E-006  0.1440070E+03  0.7546771E-02  0.1213511E+00
         -2   -1    0    0    0  501 -0.00000000000E+00  0.00000000000E+00  0.10383236324E+03  0.10383236324E+03  0.00000000000E+00 0.  1.
          2   -1    0    0  502    0  0.00000000000E+00 -0.00000000000E+00 -0.84304039373E+03  0.84304039373E+03  0.00000000000E+00 0. -1.
         23    2    1    2    0    0  0.89479018489E+02 -0.14075843980E+02  0.93428562019E+01  0.12847863891E+03  0.90635796239E+02 0.  0.
         23    2    1    2    0    0  0.43247174128E+02 -0.88511306789E+02 -0.50778900391E+03  0.52495477185E+03  0.89572710641E+02 0.  0.
        -11    1    4    4    0    0  0.40637564607E+02  0.37718638919E+01 -0.15914906746E+03  0.16429870446E+03  0.00000000000E+00 0.  1.
         11    1    4    4    0    0  0.26096095216E+01 -0.92283170681E+02 -0.34863993645E+03  0.36065606739E+03  0.00000000000E+00 0. -1.
        -11    1    3    3    0    0  0.15794295706E+02  0.35774881776E+02  0.91960438227E+00  0.39117101313E+02  0.00000000000E+00 0.  1.
         11    1    3    3    0    0  0.73684722783E+02 -0.49850725756E+02  0.84232518197E+01  0.89361537594E+02  0.00000000000E+00 0. -1.
         21    1    1    2  502  501 -0.13272619262E+03  0.10258715077E+03 -0.24076188277E+03  0.29343934621E+03  0.00000000000E+00 0.  1.
<scales pt_clust_5="13000.00000" pt_clust_6="13000.00000" pt_clust_7="13000.00000" pt_clust_8="13000.00000" pt_clust_9="112.75969"></scales>
<clustering>
<clus scale="   89.573">  5  6 -1 -1</clus>
<clus scale="   90.636">  7  8 -1 -1</clus>
<clus scale="  128.138">  1  7  2 -1</clus>
<clus scale="  112.760">  1  9  2 -1</clus>
<clus scale="  144.007">  2  5  1 -1</clus>
</clustering>
</event>
<event>
 9    1  0.6202448E-006  0.2161038E+03  0.7546771E-02  0.1155032E+00
         -1   -1    0    0    0  501 -0.00000000000E+00  0.00000000000E+00  0.11845937045E+03  0.11845937045E+03  0.00000000000E+00 0.  1.
          1   -1    0    0  502    0  0.00000000000E+00 -0.00000000000E+00 -0.91146516083E+03  0.91146516083E+03  0.00000000000E+00 0. -1.
         23    2    1    2    0    0  0.73849343386E+02 -0.55019112073E+02 -0.39659019967E+02  0.14543792311E+03  0.10534952968E+03 0.  0.
         23    2    1    2    0    0 -0.24778886451E+03  0.51097212380E+02 -0.32998347100E+03  0.42676745673E+03  0.96078741159E+02 0.  0.
        -13    1    4    4    0    0 -0.10896374453E+03  0.36709558656E+02 -0.78731871902E+02  0.13935349644E+03  0.00000000000E+00 0. -1.
         13    1    4    4    0    0 -0.13882511998E+03  0.14387653724E+02 -0.25125159910E+03  0.28741396028E+03  0.00000000000E+00 0.  1.
        -13    1    3    3    0    0  0.64011656129E+02 -0.73056964632E+02 -0.61883623553E+02  0.11517115553E+03  0.00000000000E+00 0. -1.
         13    1    3    3    0    0  0.98376872569E+01  0.18037852559E+02  0.22224603586E+02  0.30266767586E+02  0.00000000000E+00 0.  1.
         21    1    1    2  502  501  0.17393952112E+03  0.39218996928E+01 -0.42336329941E+03  0.45771915144E+03  0.00000000000E+00 0. -1.
<scales pt_clust_5="13000.00000" pt_clust_6="13000.00000" pt_clust_7="13000.00000" pt_clust_8="13000.00000" pt_clust_9="193.57103"></scales>
<clustering>
<clus scale="   96.079">  5  6 -1 -1</clus>
<clus scale="  105.350">  7  8 -1 -1</clus>
<clus scale="  139.926">  1  7  2 -1</clus>
<clus scale="  193.571">  2  9  1 -1</clus>
<clus scale="  193.571">  2  5  1 -1</clus>
</clustering>
</event>
<event>
 9    1  0.6202448E-006  0.1368303E+03  0.7546771E-02  0.1217947E+00
         -2   -1    0    0    0  501 -0.00000000000E+00  0.00000000000E+00  0.49516514921E+02  0.49516514921E+02  0.00000000000E+00 0.  1.
          2   -1    0    0  502    0  0.00000000000E+00 -0.00000000000E+00 -0.88208345272E+03  0.88208345272E+03  0.00000000000E+00 0. -1.
         23    2    1    2    0    0  0.83508544472E+02  0.16893143527E+02 -0.24255523891E+03  0.27292672405E+03  0.91634586716E+02 0.  0.
         23    2    1    2    0    0 -0.10901717083E+03  0.93745059140E+02 -0.26851918812E+03  0.31772026093E+03  0.90392091256E+02 0.  0.
        -11    1    4    4    0    0 -0.71780262972E+02  0.83485950325E+02 -0.25332096608E+03  0.27621336301E+03  0.00000000000E+00 0. -1.
         11    1    4    4    0    0 -0.37236907862E+02  0.10259108815E+02 -0.15198222049E+02  0.41506897912E+02  0.00000000000E+00 0.  1.
        -13    1    3    3    0    0 -0.39242467610E+01  0.35490765785E+02 -0.71858164647E+02  0.80240824990E+02  0.00000000000E+00 0. -1.
         13    1    3    3    0    0  0.87432791233E+02 -0.18597622259E+02 -0.17069707426E+03  0.19268589906E+03  0.00000000000E+00 0.  1.
         21    1    1    2  502  501  0.25508626362E+02 -0.11063820267E+03 -0.32149251076E+03  0.34095298266E+03  0.00000000000E+00 0.  1.
<scales pt_clust_5="13000.00000" pt_clust_6="13000.00000" pt_clust_7="13000.00000" pt_clust_8="13000.00000" pt_clust_9="113.54075"></scales>
<clustering>
<clus scale="   90.392">  5  6 -1 -1</clus>
<clus scale="   91.635">  7  8 -1 -1</clus>
<clus scale="  113.541">  2  9  1 -1</clus>
<clus scale="  136.001">  2  5  1 -1</clus>
<clus scale="  113.541">  2  5  1 -1</clus>
</clustering>
</event>
<event>
 9    1  0.6202448E-006  0.2862930E+03  0.7546771E-02  0.1134833E+00
          1   -1    0    0  502    0  0.00000000000E+00  0.00000000000E+00  0.78809715025E+02  0.78809715025E+02  0.00000000000E+00 0. -1.
         -1   -1    0    0    0  501 -0.00000000000E+00 -0.00000000000E+00 -0.21155721493E+04  0.21155721493E+04  0.00000000000E+00 0.  1.
         23    2    1    2    0    0 -0.20993778178E+03 -0.21212821214E+03 -0.40867554142E+03  0.51776741153E+03  0.10952234328E+03 0.  0.
         23    2    1    2    0    0  0.29248946771E+02  0.28672718270E+02 -0.17027097451E+03  0.19623219638E+03  0.88528212878E+02 0.  0.
        -11    1    4    4    0    0 -0.62547171691E+01  0.53435919817E+02 -0.84839002052E+02  0.10045981924E+03  0.00000000000E+00 0. -1.
         11    1    4    4    0    0  0.35503663940E+02 -0.24763201547E+02 -0.85431972456E+02  0.95772377133E+02  0.00000000000E+00 0.  1.
        -11    1    3    3    0    0 -0.81630730510E+01 -0.30954995110E+02 -0.10903371352E+03  0.11363625376E+03  0.00000000000E+00 0.  1.
         11    1    3    3    0    0 -0.20177470873E+03 -0.18117321703E+03 -0.29964182790E+03  0.40413115777E+03  0.00000000000E+00 0. -1.
         21    1    1    2  502  501  0.18068883501E+03  0.18345549387E+03 -0.14578159184E+04  0.14803822565E+04  0.00000000000E+00 0.  1.
<scales pt_clust_5="13000.00000" pt_clust_6="13000.00000" pt_clust_7="13000.00000" pt_clust_8="13000.00000" pt_clust_9="264.51569"></scales>
<clustering>
<clus scale="   88.528">  5  6 -1 -1</clus>
<clus scale="   97.544">  1  5  2 -1</clus>
<clus scale="  109.522">  7  8 -1 -1</clus>
<clus scale="  264.516">  2  9  1 -1</clus>
<clus scale="   97.544">  1  5  2 -1</clus>
</clustering>
</event>
<event>
 9    1  0.6202448E-006  0.2899998E+03  0.7546771E-02  0.1135371E+00
         -2   -1    0    0    0  501 -0.00000000000E+00  0.00000000000E+00  0.66342133216E+02  0.66342133216E+02  0.00000000000E+00 0.  1.
          2   -1    0    0  502    0  0.00000000000E+00 -0.00000000000E+00 -0.26329999020E+04  0.26329999020E+04  0.00000000000E+00 0. -1.
         23    2    1    2    0    0 -0.16902205758E+01 -0.17489256841E+02 -0.13922372770E+03  0.16722390516E+03  0.90949750699E+02 0.  0.
         23    2    1    2    0    0  0.24952851777E+03  0.13142088820E+03 -0.47229319807E+03  0.55804114215E+03  0.93878220824E+02 0.  0.
        -11    1    3    3    0    0 -0.32460947289E+02  0.14104511225E+02 -0.10672616775E+03  0.11244165251E+03  0.00000000000E+00 0.  1.
         11    1    3    3    0    0  0.30770726713E+02 -0.31593768066E+02 -0.32497559945E+02  0.54782252650E+02  0.00000000000E+00 0. -1.
        -13    1    4    4    0    0  0.54779870367E+02  0.20971292760E+02 -0.39348387130E+02  0.70632321830E+02  0.00000000000E+00 0. -1.
         13    1    4    4    0    0  0.19474864740E+03  0.11044959544E+03 -0.43294481094E+03  0.48740882032E+03  0.00000000000E+00 0.  1.
         21    1    1    2  502  501 -0.24783829720E+03 -0.11393163136E+03 -0.19551408430E+04  0.19740769879E+04  0.00000000000E+00 0. -1.
<scales pt_clust_5="13000.00000" pt_clust_6="13000.00000" pt_clust_7="13000.00000" pt_clust_8="13000.00000" pt_clust_9="274.38433"></scales>
<clustering>
<clus scale="   90.950">  5  6 -1 -1</clus>
<clus scale="   92.631">  1  5  2 -1</clus>
<clus scale="   93.878">  7  8 -1 -1</clus>
<clus scale="  274.384">  2  9  1 -1</clus>
<clus scale="  274.384">  2  5  1 -1</clus>
</clustering>
</event>
<event>
 9    1  0.6202448E-006  0.1128378E+03  0.7546771E-02  0.1256062E+00
         -2   -1    0    0    0  501 -0.00000000000E+00  0.00000000000E+00  0.17169391555E+03  0.17169391555E+03  0.00000000000E+00 0.  1.
          2   -1    0    0  502    0  0.00000000000E+00 -0.00000000000E+00 -0.26003439017E+03  0.26003439017E+03  0.00000000000E+00 0. -1.
         23    2    1    2    0    0 -0.66336022653E+02 -0.77940801430E+01  0.48620251767E+02  0.12282262550E+03  0.90885933265E+02 0.  0.
         23    2    1    2    0    0  0.52147953251E+02 -0.62957760329E+02  0.29872819939E+02  0.12713506538E+03  0.92670658050E+02 0.  0.
        -11    1    4    4    0    0  0.29971037774E+02  0.15962794508E+02 -0.10785901887E+02  0.35628774794E+02  0.00000000000E+00 0. -1.
         11    1    4    4    0    0  0.22176915477E+02 -0.78920554837E+02  0.40658721825E+02  0.91506290584E+02  0.00000000000E+00 0.  1.
        -13    1    3    3    0    0 -0.38410849545E+02  0.28381109817E+02  0.59051982840E+02  0.75947464964E+02  0.00000000000E+00 0. -1.
         13    1    3    3    0    0 -0.27925173109E+02 -0.36175189960E+02 -0.10431731073E+02  0.46875160533E+02  0.00000000000E+00 0.  1.
         21    1    1    2  502  501  0.14188069402E+02  0.70751840472E+02 -0.16683354632E+03  0.18177061484E+03  0.00000000000E+00 0. -1.
<scales pt_clust_5="13000.00000" pt_clust_6="13000.00000" pt_clust_7="13000.00000" pt_clust_8="13000.00000" pt_clust_9="72.16041"></scales>
<clustering>
<clus scale="   72.160">  2  9  1 -1</clus>
<clus scale="   90.886">  7  8 -1 -1</clus>
<clus scale="   92.671">  5  6 -1 -1</clus>
<clus scale="  111.377">  1  7  2 -1</clus>
<clus scale="   72.160">  2  5  1 -1</clus>
</clustering>
</event>
<event>
 9    1  0.6202448E-006  0.1045289E+03  0.7546771E-02  0.1272405E+00
          1   -1    0    0  502    0  0.00000000000E+00  0.00000000000E+00  0.60120132654E+03  0.60120132654E+03  0.00000000000E+00 0. -1.
         -1   -1    0    0    0  501 -0.00000000000E+00 -0.00000000000E+00 -0.46279016774E+02  0.46279016774E+02  0.00000000000E+00 0.  1.
         23    2    1    2    0    0  0.19715320508E+02 -0.64291203937E+01  0.35124829115E+02  0.10189810507E+03  0.93377956412E+02 0.  0.
         23    2    1    2    0    0 -0.47829517352E+02 -0.21166525571E+02  0.47312713033E+03  0.48450810838E+03  0.90350102901E+02 0.  0.
        -11    1    3    3    0    0 -0.11423084887E+02  0.27074768833E+02  0.46276880785E+02  0.54818606976E+02  0.00000000000E+00 0. -1.
         11    1    3    3    0    0  0.31138405395E+02 -0.33503889226E+02 -0.11152051669E+02  0.47079498089E+02  0.00000000000E+00 0.  1.
        -13    1    4    4    0    0  0.53761251857E+01  0.29119314141E+02  0.10114604272E+03  0.10539145666E+03  0.00000000000E+00 0.  1.
         13    1    4    4    0    0 -0.53205642538E+02 -0.50285839712E+02  0.37198108761E+03  0.37911665172E+03  0.00000000000E+00 0. -1.
         21    1    1    2  502  501  0.28114196844E+02  0.27595645965E+02  0.46670350321E+02  0.61074129870E+02  0.00000000000E+00 0.  1.
<scales pt_clust_5="13000.00000" pt_clust_6="13000.00000" pt_clust_7="13000.00000" pt_clust_8="13000.00000" pt_clust_9="39.39451"></scales>
<clustering>
<clus scale="   39.395">  2  9  1 -1</clus>
<clus scale="   90.350">  7  8 -1 -1</clus>
<clus scale="   93.378">  5  6 -1 -1</clus>
<clus scale="  101.833">  1  7  2 -1</clus>
<clus scale="  101.833">  1  5  2 -1</clus>
</clustering>
</event>
<event>
 9    1  0.6202448E-006  0.2298377E+03  0.7546771E-02  0.1164214E+00
          1   -1    0    0  502    0  0.00000000000E+00  0.00000000000E+00  0.15597361592E+03  0.15597361592E+03  0.00000000000E+00 0. -1.
         -1   -1    0    0    0  501 -0.00000000000E+00 -0.00000000000E+00 -0.10383341257E+04  0.10383341257E+04  0.00000000000E+00 0.  1.
         23    2    1    2    0    0 -0.22554233145E+02  0.17646044028E+02 -0.12191960150E+03  0.15389658572E+03  0.89441006055E+02 0.  0.
         23    2    1    2    0    0 -0.31647904945E+02  0.20604323939E+03  0.18337448691E+02  0.22833326766E+03  0.91347757010E+02 0.  0.
        -11    1    4    4    0    0  0.13767947217E+02  0.13498257266E+03  0.39631642086E+02  0.14135246141E+03  0.00000000000E+00 0. -1.
         11    1    4    4    0    0 -0.45415852162E+02  0.71060666733E+02 -0.21294193395E+02  0.86980806253E+02  0.00000000000E+00 0.  1.
        -13    1    3    3    0    0  0.31718138936E+02  0.27164105539E+01 -0.20380297905E+02  0.37799150342E+02  0.00000000000E+00 0.  1.
         13    1    3    3    0    0 -0.54272372082E+02  0.14929633475E+02 -0.10153930359E+03  0.11609743538E+03  0.00000000000E+00 0. -1.
         21    1    1    2  502  501  0.54202138091E+02 -0.22368928342E+03 -0.77877835699E+03  0.81207788826E+03  0.00000000000E+00 0.  1.
<scales pt_clust_5="13000.00000" pt_clust_6="13000.00000" pt_clust_7="13000.00000" pt_clust_8="13000.00000" pt_clust_9="210.90513"></scales>
<clustering>
<clus scale="   89.441">  7  8 -1 -1</clus>
<clus scale="   91.348">  5  6 -1 -1</clus>
<clus scale="   93.914">  2  7  1 -1</clus>
<clus scale="  210.905">  2  9  1 -1</clus>
<clus scale="  229.838">  1  5  2 -1</clus>
</clustering>
</event>
<event>
 9    1  0.6202448E-006  0.9479947E+02  0.7546771E-02  0.1294980E+00
          2   -1    0    0  502    0  0.00000000000E+00  0.00000000000E+00  0.39711316831E+03  0.39711316831E+03  0.00000000000E+00 0. -1.
         -2   -1    0    0    0  501 -0.00000000000E+00 -0.00000000000E+00 -0.32913451770E+02  0.32913451770E+02  0.00000000000E+00 0.  1.
         23    2    1    2    0    0  0.36500619518E+02  0.65284907845E+01  0.10201207894E+03  0.13828219961E+03  0.85677220206E+02 0.  0.
         23    2    1    2    0    0 -0.88415865618E+01 -0.20754958435E+02  0.21952543437E+03  0.23894784795E+03  0.91628138419E+02 0.  0.
        -11    1    3    3    0    0  0.17779451762E+02 -0.39590165009E+02  0.43200930376E+02  0.61235695927E+02  0.00000000000E+00 0.  1.
         11    1    3    3    0    0  0.18721167756E+02  0.46118655793E+02  0.58811148562E+02  0.77046503681E+02  0.00000000000E+00 0. -1.
        -11    1    4    4    0    0  0.15149999082E+02  0.32316453516E+02  0.72579525346E+02  0.80880548585E+02  0.00000000000E+00 0. -1.
         11    1    4    4    0    0 -0.23991585644E+02 -0.53071411951E+02  0.14694590902E+03  0.15806729936E+03  0.00000000000E+00 0.  1.
         21    1    1    2  502  501 -0.27659032957E+02  0.14226467651E+02  0.42662203234E+02  0.52796572528E+02  0.00000000000E+00 0. -1.
<scales pt_clust_5="13000.00000" pt_clust_6="13000.00000" pt_clust_7="13000.00000" pt_clust_8="13000.00000" pt_clust_9="31.10329"></scales>
<clustering>
<clus scale="   31.103">  2  9  1 -1</clus>
<clus scale="   85.677">  5  6 -1 -1</clus>
<clus scale="   89.061">  2  5  1 -1</clus>
<clus scale="   91.628">  7  8 -1 -1</clus>
<clus scale="   94.799">  1  5  2 -1</clus>
</clustering>
</event>
<event>
 9    1  0.6202448E-006  0.9985371E+02  0.7546771E-02  0.1282114E+00
          1   -1    0    0  502    0  0.00000000000E+00  0.00000000000E+00  0.71569032502E+02  0.71569032502E+02  0.00000000000E+00 0. -1.
         -1   -1    0    0    0  501 -0.00000000000E+00 -0.00000000000E+00 -0.31703756317E+03  0.31703756317E+03  0.00000000000E+00 0.  1.
         23    2    1    2    0    0 -0.28516726877E+02 -0.31043568777E+02 -0.22830729975E+03  0.24976757794E+03  0.92101644924E+02 0.  0.
         23    2    1    2    0    0 -0.10819318549E+02  0.37977510554E+02 -0.71443902028E+01  0.97659640409E+02  0.89033780621E+02 0.  0.
        -13    1    4    4    0    0  0.28283600648E+02  0.48105599663E+02  0.34161856047E+01  0.55908685449E+02  0.00000000000E+00 0. -1.
         13    1    4    4    0    0 -0.39102919197E+02 -0.10128089109E+02 -0.10560575808E+02  0.41750954960E+02  0.00000000000E+00 0.  1.
        -13    1    3    3    0    0 -0.21503283694E+01 -0.52116683835E+02 -0.66703912565E+02  0.84676942538E+02  0.00000000000E+00 0. -1.
         13    1    3    3    0    0 -0.26366398507E+02  0.21073115058E+02 -0.16160338719E+03  0.16509063541E+03  0.00000000000E+00 0.  1.
         21    1    1    2  502  501  0.39336045426E+02 -0.69339417769E+01 -0.10016840710E+02  0.41179377316E+02  0.00000000000E+00 0. -1.
<scales pt_clust_5="13000.00000" pt_clust_6="13000.00000" pt_clust_7="13000.00000" pt_clust_8="13000.00000" pt_clust_9="39.94251"></scales>
<clustering>
<clus scale="   39.943">  1  9  2 -1</clus>
<clus scale="   89.034">  5  6 -1 -1</clus>
<clus scale="   92.102">  7  8 -1 -1</clus>
<clus scale="   97.031">  1  5  2 -1</clus>
<clus scale="   39.943">  1  5  2 -1</clus>
</clustering>
</event>
<event>
 9    1  0.6202448E-006  0.1434008E+03  0.7546771E-02  0.1223726E+00
         -1   -1    0    0    0  501 -0.00000000000E+00  0.00000000000E+00  0.29133388022E+03  0.29133388022E+03  0.00000000000E+00 0.  1.
          1   -1    0    0  502    0  0.00000000000E+00 -0.00000000000E+00 -0.13246306238E+03  0.13246306238E+03  0.00000000000E+00 0. -1.
         23    2    1    2    0    0  0.27203495153E+02  0.74345604075E+02  0.86399447727E+02  0.15211827020E+03  0.96993837786E+02 0.  0.
         23    2    1    2    0    0  0.25301047764E+02  0.47866337861E+02 -0.23976230754E+02  0.10737826006E+03  0.89576234430E+02 0.  0.
        -11    1    3    3    0    0 -0.26476821532E+02  0.55939133582E+02  0.69162629170E+02  0.92809902587E+02  0.00000000000E+00 0.  1.
         11    1    3    3    0    0  0.53680316685E+02  0.18406470493E+02  0.17236818556E+02  0.59308367617E+02  0.00000000000E+00 0. -1.
        -11    1    4    4    0    0 -0.16291667628E+02  0.58630167340E+02 -0.72816144305E+01  0.61285698700E+02  0.00000000000E+00 0.  1.
         11    1    4    4    0    0  0.41592715393E+02 -0.10763829479E+02 -0.16694616324E+02  0.46092561363E+02  0.00000000000E+00 0. -1.
         21    1    1    2  502  501 -0.52504542918E+02 -0.12221194194E+03  0.96447600865E+02  0.16430041233E+03  0.00000000000E+00 0.  1.
<scales pt_clust_5="13000.00000" pt_clust_6="13000.00000" pt_clust_7="13000.00000" pt_clust_8="13000.00000" pt_clust_9="105.62188"></scales>
<clustering>
<clus scale="   89.576">  7  8 -1 -1</clus>
<clus scale="   96.994">  5  6 -1 -1</clus>
<clus scale="  104.667">  2  7  1 -1</clus>
<clus scale="  105.622">  2  9  1 -1</clus>
<clus scale="  104.667">  2  5  1 -1</clus>
</clustering>
</event>
<event>
 9    1  0.6202448E-006  0.1411348E+03  0.7546771E-02  0.1227955E+00
         -1   -1    0    0    0  501 -0.00000000000E+00  0.00000000000E+00  0.43470134843E+03  0.43470134843E+03  0.00000000000E+00 0.  1.
          1   -1    0    0  502    0  0.00000000000E+00 -0.00000000000E+00 -0.92438774345E+02  0.92438774345E+02  0.00000000000E+00 0. -1.
         23    2    1    2    0    0  0.63973916576E+02 -0.68157208140E+02  0.11464383083E+03  0.17560395419E+03  0.94633364922E+02 0.  0.
         23    2    1    2    0    0 -0.19432601344E+02 -0.33729730494E+02  0.26460641999E+01  0.10058281964E+03  0.92706964336E+02 0.  0.
        -11    1    4    4    0    0  0.13498489385E+02  0.27182317213E+02 -0.55590968750E+01  0.30854353710E+02  0.00000000000E+00 0.  1.
         11    1    4    4    0    0 -0.32931090729E+02 -0.60912047707E+02  0.82051610749E+01  0.69728465929E+02  0.00000000000E+00 0. -1.
        -11    1    3    3    0    0 -0.20514879743E+01  0.21536689404E+02  0.17937479567E+02  0.28103216303E+02  0.00000000000E+00 0.  1.
         11    1    3    3    0    0  0.66025404551E+02 -0.89693897544E+02  0.96706351267E+02  0.14750073789E+03  0.00000000000E+00 0. -1.
         21    1    1    2  502  501 -0.44541315233E+02  0.10188693863E+03  0.22497267905E+03  0.25095334895E+03  0.00000000000E+00 0.  1.
<scales pt_clust_5="13000.00000" pt_clust_6="13000.00000" pt_clust_7="13000.00000" pt_clust_8="13000.00000" pt_clust_9="104.70704"></scales>
<clustering>
<clus scale="   92.707">  5  6 -1 -1</clus>
<clus scale="   94.633">  7  8 -1 -1</clus>
<clus scale="  100.548">  2  5  1 -1</clus>
<clus scale="  104.707">  1  9  2 -1</clus>
<clus scale="  100.548">  2  5  1 -1</clus>
</clustering>
</event>
<event>
 9    1  0.6202448E-006  0.1468491E+03  0.7546771E-02  0.1232218E+00
         -3   -1    0    0    0  501 -0.00000000000E+00  0.00000000000E+00  0.49378949979E+03  0.49378949979E+03  0.00000000000E+00 0.  1.
          3   -1    0    0  502    0  0.00000000000E+00 -0.00000000000E+00 -0.61038038785E+02  0.61038038785E+02  0.00000000000E+00 0. -1.
         23    2    1    2    0    0 -0.71687713064E+02  0.88153858667E+02  0.19327097562E+03  0.24178187579E+03  0.90523888776E+02 0.  0.
         23    2    1    2    0    0  0.13972007053E+02  0.14728141814E+02  0.77320189550E+02  0.11251693595E+03  0.79180262821E+02 0.  0.
        -11    1    4    4    0    0  0.23265653369E+02 -0.17901032125E+02  0.72540363977E+02  0.78254980569E+02  0.00000000000E+00 0.  1.
         11    1    4    4    0    0 -0.92936463167E+01  0.32629173939E+02  0.47798255724E+01  0.34261955378E+02  0.00000000000E+00 0. -1.
        -13    1    3    3    0    0 -0.77526079324E+02  0.37597800283E+02  0.15765999409E+03  0.17966791950E+03  0.00000000000E+00 0. -1.
         13    1    3    3    0    0  0.58383662590E+01  0.50556058384E+02  0.35610981533E+02  0.62113956287E+02  0.00000000000E+00 0.  1.
         21    1    1    2  502  501  0.57715706012E+02 -0.10288200048E+03  0.16216029584E+03  0.20052872684E+03  0.00000000000E+00 0.  1.
<scales pt_clust_5="13000.00000" pt_clust_6="13000.00000" pt_clust_7="13000.00000" pt_clust_8="13000.00000" pt_clust_9="115.62909"></scales>
<clustering>
<clus scale="   79.180">  5  6 -1 -1</clus>
<clus scale="   81.741">  2  5  1 -1</clus>
<clus scale="   90.524">  7  8 -1 -1</clus>
<clus scale="  115.629">  2  9  1 -1</clus>
<clus scale="   81.741">  2  5  1 -1</clus>
</clustering>
</event>
<event>
 9    1  0.6202448E-006  0.1015416E+03  0.7546771E-02  0.1279716E+00
         -2   -1    0    0    0  501 -0.00000000000E+00  0.00000000000E+00  0.53558932658E+02  0.53558932658E+02  0.00000000000E+00 0.  1.
          2   -1    0    0  502    0  0.00000000000E+00 -0.00000000000E+00 -0.35321980093E+03  0.35321980093E+03  0.00000000000E+00 0. -1.
         23    2    1    2    0    0  0.35049177622E+02  0.19895467663E+02 -0.10756777520E+03  0.14748156396E+03  0.92497086221E+02 0.  0.
         23    2    1    2    0    0 -0.23333201126E+02  0.12959159664E+02 -0.19942193814E+03  0.22365446194E+03  0.97672057627E+02 0.  0.
        -11    1    3    3    0    0 -0.37888537361E+01  0.50384323841E+02 -0.44068668412E+02  0.67044634663E+02  0.00000000000E+00 0. -1.
         11    1    3    3    0    0  0.38838031358E+02 -0.30488856178E+02 -0.63499106792E+02  0.80436929294E+02  0.00000000000E+00 0.  1.
        -11    1    4    4    0    0 -0.23924219651E+02 -0.39578200931E+02 -0.11814328193E+03  0.12687252398E+03  0.00000000000E+00 0.  1.
         11    1    4    4    0    0  0.59101852493E+00  0.52537360594E+02 -0.81278656203E+02  0.96781937960E+02  0.00000000000E+00 0. -1.
         21    1    1    2  502  501 -0.11715976496E+02 -0.32854627327E+02  0.73288450624E+01  0.35642707697E+02  0.00000000000E+00 0.  1.
<scales pt_clust_5="13000.00000" pt_clust_6="13000.00000" pt_clust_7="13000.00000" pt_clust_8="13000.00000" pt_clust_9="34.88109"></scales>
<clustering>
<clus scale="   34.881">  1  9  2 -1</clus>
<clus scale="   92.497">  5  6 -1 -1</clus>
<clus scale="   96.574">  1  5  2 -1</clus>
<clus scale="   97.672">  7  8 -1 -1</clus>
<clus scale="  101.542">  2  5  1 -1</clus>
</clustering>
</event>
<event>
 9    1  0.6202448E-006  0.1434223E+03  0.7546771E-02  0.1208905E+00
         -2   -1    0    0    0  501 -0.00000000000E+00  0.00000000000E+00  0.11568098555E+03  0.11568098555E+03  0.00000000000E+00 0.  1.
          2   -1    0    0  502    0  0.00000000000E+00 -0.00000000000E+00 -0.54896017587E+03  0.54896017587E+03  0.00000000000E+00 0. -1.
         23    2    1    2    0    0  0.55105835618E+02  0.25142954741E+01  0.28919041975E+02  0.10935732849E+03  0.89887371215E+02 0.  0.
         23    2    1    2    0    0 -0.72180762882E+02 -0.10468320145E+03 -0.41123812168E+03  0.43984133052E+03  0.90415530289E+02 0.  0.
        -11    1    4    4    0    0 -0.55598812539E+02 -0.50804139019E+02 -0.34376172145E+03  0.35191534441E+03  0.00000000000E+00 0. -1.
         11    1    4    4    0    0 -0.16581950343E+02 -0.53879062434E+02 -0.67476400229E+02  0.87925986113E+02  0.00000000000E+00 0.  1.
        -13    1    3    3    0    0  0.41728527103E+02  0.44398089496E+02  0.11188485803E+02  0.61948708943E+02  0.00000000000E+00 0.  1.
         13    1    3    3    0    0  0.13377308515E+02 -0.41883794022E+02  0.17730556172E+02  0.47408619543E+02  0.00000000000E+00 0. -1.
         21    1    1    2  502  501  0.17074927264E+02  0.10216890598E+03 -0.50960110613E+02  0.11544250241E+03  0.00000000000E+00 0.  1.
<scales pt_clust_5="13000.00000" pt_clust_6="13000.00000" pt_clust_7="13000.00000" pt_clust_8="13000.00000" pt_clust_9="103.58590"></scales>
<clustering>
<clus scale="   89.887">  7  8 -1 -1</clus>
<clus scale="   90.416">  5  6 -1 -1</clus>
<clus scale="  103.586">  1  9  2 -1</clus>
<clus scale="  143.090">  1  7  2 -1</clus>
<clus scale="  143.422">  2  5  1 -1</clus>
</clustering>
</event>
<event>
 9    1  0.6202448E-006  0.1160904E+03  0.7546771E-02  0.1251347E+00
          2   -1    0    0  502    0  0.00000000000E+00  0.00000000000E+00  0.60112681860E+02  0.60112681860E+02  0.00000000000E+00 0. -1.
         -2   -1    0    0    0  501 -0.00000000000E+00 -0.00000000000E+00 -0.29884095262E+03  0.29884095262E+03  0.00000000000E+00 0.  1.
         23    2    1    2    0    0 -0.85377734417E+01  0.36343779246E+02 -0.13818292984E+03  0.18039273138E+03  0.10978730151E+03 0.  0.
         23    2    1    2    0    0 -0.39088227538E+01 -0.62763282320E+01 -0.86978966350E+02  0.14330447267E+03  0.11364928556E+03 0.  0.
        -11    1    4    4    0    0  0.54423706100E+02 -0.10024201936E+02 -0.45265816549E+02  0.71494185483E+02  0.00000000000E+00 0.  1.
         11    1    4    4    0    0 -0.58332528854E+02  0.37478737043E+01 -0.41713149802E+02  0.71810287189E+02  0.00000000000E+00 0. -1.
        -13    1    3    3    0    0 -0.12901429682E+02 -0.17409042773E+02  0.91339075787E+01  0.23514887322E+02  0.00000000000E+00 0.  1.
         13    1    3    3    0    0  0.43636562407E+01  0.53752822018E+02 -0.14731683741E+03  0.15687784406E+03  0.00000000000E+00 0. -1.
         21    1    1    2  502  501  0.12446596195E+02 -0.30067451014E+02 -0.13566374571E+02  0.35256430425E+02  0.00000000000E+00 0.  1.
<scales pt_clust_5="13000.00000" pt_clust_6="13000.00000" pt_clust_7="13000.00000" pt_clust_8="13000.00000" pt_clust_9="32.54181"></scales>
<clustering>
<clus scale="   32.542">  1  9  2 -1</clus>
<clus scale="  109.787">  7  8 -1 -1</clus>
<clus scale="  112.312">  2  7  1 -1</clus>
<clus scale="  113.649">  5  6 -1 -1</clus>
<clus scale="   32.542">  1  5  2 -1</clus>
</clustering>
</event>
<event>
 9    1  0.6202448E-006  0.1091701E+03  0.7546771E-02  0.1262885E+00
         -1   -1    0    0    0  501 -0.00000000000E+00  0.00000000000E+00  0.17348717316E+03  0.17348717316E+03  0.00000000000E+00 0.  1.
          1   -1    0    0  502    0  0.00000000000E+00 -0.00000000000E+00 -0.10789989096E+03  0.10789989096E+03  0.00000000000E+00 0. -1.
         23    2    1    2    0    0 -0.21485889286E+02 -0.34518257261E+02  0.27213020093E+02  0.10389000986E+03  0.91648416039E+02 0.  0.
         23    2    1    2    0    0  0.67390135073E+02  0.42627994058E+02  0.49158471523E+01  0.12011732663E+03  0.89696323346E+02 0.  0.
        -13    1    4    4    0    0  0.60177352284E+02  0.99937647651E+01 -0.33177942554E+02  0.69440369629E+02  0.00000000000E+00 0. -1.
         13    1    4    4    0    0  0.72127827893E+01  0.32634229293E+02  0.38093789706E+02  0.50676957005E+02  0.00000000000E+00 0.  1.
        -13    1    3    3    0    0 -0.51448221028E+02 -0.23427383778E+02  0.40236612075E+02  0.69388375892E+02  0.00000000000E+00 0.  1.
         13    1    3    3    0    0  0.29962331742E+02 -0.11090873484E+02 -0.13023591982E+02  0.34501633964E+02  0.00000000000E+00 0. -1.
         21    1    1    2  502  501 -0.45904245787E+02 -0.81097367962E+01  0.33458414952E+02  0.57379727633E+02  0.00000000000E+00 0.  1.
<scales pt_clust_5="13000.00000" pt_clust_6="13000.00000" pt_clust_7="13000.00000" pt_clust_8="13000.00000" pt_clust_9="46.61510"></scales>
<clustering>
<clus scale="   46.615">  1  9  2 -1</clus>
<clus scale="   89.696">  5  6 -1 -1</clus>
<clus scale="   91.648">  7  8 -1 -1</clus>
<clus scale="  107.537">  2  5  1 -1</clus>
<clus scale="  107.537">  2  5  1 -1</clus>
</clustering>
</event>
<event>
 9    1  0.6202448E-006  0.2088683E+03  0.7546771E-02  0.1175602E+00
          1   -1    0    0  502    0  0.00000000000E+00  0.00000000000E+00  0.41062491509E+03  0.41062491509E+03  0.00000000000E+00 0. -1.
         -1   -1    0    0    0  501 -0.00000000000E+00 -0.00000000000E+00 -0.52106266234E+03  0.52106266234E+03  0.00000000000E+00 0.  1.
         23    2    1    2    0    0 -0.24509752327E+02  0.64501135057E+01 -0.28732586310E+03  0.30307692858E+03  0.93043759109E+02 0.  0.
         23    2    1    2    0    0  0.10068872412E+03  0.15960404633E+03  0.32946919813E+03  0.39058080532E+03  0.91606452823E+02 0.  0.
        -11    1    3    3    0    0 -0.48162855529E+02  0.19296746534E+01 -0.26771788313E+03  0.27202251606E+03  0.00000000000E+00 0.  1.
         11    1    3    3    0    0  0.23653103202E+02  0.45204388522E+01 -0.19607979971E+02  0.31054412521E+02  0.00000000000E+00 0. -1.
        -13    1    4    4    0    0  0.45585934208E+01  0.19939079632E+02  0.11689398464E+03  0.11866992591E+03  0.00000000000E+00 0.  1.
         13    1    4    4    0    0  0.96130130703E+02  0.13966496670E+03  0.21257521349E+03  0.27191087941E+03  0.00000000000E+00 0. -1.
         21    1    1    2  502  501 -0.76178971797E+02 -0.16605415983E+03 -0.15258108228E+03  0.23802984353E+03  0.00000000000E+00 0.  1.
<scales pt_clust_5="13000.00000" pt_clust_6="13000.00000" pt_clust_7="13000.00000" pt_clust_8="13000.00000" pt_clust_9="187.70786"></scales>
<clustering>
<clus scale="   91.606">  7  8 -1 -1</clus>
<clus scale="   93.044">  5  6 -1 -1</clus>
<clus scale="   96.434">  2  5  1 -1</clus>
<clus scale="  187.708">  2  9  1 -1</clus>
<clus scale="  208.868">  1  5  2 -1</clus>
</clustering>
</event>
<event>
 9    1  0.6202448E-006  0.1216673E+03  0.7546771E-02  0.1244180E+00
          3   -1    0    0  502    0  0.00000000000E+00  0.00000000000E+00  0.60842377500E+03  0.60842377500E+03  0.00000000000E+00 0. -1.
         -3   -1    0    0    0  501 -0.00000000000E+00 -0.00000000000E+00 -0.29747896330E+02  0.29747896330E+02  0.00000000000E+00 0.  1.
         23    2    1    2    0    0 -0.76114875474E+02  0.48636874966E+02  0.21777324963E+03  0.24883913549E+03  0.79603437255E+02 0.  0.
         23    2    1    2    0    0  0.64833162881E+02 -0.22708460498E+02  0.25343475236E+03  0.27820691217E+03  0.91928771839E+02 0.  0.
        -13    1    3    3    0    0 -0.47310638012E+02  0.69712825424E+02  0.16253702690E+03  0.18307501089E+03  0.00000000000E+00 0. -1.
         13    1    3    3    0    0 -0.28804237462E+02 -0.21075950459E+02  0.55236222728E+02  0.65764124603E+02  0.00000000000E+00 0.  1.
        -13    1    4    4    0    0 -0.13452558804E+02 -0.21268403903E+02  0.12716391009E+03  0.12963015225E+03  0.00000000000E+00 0.  1.
         13    1    4    4    0    0  0.78285721684E+02 -0.14400565948E+01  0.12627084227E+03  0.14857675992E+03  0.00000000000E+00 0. -1.
         21    1    1    2  502  501  0.11281712593E+02 -0.25928414468E+02  0.10746787668E+03  0.11112562366E+03  0.00000000000E+00 0.  1.
<scales pt_clust_5="13000.00000" pt_clust_6="13000.00000" pt_clust_7="13000.00000" pt_clust_8="13000.00000" pt_clust_9="28.27649"></scales>
<clustering>
<clus scale="   28.276">  1  9  2 -1</clus>
<clus scale="   79.603">  5  6 -1 -1</clus>
<clus scale="   91.929">  7  8 -1 -1</clus>
<clus scale="  112.644">  2  5  1 -1</clus>
<clus scale="   28.276">  1  5  2 -1</clus>
</clustering>
</event>
<event>
 9    1  0.6202448E-006  0.1051201E+03  0.7546771E-02  0.1270184E+00
          1   -1    0    0  502    0  0.00000000000E+00  0.00000000000E+00  0.68049337676E+02  0.68049337676E+02  0.00000000000E+00 0. -1.
         -1   -1    0    0    0  501 -0.00000000000E+00 -0.00000000000E+00 -0.32525040517E+03  0.32525040517E+03  0.00000000000E+00 0.  1.
         23    2    1    2    0    0 -0.20985455313E+02 -0.52777043146E+02 -0.17207742032E+03  0.20178974884E+03  0.88784337220E+02 0.  0.
         23    2    1    2    0    0  0.43071127022E+02  0.36824896782E+02 -0.11135325712E+03  0.15369147596E+03  0.89500429643E+02 0.  0.
        -11    1    4    4    0    0  0.54624338669E+02 -0.98316284381E+01 -0.75601847616E+02  0.93787625280E+02  0.00000000000E+00 0. -1.
         11    1    4    4    0    0 -0.11553211647E+02  0.46656525220E+02 -0.35751409503E+02  0.59903850681E+02  0.00000000000E+00 0.  1.
        -13    1    3    3    0    0  0.34804693603E+02 -0.25141164118E+02 -0.64162839701E+02  0.77203075253E+02  0.00000000000E+00 0. -1.
         13    1    3    3    0    0 -0.55790148916E+02 -0.27635879028E+02 -0.10791458062E+03  0.12458667359E+03  0.00000000000E+00 0.  1.
         21    1    1    2  502  501 -0.22085671709E+02  0.15952146365E+02  0.26229609950E+02  0.37818518039E+02  0.00000000000E+00 0. -1.
<scales pt_clust_5="13000.00000" pt_clust_6="13000.00000" pt_clust_7="13000.00000" pt_clust_8="13000.00000" pt_clust_9="27.24423"></scales>
<clustering>
<clus scale="   27.244">  1  9  2 -1</clus>
<clus scale="   88.784">  7  8 -1 -1</clus>
<clus scale="   89.500">  5  6 -1 -1</clus>
<clus scale="  104.511">  2  7  1 -1</clus>
<clus scale="   27.244">  1  5  2 -1</clus>
</clustering>
</event>
<event>
 9    1  0.6202448E-006  0.1613132E+03  0.7546771E-02  0.1187509E+00
          2   -1    0    0  502    0  0.00000000000E+00  0.00000000000E+00  0.68107792793E+03  0.68107792793E+03  0.00000000000E+00 0. -1.
         -2   -1    0    0    0  501 -0.00000000000E+00 -0.00000000000E+00 -0.21545577052E+03  0.21545577052E+03  0.00000000000E+00 0.  1.
         23    2    1    2    0    0  0.15293579039E+03  0.82290697023E+02 -0.92792336813E+02  0.21737768026E+03  0.92095186130E+02 0.  0.
         23    2    1    2    0    0 -0.11549243213E+03 -0.59059373728E+02  0.59884759208E+03  0.61935188068E+03  0.90287330561E+02 0.  0.
        -11    1    3    3    0    0  0.49679021234E+02 -0.80910526565E+01  0.23622771171E+01  0.50388993213E+02  0.00000000000E+00 0. -1.
         11    1    3    3    0    0  0.10325676915E+03  0.90381749680E+02 -0.95154613930E+02  0.16698868705E+03  0.00000000000E+00 0.  1.
        -11    1    4    4    0    0 -0.11972957209E+03 -0.24587028747E+02  0.43387752755E+03  0.45076535063E+03  0.00000000000E+00 0.  1.
         11    1    4    4    0    0  0.42371399654E+01 -0.34472344981E+02  0.16497006453E+03  0.16858653005E+03  0.00000000000E+00 0. -1.
         21    1    1    2  502  501 -0.37443358259E+02 -0.23231323295E+02 -0.40433097860E+02  0.59804137502E+02  0.00000000000E+00 0.  1.
<scales pt_clust_5="13000.00000" pt_clust_6="13000.00000" pt_clust_7="13000.00000" pt_clust_8="13000.00000" pt_clust_9="44.06472"></scales>
<clustering>
<clus scale="   44.065">  2  9  1 -1</clus>
<clus scale="   90.287">  7  8 -1 -1</clus>
<clus scale="   92.095">  5  6 -1 -1</clus>
<clus scale="  160.288">  1  7  2 -1</clus>
<clus scale="  160.288">  1  5  2 -1</clus>
</clustering>
</event>
<event>
 9    1  0.6202448E-006  0.1124075E+03  0.7546771E-02  0.1260196E+00
          1   -1    0    0  502    0  0.00000000000E+00  0.00000000000E+00  0.93884849067E+03  0.93884849067E+03  0.00000000000E+00 0. -1.
         -1   -1    0    0    0  501 -0.00000000000E+00 -0.00000000000E+00 -0.30247613347E+02  0.30247613347E+02  0.00000000000E+00 0.  1.
         23    2    1    2    0    0  0.33832895232E+02 -0.97064908370E+02  0.23808152793E+03  0.27135888092E+03  0.79916000123E+02 0.  0.
         23    2    1    2    0    0 -0.39617777202E+02  0.93047756580E+01  0.27173334607E+03  0.28936780431E+03  0.90766555983E+02 0.  0.
        -11    1    4    4    0    0 -0.47381646975E+01 -0.38735323862E+02  0.12920697194E+03  0.13497154188E+03  0.00000000000E+00 0.  1.
         11    1    4    4    0    0 -0.34879612505E+02  0.48040099520E+02  0.14252637413E+03  0.15439626243E+03  0.00000000000E+00 0. -1.
        -13    1    3    3    0    0 -0.23100532377E+02 -0.24967697893E+02  0.36847819087E+02  0.50147605184E+02  0.00000000000E+00 0. -1.
         13    1    3    3    0    0  0.56933427610E+02 -0.72097210477E+02  0.20123370884E+03  0.22121127574E+03  0.00000000000E+00 0.  1.
         21    1    1    2  502  501  0.57848819703E+01  0.87760132712E+02  0.39878600332E+03  0.40836941878E+03  0.00000000000E+00 0. -1.
<scales pt_clust_5="13000.00000" pt_clust_6="13000.00000" pt_clust_7="13000.00000" pt_clust_8="13000.00000" pt_clust_9="87.95059"></scales>
<clustering>
<clus scale="   79.916">  7  8 -1 -1</clus>
<clus scale="   87.951">  1  9  2 -1</clus>
<clus scale="   90.767">  5  6 -1 -1</clus>
<clus scale="  103.843">  2  7  1 -1</clus>
<clus scale="   87.951">  1  5  2 -1</clus>
</clustering>
</event>
<event>
 9    1  0.6202448E-006  0.4043496E+03  0.7546771E-02  0.1077650E+00
          2   -1    0    0  502    0  0.00000000000E+00  0.00000000000E+00  0.43174396378E+03  0.43174396378E+03  0.00000000000E+00 0. -1.
         -2   -1    0    0    0  501 -0.00000000000E+00 -0.00000000000E+00 -0.54362545520E+03  0.54362545520E+03  0.00000000000E+00 0.  1.
         23    2    1    2    0    0 -0.11966128711E+03 -0.42496024340E+03 -0.17826105446E+03  0.48428779672E+03  0.88586874941E+02 0.  0.
         23    2    1    2    0    0  0.71916230938E+02  0.92219682420E+02  0.14164822233E+02  0.15090188965E+03  0.94309723860E+02 0.  0.
        -11    1    4    4    0    0  0.89367761061E+02  0.72843466458E+02  0.31584278052E+02  0.11954218478E+03  0.00000000000E+00 0. -1.
         11    1    4    4    0    0 -0.17451530123E+02  0.19376215962E+02 -0.17419455819E+02  0.31359704872E+02  0.00000000000E+00 0.  1.
        -13    1    3    3    0    0 -0.92633816027E+02 -0.39762023885E+03 -0.17912281374E+03  0.44583389353E+03  0.00000000000E+00 0.  1.
         13    1    3    3    0    0 -0.27027471082E+02 -0.27340004555E+02  0.86175927830E+00  0.38453903199E+02  0.00000000000E+00 0. -1.
         21    1    1    2  502  501  0.47745056171E+02  0.33274056098E+03  0.52214740803E+02  0.34017973260E+03  0.00000000000E+00 0. -1.
<scales pt_clust_5="13000.00000" pt_clust_6="13000.00000" pt_clust_7="13000.00000" pt_clust_8="13000.00000" pt_clust_9="394.52623"></scales>
<clustering>
<clus scale="   88.587">  7  8 -1 -1</clus>
<clus scale="   94.310">  5  6 -1 -1</clus>
<clus scale="  150.236">  1  5  2 -1</clus>
<clus scale="  394.526">  1  9  2 -1</clus>
<clus scale="  150.236">  1  5  2 -1</clus>
</clustering>
</event>
<event>
 9    1  0.6202448E-006  0.9954070E+02  0.7546771E-02  0.1285822E+00
         -1   -1    0    0    0  501 -0.00000000000E+00  0.00000000000E+00  0.33530595430E+03  0.33530595430E+03  0.00000000000E+00 0.  1.
          1   -1    0    0  502    0  0.00000000000E+00 -0.00000000000E+00 -0.44384989673E+02  0.44384989673E+02  0.00000000000E+00 0. -1.
         23    2    1    2    0    0  0.40006124232E+02 -0.32985461572E+02  0.97493623903E+02  0.14362447860E+03  0.91839280820E+02 0.  0.
         23    2    1    2    0    0 -0.12197348218E+02  0.26442914027E+02  0.78996348041E+02  0.11812332212E+03  0.82853444226E+02 0.  0.
        -11    1    3    3    0    0  0.10740933143E+02 -0.40737164932E+02  0.62371851286E+00  0.42133991933E+02  0.00000000000E+00 0. -1.
         11    1    3    3    0    0  0.29265191089E+02  0.77517033593E+01  0.96869905390E+02  0.10149048667E+03  0.00000000000E+00 0.  1.
        -13    1    4    4    0    0  0.11253601454E+02  0.49546729828E+02  0.64615888001E+02  0.82199361095E+02  0.00000000000E+00 0.  1.
         13    1    4    4    0    0 -0.23450949672E+02 -0.23103815801E+02  0.14380460040E+02  0.35923961029E+02  0.00000000000E+00 0. -1.
         21    1    1    2  502  501 -0.27808776013E+02  0.65425475454E+01  0.11443099269E+03  0.11794314325E+03  0.00000000000E+00 0.  1.
<scales pt_clust_5="13000.00000" pt_clust_6="13000.00000" pt_clust_7="13000.00000" pt_clust_8="13000.00000" pt_clust_9="28.56804"></scales>
<clustering>
<clus scale="   28.568">  1  9  2 -1</clus>
<clus scale="   82.853">  7  8 -1 -1</clus>
<clus scale="   91.316">  2  7  1 -1</clus>
<clus scale="   91.839">  5  6 -1 -1</clus>
<clus scale="   91.316">  2  5  1 -1</clus>
</clustering>
</event>
<event>
 9    1  0.6202448E-006  0.1252932E+03  0.7546771E-02  0.1235640E+00
          1   -1    0    0  502    0  0.00000000000E+00  0.00000000000E+00  0.42356657193E+02  0.42356657193E+02  0.00000000000E+00 0. -1.
         -1   -1    0    0    0  501 -0.00000000000E+00 -0.00000000000E+00 -0.81580553490E+03  0.81580553490E+03  0.00000000000E+00 0.  1.
         23    2    1    2    0    0  0.54558382260E+02  0.99840460198E+02 -0.40301480715E+03  0.42868556546E+03  0.91682303000E+02 0.  0.
         23    2    1    2    0    0 -0.67628763495E+01 -0.78369693683E+02 -0.10221070092E+03  0.15618341373E+03  0.88083403414E+02 0.  0.
        -11    1    4    4    0    0 -0.27097107535E+02 -0.90086247291E+02 -0.75468042175E+02  0.12060352639E+03  0.00000000000E+00 0. -1.
         11    1    4    4    0    0  0.20334231186E+02  0.11716553608E+02 -0.26742658742E+02  0.35579887338E+02  0.00000000000E+00 0.  1.
        -13    1    3    3    0    0  0.28391729108E+02 -0.96717932093E+01 -0.12896786768E+03  0.13240976082E+03  0.00000000000E+00 0. -1.
         13    1    3    3    0    0  0.26166653152E+02  0.10951225341E+03 -0.27404693947E+03  0.29627580464E+03  0.00000000000E+00 0.  1.
         21    1    1    2  502  501 -0.47795505910E+02 -0.21470766515E+02 -0.26822336964E+03  0.27329321291E+03  0.00000000000E+00 0.  1.
<scales pt_clust_5="13000.00000" pt_clust_6="13000.00000" pt_clust_7="13000.00000" pt_clust_8="13000.00000" pt_clust_9="52.39660"></scales>
<clustering>
<clus scale="   52.397">  2  9  1 -1</clus>
<clus scale="   88.083">  5  6 -1 -1</clus>
<clus scale="   91.682">  7  8 -1 -1</clus>
<clus scale="  122.684">  1  5  2 -1</clus>
<clus scale="  122.684">  1  5  2 -1</clus>
</clustering>
</event>
<event>
 9    1  0.6202448E-006  0.9851840E+02  0.7546771E-02  0.1284749E+00
          4   -1    0    0  502    0  0.00000000000E+00  0.00000000000E+00  0.36381458729E+03  0.36381458729E+03  0.00000000000E+00 0. -1.
         -4   -1    0    0    0  501 -0.00000000000E+00 -0.00000000000E+00 -0.92656660581E+02  0.92656660581E+02  0.00000000000E+00 0.  1.
         23    2    1    2    0    0 -0.22974062721E+02  0.14398865706E+02 -0.38560917142E+02  0.10464264844E+03  0.93423790603E+02 0.  0.
         23    2    1    2    0    0  0.30839827724E+02 -0.39559136425E+02  0.11336870160E+03  0.15371679301E+03  0.90886576024E+02 0.  0.
        -11    1    3    3    0    0  0.42526527501E+01 -0.35982330953E+02 -0.11744200343E+01  0.36251792489E+02  0.00000000000E+00 0. -1.
         11    1    3    3    0    0 -0.27226715471E+02  0.50381196658E+02 -0.37386497108E+02  0.68390855954E+02  0.00000000000E+00 0.  1.
        -13    1    4    4    0    0 -0.60114248517E+01 -0.32957994177E+02  0.11128791724E+03  0.11622119915E+03  0.00000000000E+00 0. -1.
         13    1    4    4    0    0  0.36851252576E+02 -0.66011422472E+01  0.20807843667E+01  0.37495593860E+02  0.00000000000E+00 0.  1.
         21    1    1    2  502  501 -0.78657650029E+01  0.25160270719E+02  0.19635014225E+03  0.19811180642E+03  0.00000000000E+00 0. -1.
<scales pt_clust_5="13000.00000" pt_clust_6="13000.00000" pt_clust_7="13000.00000" pt_clust_8="13000.00000" pt_clust_9="26.36114"></scales>
<clustering>
<clus scale="   26.361">  1  9  2 -1</clus>
<clus scale="   90.887">  7  8 -1 -1</clus>
<clus scale="   93.424">  5  6 -1 -1</clus>
<clus scale="   96.116">  1  7  2 -1</clus>
<clus scale="   26.361">  1  5  2 -1</clus>
</clustering>
</event>
<event>
 9    1  0.6202448E-006  0.1089987E+03  0.7546771E-02  0.1266017E+00
         -1   -1    0    0    0  501 -0.00000000000E+00  0.00000000000E+00  0.42880617793E+02  0.42880617793E+02  0.00000000000E+00 0.  1.
          1   -1    0    0  502    0  0.00000000000E+00 -0.00000000000E+00 -0.36224893355E+03  0.36224893355E+03  0.00000000000E+00 0. -1.
         23    2    1    2    0    0  0.46761889734E+02  0.41531450230E+02 -0.10818718282E+03  0.15792963576E+03  0.96570014167E+02 0.  0.
         23    2    1    2    0    0 -0.16614216772E+02 -0.34522770658E+02 -0.14290653245E+03  0.17223709249E+03  0.88178711256E+02 0.  0.
        -13    1    3    3    0    0  0.22542990237E+02  0.21877410996E+02  0.12100849960E+02  0.33663601864E+02  0.00000000000E+00 0.  1.
         13    1    3    3    0    0  0.24218899497E+02  0.19654039233E+02 -0.12028803278E+03  0.12426603390E+03  0.00000000000E+00 0. -1.
        -13    1    4    4    0    0  0.29245666661E+02 -0.36917089075E+02 -0.50530769811E+02  0.69076328665E+02  0.00000000000E+00 0. -1.
         13    1    4    4    0    0 -0.45859883433E+02  0.23943184167E+01 -0.92375762640E+02  0.10316076382E+03  0.00000000000E+00 0.  1.
         21    1    1    2  502  501 -0.30147672963E+02 -0.70086795715E+01 -0.68274600485E+02  0.74962823091E+02  0.00000000000E+00 0. -1.
<scales pt_clust_5="13000.00000" pt_clust_6="13000.00000" pt_clust_7="13000.00000" pt_clust_8="13000.00000" pt_clust_9="30.95164"></scales>
<clustering>
<clus scale="   30.952">  2  9  1 -1</clus>
<clus scale="   88.179">  7  8 -1 -1</clus>
<clus scale="   96.570">  5  6 -1 -1</clus>
<clus scale="  101.639">  2  7  1 -1</clus>
<clus scale="   30.952">  2  5  1 -1</clus>
</clustering>
</event>
<event>
 9    1  0.6202448E-006  0.9414483E+02  0.7546771E-02  0.1293453E+00
          2   -1    0    0  502    0  0.00000000000E+00  0.00000000000E+00  0.21620551288E+03  0.21620551288E+03  0.00000000000E+00 0. -1.
         -2   -1    0    0    0  501 -0.00000000000E+00 -0.00000000000E+00 -0.81334143089E+02  0.81334143089E+02  0.00000000000E+00 0.  1.
         23    2    1    2    0    0 -0.44790463012E+02 -0.12928234858E+02  0.56500352568E+02  0.11735977400E+03  0.91693521470E+02 0.  0.
         23    2    1    2    0    0 -0.15483996170E+02  0.16735340591E+02  0.72378831974E+02  0.11948877251E+03  0.92298676452E+02 0.  0.
        -11    1    3    3    0    0 -0.47888032960E+01 -0.42208633626E+02  0.38140752331E+00  0.42481135357E+02  0.00000000000E+00 0. -1.
         11    1    3    3    0    0 -0.40001659716E+02  0.29280398767E+02  0.56118945045E+02  0.74878638642E+02  0.00000000000E+00 0.  1.
        -13    1    4    4    0    0 -0.18807912229E+02 -0.84900903652E+01  0.87493800775E+02  0.89894295542E+02  0.00000000000E+00 0. -1.
         13    1    4    4    0    0  0.33239160588E+01  0.25225430956E+02 -0.15114968802E+02  0.29594476964E+02  0.00000000000E+00 0.  1.
         21    1    1    2  502  501  0.60274459182E+02 -0.38071057323E+01  0.59921852482E+01  0.60691109463E+02  0.00000000000E+00 0.  1.
<scales pt_clust_5="13000.00000" pt_clust_6="13000.00000" pt_clust_7="13000.00000" pt_clust_8="13000.00000" pt_clust_9="60.39457"></scales>
<clustering>
<clus scale="   60.395">  2  9  1 -1</clus>
<clus scale="   91.694">  5  6 -1 -1</clus>
<clus scale="   92.299">  7  8 -1 -1</clus>
<clus scale="   93.552">  2  5  1 -1</clus>
<clus scale="   94.145">  1  5  2 -1</clus>
</clustering>
</event>
<event>
 9    1  0.6202448E-006  0.1169822E+03  0.7546771E-02  0.1254778E+00
          1   -1    0    0  502    0  0.00000000000E+00  0.00000000000E+00  0.80568065452E+03  0.80568065452E+03  0.00000000000E+00 0. -1.
         -1   -1    0    0    0  501 -0.00000000000E+00 -0.00000000000E+00 -0.21004998064E+02  0.21004998064E+02  0.00000000000E+00 0.  1.
         23    2    1    2    0    0 -0.31321696366E+02 -0.29159622935E+02  0.20865742230E+03  0.22955354879E+03  0.85589599898E+02 0.  0.
         23    2    1    2    0    0  0.54592975980E+02  0.36244112090E+02  0.54093990274E+03  0.55444449696E+03  0.10246313068E+03 0.  0.
        -13    1    3    3    0    0 -0.21678655583E+02 -0.47647425172E+02  0.20040398579E+03  0.20712797675E+03  0.00000000000E+00 0.  1.
         13    1    3    3    0    0 -0.96430407832E+01  0.18487802238E+02  0.82534365075E+01  0.22425572040E+02  0.00000000000E+00 0. -1.
        -13    1    4    4    0    0  0.46700453766E+02  0.70874326782E+02  0.41506781513E+03  0.42365716533E+03  0.00000000000E+00 0. -1.
         13    1    4    4    0    0  0.78925222139E+01 -0.34630214692E+02  0.12587208761E+03  0.13078733164E+03  0.00000000000E+00 0.  1.
         21    1    1    2  502  501 -0.23271279613E+02 -0.70844891556E+01  0.35078331415E+02  0.42687606823E+02  0.00000000000E+00 0.  1.
<scales pt_clust_5="13000.00000" pt_clust_6="13000.00000" pt_clust_7="13000.00000" pt_clust_8="13000.00000" pt_clust_9="24.32576"></scales>
<clustering>
<clus scale="   24.326">  2  9  1 -1</clus>
<clus scale="   85.590">  5  6 -1 -1</clus>
<clus scale="  102.463">  7  8 -1 -1</clus>
<clus scale="  102.527">  2  5  1 -1</clus>
<clus scale="  116.982">  1  5  2 -1</clus>
</clustering>
</event>
<event>
 9    1  0.6202448E-006  0.1458892E+03  0.7546771E-02  0.1209442E+00
         -2   -1    0    0    0  501 -0.00000000000E+00  0.00000000000E+00  0.13049095837E+03  0.13049095837E+03  0.00000000000E+00 0.  1.
          2   -1    0    0  502    0  0.00000000000E+00 -0.00000000000E+00 -0.49282299530E+03  0.49282299530E+03  0.00000000000E+00 0. -1.
         23    2    1    2    0    0  0.13369192946E+03 -0.12583653201E+02  0.11026217442E+02  0.17164894409E+03  0.10634802398E+03 0.  0.
         23    2    1    2    0    0 -0.51583912182E+02 -0.50056258174E+02 -0.78785942601E+02  0.13951387333E+03  0.89946468081E+02 0.  0.
        -13    1    4    4    0    0 -0.18945868881E+02  0.89732992346E+01 -0.68059161268E+02  0.71214573503E+02  0.00000000000E+00 0. -1.
         13    1    4    4    0    0 -0.32638043301E+02 -0.59029557409E+02 -0.10726781333E+02  0.68299299822E+02  0.00000000000E+00 0.  1.
        -13    1    3    3    0    0  0.69519062097E+02 -0.27534760775E+02  0.54658373614E+02  0.92620736619E+02  0.00000000000E+00 0.  1.
         13    1    3    3    0    0  0.64172867365E+02  0.14951107574E+02 -0.43632156172E+02  0.79028207470E+02  0.00000000000E+00 0. -1.
         21    1    1    2  502  501 -0.82108017280E+02  0.62639911375E+02 -0.29457231178E+03  0.31215113625E+03  0.00000000000E+00 0. -1.
<scales pt_clust_5="13000.00000" pt_clust_6="13000.00000" pt_clust_7="13000.00000" pt_clust_8="13000.00000" pt_clust_9="103.27384"></scales>
<clustering>
<clus scale="   89.946">  5  6 -1 -1</clus>
<clus scale="  103.274">  2  9  1 -1</clus>
<clus scale="  106.348">  7  8 -1 -1</clus>
<clus scale="  134.403">  2  5  1 -1</clus>
<clus scale="  103.274">  2  5  1 -1</clus>
</clustering>
</event>
<event>
 9    1  0.6202448E-006  0.1004887E+03  0.7546771E-02  0.1279276E+00
         -1   -1    0    0    0  501 -0.00000000000E+00  0.00000000000E+00  0.57165257288E+03  0.57165257288E+03  0.00000000000E+00 0.  1.
          1   -1    0    0  502    0  0.00000000000E+00 -0.00000000000E+00 -0.72268346934E+02  0.72268346934E+02  0.00000000000E+00 0. -1.
         23    2    1    2    0    0  0.42086538138E+02 -0.37487687822E+02  0.42170264032E+03  0.43540679077E+03  0.92570800850E+02 0.  0.
         23    2    1    2    0    0  0.36158459925E+02 -0.49848788162E+01  0.64310952192E+02  0.11848650840E+03  0.92578997941E+02 0.  0.
        -11    1    3    3    0    0  0.68239098461E+02 -0.23903734112E+02  0.35784906205E+03  0.36508069557E+03  0.00000000000E+00 0.  1.
         11    1    3    3    0    0 -0.26152560323E+02 -0.13583953710E+02  0.63853578266E+02  0.70326095208E+02  0.00000000000E+00 0. -1.
        -13    1    4    4    0    0  0.64621231020E+02  0.12604206717E+02  0.46289617068E+02  0.80482906097E+02  0.00000000000E+00 0.  1.
         13    1    4    4    0    0 -0.28462771095E+02 -0.17589085534E+02  0.18021335124E+02  0.38003602302E+02  0.00000000000E+00 0. -1.
         21    1    1    2  502  501 -0.78244998064E+02  0.42472566638E+02  0.13370633431E+02  0.90027620635E+02  0.00000000000E+00 0. -1.
<scales pt_clust_5="13000.00000" pt_clust_6="13000.00000" pt_clust_7="13000.00000" pt_clust_8="13000.00000" pt_clust_9="89.02920"></scales>
<clustering>
<clus scale="   89.029">  2  9  1 -1</clus>
<clus scale="   92.571">  5  6 -1 -1</clus>
<clus scale="   92.579">  7  8 -1 -1</clus>
<clus scale="  100.481">  1  5  2 -1</clus>
<clus scale="   89.029">  2  5  1 -1</clus>
</clustering>
</event>
<event>
 9    1  0.6202448E-006  0.2099668E+03  0.7546771E-02  0.1175081E+00
         -1   -1    0    0    0  501 -0.00000000000E+00  0.00000000000E+00  0.17266772587E+03  0.17266772587E+03  0.00000000000E+00 0.  1.
          1   -1    0    0  502    0  0.00000000000E+00 -0.00000000000E+00 -0.63943782226E+03  0.63943782226E+03  0.00000000000E+00 0. -1.
         23    2    1    2    0    0  0.30054348012E+02 -0.14705692575E+02  0.60403094797E+02  0.11346852817E+03  0.90039168117E+02 0.  0.
         23    2    1    2    0    0 -0.21217974945E+03 -0.39534300583E+01 -0.13792295533E+03  0.26848173309E+03  0.89575798671E+02 0.  0.
        -11    1    4    4    0    0 -0.10537983775E+03 -0.13960056867E+02 -0.11898841484E+03  0.15955574655E+03  0.00000000000E+00 0. -1.
         11    1    4    4    0    0 -0.10679991170E+03  0.10006626808E+02 -0.18934540496E+02  0.10892598654E+03  0.00000000000E+00 0.  1.
        -11    1    3    3    0    0  0.90824996461E+01  0.37581662217E+02  0.16463156207E+02  0.42022715847E+02  0.00000000000E+00 0.  1.
         11    1    3    3    0    0  0.20971848365E+02 -0.52287354793E+02  0.43939938590E+02  0.71445812322E+02  0.00000000000E+00 0. -1.
         21    1    1    2  502  501  0.18212540144E+03  0.18659122633E+02 -0.38925023585E+03  0.43015528687E+03  0.00000000000E+00 0. -1.
<scales pt_clust_5="13000.00000" pt_clust_6="13000.00000" pt_clust_7="13000.00000" pt_clust_8="13000.00000" pt_clust_9="189.90064"></scales>
<clustering>
<clus scale="   89.576">  5  6 -1 -1</clus>
<clus scale="   90.039">  7  8 -1 -1</clus>
<clus scale="   96.055">  1  7  2 -1</clus>
<clus scale="  189.901">  2  9  1 -1</clus>
<clus scale="  189.901">  2  5  1 -1</clus>
</clustering>
</event>
<event>
 9    1  0.6202448E-006  0.9729583E+02  0.7546771E-02  0.1286650E+00
         -1   -1    0    0    0  501 -0.00000000000E+00  0.00000000000E+00  0.33171264091E+02  0.33171264091E+02  0.00000000000E+00 0.  1.
          1   -1    0    0  502    0  0.00000000000E+00 -0.00000000000E+00 -0.62817124712E+03  0.62817124712E+03  0.00000000000E+00 0. -1.
         23    2    1    2    0    0  0.19392099744E+01  0.11163822481E+02 -0.18133441255E+03  0.20344174163E+03  0.91531314843E+02 0.  0.
         23    2    1    2    0    0  0.50068011122E+02  0.46570869170E+02 -0.28795084314E+03  0.31010957114E+03  0.92609969510E+02 0.  0.
        -11    1    4    4    0    0 -0.24263621486E+02  0.13442917754E+02 -0.36670947318E+02  0.45980362576E+02  0.00000000000E+00 0.  1.
         11    1    4    4    0    0  0.74331632607E+02  0.33127951416E+02 -0.25127989582E+03  0.26412920856E+03  0.00000000000E+00 0. -1.
        -13    1    3    3    0    0  0.21188728094E+02 -0.19336080457E+02 -0.15777704487E+03  0.16036346870E+03  0.00000000000E+00 0. -1.
         13    1    3    3    0    0 -0.19249518119E+02  0.30499902938E+02 -0.23557367679E+02  0.43078272934E+02  0.00000000000E+00 0.  1.
         21    1    1    2  502  501 -0.52007221096E+02 -0.57734691651E+02 -0.12571472734E+03  0.14779119844E+03  0.00000000000E+00 0. -1.
<scales pt_clust_5="13000.00000" pt_clust_6="13000.00000" pt_clust_7="13000.00000" pt_clust_8="13000.00000" pt_clust_9="77.70486"></scales>
<clustering>
<clus scale="   77.705">  1  9  2 -1</clus>
<clus scale="   91.531">  7  8 -1 -1</clus>
<clus scale="   92.610">  5  6 -1 -1</clus>
<clus scale="   96.270">  1  7  2 -1</clus>
<clus scale="   97.296">  2  5  1 -1</clus>
</clustering>
</event>
<event>
 9    1  0.6202448E-006  0.1060865E+03  0.7546771E-02  0.1269956E+00
         -1   -1    0    0    0  501 -0.00000000000E+00  0.00000000000E+00  0.41014491477E+02  0.41014491477E+02  0.00000000000E+00 0.  1.
          1   -1    0    0  502    0  0.00000000000E+00 -0.00000000000E+00 -0.49652846870E+03  0.49652846870E+03  0.00000000000E+00 0. -1.
         23    2    1    2    0    0  0.13784284827E+02  0.85783421680E+00 -0.85360458820E+02  0.12777657978E+03  0.94072865499E+02 0.  0.
         23    2    1    2    0    0 -0.55612954530E+02  0.38896760013E+02 -0.28986499791E+03  0.31089114641E+03  0.89586992671E+02 0.  0.
        -11    1    4    4    0    0  0.23124252378E+02  0.27373475765E+01 -0.91742524685E+02  0.94651544918E+02  0.00000000000E+00 0.  1.
         11    1    4    4    0    0 -0.78737206908E+02  0.36159412436E+02 -0.19812247322E+03  0.21623960150E+03  0.00000000000E+00 0. -1.
        -13    1    3    3    0    0 -0.78393427588E+00  0.35780916432E+02 -0.15537354240E+01  0.35823213527E+02  0.00000000000E+00 0.  1.
         13    1    3    3    0    0  0.14568219103E+02 -0.34923082215E+02 -0.83806723396E+02  0.91953366255E+02  0.00000000000E+00 0. -1.
         21    1    1    2  502  501  0.41828669703E+02 -0.39754594229E+02 -0.80288520499E+02  0.98875233984E+02  0.00000000000E+00 0.  1.
<scales pt_clust_5="13000.00000" pt_clust_6="13000.00000" pt_clust_7="13000.00000" pt_clust_8="13000.00000" pt_clust_9="57.70672"></scales>
<clustering>
<clus scale="   57.707">  1  9  2 -1</clus>
<clus scale="   89.587">  5  6 -1 -1</clus>
<clus scale="   94.073">  7  8 -1 -1</clus>
<clus scale="  102.130">  2  5  1 -1</clus>
<clus scale="  102.130">  2  5  1 -1</clus>
</clustering>
</event>
<event>
 9    1  0.6202448E-006  0.1065244E+03  0.7546771E-02  0.1270194E+00
         -2   -1    0    0    0  501 -0.00000000000E+00  0.00000000000E+00  0.60188512237E+02  0.60188512237E+02  0.00000000000E+00 0.  1.
          2   -1    0    0  502    0  0.00000000000E+00 -0.00000000000E+00 -0.48785937926E+03  0.48785937926E+03  0.00000000000E+00 0. -1.
         23    2    1    2    0    0  0.17424816765E+02 -0.69193777687E+01 -0.88628345080E+02  0.12875770118E+03  0.91498961929E+02 0.  0.
         23    2    1    2    0    0  0.68269885172E+02  0.29289010737E+02 -0.29648910074E+03  0.32103147022E+03  0.98167176990E+02 0.  0.
        -11    1    4    4    0    0  0.90449348314E+02  0.69804738351E+01 -0.20179388924E+03  0.22124779177E+03  0.00000000000E+00 0.  1.
         11    1    4    4    0    0 -0.22179463142E+02  0.22308536902E+02 -0.94695211501E+02  0.99783678451E+02  0.00000000000E+00 0. -1.
        -11    1    3    3    0    0 -0.24881206135E+02 -0.28047405231E+02 -0.66957825316E+02  0.76740352683E+02  0.00000000000E+00 0. -1.
         11    1    3    3    0    0  0.42306022900E+02  0.21128027462E+02 -0.21670519765E+02  0.52017348500E+02  0.00000000000E+00 0.  1.
         21    1    1    2  502  501 -0.85694701937E+02 -0.22369632968E+02 -0.42553421197E+02  0.98258720095E+02  0.00000000000E+00 0. -1.
<scales pt_clust_5="13000.00000" pt_clust_6="13000.00000" pt_clust_7="13000.00000" pt_clust_8="13000.00000" pt_clust_9="88.56626"></scales>
<clustering>
<clus scale="   88.566">  1  9  2 -1</clus>
<clus scale="   91.499">  7  8 -1 -1</clus>
<clus scale="   98.167">  5  6 -1 -1</clus>
<clus scale="  100.413">  1  7  2 -1</clus>
<clus scale="  106.524">  2  5  1 -1</clus>
</clustering>
</event>
<event>
 9    1  0.6202448E-006  0.1349596E+03  0.7546771E-02  0.1220434E+00
         -3   -1    0    0    0  501 -0.00000000000E+00  0.00000000000E+00  0.96929077905E+02  0.96929077905E+02  0.00000000000E+00 0.  1.
          3   -1    0    0  502    0  0.00000000000E+00 -0.00000000000E+00 -0.34093880190E+03  0.34093880190E+03  0.00000000000E+00 0. -1.
         23    2    1    2    0    0  0.22703804052E+02 -0.96352979703E+02 -0.25018412817E+02  0.13718141474E+03  0.91615829161E+02 0.  0.
         23    2    1    2    0    0 -0.69030997815E+02  0.74856317773E+02 -0.20661427133E+03  0.24813642728E+03  0.92268534502E+02 0.  0.
        -11    1    3    3    0    0  0.49217997348E+02 -0.22726980039E+02  0.23931991954E+01  0.54264668865E+02  0.00000000000E+00 0. -1.
         11    1    3    3    0    0 -0.26514193296E+02 -0.73625999663E+02 -0.27411612012E+02  0.82916745870E+02  0.00000000000E+00 0.  1.
        -13    1    4    4    0    0 -0.11898800626E+02  0.24135997818E+02 -0.15165505779E+03  0.15402397346E+03  0.00000000000E+00 0.  1.
         13    1    4    4    0    0 -0.57132197189E+02  0.50720319955E+02 -0.54959213534E+02  0.94112453821E+02  0.00000000000E+00 0. -1.
         21    1    1    2  502  501  0.46327193763E+02  0.21496661929E+02 -0.12377039855E+02  0.52550037789E+02  0.00000000000E+00 0.  1.
<scales pt_clust_5="13000.00000" pt_clust_6="13000.00000" pt_clust_7="13000.00000" pt_clust_8="13000.00000" pt_clust_9="51.07167"></scales>
<clustering>
<clus scale="   51.072">  1  9  2 -1</clus>
<clus scale="   91.616">  5  6 -1 -1</clus>
<clus scale="   92.269">  7  8 -1 -1</clus>
<clus scale="  134.514">  1  5  2 -1</clus>
<clus scale="  134.960">  2  5  1 -1</clus>
</clustering>
</event>
<event>
 9    1  0.6202448E-006  0.9805695E+02  0.7546771E-02  0.1285360E+00
          1   -1    0    0  502    0  0.00000000000E+00  0.00000000000E+00  0.31956357247E+03  0.31956357247E+03  0.00000000000E+00 0. -1.
         -1   -1    0    0    0  501 -0.00000000000E+00 -0.00000000000E+00 -0.17343856399E+03  0.17343856399E+03  0.00000000000E+00 0.  1.
         23    2    1    2    0    0 -0.36382165577E+02 -0.39221975326E+02  0.16223819994E+02  0.10955636968E+03  0.94219745713E+02 0.  0.
         23    2    1    2    0    0  0.64644532865E+01  0.21942062782E+02  0.24521847876E+03  0.26306411401E+03  0.92452055013E+02 0.  0.
        -11    1    4    4    0    0 -0.33926639405E+02 -0.49931401087E+01  0.42480301858E+02  0.54594178769E+02  0.00000000000E+00 0.  1.
         11    1    4    4    0    0  0.40391092692E+02  0.26935202891E+02  0.20273817690E+03  0.20846993524E+03  0.00000000000E+00 0. -1.
        -13    1    3    3    0    0  0.25104091529E+02 -0.13547750215E+02 -0.18914667586E+02  0.34227497678E+02  0.00000000000E+00 0. -1.
         13    1    3    3    0    0 -0.61486257106E+02 -0.25674225110E+02  0.35138487581E+02  0.75328872004E+02  0.00000000000E+00 0.  1.
         21    1    1    2  502  501  0.29917712290E+02  0.17279912544E+02 -0.11531729027E+03  0.12038165276E+03  0.00000000000E+00 0.  1.
<scales pt_clust_5="13000.00000" pt_clust_6="13000.00000" pt_clust_7="13000.00000" pt_clust_8="13000.00000" pt_clust_9="34.54946"></scales>
<clustering>
<clus scale="   34.549">  2  9  1 -1</clus>
<clus scale="   92.452">  5  6 -1 -1</clus>
<clus scale="   94.220">  7  8 -1 -1</clus>
<clus scale="   96.360">  1  5  2 -1</clus>
<clus scale="   96.360">  1  5  2 -1</clus>
</clustering>
</event>
<event>
 9    1  0.6202448E-006  0.1729313E+03  0.7546771E-02  0.1196028E+00
         -4   -1    0    0    0  501 -0.00000000000E+00  0.00000000000E+00  0.59513816537E+03  0.59513816537E+03  0.00000000000E+00 0. -1.
          4   -1    0    0  502    0  0.00000000000E+00 -0.00000000000E+00 -0.16551857049E+03  0.16551857049E+03  0.00000000000E+00 0.  1.
         23    2    1    2    0    0 -0.16391014095E+02  0.52825235315E+02  0.12408599491E+03  0.16440047068E+03  0.92579748310E+02 0.  0.
         23    2    1    2    0    0  0.12734196601E+03 -0.80738715576E+02 -0.79630726850E+02  0.19445925828E+03  0.93480660948E+02 0.  0.
        -11    1    4    4    0    0  0.58118005076E+02 -0.47458359988E+01  0.86616615304E+01  0.58951249807E+02  0.00000000000E+00 0. -1.
         11    1    4    4    0    0  0.69223960931E+02 -0.75992879577E+02 -0.88292388380E+02  0.13550800847E+03  0.00000000000E+00 0.  1.
        -13    1    3    3    0    0 -0.23162660793E+02 -0.17957884745E+02  0.12016363081E+02  0.31676291785E+02  0.00000000000E+00 0.  1.
         13    1    3    3    0    0  0.67716466988E+01  0.70783120060E+02  0.11206963183E+03  0.13272417890E+03  0.00000000000E+00 0. -1.
         21    1    1    2  502  501 -0.11095095191E+03  0.27913480261E+02  0.38516432681E+03  0.40179700690E+03  0.00000000000E+00 0. -1.
<scales pt_clust_5="13000.00000" pt_clust_6="13000.00000" pt_clust_7="13000.00000" pt_clust_8="13000.00000" pt_clust_9="145.48742"></scales>
<clustering>
<clus scale="   92.580">  7  8 -1 -1</clus>
<clus scale="   93.481">  5  6 -1 -1</clus>
<clus scale="  107.843">  1  7  2 -1</clus>
<clus scale="  145.487">  1  9  2 -1</clus>
<clus scale="  172.931">  2  5  1 -1</clus>
</clustering>
</event>
<event>
 9    1  0.6202448E-006  0.1013672E+03  0.7546771E-02  0.1280925E+00
          1   -1    0    0  502    0  0.00000000000E+00  0.00000000000E+00  0.80319740078E+02  0.80319740078E+02  0.00000000000E+00 0. -1.
         -1   -1    0    0    0  501 -0.00000000000E+00 -0.00000000000E+00 -0.20000007971E+03  0.20000007971E+03  0.00000000000E+00 0.  1.
         23    2    1    2    0    0 -0.38524977393E+02 -0.47231997471E+02 -0.41014980617E+02  0.11222295885E+03  0.84833533403E+02 0.  0.
         23    2    1    2    0    0 -0.97128658063E+01  0.31939124469E+02 -0.50052488129E+02  0.10996375624E+03  0.92045253465E+02 0.  0.
        -11    1    3    3    0    0  0.17782182202E+02  0.12712513023E+02 -0.12480315090E+02  0.25170861248E+02  0.00000000000E+00 0.  1.
         11    1    3    3    0    0 -0.56307159595E+02 -0.59944510494E+02 -0.28534665527E+02  0.87052097601E+02  0.00000000000E+00 0. -1.
        -11    1    4    4    0    0 -0.43495809909E+02  0.17736897588E+02  0.11627924039E+01  0.46987605833E+02  0.00000000000E+00 0. -1.
         11    1    4    4    0    0  0.33782944103E+02  0.14202226881E+02 -0.51215280533E+02  0.62976150412E+02  0.00000000000E+00 0.  1.
         21    1    1    2  502  501  0.48237843199E+02  0.15292873002E+02 -0.28612870887E+02  0.58133104696E+02  0.00000000000E+00 0.  1.
<scales pt_clust_5="13000.00000" pt_clust_6="13000.00000" pt_clust_7="13000.00000" pt_clust_8="13000.00000" pt_clust_9="50.60397"></scales>
<clustering>
<clus scale="   50.604">  2  9  1 -1</clus>
<clus scale="   84.834">  5  6 -1 -1</clus>
<clus scale="   92.045">  7  8 -1 -1</clus>
<clus scale="   94.867">  2  5  1 -1</clus>
<clus scale="  101.367">  1  5  2 -1</clus>
</clustering>
</event>
<event>
 9    1  0.6202448E-006  0.3844660E+03  0.7546771E-02  0.1084907E+00
          2   -1    0    0  502    0  0.00000000000E+00  0.00000000000E+00  0.13190698440E+04  0.13190698440E+04  0.00000000000E+00 0. -1.
         -2   -1    0    0    0  501 -0.00000000000E+00 -0.00000000000E+00 -0.26252473076E+03  0.26252473076E+03  0.00000000000E+00 0.  1.
         23    2    1    2    0    0 -0.28589579358E+02  0.10585616079E+03 -0.38394367624E+01  0.14385794770E+03  0.93045564199E+02 0.  0.
         23    2    1    2    0    0 -0.35015062467E+03 -0.70284961678E+02  0.67502784159E+02  0.37447576853E+03  0.90166731967E+02 0.  0.
        -11    1    4    4    0    0 -0.28966911885E+03 -0.91499939934E+02  0.62867148639E+02  0.31021398389E+03  0.00000000000E+00 0.  1.
         11    1    4    4    0    0 -0.60481505820E+02  0.21214978255E+02  0.46356355197E+01  0.64261784642E+02  0.00000000000E+00 0. -1.
        -11    1    3    3    0    0  0.21686419347E+02  0.12809170031E+00  0.13444223089E+02  0.25515962181E+02  0.00000000000E+00 0. -1.
         11    1    3    3    0    0 -0.50275998705E+02  0.10572806909E+03 -0.17283659851E+02  0.11834198552E+03  0.00000000000E+00 0.  1.
         21    1    1    2  502  501  0.37874020403E+03 -0.35571199107E+02  0.99288176588E+03  0.10632608586E+04  0.00000000000E+00 0. -1.
<scales pt_clust_5="13000.00000" pt_clust_6="13000.00000" pt_clust_7="13000.00000" pt_clust_8="13000.00000" pt_clust_9="373.74334"></scales>
<clustering>
<clus scale="   90.167">  5  6 -1 -1</clus>
<clus scale="   93.046">  7  8 -1 -1</clus>
<clus scale="  143.807">  2  7  1 -1</clus>
<clus scale="  373.743">  1  9  2 -1</clus>
<clus scale="  373.743">  1  5  2 -1</clus>
</clustering>
</event>
<event>
 9    1  0.6202448E-006  0.9775350E+02  0.7546771E-02  0.1285442E+00
          2   -1    0    0  502    0  0.00000000000E+00  0.00000000000E+00  0.20506470124E+02  0.20506470124E+02  0.00000000000E+00 0. -1.
         -2   -1    0    0    0  501 -0.00000000000E+00 -0.00000000000E+00 -0.68276418879E+03  0.68276418879E+03  0.00000000000E+00 0.  1.
         23    2    1    2    0    0  0.65133063617E+01  0.31181895196E+02 -0.35290275597E+03  0.36508755193E+03  0.87942206349E+02 0.  0.
         23    2    1    2    0    0  0.10698158704E+02 -0.45983622727E+02 -0.17375286248E+03  0.20069399741E+03  0.88651447917E+02 0.  0.
        -11    1    3    3    0    0 -0.32044522940E+02  0.42370725217E+02 -0.21437245025E+03  0.22085668935E+03  0.00000000000E+00 0. -1.
         11    1    3    3    0    0  0.38557829301E+02 -0.11188830021E+02 -0.13853030572E+03  0.14423086258E+03  0.00000000000E+00 0.  1.
        -13    1    4    4    0    0  0.21852089944E+02 -0.69295848257E+02 -0.14393875298E+03  0.16123831130E+03  0.00000000000E+00 0.  1.
         13    1    4    4    0    0 -0.11153931240E+02  0.23312225530E+02 -0.29814109492E+02  0.39455686106E+02  0.00000000000E+00 0. -1.
         21    1    1    2  502  501 -0.17211465066E+02  0.14801727531E+02 -0.13560210022E+03  0.13748910958E+03  0.00000000000E+00 0.  1.
<scales pt_clust_5="13000.00000" pt_clust_6="13000.00000" pt_clust_7="13000.00000" pt_clust_8="13000.00000" pt_clust_9="22.70079"></scales>
<clustering>
<clus scale="   22.701">  2  9  1 -1</clus>
<clus scale="   87.942">  5  6 -1 -1</clus>
<clus scale="   88.651">  7  8 -1 -1</clus>
<clus scale="   97.111">  2  5  1 -1</clus>
<clus scale="   97.753">  1  5  2 -1</clus>
</clustering>
</event>
<event>
 9    1  0.6202448E-006  0.2406915E+03  0.7546771E-02  0.1144137E+00
          2   -1    0    0  502    0  0.00000000000E+00  0.00000000000E+00  0.14501251101E+04  0.14501251101E+04  0.00000000000E+00 0. -1.
         -2   -1    0    0    0  501 -0.00000000000E+00 -0.00000000000E+00 -0.10518868740E+03  0.10518868740E+03  0.00000000000E+00 0.  1.
         23    2    1    2    0    0  0.15044488908E+03 -0.17566840796E+03  0.98538715346E+03  0.10161541180E+04  0.89934949594E+02 0.  0.
         23    2    1    2    0    0  0.52429693821E+02  0.78880360216E+02  0.26428118266E+03  0.29502440778E+03  0.90685575779E+02 0.  0.
        -11    1    4    4    0    0  0.34005737445E+02 -0.56491375574E+01  0.13596929505E+03  0.14027099533E+03  0.00000000000E+00 0.  1.
         11    1    4    4    0    0  0.18423956376E+02  0.84529497773E+02  0.12831188761E+03  0.15475341245E+03  0.00000000000E+00 0. -1.
        -11    1    3    3    0    0  0.17085917778E+02 -0.41108082244E+02  0.83937683602E+02  0.95012303101E+02  0.00000000000E+00 0.  1.
         11    1    3    3    0    0  0.13335897130E+03 -0.13456032571E+03  0.90144946986E+03  0.92114181492E+03  0.00000000000E+00 0. -1.
         21    1    1    2  502  501 -0.20287458290E+03  0.96788047741E+02  0.95268086590E+02  0.24413527171E+03  0.00000000000E+00 0.  1.
<scales pt_clust_5="13000.00000" pt_clust_6="13000.00000" pt_clust_7="13000.00000" pt_clust_8="13000.00000" pt_clust_9="223.25795"></scales>
<clustering>
<clus scale="   89.935">  7  8 -1 -1</clus>
<clus scale="   90.686">  5  6 -1 -1</clus>
<clus scale="  131.129">  1  5  2 -1</clus>
<clus scale="  223.258">  2  9  1 -1</clus>
<clus scale="  131.129">  1  5  2 -1</clus>
</clustering>
</event>
<event>
 9    1  0.6202448E-006  0.9673514E+02  0.7546771E-02  0.1291973E+00
         -1   -1    0    0    0  501 -0.00000000000E+00  0.00000000000E+00  0.22563321044E+02  0.22563321044E+02  0.00000000000E+00 0.  1.
          1   -1    0    0  502    0  0.00000000000E+00 -0.00000000000E+00 -0.73099455501E+03  0.73099455501E+03  0.00000000000E+00 0. -1.
         23    2    1    2    0    0  0.17936886158E+00 -0.39756242814E+02 -0.30717462064E+03  0.32126320238E+03  0.85283096903E+02 0.  0.
         23    2    1    2    0    0  0.19014007768E+02  0.66514182109E+01 -0.37196551101E+03  0.38410459386E+03  0.93660150467E+02 0.  0.
        -11    1    3    3    0    0  0.39784808458E+02 -0.35533905149E+02 -0.15323388198E+03  0.16225323413E+03  0.00000000000E+00 0. -1.
         11    1    3    3    0    0 -0.39605439596E+02 -0.42223376648E+01 -0.15394073867E+03  0.15900996825E+03  0.00000000000E+00 0.  1.
        -13    1    4    4    0    0 -0.30056599554E+02  0.26214538746E+02 -0.11370248334E+03  0.12049421536E+03  0.00000000000E+00 0.  1.
         13    1    4    4    0    0  0.49070607322E+02 -0.19563120535E+02 -0.25826302767E+03  0.26361037850E+03  0.00000000000E+00 0. -1.
         21    1    1    2  502  501 -0.19193376630E+02  0.33104824603E+02 -0.29291102310E+02  0.48190079819E+02  0.00000000000E+00 0.  1.
<scales pt_clust_5="13000.00000" pt_clust_6="13000.00000" pt_clust_7="13000.00000" pt_clust_8="13000.00000" pt_clust_9="38.26637"></scales>
<clustering>
<clus scale="   38.266">  1  9  2 -1</clus>
<clus scale="   85.283">  5  6 -1 -1</clus>
<clus scale="   88.649">  1  5  2 -1</clus>
<clus scale="   93.660">  7  8 -1 -1</clus>
<clus scale="   96.735">  2  5  1 -1</clus>
</clustering>
</event>
<event>
 9    1  0.6202448E-006  0.1241508E+03  0.7546771E-02  0.1237060E+00
          2   -1    0    0  502    0  0.00000000000E+00  0.00000000000E+00  0.36665306201E+03  0.36665306201E+03  0.00000000000E+00 0. -1.
         -2   -1    0    0    0  501 -0.00000000000E+00 -0.00000000000E+00 -0.94988064240E+02  0.94988064240E+02  0.00000000000E+00 0.  1.
         23    2    1    2    0    0  0.84102240875E+02 -0.62708164121E+02  0.97996879698E+02  0.17024921528E+03  0.91519976541E+02 0.  0.
         23    2    1    2    0    0 -0.73734634429E+02  0.21046695683E+02  0.20627617162E+03  0.23748040596E+03  0.89259870746E+02 0.  0.
        -11    1    4    4    0    0 -0.16093038265E+01  0.40797707136E+02  0.52705031212E+02  0.66669806370E+02  0.00000000000E+00 0.  1.
         11    1    4    4    0    0 -0.72125330603E+02 -0.19751011453E+02  0.15357114041E+03  0.17081059959E+03  0.00000000000E+00 0. -1.
        -13    1    3    3    0    0  0.27302725253E+02 -0.57996453969E+02  0.93114685238E+02  0.11304588487E+03  0.00000000000E+00 0. -1.
         13    1    3    3    0    0  0.56799515622E+02 -0.47117101526E+01  0.48821944599E+01  0.57203330412E+02  0.00000000000E+00 0.  1.
         21    1    1    2  502  501 -0.10367606445E+02  0.41661468438E+02 -0.32608053546E+02  0.53911505005E+02  0.00000000000E+00 0.  1.
<scales pt_clust_5="13000.00000" pt_clust_6="13000.00000" pt_clust_7="13000.00000" pt_clust_8="13000.00000" pt_clust_9="42.93210"></scales>
<clustering>
<clus scale="   42.932">  2  9  1 -1</clus>
<clus scale="   89.260">  5  6 -1 -1</clus>
<clus scale="   91.520">  7  8 -1 -1</clus>
<clus scale="  122.494">  1  5  2 -1</clus>
<clus scale="  122.494">  1  5  2 -1</clus>
</clustering>
</event>
<event>
 9    1  0.6202448E-006  0.1055943E+03  0.7546771E-02  0.1269556E+00
         -1   -1    0    0    0  501 -0.00000000000E+00  0.00000000000E+00  0.10339223310E+03  0.10339223310E+03  0.00000000000E+00 0.  1.
          1   -1    0    0  502    0  0.00000000000E+00 -0.00000000000E+00 -0.19672165134E+03  0.19672165134E+03  0.00000000000E+00 0. -1.
         23    2    1    2    0    0 -0.13382154100E+02  0.37859482390E+02 -0.32604449872E+02  0.10447043876E+03  0.90766733813E+02 0.  0.
         23    2    1    2    0    0  0.74315688985E+02 -0.18959394256E+02 -0.24872020776E+02  0.12246187112E+03  0.92173815158E+02 0.  0.
        -11    1    3    3    0    0 -0.41542186825E+02  0.43022366343E+02  0.16490076210E+01  0.59828057950E+02  0.00000000000E+00 0.  1.
         11    1    3    3    0    0  0.28160032724E+02 -0.51628839522E+01 -0.34253457493E+02  0.44642380806E+02  0.00000000000E+00 0. -1.
        -11    1    4    4    0    0  0.87824549592E+02  0.92266150634E+01 -0.22421827978E+02  0.91109935278E+02  0.00000000000E+00 0. -1.
         11    1    4    4    0    0 -0.13508860607E+02 -0.28186009320E+02 -0.24501927980E+01  0.31351935842E+02  0.00000000000E+00 0.  1.
         21    1    1    2  502  501 -0.60933534884E+02 -0.18900088134E+02 -0.35852947594E+02  0.73181574567E+02  0.00000000000E+00 0.  1.
<scales pt_clust_5="13000.00000" pt_clust_6="13000.00000" pt_clust_7="13000.00000" pt_clust_8="13000.00000" pt_clust_9="63.79741"></scales>
<clustering>
<clus scale="   63.797">  2  9  1 -1</clus>
<clus scale="   90.767">  5  6 -1 -1</clus>
<clus scale="   92.174">  7  8 -1 -1</clus>
<clus scale="  104.368">  1  5  2 -1</clus>
<clus scale="   63.797">  2  5  1 -1</clus>
</clustering>
</event>
<event>
 9    1  0.6202448E-006  0.1520400E+03  0.7546771E-02  0.1219171E+00
         -4   -1    0    0    0  501 -0.00000000000E+00  0.00000000000E+00  0.10727392634E+03  0.10727392634E+03  0.00000000000E+00 0.  1.
          4   -1    0    0  502    0  0.00000000000E+00 -0.00000000000E+00 -0.38808664719E+03  0.38808664719E+03  0.00000000000E+00 0. -1.
         23    2    1    2    0    0 -0.13020742508E+03  0.38067022306E+01 -0.32487854882E+02  0.16160099454E+03  0.89949742586E+02 0.  0.
         23    2    1    2    0    0  0.16504825829E+02  0.50374113304E+01 -0.16958057573E+03  0.19516967075E+03  0.95057056156E+02 0.  0.
        -13    1    4    4    0    0  0.52521419883E+02  0.13475487801E+02 -0.13070999229E+03  0.14151038973E+03  0.00000000000E+00 0.  1.
         13    1    4    4    0    0 -0.36016594054E+02 -0.84380764703E+01 -0.38870583445E+02  0.53659281016E+02  0.00000000000E+00 0. -1.
        -13    1    3    3    0    0 -0.74417000475E+02  0.24321034921E+02 -0.57472708604E+02  0.97121135360E+02  0.00000000000E+00 0. -1.
         13    1    3    3    0    0 -0.55790424608E+02 -0.20514332690E+02  0.24984853722E+02  0.64479859175E+02  0.00000000000E+00 0.  1.
         21    1    1    2  502  501  0.11370259925E+03 -0.88441135610E+01 -0.78744290245E+02  0.13858990825E+03  0.00000000000E+00 0. -1.
<scales pt_clust_5="13000.00000" pt_clust_6="13000.00000" pt_clust_7="13000.00000" pt_clust_8="13000.00000" pt_clust_9="122.57732"></scales>
<clustering>
<clus scale="   89.950">  7  8 -1 -1</clus>
<clus scale="   95.057">  5  6 -1 -1</clus>
<clus scale="   96.611">  2  5  1 -1</clus>
<clus scale="  122.577">  2  9  1 -1</clus>
<clus scale="   96.611">  2  5  1 -1</clus>
</clustering>
</event>
<event>
 9    1  0.6202448E-006  0.1194989E+03  0.7546771E-02  0.1245602E+00
          3   -1    0    0  502    0  0.00000000000E+00  0.00000000000E+00  0.15252915225E+03  0.15252915225E+03  0.00000000000E+00 0. -1.
         -3   -1    0    0    0  501 -0.00000000000E+00 -0.00000000000E+00 -0.25841928947E+03  0.25841928947E+03  0.00000000000E+00 0.  1.
         23    2    1    2    0    0  0.79864031217E+02 -0.24313841420E+02 -0.15084918585E+03  0.19790607646E+03  0.97169500687E+02 0.  0.
         23    2    1    2    0    0 -0.30243492415E+02 -0.52915209889E+02  0.49495681758E+02  0.12113423026E+03  0.92244192002E+02 0.  0.
        -11    1    3    3    0    0  0.19742096903E+02 -0.45971426908E+02 -0.23187436148E+02  0.55143265022E+02  0.00000000000E+00 0. -1.
         11    1    3    3    0    0  0.60121934313E+02  0.21657585488E+02 -0.12766174970E+03  0.14276281144E+03  0.00000000000E+00 0.  1.
        -11    1    4    4    0    0  0.14900334486E+02  0.15669892266E+02 -0.54966632612E+01  0.22310956915E+02  0.00000000000E+00 0. -1.
         11    1    4    4    0    0 -0.45143826901E+02 -0.68585102156E+02  0.54992345019E+02  0.98823273350E+02  0.00000000000E+00 0.  1.
         21    1    1    2  502  501 -0.49620538802E+02  0.77229051310E+02 -0.45366331301E+01  0.91908134990E+02  0.00000000000E+00 0.  1.
<scales pt_clust_5="13000.00000" pt_clust_6="13000.00000" pt_clust_7="13000.00000" pt_clust_8="13000.00000" pt_clust_9="91.79610"></scales>
<clustering>
<clus scale="   91.796">  1  9  2 -1</clus>
<clus scale="   92.244">  7  8 -1 -1</clus>
<clus scale="   97.170">  5  6 -1 -1</clus>
<clus scale="  115.529">  1  7  2 -1</clus>
<clus scale="   91.796">  1  5  2 -1</clus>
</clustering>
</event>
<event>
 9    1  0.6202448E-006  0.1744631E+03  0.7546771E-02  0.1173613E+00
          2   -1    0    0  502    0  0.00000000000E+00  0.00000000000E+00  0.38625830062E+03  0.38625830062E+03  0.00000000000E+00 0. -1.
         -2   -1    0    0    0  501 -0.00000000000E+00 -0.00000000000E+00 -0.70919742387E+03  0.70919742387E+03  0.00000000000E+00 0.  1.
         23    2    1    2    0    0 -0.64641530034E+02 -0.48872784369E+02 -0.20485700169E+03  0.23866232522E+03  0.91794541672E+02 0.  0.
         23    2    1    2    0    0  0.10658035643E+03  0.11036263526E+03  0.34424732542E+03  0.38851102242E+03  0.94314950291E+02 0.  0.
        -11    1    3    3    0    0 -0.21697139187E+02  0.38217193264E+01  0.81648660401E+00  0.22046270385E+02  0.00000000000E+00 0. -1.
         11    1    3    3    0    0 -0.42944390847E+02 -0.52694503696E+02 -0.20567348830E+03  0.21661605484E+03  0.00000000000E+00 0.  1.
        -13    1    4    4    0    0  0.28199655865E+02  0.40411083683E+02  0.22163625412E+03  0.22704824469E+03  0.00000000000E+00 0.  1.
         13    1    4    4    0    0  0.78380700569E+02  0.69951551573E+02  0.12261107130E+03  0.16146277773E+03  0.00000000000E+00 0. -1.
         21    1    1    2  502  501 -0.41938826399E+02 -0.61489850887E+02 -0.46232944697E+03  0.46828237684E+03  0.00000000000E+00 0.  1.
<scales pt_clust_5="13000.00000" pt_clust_6="13000.00000" pt_clust_7="13000.00000" pt_clust_8="13000.00000" pt_clust_9="74.43028"></scales>
<clustering>
<clus scale="   74.430">  2  9  1 -1</clus>
<clus scale="   91.795">  5  6 -1 -1</clus>
<clus scale="   94.315">  7  8 -1 -1</clus>
<clus scale="  173.114">  2  5  1 -1</clus>
<clus scale="  174.463">  1  5  2 -1</clus>
</clustering>
</event>
<event>
 9    1  0.6202448E-006  0.2922135E+03  0.7546771E-02  0.1128652E+00
          2   -1    0    0  502    0  0.00000000000E+00  0.00000000000E+00  0.73922496194E+03  0.73922496194E+03  0.00000000000E+00 0. -1.
         -2   -1    0    0    0  501 -0.00000000000E+00 -0.00000000000E+00 -0.15701493276E+03  0.15701493276E+03  0.00000000000E+00 0.  1.
         23    2    1    2    0    0  0.18377728393E+03 -0.16489892135E+03  0.29326648801E+03  0.39405731578E+03  0.91160247798E+02 0.  0.
         23    2    1    2    0    0  0.28417991245E+02 -0.51020748946E+02  0.93097202770E+02  0.14162200551E+03  0.89325272082E+02 0.  0.
        -13    1    3    3    0    0  0.30191567104E+02 -0.85307677430E+01  0.47523491603E+01  0.31731522892E+02  0.00000000000E+00 0.  1.
         13    1    3    3    0    0  0.15358571682E+03 -0.15636815361E+03  0.28851413885E+03  0.36232579289E+03  0.00000000000E+00 0. -1.
        -13    1    4    4    0    0  0.26216526315E+02 -0.30682981848E+02  0.10866375684E+03  0.11591619247E+03  0.00000000000E+00 0.  1.
         13    1    4    4    0    0  0.22014649293E+01 -0.20337767098E+02 -0.15566554070E+02  0.25705813039E+02  0.00000000000E+00 0. -1.
         21    1    1    2  502  501 -0.21219527517E+03  0.21591967030E+03  0.19584633840E+03  0.36056057340E+03  0.00000000000E+00 0. -1.
<scales pt_clust_5="13000.00000" pt_clust_6="13000.00000" pt_clust_7="13000.00000" pt_clust_8="13000.00000" pt_clust_9="277.63024"></scales>
<clustering>
<clus scale="   89.325">  7  8 -1 -1</clus>
<clus scale="   91.160">  5  6 -1 -1</clus>
<clus scale="  106.723">  1  7  2 -1</clus>
<clus scale="  277.630">  2  9  1 -1</clus>
<clus scale="  106.723">  1  5  2 -1</clus>
</clustering>
</event>
<event>
 9    1  0.6202448E-006  0.9502823E+02  0.7546771E-02  0.1291241E+00
         -2   -1    0    0    0  501 -0.00000000000E+00  0.00000000000E+00  0.62554830030E+02  0.62554830030E+02  0.00000000000E+00 0.  1.
          2   -1    0    0  502    0  0.00000000000E+00 -0.00000000000E+00 -0.30522343373E+03  0.30522343373E+03  0.00000000000E+00 0. -1.
         23    2    1    2    0    0 -0.80374069115E+00 -0.32790242494E+02 -0.10315001468E+02  0.96565217662E+02  0.90236334173E+02 0.  0.
         23    2    1    2    0    0  0.32670679185E+02  0.16090659040E+02 -0.12681763999E+03  0.15971319326E+03  0.89996153815E+02 0.  0.
        -13    1    3    3    0    0 -0.43431404908E+01  0.30390499099E+02 -0.12742711184E+02  0.33238862693E+02  0.00000000000E+00 0. -1.
         13    1    3    3    0    0  0.35393997996E+01 -0.63180741593E+02  0.24277097166E+01  0.63326354969E+02  0.00000000000E+00 0.  1.
        -13    1    4    4    0    0  0.43449803732E+02 -0.25996697807E+02 -0.48292275661E+02  0.69970405385E+02  0.00000000000E+00 0.  1.
         13    1    4    4    0    0 -0.10779124547E+02  0.42087356847E+02 -0.78525364328E+02  0.89742787873E+02  0.00000000000E+00 0. -1.
         21    1    1    2  502  501 -0.31866938494E+02  0.16699583454E+02 -0.10553596224E+03  0.11149985284E+03  0.00000000000E+00 0.  1.
<scales pt_clust_5="13000.00000" pt_clust_6="13000.00000" pt_clust_7="13000.00000" pt_clust_8="13000.00000" pt_clust_9="35.97746"></scales>
<clustering>
<clus scale="   35.977">  2  9  1 -1</clus>
<clus scale="   89.996">  7  8 -1 -1</clus>
<clus scale="   90.236">  5  6 -1 -1</clus>
<clus scale="   94.800">  2  7  1 -1</clus>
<clus scale="   35.977">  2  5  1 -1</clus>
</clustering>
</event>
<event>
 9    1  0.6202448E-006  0.1165479E+03  0.7546771E-02  0.1249468E+00
         -2   -1    0    0    0  501 -0.00000000000E+00  0.00000000000E+00  0.65599492721E+02  0.65599492721E+02  0.00000000000E+00 0.  1.
          2   -1    0    0  502    0  0.00000000000E+00 -0.00000000000E+00 -0.32519525317E+03  0.32519525317E+03  0.00000000000E+00 0. -1.
         23    2    1    2    0    0 -0.62365065434E+02  0.44120739052E+02 -0.35389179208E+02  0.12375022099E+03  0.90695546685E+02 0.  0.
         23    2    1    2    0    0  0.41039562297E+02 -0.57092721806E+02 -0.20488174583E+03  0.23547715751E+03  0.92353329000E+02 0.  0.
        -11    1    4    4    0    0  0.42954061144E+02 -0.80304757126E+02 -0.17773075082E+03  0.19970509551E+03  0.00000000000E+00 0. -1.
         11    1    4    4    0    0 -0.19144988472E+01  0.23212035320E+02 -0.27150995006E+02  0.35772061994E+02  0.00000000000E+00 0.  1.
        -13    1    3    3    0    0 -0.58070067319E+01 -0.27054794306E+02 -0.81270269268E+01  0.28839760554E+02  0.00000000000E+00 0. -1.
         13    1    3    3    0    0 -0.56558058702E+02  0.71175533358E+02 -0.27262152281E+02  0.94910460434E+02  0.00000000000E+00 0.  1.
         21    1    1    2  502  501  0.21325503136E+02  0.12971982755E+02 -0.19324835414E+02  0.31567367397E+02  0.00000000000E+00 0.  1.
<scales pt_clust_5="13000.00000" pt_clust_6="13000.00000" pt_clust_7="13000.00000" pt_clust_8="13000.00000" pt_clust_9="24.96096"></scales>
<clustering>
<clus scale="   24.961">  1  9  2 -1</clus>
<clus scale="   90.696">  7  8 -1 -1</clus>
<clus scale="   92.353">  5  6 -1 -1</clus>
<clus scale="  115.239">  1  7  2 -1</clus>
<clus scale="  116.548">  2  5  1 -1</clus>
</clustering>
</event>
<event>
 9    1  0.6202448E-006  0.9786829E+02  0.7546771E-02  0.1285019E+00
          3   -1    0    0  502    0  0.00000000000E+00  0.00000000000E+00  0.54593109875E+03  0.54593109875E+03  0.00000000000E+00 0. -1.
         -3   -1    0    0    0  501 -0.00000000000E+00 -0.00000000000E+00 -0.33274263180E+02  0.33274263180E+02  0.00000000000E+00 0.  1.
         23    2    1    2    0    0 -0.34047806541E+02  0.12123471138E+02  0.10537266931E+03  0.14426417758E+03  0.91665270486E+02 0.  0.
         23    2    1    2    0    0  0.34421889573E+02  0.36163489634E+02  0.26622277481E+03  0.28584361000E+03  0.91319981852E+02 0.  0.
        -13    1    3    3    0    0  0.24674992690E+02  0.16422066359E+02  0.83857470530E+01  0.30803575789E+02  0.00000000000E+00 0.  1.
         13    1    3    3    0    0 -0.58722799231E+02 -0.42985952209E+01  0.96986922260E+02  0.11346060180E+03  0.00000000000E+00 0. -1.
        -13    1    4    4    0    0  0.59069320240E+02  0.22352323088E+02  0.10794307775E+03  0.12506206050E+03  0.00000000000E+00 0.  1.
         13    1    4    4    0    0 -0.24647430667E+02  0.13811166546E+02  0.15827969705E+03  0.16078154950E+03  0.00000000000E+00 0. -1.
         21    1    1    2  502  501 -0.37408303264E+00 -0.48286960772E+02  0.14106139145E+03  0.14909757435E+03  0.00000000000E+00 0. -1.
<scales pt_clust_5="13000.00000" pt_clust_6="13000.00000" pt_clust_7="13000.00000" pt_clust_8="13000.00000" pt_clust_9="48.28841"></scales>
<clustering>
<clus scale="   48.288">  1  9  2 -1</clus>
<clus scale="   91.320">  7  8 -1 -1</clus>
<clus scale="   91.665">  5  6 -1 -1</clus>
<clus scale="   97.545">  1  7  2 -1</clus>
<clus scale="   48.288">  1  5  2 -1</clus>
</clustering>
</event>
<event>
 9    1  0.6202448E-006  0.1085047E+03  0.7546771E-02  0.1264009E+00
         -3   -1    0    0    0  501 -0.00000000000E+00  0.00000000000E+00  0.11634629472E+03  0.11634629472E+03  0.00000000000E+00 0.  1.
          3   -1    0    0  502    0  0.00000000000E+00 -0.00000000000E+00 -0.19029069630E+03  0.19029069630E+03  0.00000000000E+00 0. -1.
         23    2    1    2    0    0 -0.38245471422E+02  0.38433779371E+02  0.17926669127E+02  0.11029312260E+03  0.94357490141E+02 0.  0.
         23    2    1    2    0    0 -0.12951323184E+02 -0.61360722824E+02 -0.77836477681E+02  0.13851890568E+03  0.95896271541E+02 0.  0.
        -11    1    3    3    0    0 -0.18496256536E+02 -0.26501307222E+02 -0.14081631677E+02  0.35252278522E+02  0.00000000000E+00 0. -1.
         11    1    3    3    0    0 -0.19749214886E+02  0.64935086593E+02  0.32008300804E+02  0.75040844077E+02  0.00000000000E+00 0.  1.
        -13    1    4    4    0    0  0.21846182466E+02  0.10442927548E+02  0.36322565626E+01  0.24484764892E+02  0.00000000000E+00 0.  1.
         13    1    4    4    0    0 -0.34797505649E+02 -0.71803650372E+02 -0.81468734243E+02  0.11403414079E+03  0.00000000000E+00 0. -1.
         21    1    1    2  502  501  0.51196794605E+02  0.22926943452E+02 -0.14034593023E+02  0.57824962734E+02  0.00000000000E+00 0. -1.
<scales pt_clust_5="13000.00000" pt_clust_6="13000.00000" pt_clust_7="13000.00000" pt_clust_8="13000.00000" pt_clust_9="56.09596"></scales>
<clustering>
<clus scale="   56.096">  2  9  1 -1</clus>
<clus scale="   94.357">  5  6 -1 -1</clus>
<clus scale="   95.896">  7  8 -1 -1</clus>
<clus scale="  107.147">  1  5  2 -1</clus>
<clus scale="   56.096">  2  5  1 -1</clus>
</clustering>
</event>
<event>
 9    1  0.6202448E-006  0.1313019E+03  0.7546771E-02  0.1225841E+00
         -2   -1    0    0    0  501 -0.00000000000E+00  0.00000000000E+00  0.79809026930E+02  0.79809026930E+02  0.00000000000E+00 0.  1.
          2   -1    0    0  502    0  0.00000000000E+00 -0.00000000000E+00 -0.67225245298E+03  0.67225245298E+03  0.00000000000E+00 0. -1.
         23    2    1    2    0    0 -0.36215617338E+02 -0.63910942523E+02 -0.67708812880E+02  0.13518469041E+03  0.91072705391E+02 0.  0.
         23    2    1    2    0    0  0.10932221987E+03 -0.13580036298E+01 -0.49380489609E+03  0.51410880779E+03  0.92257243103E+02 0.  0.
        -13    1    4    4    0    0  0.24303148736E+02 -0.37276433901E+02 -0.23890907872E+03  0.24301794884E+03  0.00000000000E+00 0. -1.
         13    1    4    4    0    0  0.85019071137E+02  0.35918430271E+02 -0.25489581737E+03  0.27109085895E+03  0.00000000000E+00 0.  1.
        -13    1    3    3    0    0 -0.13985429541E+02  0.21400791012E+02 -0.29678096047E+02  0.39171105171E+02  0.00000000000E+00 0. -1.
         13    1    3    3    0    0 -0.22230187797E+02 -0.85311733535E+02 -0.38030716834E+02  0.96013585242E+02  0.00000000000E+00 0.  1.
         21    1    1    2  502  501 -0.73106602535E+02  0.65268946153E+02 -0.30929717074E+02  0.10276798171E+03  0.00000000000E+00 0.  1.
<scales pt_clust_5="13000.00000" pt_clust_6="13000.00000" pt_clust_7="13000.00000" pt_clust_8="13000.00000" pt_clust_9="98.00312"></scales>
<clustering>
<clus scale="   91.073">  7  8 -1 -1</clus>
<clus scale="   92.257">  5  6 -1 -1</clus>
<clus scale="   98.003">  1  9  2 -1</clus>
<clus scale="  130.472">  1  7  2 -1</clus>
<clus scale="  131.302">  2  5  1 -1</clus>
</clustering>
</event>
<event>
 9    1  0.6202448E-006  0.1233317E+03  0.7546771E-02  0.1248855E+00
         -2   -1    0    0    0  501 -0.00000000000E+00  0.00000000000E+00  0.25395579842E+03  0.25395579842E+03  0.00000000000E+00 0.  1.
          2   -1    0    0  502    0  0.00000000000E+00 -0.00000000000E+00 -0.13706223400E+03  0.13706223400E+03  0.00000000000E+00 0. -1.
         23    2    1    2    0    0 -0.29170870906E+02  0.24063732816E+02  0.10319141184E+03  0.14262142429E+03  0.90897746079E+02 0.  0.
         23    2    1    2    0    0 -0.38920807747E+02  0.60195265347E+02 -0.45611658390E+02  0.12488877985E+03  0.91534063090E+02 0.  0.
        -11    1    3    3    0    0  0.19641506007E+02 -0.20551869411E+02  0.14280004761E+02  0.31813309014E+02  0.00000000000E+00 0.  1.
         11    1    3    3    0    0 -0.48812376913E+02  0.44615602227E+02  0.88911407084E+02  0.11080811528E+03  0.00000000000E+00 0. -1.
        -13    1    4    4    0    0  0.21870628521E+02 -0.14107766472E+01  0.77091631027E+01  0.23232431607E+02  0.00000000000E+00 0.  1.
         13    1    4    4    0    0 -0.60791436268E+02  0.61606041994E+02 -0.53320821492E+02  0.10165634824E+03  0.00000000000E+00 0. -1.
         21    1    1    2  502  501  0.68091678653E+02 -0.84258998163E+02  0.59313810962E+02  0.12350782827E+03  0.00000000000E+00 0.  1.
<scales pt_clust_5="13000.00000" pt_clust_6="13000.00000" pt_clust_7="13000.00000" pt_clust_8="13000.00000" pt_clust_9="82.65725"></scales>
<clustering>
<clus scale="   90.898">  5  6 -1 -1</clus>
<clus scale="   91.534">  7  8 -1 -1</clus>
<clus scale="   98.450">  1  5  2 -1</clus>
<clus scale="   82.657">  1  9  2 -1</clus>
<clus scale="  123.332">  2  5  1 -1</clus>
</clustering>
</event>
<event>
 9    1  0.6202448E-006  0.1038809E+03  0.7546771E-02  0.1275737E+00
         -1   -1    0    0    0  501 -0.00000000000E+00  0.00000000000E+00  0.22318887091E+03  0.22318887091E+03  0.00000000000E+00 0.  1.
          1   -1    0    0  502    0  0.00000000000E+00 -0.00000000000E+00 -0.70732818413E+03  0.70732818413E+03  0.00000000000E+00 0. -1.
         23    2    1    2    0    0  0.32041989101E+02  0.29118753480E+02  0.17246343587E+03  0.19964655844E+03  0.90777313889E+02 0.  0.
         23    2    1    2    0    0  0.44547976184E+02 -0.18507094751E+02 -0.51033289859E+02  0.12038462449E+03  0.97780501128E+02 0.  0.
        -11    1    4    4    0    0  0.72324248776E+02 -0.19689227032E+02 -0.17771883880E+02  0.77034423986E+02  0.00000000000E+00 0.  1.
         11    1    4    4    0    0 -0.27776272592E+02  0.11821322814E+01 -0.33261405979E+02  0.43350200501E+02  0.00000000000E+00 0. -1.
        -13    1    3    3    0    0  0.19255002250E+01  0.23018671013E+02 -0.13493951562E+01  0.23138444927E+02  0.00000000000E+00 0. -1.
         13    1    3    3    0    0  0.30116488876E+02  0.61000824666E+01  0.17381283102E+03  0.17650811352E+03  0.00000000000E+00 0.  1.
         21    1    1    2  502  501 -0.76589965285E+02 -0.10611658729E+02 -0.60556945924E+03  0.61048587211E+03  0.00000000000E+00 0. -1.
<scales pt_clust_5="13000.00000" pt_clust_6="13000.00000" pt_clust_7="13000.00000" pt_clust_8="13000.00000" pt_clust_9="77.32160"></scales>
<clustering>
<clus scale="   77.322">  2  9  1 -1</clus>
<clus scale="   90.777">  7  8 -1 -1</clus>
<clus scale="   97.318">  1  7  2 -1</clus>
<clus scale="   97.781">  5  6 -1 -1</clus>
<clus scale="   77.322">  2  5  1 -1</clus>
</clustering>
</event>
<event>
 9    1  0.6202448E-006  0.1132719E+03  0.7546771E-02  0.1259547E+00
         -1   -1    0    0    0  501 -0.00000000000E+00  0.00000000000E+00  0.34954555431E+03  0.34954555431E+03  0.00000000000E+00 0.  1.
          1   -1    0    0  502    0  0.00000000000E+00 -0.00000000000E+00 -0.10004025858E+03  0.10004025858E+03  0.00000000000E+00 0. -1.
         23    2    1    2    0    0  0.16575241569E+02  0.49910783084E+02  0.23324894297E+03  0.25639843384E+03  0.92570311537E+02 0.  0.
         23    2    1    2    0    0  0.83218281973E+01 -0.27874264992E+02  0.70875262276E+02  0.12924445537E+03  0.10408937971E+03 0.  0.
        -11    1    3    3    0    0  0.23084015118E+01  0.76350639406E+02  0.17042897685E+03  0.18676398209E+03  0.00000000000E+00 0. -1.
         11    1    3    3    0    0  0.14266840057E+02 -0.26439856322E+02  0.62819966120E+02  0.69634451752E+02  0.00000000000E+00 0.  1.
        -13    1    4    4    0    0  0.21868794050E+02 -0.64298651115E+02  0.35224381878E+02  0.76506978552E+02  0.00000000000E+00 0.  1.
         13    1    4    4    0    0 -0.13546965852E+02  0.36424386123E+02  0.35650880398E+02  0.52737476821E+02  0.00000000000E+00 0. -1.
         21    1    1    2  502  501 -0.24897069767E+02 -0.22036518092E+02 -0.54618909513E+02  0.63942923682E+02  0.00000000000E+00 0. -1.
<scales pt_clust_5="13000.00000" pt_clust_6="13000.00000" pt_clust_7="13000.00000" pt_clust_8="13000.00000" pt_clust_9="33.24864"></scales>
<clustering>
<clus scale="   33.249">  2  9  1 -1</clus>
<clus scale="   92.570">  5  6 -1 -1</clus>
<clus scale="  102.787">  1  5  2 -1</clus>
<clus scale="  104.089">  7  8 -1 -1</clus>
<clus scale="   33.249">  2  5  1 -1</clus>
</clustering>
</event>
<event>
 9    1  0.6202448E-006  0.1437807E+03  0.7546771E-02  0.1209674E+00
          2   -1    0    0  502    0  0.00000000000E+00  0.00000000000E+00  0.13614023071E+04  0.13614023071E+04  0.00000000000E+00 0. -1.
         -2   -1    0    0    0  501 -0.00000000000E+00 -0.00000000000E+00 -0.39773070640E+02  0.39773070640E+02  0.00000000000E+00 0.  1.
         23    2    1    2    0    0  0.14594581698E+03 -0.27435373397E+02  0.31858852009E+03  0.36159582239E+03  0.84852887004E+02 0.  0.
         23    2    1    2    0    0 -0.62623295563E+02 -0.78071430129E+02  0.42406393800E+03  0.44519883724E+03  0.91405447406E+02 0.  0.
        -13    1    3    3    0    0  0.35085816542E+02 -0.78217776549E+01  0.17167404231E+02  0.39836095393E+02  0.00000000000E+00 0.  1.
         13    1    3    3    0    0  0.11086000044E+03 -0.19613595742E+02  0.30142111586E+03  0.32175972700E+03  0.00000000000E+00 0. -1.
        -13    1    4    4    0    0 -0.39090946323E+02  0.68416377423E+01  0.71335113823E+02  0.81630928916E+02  0.00000000000E+00 0.  1.
         13    1    4    4    0    0 -0.23532349239E+02 -0.84913067871E+02  0.35272882418E+03  0.36356790832E+03  0.00000000000E+00 0. -1.
         21    1    1    2  502  501 -0.83322521419E+02  0.10550680353E+03  0.57897677834E+03  0.59438071808E+03  0.00000000000E+00 0. -1.
<scales pt_clust_5="13000.00000" pt_clust_6="13000.00000" pt_clust_7="13000.00000" pt_clust_8="13000.00000" pt_clust_9="134.44080"></scales>
<clustering>
<clus scale="   84.853">  5  6 -1 -1</clus>
<clus scale="   91.405">  7  8 -1 -1</clus>
<clus scale="  134.441">  1  9  2 -1</clus>
<clus scale="  139.707">  2  5  1 -1</clus>
<clus scale="  134.441">  1  5  2 -1</clus>
</clustering>
</event>
<event>
 9    1  0.6202448E-006  0.9715660E+02  0.7546771E-02  0.1290886E+00
          1   -1    0    0  502    0  0.00000000000E+00  0.00000000000E+00  0.45020812668E+03  0.45020812668E+03  0.00000000000E+00 0. -1.
         -1   -1    0    0    0  501 -0.00000000000E+00 -0.00000000000E+00 -0.36949420996E+02  0.36949420996E+02  0.00000000000E+00 0.  1.
         23    2    1    2    0    0  0.39186928103E+01 -0.14336532148E+02  0.48378900289E+02  0.95975598090E+02  0.81546950452E+02 0.  0.
         23    2    1    2    0    0  0.75514998170E+01  0.42846650857E+02  0.32933385140E+03  0.34419357833E+03  0.90086475387E+02 0.  0.
        -13    1    3    3    0    0  0.49571329010E+01 -0.46833068662E+02  0.15114100314E+02  0.49460545035E+02  0.00000000000E+00 0.  1.
         13    1    3    3    0    0 -0.10384400906E+01  0.32496536514E+02  0.33264799975E+02  0.46515053054E+02  0.00000000000E+00 0. -1.
        -13    1    4    4    0    0  0.38371299876E+02  0.52051436363E+02  0.17554022474E+03  0.18707239023E+03  0.00000000000E+00 0. -1.
         13    1    4    4    0    0 -0.30819800059E+02 -0.92047855057E+01  0.15379362665E+03  0.15712118810E+03  0.00000000000E+00 0.  1.
         21    1    1    2  502  501 -0.11470192627E+02 -0.28510118709E+02  0.35545953991E+02  0.46988371252E+02  0.00000000000E+00 0.  1.
<scales pt_clust_5="13000.00000" pt_clust_6="13000.00000" pt_clust_7="13000.00000" pt_clust_8="13000.00000" pt_clust_9="30.73096"></scales>
<clustering>
<clus scale="   30.731">  2  9  1 -1</clus>
<clus scale="   81.547">  5  6 -1 -1</clus>
<clus scale="   89.296">  2  5  1 -1</clus>
<clus scale="   90.086">  7  8 -1 -1</clus>
<clus scale="   97.157">  1  5  2 -1</clus>
</clustering>
</event>
<event>
 9    1  0.6202448E-006  0.1260294E+03  0.7546771E-02  0.1233646E+00
         -1   -1    0    0    0  501 -0.00000000000E+00  0.00000000000E+00  0.13149554721E+03  0.13149554721E+03  0.00000000000E+00 0.  1.
          1   -1    0    0  502    0  0.00000000000E+00 -0.00000000000E+00 -0.32157919985E+03  0.32157919985E+03  0.00000000000E+00 0. -1.
         23    2    1    2    0    0 -0.10145073405E+03 -0.39877323919E+02  0.31158418402E+02  0.14503534166E+03  0.90454136937E+02 0.  0.
         23    2    1    2    0    0  0.42829766642E+02  0.76290005807E+02 -0.19960111793E+03  0.23571629655E+03  0.89816547951E+02 0.  0.
        -11    1    3    3    0    0 -0.34405645367E+02  0.13475448173E+02 -0.23138290373E+02  0.43597208833E+02  0.00000000000E+00 0. -1.
         11    1    3    3    0    0 -0.67045088685E+02 -0.53352772092E+02  0.54296708775E+02  0.10143813282E+03  0.00000000000E+00 0.  1.
        -11    1    4    4    0    0 -0.23628591677E+02  0.30044529786E+01 -0.60516570184E+02  0.65035316168E+02  0.00000000000E+00 0.  1.
         11    1    4    4    0    0  0.66458358319E+02  0.73285552828E+02 -0.13908454774E+03  0.17068098038E+03  0.00000000000E+00 0. -1.
         21    1    1    2  502  501  0.58620967410E+02 -0.36412681888E+02 -0.21640953109E+02  0.72323108850E+02  0.00000000000E+00 0.  1.
<scales pt_clust_5="13000.00000" pt_clust_6="13000.00000" pt_clust_7="13000.00000" pt_clust_8="13000.00000" pt_clust_9="69.00943"></scales>
<clustering>
<clus scale="   69.009">  1  9  2 -1</clus>
<clus scale="   89.817">  7  8 -1 -1</clus>
<clus scale="   90.454">  5  6 -1 -1</clus>
<clus scale="  125.573">  2  7  1 -1</clus>
<clus scale="  125.573">  2  5  1 -1</clus>
</clustering>
</event>
<event>
 9    1  0.6202448E-006  0.9599319E+02  0.7546771E-02  0.1289766E+00
         -4   -1    0    0    0  501 -0.00000000000E+00  0.00000000000E+00  0.56378965772E+02  0.56378965772E+02  0.00000000000E+00 0.  1.
          4   -1    0    0  502    0  0.00000000000E+00 -0.00000000000E+00 -0.25932378897E+03  0.25932378897E+03  0.00000000000E+00 0. -1.
         23    2    1    2    0    0 -0.36786541035E+02 -0.78940349346E+01 -0.81092221699E+02  0.12784873228E+03  0.91399040129E+02 0.  0.
         23    2    1    2    0    0  0.12258529313E+02 -0.20346362383E+02 -0.11516264316E+03  0.14985535219E+03  0.92897503726E+02 0.  0.
        -13    1    3    3    0    0  0.28954604458E+02 -0.42894752618E+01 -0.99508123682E+01  0.30915811232E+02  0.00000000000E+00 0. -1.
         13    1    3    3    0    0 -0.65741145493E+02 -0.36045596728E+01 -0.71141409331E+02  0.96932921048E+02  0.00000000000E+00 0.  1.
        -13    1    4    4    0    0  0.39082939045E+02 -0.44577807212E+02 -0.64346849479E+02  0.87493851545E+02  0.00000000000E+00 0.  1.
         13    1    4    4    0    0 -0.26824409732E+02  0.24231444828E+02 -0.50815793680E+02  0.62361500650E+02  0.00000000000E+00 0. -1.
         21    1    1    2  502  501  0.24528011722E+02  0.28240397318E+02 -0.66899583424E+01  0.37998670271E+02  0.00000000000E+00 0. -1.
<scales pt_clust_5="13000.00000" pt_clust_6="13000.00000" pt_clust_7="13000.00000" pt_clust_8="13000.00000" pt_clust_9="37.40513"></scales>
<clustering>
<clus scale="   37.405">  1  9  2 -1</clus>
<clus scale="   91.399">  5  6 -1 -1</clus>
<clus scale="   92.898">  7  8 -1 -1</clus>
<clus scale="   94.544">  1  5  2 -1</clus>
<clus scale="   95.993">  2  5  1 -1</clus>
</clustering>
</event>
<event>
 9    1  0.6202448E-006  0.1365283E+03  0.7546771E-02  0.1218363E+00
          1   -1    0    0  502    0  0.00000000000E+00  0.00000000000E+00  0.33003762472E+03  0.33003762472E+03  0.00000000000E+00 0. -1.
         -1   -1    0    0    0  501 -0.00000000000E+00 -0.00000000000E+00 -0.85946655853E+02  0.85946655853E+02  0.00000000000E+00 0.  1.
         23    2    1    2    0    0  0.27736744469E+02  0.10290448902E+03  0.14581551626E+02  0.14152226296E+03  0.91963408008E+02 0.  0.
         23    2    1    2    0    0 -0.11296734712E+02 -0.84642405528E+02  0.20397950007E+03  0.23902821616E+03  0.90746342313E+02 0.  0.
        -11    1    4    4    0    0  0.11514156063E+02 -0.22979961831E+02  0.10617390403E+01  0.25725118569E+02  0.00000000000E+00 0.  1.
         11    1    4    4    0    0 -0.22810890774E+02 -0.61662443697E+02  0.20291776103E+03  0.21330309759E+03  0.00000000000E+00 0. -1.
        -13    1    3    3    0    0  0.60176635254E+02  0.83583143352E+02  0.11700642441E+02  0.10365459139E+03  0.00000000000E+00 0.  1.
         13    1    3    3    0    0 -0.32439890785E+02  0.19321345667E+02  0.28809091851E+01  0.37867671571E+02  0.00000000000E+00 0. -1.
         21    1    1    2  502  501 -0.16440009758E+02 -0.18262083492E+02  0.25529917165E+02  0.35433801444E+02  0.00000000000E+00 0.  1.
<scales pt_clust_5="13000.00000" pt_clust_6="13000.00000" pt_clust_7="13000.00000" pt_clust_8="13000.00000" pt_clust_9="24.57189"></scales>
<clustering>
<clus scale="   24.572">  1  9  2 -1</clus>
<clus scale="   90.746">  5  6 -1 -1</clus>
<clus scale="   91.963">  7  8 -1 -1</clus>
<clus scale="  135.712">  1  5  2 -1</clus>
<clus scale="   24.572">  1  5  2 -1</clus>
</clustering>
</event>
<event>
 9    1  0.6202448E-006  0.1511318E+03  0.7546771E-02  0.1212172E+00
         -2   -1    0    0    0  501 -0.00000000000E+00  0.00000000000E+00  0.34186594224E+03  0.34186594224E+03  0.00000000000E+00 0.  1.
          2   -1    0    0  502    0  0.00000000000E+00 -0.00000000000E+00 -0.15819534481E+03  0.15819534481E+03  0.00000000000E+00 0. -1.
         23    2    1    2    0    0 -0.92013030021E+02 -0.54479129314E+02  0.67537694429E+02  0.15487353210E+03  0.89387345599E+02 0.  0.
         23    2    1    2    0    0  0.24415900325E+02 -0.62496613960E+02 -0.55431925845E+02  0.12681379369E+03  0.92233816581E+02 0.  0.
        -11    1    4    4    0    0 -0.23084293970E+02 -0.46163314920E+02  0.52927367995E+00  0.51616047923E+02  0.00000000000E+00 0.  1.
         11    1    4    4    0    0  0.47500194296E+02 -0.16333299040E+02 -0.55961199525E+02  0.75197745763E+02  0.00000000000E+00 0. -1.
        -11    1    3    3    0    0 -0.66610041309E+02 -0.76891147553E+02  0.65380074122E+02  0.12092849237E+03  0.00000000000E+00 0.  1.
         11    1    3    3    0    0 -0.25402988712E+02  0.22412018239E+02  0.21576203070E+01  0.33945039732E+02  0.00000000000E+00 0. -1.
         21    1    1    2  502  501  0.67597129695E+02  0.11697574327E+03  0.17156482884E+03  0.21837396125E+03  0.00000000000E+00 0. -1.
<scales pt_clust_5="13000.00000" pt_clust_6="13000.00000" pt_clust_7="13000.00000" pt_clust_8="13000.00000" pt_clust_9="121.86351"></scales>
<clustering>
<clus scale="   89.387">  7  8 -1 -1</clus>
<clus scale="   92.234">  5  6 -1 -1</clus>
<clus scale="  114.057">  2  5  1 -1</clus>
<clus scale="  121.864">  1  9  2 -1</clus>
<clus scale="  114.057">  2  5  1 -1</clus>
</clustering>
</event>
<event>
 9    1  0.6202448E-006  0.1635525E+03  0.7546771E-02  0.1202730E+00
         -2   -1    0    0    0  501 -0.00000000000E+00  0.00000000000E+00  0.39534172903E+02  0.39534172903E+02  0.00000000000E+00 0.  1.
          2   -1    0    0  502    0  0.00000000000E+00 -0.00000000000E+00 -0.15693615566E+04  0.15693615566E+04  0.00000000000E+00 0. -1.
         23    2    1    2    0    0  0.74047379661E+02  0.11103421669E+03 -0.23031857390E+03  0.28113765751E+03  0.90444044990E+02 0.  0.
         23    2    1    2    0    0  0.52482795313E+02 -0.22594055915E+02 -0.39118221119E+03  0.40640647952E+03  0.94221914019E+02 0.  0.
        -11    1    4    4    0    0  0.73977752422E+02 -0.25684648147E+02 -0.35992830478E+03  0.36834873908E+03  0.00000000000E+00 0.  1.
         11    1    4    4    0    0 -0.21494957109E+02  0.30905922319E+01 -0.31253906408E+02  0.38057740437E+02  0.00000000000E+00 0. -1.
        -13    1    3    3    0    0  0.36310896058E+02  0.11442444414E+03 -0.19693553232E+03  0.23064049618E+03  0.00000000000E+00 0. -1.
         13    1    3    3    0    0  0.37736483603E+02 -0.33902274463E+01 -0.33383041583E+02  0.50497161328E+02  0.00000000000E+00 0.  1.
         21    1    1    2  502  501 -0.12653017497E+03 -0.88440160775E+02 -0.90832659860E+03  0.92135159246E+03  0.00000000000E+00 0. -1.
<scales pt_clust_5="13000.00000" pt_clust_6="13000.00000" pt_clust_7="13000.00000" pt_clust_8="13000.00000" pt_clust_9="136.26925"></scales>
<clustering>
<clus scale="   90.444">  7  8 -1 -1</clus>
<clus scale="   94.222">  5  6 -1 -1</clus>
<clus scale="  110.194">  2  5  1 -1</clus>
<clus scale="  136.269">  2  9  1 -1</clus>
<clus scale="  110.194">  2  5  1 -1</clus>
</clustering>
</event>
<event>
 9    1  0.6202448E-006  0.1616778E+03  0.7546771E-02  0.1208920E+00
         -2   -1    0    0    0  501 -0.00000000000E+00  0.00000000000E+00  0.11028365112E+03  0.11028365112E+03  0.00000000000E+00 0.  1.
          2   -1    0    0  502    0  0.00000000000E+00 -0.00000000000E+00 -0.55455165505E+03  0.55455165505E+03  0.00000000000E+00 0. -1.
         23    2    1    2    0    0  0.48950716328E+02 -0.12958643078E+03 -0.12160085690E+03  0.20455433568E+03  0.88695502565E+02 0.  0.
         23    2    1    2    0    0 -0.41865714082E+02 -0.59284642948E+01 -0.30800939711E+03  0.32379165341E+03  0.90461933447E+02 0.  0.
        -11    1    4    4    0    0  0.14563043661E+02 -0.33884337065E+02 -0.11436360408E+03  0.12016349062E+03  0.00000000000E+00 0.  1.
         11    1    4    4    0    0 -0.56428757744E+02  0.27955872770E+02 -0.19364579304E+03  0.20362816279E+03  0.00000000000E+00 0. -1.
        -13    1    3    3    0    0 -0.25605449593E+02 -0.40560962649E+02 -0.29198048914E+02  0.56154757593E+02  0.00000000000E+00 0. -1.
         13    1    3    3    0    0  0.74556165921E+02 -0.89025468131E+02 -0.92402807987E+02  0.14839957809E+03  0.00000000000E+00 0.  1.
         21    1    1    2  502  501 -0.70850022458E+01  0.13551489508E+03 -0.14657749907E+02  0.13648931708E+03  0.00000000000E+00 0.  1.
<scales pt_clust_5="13000.00000" pt_clust_6="13000.00000" pt_clust_7="13000.00000" pt_clust_8="13000.00000" pt_clust_9="135.17696"></scales>
<clustering>
<clus scale="   88.696">  7  8 -1 -1</clus>
<clus scale="   90.462">  5  6 -1 -1</clus>
<clus scale="   99.856">  2  5  1 -1</clus>
<clus scale="  135.177">  1  9  2 -1</clus>
<clus scale="   99.856">  2  5  1 -1</clus>
</clustering>
</event>
<event>
 9    1  0.6202448E-006  0.1897316E+03  0.7546771E-02  0.1183076E+00
          1   -1    0    0  502    0  0.00000000000E+00  0.00000000000E+00  0.26269048894E+03  0.26269048894E+03  0.00000000000E+00 0. -1.
         -1   -1    0    0    0  501 -0.00000000000E+00 -0.00000000000E+00 -0.31889559880E+03  0.31889559880E+03  0.00000000000E+00 0.  1.
         23    2    1    2    0    0 -0.52242494758E+02 -0.29298196275E+02 -0.11175621041E+03  0.15592768914E+03  0.90754234673E+02 0.  0.
         23    2    1    2    0    0 -0.11733145926E+02  0.19584737828E+03 -0.60560892296E+02  0.21278870252E+03  0.55835006512E+02 0.  0.
        -11    1    4    4    0    0  0.16495155012E+02  0.35013989586E+02 -0.22242658024E+00  0.38705543262E+02  0.00000000000E+00 0. -1.
         11    1    4    4    0    0 -0.28228300938E+02  0.16083338869E+03 -0.60338465715E+02  0.17408315926E+03  0.00000000000E+00 0.  1.
        -11    1    3    3    0    0 -0.49906536879E+02  0.18030812368E+02 -0.88386097266E+02  0.10309158456E+03  0.00000000000E+00 0.  1.
         11    1    3    3    0    0 -0.23359578793E+01 -0.47329008643E+02 -0.23370113149E+02  0.52836104578E+02  0.00000000000E+00 0. -1.
         21    1    1    2  502  501  0.63975640684E+02 -0.16654918201E+03  0.11611199284E+03  0.21286969608E+03  0.00000000000E+00 0. -1.
<scales pt_clust_5="13000.00000" pt_clust_6="13000.00000" pt_clust_7="13000.00000" pt_clust_8="13000.00000" pt_clust_9="181.32991"></scales>
<clustering>
<clus scale="   55.835">  5  6 -1 -1</clus>
<clus scale="   90.754">  7  8 -1 -1</clus>
<clus scale="  108.738">  2  7  1 -1</clus>
<clus scale="  181.330">  1  9  2 -1</clus>
<clus scale="  181.330">  1  5  2 -1</clus>
</clustering>
</event>
<event>
 9    1  0.6202448E-006  0.9862544E+02  0.7546771E-02  0.1288207E+00
          3   -1    0    0  502    0  0.00000000000E+00  0.00000000000E+00  0.14138746954E+03  0.14138746954E+03  0.00000000000E+00 0. -1.
         -3   -1    0    0    0  501 -0.00000000000E+00 -0.00000000000E+00 -0.15528750242E+03  0.15528750242E+03  0.00000000000E+00 0.  1.
         23    2    1    2    0    0  0.62901880433E+01  0.97321121601E+01 -0.99830877978E+02  0.14062318115E+03  0.98358499410E+02 0.  0.
         23    2    1    2    0    0  0.21110873173E+02  0.66730368625E+01  0.82912326953E+02  0.12397284878E+03  0.89468513382E+02 0.  0.
        -13    1    3    3    0    0 -0.35010426381E+02  0.46756659020E+01 -0.91645724278E+02  0.98216753079E+02  0.00000000000E+00 0.  1.
         13    1    3    3    0    0  0.41300614425E+02  0.50564462581E+01 -0.81851537002E+01  0.42406428071E+02  0.00000000000E+00 0. -1.
        -13    1    4    4    0    0  0.28412277881E+02 -0.32152843200E+02  0.15091052197E+02  0.45484093007E+02  0.00000000000E+00 0.  1.
         13    1    4    4    0    0 -0.73014047077E+01  0.38825880063E+02  0.67821274756E+02  0.78488755773E+02  0.00000000000E+00 0. -1.
         21    1    1    2  502  501 -0.27401061216E+02 -0.16405149023E+02  0.30185181444E+01  0.32078942034E+02  0.00000000000E+00 0.  1.
<scales pt_clust_5="13000.00000" pt_clust_6="13000.00000" pt_clust_7="13000.00000" pt_clust_8="13000.00000" pt_clust_9="31.93661"></scales>
<clustering>
<clus scale="   31.937">  1  9  2 -1</clus>
<clus scale="   89.469">  7  8 -1 -1</clus>
<clus scale="   89.762">  1  7  2 -1</clus>
<clus scale="   98.358">  5  6 -1 -1</clus>
<clus scale="   31.937">  1  5  2 -1</clus>
</clustering>
</event>
<event>
 9    1  0.6202448E-006  0.9816346E+02  0.7546771E-02  0.1286244E+00
         -2   -1    0    0    0  501 -0.00000000000E+00  0.00000000000E+00  0.15096292952E+03  0.15096292952E+03  0.00000000000E+00 0.  1.
          2   -1    0    0  502    0  0.00000000000E+00 -0.00000000000E+00 -0.18974259217E+03  0.18974259217E+03  0.00000000000E+00 0. -1.
         23    2    1    2    0    0 -0.61497887661E+01  0.34340557695E+02  0.55397765409E+02  0.11519877334E+03  0.94787927302E+02 0.  0.
         23    2    1    2    0    0  0.59875890892E+02  0.37413579485E+02 -0.49045502083E+02  0.12514718979E+03  0.90947565103E+02 0.  0.
        -13    1    4    4    0    0  0.32098734179E+02 -0.15572080672E+02  0.13916939283E+02  0.38294903465E+02  0.00000000000E+00 0. -1.
         13    1    4    4    0    0  0.27777156713E+02  0.52985660157E+02 -0.62962441367E+02  0.86852286327E+02  0.00000000000E+00 0.  1.
        -13    1    3    3    0    0 -0.35453269728E+02 -0.17737546417E+02  0.12248125018E+02  0.41491823938E+02  0.00000000000E+00 0. -1.
         13    1    3    3    0    0  0.29303480962E+02  0.52078104111E+02  0.43149640391E+02  0.73706949402E+02  0.00000000000E+00 0.  1.
         21    1    1    2  502  501 -0.53726102126E+02 -0.71754137180E+02 -0.45131925978E+02  0.10035955856E+03  0.00000000000E+00 0. -1.
<scales pt_clust_5="13000.00000" pt_clust_6="13000.00000" pt_clust_7="13000.00000" pt_clust_8="13000.00000" pt_clust_9="89.63900"></scales>
<clustering>
<clus scale="   89.639">  2  9  1 -1</clus>
<clus scale="   90.948">  5  6 -1 -1</clus>
<clus scale="   94.460">  2  5  1 -1</clus>
<clus scale="   94.788">  7  8 -1 -1</clus>
<clus scale="   89.639">  2  5  1 -1</clus>
</clustering>
</event>
<event>
 9    1  0.6202448E-006  0.9004549E+02  0.7546771E-02  0.1312735E+00
         -1   -1    0    0    0  501 -0.00000000000E+00  0.00000000000E+00  0.24892403412E+03  0.24892403412E+03  0.00000000000E+00 0.  1.
          1   -1    0    0  502    0  0.00000000000E+00 -0.00000000000E+00 -0.40264445384E+03  0.40264445384E+03  0.00000000000E+00 0. -1.
         23    2    1    2    0    0 -0.12786536106E+02  0.13612489469E+02  0.23124175409E+03  0.24308988250E+03  0.72602663621E+02 0.  0.
         23    2    1    2    0    0  0.46626293161E+02 -0.45062633663E+01 -0.25278033003E+03  0.27173032453E+03  0.88006570174E+02 0.  0.
        -13    1    4    4    0    0  0.28370402943E+02  0.40601992951E+02 -0.10397654177E+03  0.11517171022E+03  0.00000000000E+00 0.  1.
         13    1    4    4    0    0  0.18255890218E+02 -0.45108256317E+02 -0.14880378826E+03  0.15655861431E+03  0.00000000000E+00 0. -1.
        -13    1    3    3    0    0  0.24781442832E+02  0.45814445980E+01  0.35287573344E+02  0.43362684141E+02  0.00000000000E+00 0. -1.
         13    1    3    3    0    0 -0.37567978938E+02  0.90310448709E+01  0.19595418074E+03  0.19972719836E+03  0.00000000000E+00 0.  1.
         21    1    1    2  502  501 -0.33839757056E+02 -0.91062261026E+01 -0.13218184378E+03  0.13674828093E+03  0.00000000000E+00 0. -1.
<scales pt_clust_5="13000.00000" pt_clust_6="13000.00000" pt_clust_7="13000.00000" pt_clust_8="13000.00000" pt_clust_9="35.04358"></scales>
<clustering>
<clus scale="   35.044">  2  9  1 -1</clus>
<clus scale="   72.603">  7  8 -1 -1</clus>
<clus scale="   75.061">  1  7  2 -1</clus>
<clus scale="   88.007">  5  6 -1 -1</clus>
<clus scale="   35.044">  2  5  1 -1</clus>
</clustering>
</event>
<event>
 9    1  0.6202448E-006  0.1048415E+03  0.7546771E-02  0.1270571E+00
          2   -1    0    0  502    0  0.00000000000E+00  0.00000000000E+00  0.46762792636E+03  0.46762792636E+03  0.00000000000E+00 0. -1.
         -2   -1    0    0    0  501 -0.00000000000E+00 -0.00000000000E+00 -0.50002879472E+02  0.50002879472E+02  0.00000000000E+00 0.  1.
         23    2    1    2    0    0 -0.60676169231E+02  0.93189372913E+01  0.15972002904E+03  0.19378731000E+03  0.90964793932E+02 0.  0.
         23    2    1    2    0    0  0.40261521951E+02  0.35937367094E+02  0.25254621892E+03  0.27390746038E+03  0.91286470297E+02 0.  0.
        -11    1    3    3    0    0 -0.16312651397E+02 -0.38398963245E+02  0.84743362015E+02  0.94456446998E+02  0.00000000000E+00 0.  1.
         11    1    3    3    0    0 -0.44363517835E+02  0.47717900537E+02  0.74976667029E+02  0.99330863003E+02  0.00000000000E+00 0. -1.
        -13    1    4    4    0    0  0.39183910002E+02 -0.22514128029E+02  0.13953067863E+03  0.14666654371E+03  0.00000000000E+00 0.  1.
         13    1    4    4    0    0  0.10776119487E+01  0.58451495123E+02  0.11301554029E+03  0.12724091667E+03  0.00000000000E+00 0. -1.
         21    1    1    2  502  501  0.20414647280E+02 -0.45256304385E+02  0.53587989237E+01  0.49936035446E+02  0.00000000000E+00 0.  1.
<scales pt_clust_5="13000.00000" pt_clust_6="13000.00000" pt_clust_7="13000.00000" pt_clust_8="13000.00000" pt_clust_9="49.64767"></scales>
<clustering>
<clus scale="   49.648">  2  9  1 -1</clus>
<clus scale="   90.965">  5  6 -1 -1</clus>
<clus scale="   91.286">  7  8 -1 -1</clus>
<clus scale="  104.562">  2  5  1 -1</clus>
<clus scale="  104.841">  1  5  2 -1</clus>
</clustering>
</event>
<event>
 9    1  0.6202448E-006  0.9404745E+02  0.7546771E-02  0.1295787E+00
          3   -1    0    0  502    0  0.00000000000E+00  0.00000000000E+00  0.81270417783E+02  0.81270417783E+02  0.00000000000E+00 0. -1.
         -3   -1    0    0    0  501 -0.00000000000E+00 -0.00000000000E+00 -0.16092109048E+03  0.16092109048E+03  0.00000000000E+00 0.  1.
         23    2    1    2    0    0  0.14824279260E+02  0.24280836296E+02 -0.40972807430E+02  0.10596573814E+03  0.93491435132E+02 0.  0.
         23    2    1    2    0    0 -0.15019621646E+01  0.13671049262E+02 -0.24702391632E+02  0.93644746028E+02  0.89274726704E+02 0.  0.
        -13    1    3    3    0    0 -0.61976586589E+01  0.56290278450E+02 -0.36584631312E+02  0.67419890752E+02  0.00000000000E+00 0.  1.
         13    1    3    3    0    0  0.21021937919E+02 -0.32009442153E+02 -0.43881761180E+01  0.38545847383E+02  0.00000000000E+00 0. -1.
        -13    1    4    4    0    0 -0.38793394671E+02 -0.16692664364E+02 -0.11012795080E+02  0.43644635055E+02  0.00000000000E+00 0. -1.
         13    1    4    4    0    0  0.37291432506E+02  0.30363713626E+02 -0.13689596553E+02  0.50000110973E+02  0.00000000000E+00 0.  1.
         21    1    1    2  502  501 -0.13322317096E+02 -0.37951885558E+02 -0.13975473638E+02  0.42581024103E+02  0.00000000000E+00 0. -1.
<scales pt_clust_5="13000.00000" pt_clust_6="13000.00000" pt_clust_7="13000.00000" pt_clust_8="13000.00000" pt_clust_9="40.22225"></scales>
<clustering>
<clus scale="   40.222">  1  9  2 -1</clus>
<clus scale="   89.275">  7  8 -1 -1</clus>
<clus scale="   89.857">  1  7  2 -1</clus>
<clus scale="   93.491">  5  6 -1 -1</clus>
<clus scale="   40.222">  1  5  2 -1</clus>
</clustering>
</event>
<event>
 9    1  0.6202448E-006  0.9246004E+02  0.7546771E-02  0.1297342E+00
          2   -1    0    0  502    0  0.00000000000E+00  0.00000000000E+00  0.75006411458E+02  0.75006411458E+02  0.00000000000E+00 0. -1.
         -2   -1    0    0    0  501 -0.00000000000E+00 -0.00000000000E+00 -0.20022476335E+03  0.20022476335E+03  0.00000000000E+00 0.  1.
         23    2    1    2    0    0  0.16081518464E+02  0.66344491732E+01 -0.60077207078E+02  0.11050288628E+03  0.91098770105E+02 0.  0.
         23    2    1    2    0    0  0.33215314392E+02  0.64427511085E+01 -0.28081038858E+02  0.10168352387E+03  0.91685484843E+02 0.  0.
        -11    1    4    4    0    0  0.58244030819E+02  0.27582548333E+02 -0.13601496028E+02  0.65864746206E+02  0.00000000000E+00 0. -1.
         11    1    4    4    0    0 -0.25028716427E+02 -0.21139797225E+02 -0.14479542830E+02  0.35818777663E+02  0.00000000000E+00 0.  1.
        -11    1    3    3    0    0  0.54228197342E+02  0.16184414892E+01 -0.34089705877E+02  0.64073588838E+02  0.00000000000E+00 0. -1.
         11    1    3    3    0    0 -0.38146678878E+02  0.50160076839E+01 -0.25987501202E+02  0.46429297445E+02  0.00000000000E+00 0.  1.
         21    1    1    2  502  501 -0.49296832857E+02 -0.13077200282E+02 -0.37060105951E+02  0.63044764652E+02  0.00000000000E+00 0.  1.
<scales pt_clust_5="13000.00000" pt_clust_6="13000.00000" pt_clust_7="13000.00000" pt_clust_8="13000.00000" pt_clust_9="51.00187"></scales>
<clustering>
<clus scale="   51.002">  2  9  1 -1</clus>
<clus scale="   91.099">  7  8 -1 -1</clus>
<clus scale="   91.685">  5  6 -1 -1</clus>
<clus scale="   91.878">  2  7  1 -1</clus>
<clus scale="   92.460">  1  5  2 -1</clus>
</clustering>
</event>
<event>
 9    1  0.1101528E-005  0.1733221E+03  0.7546771E-02  0.1174831E+00
          2   -1    0    0  502    0  0.00000000000E+00  0.00000000000E+00  0.84262204939E+03  0.84262204939E+03  0.00000000000E+00 0. -1.
         -2   -1    0    0    0  501 -0.00000000000E+00 -0.00000000000E+00 -0.23858104309E+03  0.23858104309E+03  0.00000000000E+00 0.  1.
         23    2    1    2    0    0 -0.56342456364E+02  0.20271901962E+02 -0.11836699923E+03  0.16271908857E+03  0.94240823849E+02 0.  0.
         23    2    1    2    0    0  0.14717920569E+03  0.39166523165E+02  0.77695936893E+03  0.79699288219E+03  0.91302016173E+02 0.  0.
        -13    1    3    3    0    0 -0.43792515372E+02  0.43988912635E+02 -0.12076140676E+03  0.13577969730E+03  0.00000000000E+00 0.  1.
         13    1    3    3    0    0 -0.12549940992E+02 -0.23717010672E+02  0.23944075334E+01  0.26939391262E+02  0.00000000000E+00 0. -1.
        -13    1    4    4    0    0  0.22041037072E+02 -0.20502137603E+02  0.64608984338E+02  0.71277386447E+02  0.00000000000E+00 0.  1.
         13    1    4    4    0    0  0.12513816862E+03  0.59668660767E+02  0.71235038460E+03  0.72571549574E+03  0.00000000000E+00 0. -1.
         21    1    1    2  502  501 -0.90836749330E+02 -0.59438425127E+02 -0.54551363406E+02  0.12149112173E+03  0.00000000000E+00 0.  1.
<scales pt_clust_5="13000.00000" pt_clust_6="13000.00000" pt_clust_7="13000.00000" pt_clust_8="13000.00000" pt_clust_9="108.55525"></scales>
<clustering>
<clus scale="   91.302">  7  8 -1 -1</clus>
<clus scale="   94.241">  5  6 -1 -1</clus>
<clus scale="  108.555">  2  9  1 -1</clus>
<clus scale="  171.742">  1  7  2 -1</clus>
<clus scale="  171.742">  1  5  2 -1</clus>
</clustering>
</event>
<event>
 9    1  0.6202448E-006  0.1012749E+03  0.7546771E-02  0.1284176E+00
          1   -1    0    0  502    0  0.00000000000E+00  0.00000000000E+00  0.28726626964E+03  0.28726626964E+03  0.00000000000E+00 0. -1.
         -1   -1    0    0    0  501 -0.00000000000E+00 -0.00000000000E+00 -0.27442757017E+03  0.27442757017E+03  0.00000000000E+00 0.  1.
         23    2    1    2    0    0 -0.10823972809E+02  0.53526189916E+00 -0.85743735082E+02  0.12507101531E+03  0.90406448183E+02 0.  0.
         23    2    1    2    0    0  0.68113002106E+02 -0.42034856323E+02 -0.14520659975E+03  0.18277770940E+03  0.76918295862E+02 0.  0.
        -11    1    4    4    0    0  0.24124508004E+02  0.16796300584E+02 -0.77456269849E+02  0.82846734025E+02  0.00000000000E+00 0.  1.
         11    1    4    4    0    0  0.43988494102E+02 -0.58831156907E+02 -0.67750329904E+02  0.99930975370E+02  0.00000000000E+00 0. -1.
        -13    1    3    3    0    0  0.33992178656E+02  0.10690328446E+02 -0.66106387887E+02  0.75098640810E+02  0.00000000000E+00 0.  1.
         13    1    3    3    0    0 -0.44816151465E+02 -0.10155066547E+02 -0.19637347196E+02  0.49972374504E+02  0.00000000000E+00 0. -1.
         21    1    1    2  502  501 -0.57289029297E+02  0.41499594424E+02  0.24378903430E+03  0.25384511510E+03  0.00000000000E+00 0. -1.
<scales pt_clust_5="13000.00000" pt_clust_6="13000.00000" pt_clust_7="13000.00000" pt_clust_8="13000.00000" pt_clust_9="70.74072"></scales>
<clustering>
<clus scale="   70.741">  1  9  2 -1</clus>
<clus scale="   76.918">  5  6 -1 -1</clus>
<clus scale="   89.441">  1  5  2 -1</clus>
<clus scale="   90.406">  7  8 -1 -1</clus>
<clus scale="   70.741">  1  5  2 -1</clus>
</clustering>
</event>
<event>
 9    1  0.6202448E-006  0.1108335E+03  0.7546771E-02  0.1261608E+00
         -2   -1    0    0    0  501 -0.00000000000E+00  0.00000000000E+00  0.23442257752E+03  0.23442257752E+03  0.00000000000E+00 0.  1.
          2   -1    0    0  502    0  0.00000000000E+00 -0.00000000000E+00 -0.14022635501E+03  0.14022635501E+03  0.00000000000E+00 0. -1.
         23    2    1    2    0    0 -0.66357429317E+02 -0.35959334438E+02 -0.19408258191E+02  0.12262706798E+03  0.94680172991E+02 0.  0.
         23    2    1    2    0    0  0.30854383302E+02  0.34505284259E+02 -0.30031970749E+02  0.10405561596E+03  0.88221563885E+02 0.  0.
        -11    1    3    3    0    0 -0.17719140986E+02  0.23419723590E+02 -0.33540490712E+02  0.44580443330E+02  0.00000000000E+00 0.  1.
         11    1    3    3    0    0 -0.48638288330E+02 -0.59379058027E+02  0.14132232521E+02  0.78046624654E+02  0.00000000000E+00 0. -1.
        -13    1    4    4    0    0  0.36904298762E+02  0.56268432577E+02 -0.41153673860E+02  0.78877681533E+02  0.00000000000E+00 0.  1.
         13    1    4    4    0    0 -0.60499154602E+01 -0.21763148318E+02  0.11121703111E+02  0.25177934424E+02  0.00000000000E+00 0. -1.
         21    1    1    2  502  501  0.35503046015E+02  0.14540501783E+01  0.14363645145E+03  0.14796624859E+03  0.00000000000E+00 0.  1.
<scales pt_clust_5="13000.00000" pt_clust_6="13000.00000" pt_clust_7="13000.00000" pt_clust_8="13000.00000" pt_clust_9="35.53281"></scales>
<clustering>
<clus scale="   35.533">  1  9  2 -1</clus>
<clus scale="   88.222">  7  8 -1 -1</clus>
<clus scale="   94.680">  5  6 -1 -1</clus>
<clus scale="  105.370">  2  7  1 -1</clus>
<clus scale="  105.370">  2  5  1 -1</clus>
</clustering>
</event>
<event>
 9    1  0.6202448E-006  0.1202169E+03  0.7546771E-02  0.1244184E+00
          2   -1    0    0  502    0  0.00000000000E+00  0.00000000000E+00  0.88135014512E+03  0.88135014512E+03  0.00000000000E+00 0. -1.
         -2   -1    0    0    0  501 -0.00000000000E+00 -0.00000000000E+00 -0.22875843164E+02  0.22875843164E+02  0.00000000000E+00 0.  1.
         23    2    1    2    0    0  0.77785006058E+02 -0.18875217002E+02  0.23174554909E+03  0.26337712030E+03  0.96201491628E+02 0.  0.
         23    2    1    2    0    0 -0.54616938404E+02  0.16709458526E+02  0.46240193191E+03  0.47488274507E+03  0.91846932268E+02 0.  0.
        -11    1    3    3    0    0  0.15846446758E+02 -0.36889964369E+02  0.26185917081E+02  0.47934138142E+02  0.00000000000E+00 0.  1.
         11    1    3    3    0    0  0.61938559301E+02  0.18014747367E+02  0.20555963201E+03  0.21544298216E+03  0.00000000000E+00 0. -1.
        -11    1    4    4    0    0 -0.33975359156E+01  0.44967918204E+02  0.27148342730E+03  0.27520339427E+03  0.00000000000E+00 0. -1.
         11    1    4    4    0    0 -0.51219402488E+02 -0.28258459678E+02  0.19091850461E+03  0.19967935080E+03  0.00000000000E+00 0.  1.
         21    1    1    2  502  501 -0.23168067655E+02  0.21657584754E+01  0.16432682096E+03  0.16596612292E+03  0.00000000000E+00 0.  1.
<scales pt_clust_5="13000.00000" pt_clust_6="13000.00000" pt_clust_7="13000.00000" pt_clust_8="13000.00000" pt_clust_9="23.26908"></scales>
<clustering>
<clus scale="   23.269">  1  9  2 -1</clus>
<clus scale="   91.847">  7  8 -1 -1</clus>
<clus scale="   96.201">  5  6 -1 -1</clus>
<clus scale="  116.761">  1  7  2 -1</clus>
<clus scale="   23.269">  1  5  2 -1</clus>
</clustering>
</event>
<event>
 9    1  0.6202448E-006  0.1312703E+03  0.7546771E-02  0.1238455E+00
         -1   -1    0    0    0  501 -0.00000000000E+00  0.00000000000E+00  0.32634080976E+03  0.32634080976E+03  0.00000000000E+00 0.  1.
          1   -1    0    0  502    0  0.00000000000E+00 -0.00000000000E+00 -0.23165030155E+03  0.23165030155E+03  0.00000000000E+00 0. -1.
         23    2    1    2    0    0 -0.37268108483E+02  0.25900157780E+02  0.25688461509E+03  0.27592431672E+03  0.89915477014E+02 0.  0.
         23    2    1    2    0    0 -0.67342846665E+02 -0.47454115184E+02 -0.70703905875E+02  0.14143080383E+03  0.90645893012E+02 0.  0.
        -11    1    3    3    0    0 -0.28342091275E+02  0.58564674078E+02  0.19217972116E+03  0.20289440705E+03  0.00000000000E+00 0.  1.
         11    1    3    3    0    0 -0.89260172084E+01 -0.32664516298E+02  0.64704893927E+02  0.73029909669E+02  0.00000000000E+00 0. -1.
        -13    1    4    4    0    0 -0.26038486393E+02 -0.36208842711E+01  0.19665441459E+02  0.32830521841E+02  0.00000000000E+00 0.  1.
         13    1    4    4    0    0 -0.41304360271E+02 -0.43833230913E+02 -0.90369347334E+02  0.10860028198E+03  0.00000000000E+00 0. -1.
         21    1    1    2  502  501  0.10461095515E+03  0.21553957404E+02 -0.91490201003E+02  0.14063599076E+03  0.00000000000E+00 0.  1.
<scales pt_clust_5="13000.00000" pt_clust_6="13000.00000" pt_clust_7="13000.00000" pt_clust_8="13000.00000" pt_clust_9="94.94851"></scales>
<clustering>
<clus scale="   89.915">  5  6 -1 -1</clus>
<clus scale="   90.646">  7  8 -1 -1</clus>
<clus scale="  100.720">  1  5  2 -1</clus>
<clus scale="   94.949">  2  9  1 -1</clus>
<clus scale="   94.949">  2  5  1 -1</clus>
</clustering>
</event>
<event>
 9    1  0.6202448E-006  0.1737022E+03  0.7546771E-02  0.1200679E+00
          1   -1    0    0  502    0  0.00000000000E+00  0.00000000000E+00  0.33059048157E+03  0.33059048157E+03  0.00000000000E+00 0. -1.
         -1   -1    0    0    0  501 -0.00000000000E+00 -0.00000000000E+00 -0.15688271575E+03  0.15688271575E+03  0.00000000000E+00 0.  1.
         23    2    1    2    0    0 -0.19701309213E+02 -0.26943687834E+02  0.63550363147E+01  0.96373218466E+02  0.90184848241E+02 0.  0.
         23    2    1    2    0    0  0.57385503774E+02  0.14798786992E+03  0.18843644796E+03  0.26258415990E+03  0.90822026112E+02 0.  0.
        -11    1    4    4    0    0  0.23766528987E+02 -0.98769484134E+00  0.57537940820E+01  0.24473037971E+02  0.00000000000E+00 0.  1.
         11    1    4    4    0    0  0.33618974787E+02  0.14897556476E+03  0.18268265388E+03  0.23811112193E+03  0.00000000000E+00 0. -1.
        -11    1    3    3    0    0 -0.35732840032E+02  0.79176084447E+00 -0.30894155673E+02  0.47243111633E+02  0.00000000000E+00 0.  1.
         11    1    3    3    0    0  0.16031530819E+02 -0.27735448678E+02  0.37249191987E+02  0.49130106834E+02  0.00000000000E+00 0. -1.
         21    1    1    2  502  501 -0.37684194561E+02 -0.12104418208E+03 -0.21083718457E+02  0.12851581895E+03  0.00000000000E+00 0.  1.
<scales pt_clust_5="13000.00000" pt_clust_6="13000.00000" pt_clust_7="13000.00000" pt_clust_8="13000.00000" pt_clust_9="148.06689"></scales>
<clustering>
<clus scale="   90.185">  7  8 -1 -1</clus>
<clus scale="   90.822">  5  6 -1 -1</clus>
<clus scale="   96.163">  2  7  1 -1</clus>
<clus scale="  148.067">  2  9  1 -1</clus>
<clus scale="  173.702">  1  5  2 -1</clus>
</clustering>
</event>
<event>
 9    1  0.6202448E-006  0.1431932E+03  0.7546771E-02  0.1216007E+00
         -1   -1    0    0    0  501 -0.00000000000E+00  0.00000000000E+00  0.13889680867E+03  0.13889680867E+03  0.00000000000E+00 0.  1.
          1   -1    0    0  502    0  0.00000000000E+00 -0.00000000000E+00 -0.48323419810E+03  0.48323419810E+03  0.00000000000E+00 0. -1.
         23    2    1    2    0    0 -0.36521840486E+01 -0.89446992322E+02 -0.11004706277E+02  0.12745370529E+03  0.90051321746E+02 0.  0.
         23    2    1    2    0    0 -0.76966684068E+02 -0.29277690178E+02 -0.32860451641E+03  0.35109001899E+03  0.92207481439E+02 0.  0.
        -11    1    3    3    0    0  0.39722535959E+02 -0.18802978382E+02 -0.65863751184E+01  0.44438859079E+02  0.00000000000E+00 0.  1.
         11    1    3    3    0    0 -0.43374720007E+02 -0.70644013940E+02 -0.44183311585E+01  0.83014846212E+02  0.00000000000E+00 0. -1.
        -13    1    4    4    0    0 -0.87181491587E+02 -0.82679478526E+01 -0.30708527050E+03  0.31932794240E+03  0.00000000000E+00 0. -1.
         13    1    4    4    0    0  0.10214807519E+02 -0.21009742326E+02 -0.21519245909E+02  0.31762076597E+02  0.00000000000E+00 0.  1.
         21    1    1    2  502  501  0.80618868117E+02  0.11872468250E+03 -0.47281667368E+01  0.14358728249E+03  0.00000000000E+00 0.  1.
<scales pt_clust_5="13000.00000" pt_clust_6="13000.00000" pt_clust_7="13000.00000" pt_clust_8="13000.00000" pt_clust_9="111.33307"></scales>
<clustering>
<clus scale="   90.051">  5  6 -1 -1</clus>
<clus scale="   92.207">  7  8 -1 -1</clus>
<clus scale="  123.626">  2  7  1 -1</clus>
<clus scale="  111.333">  2  9  1 -1</clus>
<clus scale="  123.626">  2  5  1 -1</clus>
</clustering>
</event>
<event>
 9    1  0.6202448E-006  0.1044050E+03  0.7546771E-02  0.1277527E+00
         -1   -1    0    0    0  501 -0.00000000000E+00  0.00000000000E+00  0.68317265078E+03  0.68317265078E+03  0.00000000000E+00 0.  1.
          1   -1    0    0  502    0  0.00000000000E+00 -0.00000000000E+00 -0.22776831040E+02  0.22776831040E+02  0.00000000000E+00 0. -1.
         23    2    1    2    0    0  0.13093839340E+02 -0.13310024950E+02  0.32081793931E+03  0.33307658284E+03  0.87562860064E+02 0.  0.
         23    2    1    2    0    0 -0.49976139307E+02  0.16366300797E+02  0.28835742886E+03  0.30968128931E+03  0.99935098289E+02 0.  0.
        -11    1    4    4    0    0  0.15225008710E+02  0.37060828236E+02  0.15110307374E+03  0.15632480536E+03  0.00000000000E+00 0.  1.
         11    1    4    4    0    0 -0.65201148017E+02 -0.20694527438E+02  0.13725435513E+03  0.15335648395E+03  0.00000000000E+00 0. -1.
        -13    1    3    3    0    0 -0.20855115459E+02 -0.38681894546E+02  0.20725188577E+03  0.21185978609E+03  0.00000000000E+00 0. -1.
         13    1    3    3    0    0  0.33948954799E+02  0.25371869595E+02  0.11356605354E+03  0.12121679675E+03  0.00000000000E+00 0.  1.
         21    1    1    2  502  501  0.36882299967E+02 -0.30562758472E+01  0.51220451570E+02  0.63191609664E+02  0.00000000000E+00 0. -1.
<scales pt_clust_5="13000.00000" pt_clust_6="13000.00000" pt_clust_7="13000.00000" pt_clust_8="13000.00000" pt_clust_9="37.00871"></scales>
<clustering>
<clus scale="   37.009">  2  9  1 -1</clus>
<clus scale="   87.563">  7  8 -1 -1</clus>
<clus scale="   92.632">  1  7  2 -1</clus>
<clus scale="   99.935">  5  6 -1 -1</clus>
<clus scale="   37.009">  2  5  1 -1</clus>
</clustering>
</event>
<event>
 9    1  0.6202448E-006  0.8694410E+02  0.7546771E-02  0.1310580E+00
          3   -1    0    0  502    0  0.00000000000E+00  0.00000000000E+00  0.43822935379E+03  0.43822935379E+03  0.00000000000E+00 0. -1.
         -3   -1    0    0    0  501 -0.00000000000E+00 -0.00000000000E+00 -0.87823894312E+02  0.87823894312E+02  0.00000000000E+00 0.  1.
         23    2    1    2    0    0  0.29403228596E+02  0.13217532079E+02 -0.44887826692E+02  0.99455166031E+02  0.82687121482E+02 0.  0.
         23    2    1    2    0    0  0.17451964615E+02 -0.27019731421E+02  0.13267001018E+03  0.15947096827E+03  0.82431918356E+02 0.  0.
        -11    1    4    4    0    0  0.49637451173E+02 -0.25740466080E+02  0.90953526451E+02  0.10676606262E+03  0.00000000000E+00 0.  1.
         11    1    4    4    0    0 -0.32185486558E+02 -0.12792653410E+01  0.41716483732E+02  0.52704905652E+02  0.00000000000E+00 0. -1.
        -13    1    3    3    0    0  0.51389685304E+02 -0.95891342558E+01 -0.43053327978E+02  0.67723262631E+02  0.00000000000E+00 0.  1.
         13    1    3    3    0    0 -0.21986456708E+02  0.22806666334E+02 -0.18344987135E+01  0.31731903400E+02  0.00000000000E+00 0. -1.
         21    1    1    2  502  501 -0.46855193211E+02  0.13802199342E+02  0.26262327599E+03  0.26712711380E+03  0.00000000000E+00 0. -1.
<scales pt_clust_5="13000.00000" pt_clust_6="13000.00000" pt_clust_7="13000.00000" pt_clust_8="13000.00000" pt_clust_9="48.84578"></scales>
<clustering>
<clus scale="   48.846">  1  9  2 -1</clus>
<clus scale="   82.432">  5  6 -1 -1</clus>
<clus scale="   82.687">  7  8 -1 -1</clus>
<clus scale="   86.701">  1  5  2 -1</clus>
<clus scale="   48.846">  1  5  2 -1</clus>
</clustering>
</event>
<event>
 9    1  0.6202448E-006  0.9513966E+02  0.7546771E-02  0.1291307E+00
          2   -1    0    0  502    0  0.00000000000E+00  0.00000000000E+00  0.37430235109E+02  0.37430235109E+02  0.00000000000E+00 0. -1.
         -2   -1    0    0    0  501 -0.00000000000E+00 -0.00000000000E+00 -0.56154261732E+03  0.56154261732E+03  0.00000000000E+00 0.  1.
         23    2    1    2    0    0  0.13027588326E+02  0.25289890174E+02 -0.29514244847E+03  0.31041930943E+03  0.91879193354E+02 0.  0.
         23    2    1    2    0    0 -0.46072446747E+02  0.31958729198E+02 -0.16459314330E+03  0.19628362247E+03  0.91062214486E+02 0.  0.
        -11    1    4    4    0    0  0.75748108790E+01  0.47985098809E+02 -0.56215219698E+02  0.74297364645E+02  0.00000000000E+00 0.  1.
         11    1    4    4    0    0 -0.53647257626E+02 -0.16026369610E+02 -0.10837792360E+03  0.12198625782E+03  0.00000000000E+00 0. -1.
        -13    1    3    3    0    0 -0.11289039678E+02 -0.32006553360E+02 -0.10464272440E+03  0.11000891621E+03  0.00000000000E+00 0.  1.
         13    1    3    3    0    0  0.24316628004E+02  0.57296443533E+02 -0.19049972407E+03  0.20041039322E+03  0.00000000000E+00 0. -1.
         21    1    1    2  502  501  0.33044858422E+02 -0.57248619372E+02 -0.64376790436E+02  0.92269920532E+02  0.00000000000E+00 0.  1.
<scales pt_clust_5="13000.00000" pt_clust_6="13000.00000" pt_clust_7="13000.00000" pt_clust_8="13000.00000" pt_clust_9="66.10119"></scales>
<clustering>
<clus scale="   66.101">  1  9  2 -1</clus>
<clus scale="   91.062">  5  6 -1 -1</clus>
<clus scale="   91.879">  7  8 -1 -1</clus>
<clus scale="   94.351">  1  5  2 -1</clus>
<clus scale="   66.101">  1  5  2 -1</clus>
</clustering>
</event>
<event>
 9    1  0.6202448E-006  0.1483836E+03  0.7546771E-02  0.1226724E+00
         -1   -1    0    0    0  501 -0.00000000000E+00  0.00000000000E+00  0.63080445030E+02  0.63080445030E+02  0.00000000000E+00 0.  1.
          1   -1    0    0  502    0  0.00000000000E+00 -0.00000000000E+00 -0.52529324536E+03  0.52529324536E+03  0.00000000000E+00 0. -1.
         23    2    1    2    0    0  0.12132834205E+03 -0.26951294447E+02 -0.13971267768E+03  0.20708267199E+03  0.88975625191E+02 0.  0.
         23    2    1    2    0    0 -0.80876109574E+01  0.17949939526E+02 -0.16091004091E+03  0.18376673613E+03  0.86548034434E+02 0.  0.
        -11    1    3    3    0    0  0.73545214107E+02  0.19154112672E+02 -0.11150140809E+03  0.13493829166E+03  0.00000000000E+00 0. -1.
         11    1    3    3    0    0  0.47783127938E+02 -0.46105407119E+02 -0.28211269591E+02  0.72144380330E+02  0.00000000000E+00 0.  1.
        -13    1    4    4    0    0  0.44311704514E+01 -0.28833358202E+02 -0.21655465319E+02  0.36331212407E+02  0.00000000000E+00 0.  1.
         13    1    4    4    0    0 -0.12518781409E+02  0.46783297728E+02 -0.13925457559E+03  0.14743552373E+03  0.00000000000E+00 0. -1.
         21    1    1    2  502  501 -0.11324073109E+03  0.90013549214E+01 -0.16159008174E+03  0.19752428226E+03  0.00000000000E+00 0.  1.
<scales pt_clust_5="13000.00000" pt_clust_6="13000.00000" pt_clust_7="13000.00000" pt_clust_8="13000.00000" pt_clust_9="118.74774"></scales>
<clustering>
<clus scale="   86.548">  7  8 -1 -1</clus>
<clus scale="   88.759">  2  7  1 -1</clus>
<clus scale="   88.976">  5  6 -1 -1</clus>
<clus scale="  118.748">  2  9  1 -1</clus>
<clus scale="   88.759">  2  5  1 -1</clus>
</clustering>
</event>
<event>
 9    1  0.6202448E-006  0.9053973E+02  0.7546771E-02  0.1314422E+00
          2   -1    0    0  502    0  0.00000000000E+00  0.00000000000E+00  0.13724918568E+03  0.13724918568E+03  0.00000000000E+00 0. -1.
         -2   -1    0    0    0  501 -0.00000000000E+00 -0.00000000000E+00 -0.23545813964E+03  0.23545813964E+03  0.00000000000E+00 0.  1.
         23    2    1    2    0    0  0.37262156997E+01  0.82322892203E+01 -0.16774575072E+03  0.18242573229E+03  0.71125632846E+02 0.  0.
         23    2    1    2    0    0  0.16561650667E+02 -0.94353338778E+01 -0.23469576161E+02  0.95080593870E+02  0.90145352222E+02 0.  0.
        -11    1    3    3    0    0 -0.75775945556E+00 -0.31171653295E+02 -0.88046771847E+02  0.93404926001E+02  0.00000000000E+00 0.  1.
         11    1    3    3    0    0  0.44839751553E+01  0.39403942516E+02 -0.79698978871E+02  0.89020806287E+02  0.00000000000E+00 0. -1.
        -13    1    4    4    0    0  0.26231758197E+02  0.35480267801E+02 -0.21525208899E+02  0.49094695838E+02  0.00000000000E+00 0. -1.
         13    1    4    4    0    0 -0.96701075293E+01 -0.44915601678E+02 -0.19443672625E+01  0.45985898032E+02  0.00000000000E+00 0.  1.
         21    1    1    2  502  501 -0.20287866367E+02  0.12030446575E+01  0.93006372919E+02  0.95200999164E+02  0.00000000000E+00 0. -1.
<scales pt_clust_5="13000.00000" pt_clust_6="13000.00000" pt_clust_7="13000.00000" pt_clust_8="13000.00000" pt_clust_9="20.32350"></scales>
<clustering>
<clus scale="   20.324">  1  9  2 -1</clus>
<clus scale="   71.126">  5  6 -1 -1</clus>
<clus scale="   71.625">  2  5  1 -1</clus>
<clus scale="   90.145">  7  8 -1 -1</clus>
<clus scale="   20.324">  1  5  2 -1</clus>
</clustering>
</event>
<event>
 9    1  0.6202448E-006  0.1081763E+03  0.7546771E-02  0.1269880E+00
         -1   -1    0    0    0  501 -0.00000000000E+00  0.00000000000E+00  0.32296408529E+02  0.32296408529E+02  0.00000000000E+00 0.  1.
          1   -1    0    0  502    0  0.00000000000E+00 -0.00000000000E+00 -0.62324717650E+03  0.62324717650E+03  0.00000000000E+00 0. -1.
         23    2    1    2    0    0  0.41565029265E+02 -0.18009648151E+02 -0.99313988558E+02  0.14193570333E+03  0.90721973482E+02 0.  0.
         23    2    1    2    0    0 -0.16865176566E+02  0.25641902165E+02 -0.46165573246E+03  0.47402004012E+03  0.10308754430E+03 0.  0.
        -11    1    4    4    0    0  0.38356048522E+02  0.31433241358E+02 -0.16821832898E+03  0.17537571476E+03  0.00000000000E+00 0.  1.
         11    1    4    4    0    0 -0.55221225087E+02 -0.57913391927E+01 -0.29343740348E+03  0.29864432536E+03  0.00000000000E+00 0. -1.
        -13    1    3    3    0    0  0.42193764562E+02  0.22561311271E+01 -0.11083453113E+03  0.11861575438E+03  0.00000000000E+00 0.  1.
         13    1    3    3    0    0 -0.62873529703E+00 -0.20265779278E+02  0.11520542576E+02  0.23319948951E+02  0.00000000000E+00 0. -1.
         21    1    1    2  502  501 -0.24699852699E+02 -0.76322540145E+01 -0.29981046949E+02  0.39587841579E+02  0.00000000000E+00 0. -1.
<scales pt_clust_5="13000.00000" pt_clust_6="13000.00000" pt_clust_7="13000.00000" pt_clust_8="13000.00000" pt_clust_9="25.85216"></scales>
<clustering>
<clus scale="   25.852">  1  9  2 -1</clus>
<clus scale="   90.722">  7  8 -1 -1</clus>
<clus scale="   96.465">  1  7  2 -1</clus>
<clus scale="  103.088">  5  6 -1 -1</clus>
<clus scale="  108.176">  2  5  1 -1</clus>
</clustering>
</event>
<event>
 9    1  0.6202448E-006  0.1003221E+03  0.7546771E-02  0.1281571E+00
         -3   -1    0    0    0  501 -0.00000000000E+00  0.00000000000E+00  0.36196390402E+03  0.36196390402E+03  0.00000000000E+00 0.  1.
          3   -1    0    0  502    0  0.00000000000E+00 -0.00000000000E+00 -0.50966032797E+02  0.50966032797E+02  0.00000000000E+00 0. -1.
         23    2    1    2    0    0 -0.17600557564E+01  0.56095717144E+02  0.16957161796E+03  0.20183607941E+03  0.93986392930E+02 0.  0.
         23    2    1    2    0    0  0.11820882705E+02 -0.35190546458E+01  0.65912033434E+02  0.11853078121E+03  0.97739618014E+02 0.  0.
        -11    1    4    4    0    0 -0.16616396857E+02 -0.22302423895E+02 -0.14376845959E+02  0.31308089304E+02  0.00000000000E+00 0. -1.
         11    1    4    4    0    0  0.28437279563E+02  0.18783369249E+02  0.80288879393E+02  0.87222691907E+02  0.00000000000E+00 0.  1.
        -13    1    3    3    0    0  0.25292182754E+02  0.52073266432E+02  0.16400955832E+03  0.17392657877E+03  0.00000000000E+00 0.  1.
         13    1    3    3    0    0 -0.27052238511E+02  0.40224507118E+01  0.55620596425E+01  0.27909500634E+02  0.00000000000E+00 0. -1.
         21    1    1    2  502  501 -0.10060826949E+02 -0.52576662498E+02  0.75514219827E+02  0.92563076194E+02  0.00000000000E+00 0.  1.
<scales pt_clust_5="13000.00000" pt_clust_6="13000.00000" pt_clust_7="13000.00000" pt_clust_8="13000.00000" pt_clust_9="53.53061"></scales>
<clustering>
<clus scale="   53.531">  1  9  2 -1</clus>
<clus scale="   93.986">  7  8 -1 -1</clus>
<clus scale="   96.669">  1  7  2 -1</clus>
<clus scale="   97.740">  5  6 -1 -1</clus>
<clus scale="  100.322">  2  5  1 -1</clus>
</clustering>
</event>
<event>
 9    1  0.6202448E-006  0.1446331E+03  0.7546771E-02  0.1221179E+00
         -2   -1    0    0    0  501 -0.00000000000E+00  0.00000000000E+00  0.65215872232E+02  0.65215872232E+02  0.00000000000E+00 0.  1.
          2   -1    0    0  502    0  0.00000000000E+00 -0.00000000000E+00 -0.63022951461E+03  0.63022951461E+03  0.00000000000E+00 0. -1.
         23    2    1    2    0    0 -0.30519353378E+02  0.41830249298E+01 -0.12766856916E+03  0.16696079301E+03  0.10309080571E+03 0.  0.
         23    2    1    2    0    0 -0.50287873197E+02  0.10615879959E+03 -0.10598467372E+03  0.17000887574E+03  0.62223033094E+02 0.  0.
        -11    1    3    3    0    0  0.32242861987E+02  0.16280065511E+02 -0.18809401772E+02  0.40723903020E+02  0.00000000000E+00 0.  1.
         11    1    3    3    0    0 -0.62762215365E+02 -0.12097040581E+02 -0.10885916739E+03  0.12623688999E+03  0.00000000000E+00 0. -1.
        -13    1    4    4    0    0 -0.55011424650E+02  0.45060463640E+02 -0.49273095432E+02  0.86513236900E+02  0.00000000000E+00 0. -1.
         13    1    4    4    0    0  0.47235514528E+01  0.61098335951E+02 -0.56711578284E+02  0.83495638843E+02  0.00000000000E+00 0.  1.
         21    1    1    2  502  501  0.80807226576E+02 -0.11034182452E+03 -0.33136039950E+03  0.35847571810E+03  0.00000000000E+00 0. -1.
<scales pt_clust_5="13000.00000" pt_clust_6="13000.00000" pt_clust_7="13000.00000" pt_clust_8="13000.00000" pt_clust_9="130.56426"></scales>
<clustering>
<clus scale="   62.223">  7  8 -1 -1</clus>
<clus scale="  103.091">  5  6 -1 -1</clus>
<clus scale="  107.595">  1  5  2 -1</clus>
<clus scale="  130.564">  2  9  1 -1</clus>
<clus scale="  130.564">  2  5  1 -1</clus>
</clustering>
</event>
<event>
 9    1  0.6202448E-006  0.9588172E+02  0.7546771E-02  0.1290321E+00
          1   -1    0    0  502    0  0.00000000000E+00  0.00000000000E+00  0.72714821356E+02  0.72714821356E+02  0.00000000000E+00 0. -1.
         -1   -1    0    0    0  501 -0.00000000000E+00 -0.00000000000E+00 -0.28628925806E+03  0.28628925806E+03  0.00000000000E+00 0.  1.
         23    2    1    2    0    0  0.46019959787E+02 -0.18643380810E+02 -0.17517494389E+03  0.20310292674E+03  0.89995141748E+02 0.  0.
         23    2    1    2    0    0 -0.10122200203E+02  0.21395949471E+02  0.99917978619E+01  0.95585791521E+02  0.92068246022E+02 0.  0.
        -11    1    3    3    0    0  0.63436133578E+02  0.19998353481E+01 -0.15998842438E+03  0.17211751312E+03  0.00000000000E+00 0.  1.
         11    1    3    3    0    0 -0.17416173791E+02 -0.20643216159E+02 -0.15186519505E+02  0.30985413626E+02  0.00000000000E+00 0. -1.
        -11    1    4    4    0    0 -0.26940868751E+02  0.10478341077E+02  0.46024641134E+02  0.54349550433E+02  0.00000000000E+00 0. -1.
         11    1    4    4    0    0  0.16818668547E+02  0.10917608395E+02 -0.36032843273E+02  0.41236241088E+02  0.00000000000E+00 0.  1.
         21    1    1    2  502  501 -0.35897759583E+02 -0.27525686608E+01 -0.48391290675E+02  0.60315361149E+02  0.00000000000E+00 0.  1.
<scales pt_clust_5="13000.00000" pt_clust_6="13000.00000" pt_clust_7="13000.00000" pt_clust_8="13000.00000" pt_clust_9="36.00314"></scales>
<clustering>
<clus scale="   36.003">  2  9  1 -1</clus>
<clus scale="   89.995">  5  6 -1 -1</clus>
<clus scale="   92.068">  7  8 -1 -1</clus>
<clus scale="   93.893">  2  5  1 -1</clus>
<clus scale="   95.882">  1  5  2 -1</clus>
</clustering>
</event>
<event>
 9    1  0.6202448E-006  0.1525455E+03  0.7546771E-02  0.1203168E+00
          2   -1    0    0  502    0  0.00000000000E+00  0.00000000000E+00  0.10108453978E+04  0.10108453978E+04  0.00000000000E+00 0. -1.
         -2   -1    0    0    0  501 -0.00000000000E+00 -0.00000000000E+00 -0.52919718255E+02  0.52919718255E+02  0.00000000000E+00 0.  1.
         23    2    1    2    0    0 -0.94676879648E+02  0.75240443156E+02  0.18600821837E+03  0.23969984600E+03  0.90731047872E+02 0.  0.
         23    2    1    2    0    0  0.69135113766E+02  0.68826754737E+02  0.46475837327E+03  0.48383822145E+03  0.92640665418E+02 0.  0.
        -11    1    4    4    0    0  0.70338928974E+02  0.50146484861E+01  0.23102446422E+03  0.24154712728E+03  0.00000000000E+00 0.  1.
         11    1    4    4    0    0 -0.12038152081E+01  0.63812106251E+02  0.23373390905E+03  0.24229109417E+03  0.00000000000E+00 0. -1.
        -13    1    3    3    0    0  0.61543468443E+00  0.50896841186E+02  0.46052345815E+02  0.68641720241E+02  0.00000000000E+00 0.  1.
         13    1    3    3    0    0 -0.95292314333E+02  0.24343601970E+02  0.13995587255E+03  0.17105812576E+03  0.00000000000E+00 0. -1.
         21    1    1    2  502  501  0.25541765883E+02 -0.14406719789E+03  0.30715908789E+03  0.34022704858E+03  0.00000000000E+00 0.  1.
<scales pt_clust_5="13000.00000" pt_clust_6="13000.00000" pt_clust_7="13000.00000" pt_clust_8="13000.00000" pt_clust_9="122.62961"></scales>
<clustering>
<clus scale="   90.731">  7  8 -1 -1</clus>
<clus scale="   92.641">  5  6 -1 -1</clus>
<clus scale="  134.533">  1  5  2 -1</clus>
<clus scale="  122.630">  1  9  2 -1</clus>
<clus scale="  134.533">  1  5  2 -1</clus>
</clustering>
</event>
<event>
 9    1  0.6202448E-006  0.9328525E+02  0.7546771E-02  0.1295459E+00
          1   -1    0    0  502    0  0.00000000000E+00  0.00000000000E+00  0.59633250359E+02  0.59633250359E+02  0.00000000000E+00 0. -1.
         -1   -1    0    0    0  501 -0.00000000000E+00 -0.00000000000E+00 -0.29786905439E+03  0.29786905439E+03  0.00000000000E+00 0.  1.
         23    2    1    2    0    0 -0.92726120077E+01  0.33567537449E+02 -0.10666323441E+03  0.14457159817E+03  0.91165456826E+02 0.  0.
         23    2    1    2    0    0 -0.34280125428E+02  0.12082216204E+02 -0.10594277779E+03  0.14483058047E+03  0.91820030095E+02 0.  0.
        -11    1    4    4    0    0 -0.11884004578E+01  0.49044741208E+02 -0.55622366440E+02  0.74166344013E+02  0.00000000000E+00 0.  1.
         11    1    4    4    0    0 -0.33091724970E+02 -0.36962525004E+02 -0.50320411346E+02  0.70664236458E+02  0.00000000000E+00 0. -1.
        -13    1    3    3    0    0 -0.32130998936E+02  0.54799001042E+02 -0.86894046734E+02  0.10763785099E+03  0.00000000000E+00 0.  1.
         13    1    3    3    0    0  0.22858386929E+02 -0.21231463593E+02 -0.19769187675E+02  0.36933747178E+02  0.00000000000E+00 0. -1.
         21    1    1    2  502  501  0.43552737436E+02 -0.45649753653E+02 -0.25629791837E+02  0.68100126111E+02  0.00000000000E+00 0.  1.
<scales pt_clust_5="13000.00000" pt_clust_6="13000.00000" pt_clust_7="13000.00000" pt_clust_8="13000.00000" pt_clust_9="63.09311"></scales>
<clustering>
<clus scale="   63.093">  1  9  2 -1</clus>
<clus scale="   91.165">  7  8 -1 -1</clus>
<clus scale="   91.820">  5  6 -1 -1</clus>
<clus scale="   92.641">  2  7  1 -1</clus>
<clus scale="   63.093">  1  5  2 -1</clus>
</clustering>
</event>
<event>
 9    1  0.6202448E-006  0.1852297E+03  0.7546771E-02  0.1164049E+00
          2   -1    0    0  502    0  0.00000000000E+00  0.00000000000E+00  0.18372994883E+03  0.18372994883E+03  0.00000000000E+00 0. -1.
         -2   -1    0    0    0  501 -0.00000000000E+00 -0.00000000000E+00 -0.28246034912E+03  0.28246034912E+03  0.00000000000E+00 0.  1.
         23    2    1    2    0    0  0.35067155733E+02  0.16375196967E+03 -0.13899528342E+03  0.23643976152E+03  0.92410275576E+02 0.  0.
         23    2    1    2    0    0 -0.30335738546E+02 -0.13025548961E+03 -0.10717117051E+02  0.16856585839E+03  0.10204333594E+03 0.  0.
        -11    1    3    3    0    0  0.31850228042E+02  0.37238756529E+02 -0.73820996655E+00  0.49007213430E+02  0.00000000000E+00 0.  1.
         11    1    3    3    0    0  0.32169276905E+01  0.12651321314E+03 -0.13825707346E+03  0.18743254809E+03  0.00000000000E+00 0. -1.
        -11    1    4    4    0    0 -0.21108516415E+02 -0.36622829583E+02 -0.50981335943E+02  0.66226110609E+02  0.00000000000E+00 0.  1.
         11    1    4    4    0    0 -0.92272221306E+01 -0.93632660028E+02  0.40264218892E+02  0.10233974778E+03  0.00000000000E+00 0. -1.
         21    1    1    2  502  501 -0.47314171867E+01 -0.33496480054E+02  0.50982000183E+02  0.61184678043E+02  0.00000000000E+00 0. -1.
<scales pt_clust_5="13000.00000" pt_clust_6="13000.00000" pt_clust_7="13000.00000" pt_clust_8="13000.00000" pt_clust_9="33.82899"></scales>
<clustering>
<clus scale="   33.829">  1  9  2 -1</clus>
<clus scale="   92.410">  5  6 -1 -1</clus>
<clus scale="  102.043">  7  8 -1 -1</clus>
<clus scale="  180.102">  2  5  1 -1</clus>
<clus scale="   33.829">  1  5  2 -1</clus>
</clustering>
</event>
<event>
 9    1  0.6202448E-006  0.1682818E+03  0.7546771E-02  0.1179977E+00
         -1   -1    0    0    0  501 -0.00000000000E+00  0.00000000000E+00  0.76370850257E+02  0.76370850257E+02  0.00000000000E+00 0.  1.
          1   -1    0    0  502    0  0.00000000000E+00 -0.00000000000E+00 -0.92118361305E+03  0.92118361305E+03  0.00000000000E+00 0. -1.
         23    2    1    2    0    0 -0.11739176423E+03 -0.55557119979E+02 -0.11138021258E+03  0.19333965124E+03  0.90040263769E+02 0.  0.
         23    2    1    2    0    0  0.14397331915E+03 -0.57325964930E+02 -0.60433522203E+03  0.63067723669E+03  0.92293734437E+02 0.  0.
        -13    1    4    4    0    0  0.22608144142E+02  0.24700889502E+02 -0.96962990430E+02  0.10258208244E+03  0.00000000000E+00 0.  1.
         13    1    4    4    0    0  0.12136517501E+03 -0.82026854432E+02 -0.50737223160E+03  0.52809515426E+03  0.00000000000E+00 0. -1.
        -13    1    3    3    0    0 -0.24220632287E+02 -0.53668705172E+02 -0.18379939412E+02  0.61682988871E+02  0.00000000000E+00 0. -1.
         13    1    3    3    0    0 -0.93171131943E+02 -0.18884148068E+01 -0.93000273167E+02  0.13165666237E+03  0.00000000000E+00 0.  1.
         21    1    1    2  502  501 -0.26581554919E+02  0.11288308491E+03 -0.12909732818E+03  0.17353757537E+03  0.00000000000E+00 0. -1.
<scales pt_clust_5="13000.00000" pt_clust_6="13000.00000" pt_clust_7="13000.00000" pt_clust_8="13000.00000" pt_clust_9="115.97056"></scales>
<clustering>
<clus scale="   90.040">  7  8 -1 -1</clus>
<clus scale="   92.294">  5  6 -1 -1</clus>
<clus scale="  115.971">  1  9  2 -1</clus>
<clus scale="  167.056">  1  7  2 -1</clus>
<clus scale="  168.282">  2  5  1 -1</clus>
</clustering>
</event>
<event>
 9    1  0.6202448E-006  0.1637815E+03  0.7546771E-02  0.1208876E+00
         -2   -1    0    0    0  501 -0.00000000000E+00  0.00000000000E+00  0.13170964295E+03  0.13170964295E+03  0.00000000000E+00 0.  1.
          2   -1    0    0  502    0  0.00000000000E+00 -0.00000000000E+00 -0.61291129445E+03  0.61291129445E+03  0.00000000000E+00 0. -1.
         23    2    1    2    0    0 -0.23725316449E+02 -0.16885280759E+02  0.51549328858E+02  0.10909427348E+03  0.91630911013E+02 0.  0.
         23    2    1    2    0    0 -0.98856778146E+02 -0.80449194865E+02 -0.40211014033E+03  0.43164581847E+03  0.91546775512E+02 0.  0.
        -11    1    4    4    0    0 -0.25902569170E+02 -0.72927143749E+02 -0.14602269402E+03  0.16526324018E+03  0.00000000000E+00 0.  1.
         11    1    4    4    0    0 -0.72954208976E+02 -0.75220511158E+01 -0.25608744631E+03  0.26638257830E+03  0.00000000000E+00 0. -1.
        -13    1    3    3    0    0 -0.51643817544E+02 -0.29763282757E+02  0.15254600684E+02  0.61527552633E+02  0.00000000000E+00 0.  1.
         13    1    3    3    0    0  0.27918501094E+02  0.12878001997E+02  0.36294728174E+02  0.47566720846E+02  0.00000000000E+00 0. -1.
         21    1    1    2  502  501  0.12258209460E+03  0.97334475624E+02 -0.13064084003E+03  0.20388084545E+03  0.00000000000E+00 0.  1.
<scales pt_clust_5="13000.00000" pt_clust_6="13000.00000" pt_clust_7="13000.00000" pt_clust_8="13000.00000" pt_clust_9="135.80712"></scales>
<clustering>
<clus scale="   91.547">  5  6 -1 -1</clus>
<clus scale="   91.631">  7  8 -1 -1</clus>
<clus scale="   96.147">  1  7  2 -1</clus>
<clus scale="  135.807">  1  9  2 -1</clus>
<clus scale="  163.782">  2  5  1 -1</clus>
</clustering>
</event>
<event>
 9    1  0.6202448E-006  0.9596991E+02  0.7546771E-02  0.1290965E+00
          1   -1    0    0  502    0  0.00000000000E+00  0.00000000000E+00  0.23870038270E+02  0.23870038270E+02  0.00000000000E+00 0. -1.
         -1   -1    0    0    0  501 -0.00000000000E+00 -0.00000000000E+00 -0.77298091855E+03  0.77298091855E+03  0.00000000000E+00 0.  1.
         23    2    1    2    0    0  0.38840104951E+02  0.83333602140E+01 -0.46202845714E+03  0.47229102431E+03  0.89501496052E+02 0.  0.
         23    2    1    2    0    0  0.16383917646E+02 -0.12808620769E+02 -0.19555592439E+03  0.21757011709E+03  0.93070633198E+02 0.  0.
        -11    1    3    3    0    0  0.64886695365E+02  0.11770640558E+01 -0.39002984101E+03  0.39539214154E+03  0.00000000000E+00 0.  1.
         11    1    3    3    0    0 -0.26046590414E+02  0.71562961581E+01 -0.71998616129E+02  0.76898882771E+02  0.00000000000E+00 0. -1.
        -13    1    4    4    0    0 -0.20621090513E+02 -0.33613122713E+02 -0.39391484923E+02  0.55738321439E+02  0.00000000000E+00 0. -1.
         13    1    4    4    0    0  0.37005008159E+02  0.20804501944E+02 -0.15616443947E+03  0.16183179565E+03  0.00000000000E+00 0.  1.
         21    1    1    2  502  501 -0.55224022598E+02  0.44752605549E+01 -0.91526498746E+02  0.10698981541E+03  0.00000000000E+00 0. -1.
<scales pt_clust_5="13000.00000" pt_clust_6="13000.00000" pt_clust_7="13000.00000" pt_clust_8="13000.00000" pt_clust_9="55.40506"></scales>
<clustering>
<clus scale="   55.405">  1  9  2 -1</clus>
<clus scale="   89.501">  5  6 -1 -1</clus>
<clus scale="   92.513">  2  5  1 -1</clus>
<clus scale="   93.071">  7  8 -1 -1</clus>
<clus scale="   55.405">  1  5  2 -1</clus>
</clustering>
</event>
<event>
 9    1  0.6202448E-006  0.1801227E+03  0.7546771E-02  0.1193100E+00
          2   -1    0    0  502    0  0.00000000000E+00  0.00000000000E+00  0.33552883905E+03  0.33552883905E+03  0.00000000000E+00 0. -1.
         -2   -1    0    0    0  501 -0.00000000000E+00 -0.00000000000E+00 -0.31827964681E+03  0.31827964681E+03  0.00000000000E+00 0.  1.
         23    2    1    2    0    0 -0.15121867732E+03  0.38540547123E+00 -0.63417791256E+02  0.18905109662E+03  0.94081156343E+02 0.  0.
         23    2    1    2    0    0  0.75112618247E+00  0.44977315247E+02  0.22778685536E+03  0.24948426720E+03  0.91279926741E+02 0.  0.
        -11    1    3    3    0    0 -0.13462883590E+03 -0.12909342858E+02 -0.84205099512E+02  0.15931752374E+03  0.00000000000E+00 0.  1.
         11    1    3    3    0    0 -0.16589841419E+02  0.13294748330E+02  0.20787308256E+02  0.29733572876E+02  0.00000000000E+00 0. -1.
        -13    1    4    4    0    0  0.31209908464E+02  0.50377120424E+02  0.86515537819E+02  0.10486587115E+03  0.00000000000E+00 0. -1.
         13    1    4    4    0    0 -0.30458782282E+02 -0.53998051772E+01  0.14127131754E+03  0.14461839604E+03  0.00000000000E+00 0.  1.
         21    1    1    2  502  501  0.15046755113E+03 -0.45362720718E+02 -0.14711987187E+03  0.21527312204E+03  0.00000000000E+00 0. -1.
<scales pt_clust_5="13000.00000" pt_clust_6="13000.00000" pt_clust_7="13000.00000" pt_clust_8="13000.00000" pt_clust_9="153.59990"></scales>
<clustering>
<clus scale="   91.280">  7  8 -1 -1</clus>
<clus scale="   94.081">  5  6 -1 -1</clus>
<clus scale="  101.762">  1  7  2 -1</clus>
<clus scale="  153.600">  2  9  1 -1</clus>
<clus scale="  101.762">  1  5  2 -1</clus>
</clustering>
</event>
<event>
 9    1  0.6202448E-006  0.1779539E+03  0.7546771E-02  0.1170670E+00
         -2   -1    0    0    0  501 -0.00000000000E+00  0.00000000000E+00  0.30509461324E+03  0.30509461324E+03  0.00000000000E+00 0.  1.
          2   -1    0    0  502    0  0.00000000000E+00 -0.00000000000E+00 -0.18946155032E+03  0.18946155032E+03  0.00000000000E+00 0. -1.
         23    2    1    2    0    0 -0.13318997489E+03  0.39289113953E+02  0.81391870928E+02  0.18478555701E+03  0.90762666014E+02 0.  0.
         23    2    1    2    0    0  0.13980995344E+03 -0.64778680857E+02 -0.75231216991E+02  0.19717508947E+03  0.97340532780E+02 0.  0.
        -11    1    4    4    0    0  0.10164716324E+03 -0.39128726680E+01 -0.13806688545E+02  0.10265515582E+03  0.00000000000E+00 0. -1.
         11    1    4    4    0    0  0.38162790199E+02 -0.60865808189E+02 -0.61424528445E+02  0.94519933649E+02  0.00000000000E+00 0.  1.
        -11    1    3    3    0    0 -0.75469589879E+02 -0.99118999147E+01  0.36946954926E+01  0.76207319407E+02  0.00000000000E+00 0. -1.
         11    1    3    3    0    0 -0.57720385010E+02  0.49201013868E+02  0.77697175435E+02  0.10857823761E+03  0.00000000000E+00 0.  1.
         21    1    1    2  502  501 -0.66199785493E+01  0.25489566904E+02  0.10947240899E+03  0.11259551708E+03  0.00000000000E+00 0.  1.
<scales pt_clust_5="13000.00000" pt_clust_6="13000.00000" pt_clust_7="13000.00000" pt_clust_8="13000.00000" pt_clust_9="26.33519"></scales>
<clustering>
<clus scale="   26.335">  1  9  2 -1</clus>
<clus scale="   90.763">  7  8 -1 -1</clus>
<clus scale="   97.341">  5  6 -1 -1</clus>
<clus scale="  174.443">  1  7  2 -1</clus>
<clus scale="  177.954">  2  5  1 -1</clus>
</clustering>
</event>
<event>
 9    1  0.6202448E-006  0.9635349E+02  0.7546771E-02  0.1290034E+00
         -2   -1    0    0    0  501 -0.00000000000E+00  0.00000000000E+00  0.17672071215E+03  0.17672071215E+03  0.00000000000E+00 0.  1.
          2   -1    0    0  502    0  0.00000000000E+00 -0.00000000000E+00 -0.94425448623E+02  0.94425448623E+02  0.00000000000E+00 0. -1.
         23    2    1    2    0    0 -0.26287109403E+02 -0.55940290976E+01  0.10471542314E+03  0.14351640421E+03  0.94389263956E+02 0.  0.
         23    2    1    2    0    0 -0.44742660018E+01 -0.14722570618E+01 -0.28556198417E+02  0.95476287248E+02  0.90983945625E+02 0.  0.
        -11    1    4    4    0    0 -0.10470214944E+02  0.34624384145E+02  0.14500895538E+02  0.38971134828E+02  0.00000000000E+00 0.  1.
         11    1    4    4    0    0  0.59959489425E+01 -0.36096641207E+02 -0.43057093955E+02  0.56505152420E+02  0.00000000000E+00 0. -1.
        -13    1    3    3    0    0 -0.60866570134E+02  0.68141427224E+01  0.61498269596E+02  0.86794061227E+02  0.00000000000E+00 0.  1.
         13    1    3    3    0    0  0.34579460731E+02 -0.12408171820E+02  0.43217153548E+02  0.56722342980E+02  0.00000000000E+00 0. -1.
         21    1    1    2  502  501  0.30761375405E+02  0.70662861594E+01  0.61360387977E+01  0.32153469315E+02  0.00000000000E+00 0. -1.
<scales pt_clust_5="13000.00000" pt_clust_6="13000.00000" pt_clust_7="13000.00000" pt_clust_8="13000.00000" pt_clust_9="31.56255"></scales>
<clustering>
<clus scale="   31.563">  2  9  1 -1</clus>
<clus scale="   90.984">  5  6 -1 -1</clus>
<clus scale="   93.020">  2  5  1 -1</clus>
<clus scale="   94.389">  7  8 -1 -1</clus>
<clus scale="   31.563">  2  5  1 -1</clus>
</clustering>
</event>
<event>
 9    1  0.6202448E-006  0.1015028E+03  0.7546771E-02  0.1277291E+00
         -2   -1    0    0    0  501 -0.00000000000E+00  0.00000000000E+00  0.32486614823E+02  0.32486614823E+02  0.00000000000E+00 0.  1.
          2   -1    0    0  502    0  0.00000000000E+00 -0.00000000000E+00 -0.11075448038E+04  0.11075448038E+04  0.00000000000E+00 0. -1.
         23    2    1    2    0    0 -0.11142341079E+02 -0.34852083555E+02 -0.10286235724E+03  0.14375188590E+03  0.93515349909E+02 0.  0.
         23    2    1    2    0    0  0.85443916381E+02  0.20628467349E+01 -0.44021730602E+03  0.45813734894E+03  0.93774387734E+02 0.  0.
        -13    1    4    4    0    0  0.43027569084E+01 -0.36058938546E+02 -0.10333251467E+03  0.10952793870E+03  0.00000000000E+00 0. -1.
         13    1    4    4    0    0  0.81141159472E+02  0.38121785281E+02 -0.33688479134E+03  0.34860941025E+03  0.00000000000E+00 0.  1.
        -13    1    3    3    0    0  0.30014471034E+02 -0.11805359463E+02 -0.88882902865E+02  0.94553717036E+02  0.00000000000E+00 0.  1.
         13    1    3    3    0    0 -0.41156812113E+02 -0.23046724092E+02 -0.13979454379E+02  0.49198168863E+02  0.00000000000E+00 0. -1.
         21    1    1    2  502  501 -0.74301575302E+02  0.32789236820E+02 -0.53197852569E+03  0.53814218375E+03  0.00000000000E+00 0. -1.
<scales pt_clust_5="13000.00000" pt_clust_6="13000.00000" pt_clust_7="13000.00000" pt_clust_8="13000.00000" pt_clust_9="81.21489"></scales>
<clustering>
<clus scale="   81.215">  2  9  1 -1</clus>
<clus scale="   93.515">  7  8 -1 -1</clus>
<clus scale="   93.774">  5  6 -1 -1</clus>
<clus scale="  101.263">  1  7  2 -1</clus>
<clus scale="   81.215">  2  5  1 -1</clus>
</clustering>
</event>
<event>
 9    1  0.6202448E-006  0.9286743E+02  0.7546771E-02  0.1296121E+00
         -3   -1    0    0    0  501 -0.00000000000E+00  0.00000000000E+00  0.65255325893E+02  0.65255325893E+02  0.00000000000E+00 0.  1.
          3   -1    0    0  502    0  0.00000000000E+00 -0.00000000000E+00 -0.22965201985E+03  0.22965201985E+03  0.00000000000E+00 0. -1.
         23    2    1    2    0    0 -0.15197515300E+02  0.20060991682E+02 -0.55319676965E+02  0.10979182461E+03  0.91436153864E+02 0.  0.
         23    2    1    2    0    0  0.13807556156E+02  0.23785326928E+02 -0.10349997297E+03  0.14089408898E+03  0.91556045783E+02 0.  0.
        -11    1    4    4    0    0 -0.61321522841E+01  0.51797009236E+02 -0.89865897543E+02  0.10390578905E+03  0.00000000000E+00 0.  1.
         11    1    4    4    0    0  0.19939708441E+02 -0.28011682308E+02 -0.13634075426E+02  0.36988299922E+02  0.00000000000E+00 0. -1.
        -13    1    3    3    0    0  0.14847881543E+02  0.17511982719E+02 -0.71832956287E+02  0.75412881751E+02  0.00000000000E+00 0. -1.
         13    1    3    3    0    0 -0.30045396843E+02  0.25490089632E+01  0.16513279322E+02  0.34378942860E+02  0.00000000000E+00 0.  1.
         21    1    1    2  502  501  0.13899591435E+01 -0.43846318610E+02 -0.55770440243E+01  0.44221432158E+02  0.00000000000E+00 0.  1.
<scales pt_clust_5="13000.00000" pt_clust_6="13000.00000" pt_clust_7="13000.00000" pt_clust_8="13000.00000" pt_clust_9="43.86834"></scales>
<clustering>
<clus scale="   43.868">  1  9  2 -1</clus>
<clus scale="   91.436">  7  8 -1 -1</clus>
<clus scale="   91.556">  5  6 -1 -1</clus>
<clus scale="   92.749">  1  7  2 -1</clus>
<clus scale="   92.867">  2  5  1 -1</clus>
</clustering>
</event>
<event>
 9    1  0.6202448E-006  0.1972705E+03  0.7546771E-02  0.1152290E+00
          1   -1    0    0  502    0  0.00000000000E+00  0.00000000000E+00  0.34381626628E+03  0.34381626628E+03  0.00000000000E+00 0. -1.
         -1   -1    0    0    0  501 -0.00000000000E+00 -0.00000000000E+00 -0.21411553320E+03  0.21411553320E+03  0.00000000000E+00 0.  1.
         23    2    1    2    0    0  0.18463895757E+03 -0.32644925587E+02 -0.54232455297E+01  0.20866271938E+03  0.91397390820E+02 0.  0.
         23    2    1    2    0    0 -0.12100159541E+03  0.12883329407E+03  0.50719770560E+02  0.20634956976E+03  0.93638913180E+02 0.  0.
        -11    1    3    3    0    0  0.65909139417E+02 -0.26953645387E+02 -0.43986211939E+02  0.83697673199E+02  0.00000000000E+00 0.  1.
         11    1    3    3    0    0  0.11872981816E+03 -0.56912801994E+01  0.38562966409E+02  0.12496504618E+03  0.00000000000E+00 0. -1.
        -13    1    4    4    0    0 -0.12089772907E+03  0.70668763656E+02  0.48307649119E+02  0.14813495203E+03  0.00000000000E+00 0. -1.
         13    1    4    4    0    0 -0.10386633572E+00  0.58164530418E+02  0.24121214410E+01  0.58214617725E+02  0.00000000000E+00 0.  1.
         21    1    1    2  502  501 -0.63637362167E+02 -0.96188368488E+02  0.84404208050E+02  0.14291951033E+03  0.00000000000E+00 0.  1.
<scales pt_clust_5="13000.00000" pt_clust_6="13000.00000" pt_clust_7="13000.00000" pt_clust_8="13000.00000" pt_clust_9="115.33393"></scales>
<clustering>
<clus scale="   91.397">  5  6 -1 -1</clus>
<clus scale="   93.639">  7  8 -1 -1</clus>
<clus scale="  115.334">  1  9  2 -1</clus>
<clus scale="  196.216">  2  5  1 -1</clus>
<clus scale="  115.334">  1  5  2 -1</clus>
</clustering>
</event>
<event>
 9    1  0.6202448E-006  0.1425227E+03  0.7546771E-02  0.1216012E+00
         -1   -1    0    0    0  501 -0.00000000000E+00  0.00000000000E+00  0.22927819136E+03  0.22927819136E+03  0.00000000000E+00 0.  1.
          1   -1    0    0  502    0  0.00000000000E+00 -0.00000000000E+00 -0.51241812433E+03  0.51241812433E+03  0.00000000000E+00 0. -1.
         23    2    1    2    0    0  0.88901599405E+02 -0.45421420732E+02  0.13345639340E+03  0.18983296191E+03  0.90880936669E+02 0.  0.
         23    2    1    2    0    0  0.98046382247E+01 -0.80913979689E+02 -0.36104169749E+03  0.38218757020E+03  0.95252445904E+02 0.  0.
        -11    1    4    4    0    0 -0.43385966401E+01 -0.57096062472E+02 -0.34592209953E+03  0.35062926677E+03  0.00000000000E+00 0. -1.
         11    1    4    4    0    0  0.14143234865E+02 -0.23817917216E+02 -0.15119597953E+02  0.31558303427E+02  0.00000000000E+00 0.  1.
        -13    1    3    3    0    0  0.91750548054E+02 -0.52034996069E+01  0.10942657196E+03  0.14289651544E+03  0.00000000000E+00 0.  1.
         13    1    3    3    0    0 -0.28489486489E+01 -0.40217921125E+02  0.24029821443E+02  0.46936446463E+02  0.00000000000E+00 0. -1.
         21    1    1    2  502  501 -0.98706237629E+02  0.12633540042E+03 -0.55554628875E+02  0.16967578359E+03  0.00000000000E+00 0.  1.
<scales pt_clust_5="13000.00000" pt_clust_6="13000.00000" pt_clust_7="13000.00000" pt_clust_8="13000.00000" pt_clust_9="109.78789"></scales>
<clustering>
<clus scale="   90.881">  7  8 -1 -1</clus>
<clus scale="   95.252">  5  6 -1 -1</clus>
<clus scale="  125.364">  2  5  1 -1</clus>
<clus scale="  109.788">  2  9  1 -1</clus>
<clus scale="  125.364">  2  5  1 -1</clus>
</clustering>
</event>
<event>
 9    1  0.6202448E-006  0.1238995E+03  0.7546771E-02  0.1237369E+00
         -3   -1    0    0    0  501 -0.00000000000E+00  0.00000000000E+00  0.12301648726E+03  0.12301648726E+03  0.00000000000E+00 0.  1.
          3   -1    0    0  502    0  0.00000000000E+00 -0.00000000000E+00 -0.19609184983E+03  0.19609184983E+03  0.00000000000E+00 0. -1.
         23    2    1    2    0    0 -0.75910133248E+02 -0.51695810983E+02 -0.34492544305E+01  0.11449463617E+03  0.68281177153E+02 0.  0.
         23    2    1    2    0    0  0.71424038272E+02  0.10099804448E+03 -0.57081847678E+02  0.15354322269E+03  0.70817975595E+02 0.  0.
        -11    1    4    4    0    0  0.61941824214E+02  0.27993375646E+02 -0.18591188595E+02  0.70470213284E+02  0.00000000000E+00 0. -1.
         11    1    4    4    0    0  0.94822140584E+01  0.73004668830E+02 -0.38490659083E+02  0.83073009402E+02  0.00000000000E+00 0.  1.
        -11    1    3    3    0    0 -0.79261789104E+02 -0.19666788118E+02  0.26955248814E+01  0.81709727825E+02  0.00000000000E+00 0.  1.
         11    1    3    3    0    0  0.33516558556E+01 -0.32029022865E+02 -0.61447793119E+01  0.32784908349E+02  0.00000000000E+00 0. -1.
         21    1    1    2  502  501  0.44860949761E+01 -0.49302233493E+02 -0.12544260461E+02  0.51070478224E+02  0.00000000000E+00 0. -1.
<scales pt_clust_5="13000.00000" pt_clust_6="13000.00000" pt_clust_7="13000.00000" pt_clust_8="13000.00000" pt_clust_9="49.50591"></scales>
<clustering>
<clus scale="   49.506">  2  9  1 -1</clus>
<clus scale="   68.281">  7  8 -1 -1</clus>
<clus scale="   70.818">  5  6 -1 -1</clus>
<clus scale="  122.467">  1  7  2 -1</clus>
<clus scale="   49.506">  2  5  1 -1</clus>
</clustering>
</event>
<event>
 9    1  0.6202448E-006  0.9074912E+02  0.7546771E-02  0.1304260E+00
          1   -1    0    0  502    0  0.00000000000E+00  0.00000000000E+00  0.10987192291E+03  0.10987192291E+03  0.00000000000E+00 0. -1.
         -1   -1    0    0    0  501 -0.00000000000E+00 -0.00000000000E+00 -0.96257344970E+02  0.96257344970E+02  0.00000000000E+00 0.  1.
         23    2    1    2    0    0  0.95864302347E+01 -0.17336145047E+01 -0.19252915971E+02  0.93109045935E+02  0.90574359493E+02 0.  0.
         23    2    1    2    0    0  0.10764293029E+02  0.55229116340E+01  0.33000424365E+02  0.92319294901E+02  0.85366572178E+02 0.  0.
        -11    1    4    4    0    0 -0.26220325246E+02 -0.10829922613E+02 -0.12884751179E+02  0.31157815917E+02  0.00000000000E+00 0.  1.
         11    1    4    4    0    0  0.36984618275E+02  0.16352834247E+02  0.45885175543E+02  0.61161478984E+02  0.00000000000E+00 0. -1.
        -13    1    3    3    0    0  0.20941372500E+02 -0.42469694981E+02 -0.18429377758E+02  0.50811987153E+02  0.00000000000E+00 0. -1.
         13    1    3    3    0    0 -0.11354942265E+02  0.40736080476E+02 -0.82353821369E+00  0.42297058782E+02  0.00000000000E+00 0.  1.
         21    1    1    2  502  501 -0.20350723264E+02 -0.37892971293E+01 -0.13293045073E+00  0.20700927047E+02  0.00000000000E+00 0.  1.
<scales pt_clust_5="13000.00000" pt_clust_6="13000.00000" pt_clust_7="13000.00000" pt_clust_8="13000.00000" pt_clust_9="20.70050"></scales>
<clustering>
<clus scale="   20.701">  2  9  1 -1</clus>
<clus scale="   85.367">  5  6 -1 -1</clus>
<clus scale="   85.552">  1  5  2 -1</clus>
<clus scale="   90.574">  7  8 -1 -1</clus>
<clus scale="   85.552">  1  5  2 -1</clus>
</clustering>
</event>
<event>
 9    1  0.6202448E-006  0.1050386E+03  0.7546771E-02  0.1270792E+00
         -1   -1    0    0    0  501 -0.00000000000E+00  0.00000000000E+00  0.91778929170E+02  0.91778929170E+02  0.00000000000E+00 0.  1.
          1   -1    0    0  502    0  0.00000000000E+00 -0.00000000000E+00 -0.27146550381E+03  0.27146550381E+03  0.00000000000E+00 0. -1.
         23    2    1    2    0    0 -0.12467878354E+02 -0.59134365786E+02  0.25547840044E+02  0.11102475316E+03  0.89562729272E+02 0.  0.
         23    2    1    2    0    0  0.21435506658E+02  0.24847259977E+02 -0.92513018213E+02  0.13405819200E+03  0.91302097621E+02 0.  0.
        -11    1    4    4    0    0 -0.26200009758E+02  0.23872979464E+02 -0.75605370750E+02  0.83501687085E+02  0.00000000000E+00 0. -1.
         11    1    4    4    0    0  0.47635516416E+02  0.97428051292E+00 -0.16907647463E+02  0.50556504917E+02  0.00000000000E+00 0.  1.
        -11    1    3    3    0    0 -0.38987270473E+02 -0.68222856894E+02  0.10701108151E+02  0.79302453792E+02  0.00000000000E+00 0.  1.
         11    1    3    3    0    0  0.26519392119E+02  0.90884911080E+01  0.14846731893E+02  0.31722299363E+02  0.00000000000E+00 0. -1.
         21    1    1    2  502  501 -0.89676283037E+01  0.34287105809E+02 -0.11272139647E+03  0.11816148782E+03  0.00000000000E+00 0. -1.
<scales pt_clust_5="13000.00000" pt_clust_6="13000.00000" pt_clust_7="13000.00000" pt_clust_8="13000.00000" pt_clust_9="35.44043"></scales>
<clustering>
<clus scale="   35.440">  2  9  1 -1</clus>
<clus scale="   89.563">  7  8 -1 -1</clus>
<clus scale="   91.302">  5  6 -1 -1</clus>
<clus scale="  103.530">  1  7  2 -1</clus>
<clus scale="   35.440">  2  5  1 -1</clus>
</clustering>
</event>
<event>
 9    1  0.6202448E-006  0.1000681E+03  0.7546771E-02  0.1280822E+00
          1   -1    0    0  502    0  0.00000000000E+00  0.00000000000E+00  0.31204538265E+03  0.31204538265E+03  0.00000000000E+00 0. -1.
         -1   -1    0    0    0  501 -0.00000000000E+00 -0.00000000000E+00 -0.49520720266E+02  0.49520720266E+02  0.00000000000E+00 0.  1.
         23    2    1    2    0    0  0.32583601719E+02 -0.21137315200E+01  0.59428773725E+02  0.11241832850E+03  0.89665726303E+02 0.  0.
         23    2    1    2    0    0 -0.59590362003E+02 -0.17769121993E+02  0.16423823645E+03  0.19781932129E+03  0.91057853178E+02 0.  0.
        -13    1    3    3    0    0  0.25629521104E+02 -0.44609438968E+02  0.24556492386E+02  0.57007856611E+02  0.00000000000E+00 0.  1.
         13    1    3    3    0    0  0.69540806150E+01  0.42495707448E+02  0.34872281339E+02  0.55410471885E+02  0.00000000000E+00 0. -1.
        -13    1    4    4    0    0 -0.34453782124E+02  0.11173544922E+02  0.81942956520E+01  0.37135666009E+02  0.00000000000E+00 0.  1.
         13    1    4    4    0    0 -0.25136579879E+02 -0.28942666915E+02  0.15604394080E+03  0.16068365529E+03  0.00000000000E+00 0. -1.
         21    1    1    2  502  501  0.27006760284E+02  0.19882853513E+02  0.38857652207E+02  0.51328453122E+02  0.00000000000E+00 0.  1.
<scales pt_clust_5="13000.00000" pt_clust_6="13000.00000" pt_clust_7="13000.00000" pt_clust_8="13000.00000" pt_clust_9="33.53644"></scales>
<clustering>
<clus scale="   33.536">  1  9  2 -1</clus>
<clus scale="   89.666">  5  6 -1 -1</clus>
<clus scale="   91.058">  7  8 -1 -1</clus>
<clus scale="   98.803">  2  5  1 -1</clus>
<clus scale="   33.536">  1  5  2 -1</clus>
</clustering>
</event>
<event>
 9    1  0.6202448E-006  0.9127301E+02  0.7546771E-02  0.1299895E+00
          2   -1    0    0  502    0  0.00000000000E+00  0.00000000000E+00  0.13542471418E+03  0.13542471418E+03  0.00000000000E+00 0. -1.
         -2   -1    0    0    0  501 -0.00000000000E+00 -0.00000000000E+00 -0.26177906876E+03  0.26177906876E+03  0.00000000000E+00 0.  1.
         23    2    1    2    0    0  0.10783319356E+01 -0.79091386865E+01 -0.21514162736E+03  0.23370949970E+03  0.90942251750E+02 0.  0.
         23    2    1    2    0    0  0.27650154259E+02 -0.19933393487E+02  0.62273121967E+02  0.11549915110E+03  0.91105658321E+02 0.  0.
        -11    1    3    3    0    0  0.21906097012E+02 -0.41191194936E+02 -0.76389460412E+02  0.89509448041E+02  0.00000000000E+00 0.  1.
         11    1    3    3    0    0 -0.20827765077E+02  0.33282056250E+02 -0.13875216694E+03  0.14420005166E+03  0.00000000000E+00 0. -1.
        -13    1    4    4    0    0 -0.33261551443E+02 -0.15557643355E+01  0.16802160685E+02  0.37296967849E+02  0.00000000000E+00 0.  1.
         13    1    4    4    0    0  0.60911705702E+02 -0.18377629151E+02  0.45470961282E+02  0.78202183247E+02  0.00000000000E+00 0. -1.
         21    1    1    2  502  501 -0.28728486194E+02  0.27842532173E+02  0.26514150802E+02  0.47995132145E+02  0.00000000000E+00 0. -1.
<scales pt_clust_5="13000.00000" pt_clust_6="13000.00000" pt_clust_7="13000.00000" pt_clust_8="13000.00000" pt_clust_9="40.00666"></scales>
<clustering>
<clus scale="   40.007">  1  9  2 -1</clus>
<clus scale="   90.942">  5  6 -1 -1</clus>
<clus scale="   91.106">  7  8 -1 -1</clus>
<clus scale="   91.110">  2  5  1 -1</clus>
<clus scale="   40.007">  1  5  2 -1</clus>
</clustering>
</event>
<event>
 9    1  0.6202448E-006  0.1607792E+03  0.7546771E-02  0.1202666E+00
          1   -1    0    0  502    0  0.00000000000E+00  0.00000000000E+00  0.80479344209E+03  0.80479344209E+03  0.00000000000E+00 0. -1.
         -1   -1    0    0    0  501 -0.00000000000E+00 -0.00000000000E+00 -0.18473541485E+03  0.18473541485E+03  0.00000000000E+00 0.  1.
         23    2    1    2    0    0 -0.75806850063E+02  0.17940693806E+02 -0.12269235644E+03  0.16895505602E+03  0.86161764222E+02 0.  0.
         23    2    1    2    0    0  0.26761188876E+02 -0.14242882055E+03  0.20825311555E+03  0.26958369192E+03  0.91125609223E+02 0.  0.
        -11    1    4    4    0    0  0.52038600901E+02 -0.10763663817E+03  0.18613607185E+03  0.22122454453E+03  0.00000000000E+00 0.  1.
         11    1    4    4    0    0 -0.25277412025E+02 -0.34792182384E+02  0.22117043706E+02  0.48359147387E+02  0.00000000000E+00 0. -1.
        -13    1    3    3    0    0 -0.29460951807E+02  0.47910582014E+02 -0.38040682617E+02  0.67900405627E+02  0.00000000000E+00 0. -1.
         13    1    3    3    0    0 -0.46345898256E+02 -0.29969888208E+02 -0.84651673822E+02  0.10105465039E+03  0.00000000000E+00 0.  1.
         21    1    1    2  502  501  0.49045661187E+02  0.12448812674E+03  0.53449726813E+03  0.55099010901E+03  0.00000000000E+00 0. -1.
<scales pt_clust_5="13000.00000" pt_clust_6="13000.00000" pt_clust_7="13000.00000" pt_clust_8="13000.00000" pt_clust_9="132.46160"></scales>
<clustering>
<clus scale="   86.162">  7  8 -1 -1</clus>
<clus scale="   91.126">  5  6 -1 -1</clus>
<clus scale="  116.157">  2  7  1 -1</clus>
<clus scale="  132.462">  1  9  2 -1</clus>
<clus scale="  132.462">  1  5  2 -1</clus>
</clustering>
</event>
<event>
 9    1  0.6202448E-006  0.1096095E+03  0.7546771E-02  0.1263392E+00
         -1   -1    0    0    0  501 -0.00000000000E+00  0.00000000000E+00  0.57341338181E+03  0.57341338181E+03  0.00000000000E+00 0.  1.
          1   -1    0    0  502    0  0.00000000000E+00 -0.00000000000E+00 -0.73885893727E+02  0.73885893727E+02  0.00000000000E+00 0. -1.
         23    2    1    2    0    0 -0.17391157905E+02  0.75741776490E+02  0.36408462703E+03  0.38291076412E+03  0.89575490810E+02 0.  0.
         23    2    1    2    0    0  0.56387512850E+02  0.26696155569E+02  0.99846535371E+02  0.14914379777E+03  0.91554931379E+02 0.  0.
        -11    1    4    4    0    0  0.33575938909E+02 -0.30911134992E+02  0.25200688284E+02  0.52133642018E+02  0.00000000000E+00 0. -1.
         11    1    4    4    0    0  0.22811573941E+02  0.57607290561E+02  0.74645847087E+02  0.97010155751E+02  0.00000000000E+00 0.  1.
        -13    1    3    3    0    0 -0.50965237199E+02  0.59790340481E+02  0.28317163606E+03  0.29386819441E+03  0.00000000000E+00 0.  1.
         13    1    3    3    0    0  0.33574079294E+02  0.15951436008E+02  0.80912990974E+02  0.89042569704E+02  0.00000000000E+00 0. -1.
         21    1    1    2  502  501 -0.38996354945E+02 -0.10243793206E+03  0.35596325681E+02  0.11524471365E+03  0.00000000000E+00 0. -1.
<scales pt_clust_5="13000.00000" pt_clust_6="13000.00000" pt_clust_7="13000.00000" pt_clust_8="13000.00000" pt_clust_9="109.60951"></scales>
<clustering>
<clus scale="   89.575">  7  8 -1 -1</clus>
<clus scale="   91.555">  5  6 -1 -1</clus>
<clus scale="  109.610">  2  9  1 -1</clus>
<clus scale="  105.200">  1  7  2 -1</clus>
<clus scale="  109.610">  2  5  1 -1</clus>
</clustering>
</event>
<event>
 9    1  0.6202448E-006  0.1825139E+03  0.7546771E-02  0.1182172E+00
          1   -1    0    0  502    0  0.00000000000E+00  0.00000000000E+00  0.12655497930E+04  0.12655497930E+04  0.00000000000E+00 0. -1.
         -1   -1    0    0    0  501 -0.00000000000E+00 -0.00000000000E+00 -0.53251747841E+02  0.53251747841E+02  0.00000000000E+00 0.  1.
         23    2    1    2    0    0  0.70355521953E+02 -0.50270962149E+02  0.14942319265E+03  0.19459024632E+03  0.89783096175E+02 0.  0.
         23    2    1    2    0    0  0.85416029632E+02  0.13367236066E+03  0.65937706205E+03  0.68372175268E+03  0.86793588552E+02 0.  0.
        -11    1    4    4    0    0 -0.30849847773E+01  0.59793204441E+02  0.15099773626E+03  0.16243478933E+03  0.00000000000E+00 0.  1.
         11    1    4    4    0    0  0.88501014409E+02  0.73879156220E+02  0.50837932578E+03  0.52128696335E+03  0.00000000000E+00 0. -1.
        -13    1    3    3    0    0  0.13967857979E+02 -0.63044908448E+02  0.97110828001E+02  0.11662021460E+03  0.00000000000E+00 0.  1.
         13    1    3    3    0    0  0.56387663974E+02  0.12773946299E+02  0.52312364645E+02  0.77970031726E+02  0.00000000000E+00 0. -1.
         21    1    1    2  502  501 -0.15577155158E+03 -0.83401398512E+02  0.40349779048E+03  0.44048954185E+03  0.00000000000E+00 0.  1.
<scales pt_clust_5="13000.00000" pt_clust_6="13000.00000" pt_clust_7="13000.00000" pt_clust_8="13000.00000" pt_clust_9="160.55592"></scales>
<clustering>
<clus scale="   86.794">  5  6 -1 -1</clus>
<clus scale="   89.783">  7  8 -1 -1</clus>
<clus scale="  124.652">  2  7  1 -1</clus>
<clus scale="  160.556">  2  9  1 -1</clus>
<clus scale="  182.514">  1  5  2 -1</clus>
</clustering>
</event>
<event>
 9    1  0.6202448E-006  0.1165198E+03  0.7546771E-02  0.1250284E+00
          1   -1    0    0  502    0  0.00000000000E+00  0.00000000000E+00  0.67618948011E+03  0.67618948011E+03  0.00000000000E+00 0. -1.
         -1   -1    0    0    0  501 -0.00000000000E+00 -0.00000000000E+00 -0.10810810790E+03  0.10810810790E+03  0.00000000000E+00 0.  1.
         23    2    1    2    0    0  0.19623994049E+01 -0.77990437525E+02 -0.56495713069E+02  0.13371539313E+03  0.92745250054E+02 0.  0.
         23    2    1    2    0    0 -0.43100277876E+02  0.14618886076E+02  0.26574057650E+03  0.28387806537E+03  0.88867070466E+02 0.  0.
        -11    1    3    3    0    0 -0.33719117723E+02 -0.59421690740E+02 -0.63040462951E+02  0.92962445103E+02  0.00000000000E+00 0.  1.
         11    1    3    3    0    0  0.35681517128E+02 -0.18568746785E+02  0.65447498828E+01  0.40752948025E+02  0.00000000000E+00 0. -1.
        -11    1    4    4    0    0 -0.50592065049E+02  0.36838794573E+02  0.24401159330E+03  0.25190933189E+03  0.00000000000E+00 0.  1.
         11    1    4    4    0    0  0.74917871739E+01 -0.22219908498E+02  0.21728983204E+02  0.31968733472E+02  0.00000000000E+00 0. -1.
         21    1    1    2  502  501  0.41137878471E+02  0.63371551449E+02  0.35883650878E+03  0.36670412952E+03  0.00000000000E+00 0. -1.
<scales pt_clust_5="13000.00000" pt_clust_6="13000.00000" pt_clust_7="13000.00000" pt_clust_8="13000.00000" pt_clust_9="75.55315"></scales>
<clustering>
<clus scale="   75.553">  1  9  2 -1</clus>
<clus scale="   88.867">  7  8 -1 -1</clus>
<clus scale="   92.745">  5  6 -1 -1</clus>
<clus scale="  113.457">  1  7  2 -1</clus>
<clus scale="   75.553">  1  5  2 -1</clus>
</clustering>
</event>
<event>
 9    1  0.6202448E-006  0.2011696E+03  0.7546771E-02  0.1169493E+00
          2   -1    0    0  502    0  0.00000000000E+00  0.00000000000E+00  0.19079069669E+04  0.19079069669E+04  0.00000000000E+00 0. -1.
         -2   -1    0    0    0  501 -0.00000000000E+00 -0.00000000000E+00 -0.40104751770E+02  0.40104751770E+02  0.00000000000E+00 0.  1.
         23    2    1    2    0    0  0.67660269578E+02 -0.52275247694E+02  0.20463549913E+03  0.23929586749E+03  0.89867742247E+02 0.  0.
         23    2    1    2    0    0 -0.16033291044E+03  0.16247141251E+03  0.11319811609E+04  0.11583618678E+04  0.91199046116E+02 0.  0.
        -13    1    3    3    0    0 -0.83706722351E+01 -0.45521930482E+02  0.95385286092E+02  0.10602201239E+03  0.00000000000E+00 0.  1.
         13    1    3    3    0    0  0.76030941813E+02 -0.67533172120E+01  0.10925021303E+03  0.13327385510E+03  0.00000000000E+00 0. -1.
        -13    1    4    4    0    0 -0.13895920017E+03  0.79742294778E+02  0.71896196516E+03  0.73659676910E+03  0.00000000000E+00 0.  1.
         13    1    4    4    0    0 -0.21373710263E+02  0.82729117733E+02  0.41301919572E+03  0.42176509866E+03  0.00000000000E+00 0. -1.
         21    1    1    2  502  501  0.92672640860E+02 -0.11019616482E+03  0.53118555515E+03  0.55035398346E+03  0.00000000000E+00 0. -1.
<scales pt_clust_5="13000.00000" pt_clust_6="13000.00000" pt_clust_7="13000.00000" pt_clust_8="13000.00000" pt_clust_9="179.30959"></scales>
<clustering>
<clus scale="   89.868">  5  6 -1 -1</clus>
<clus scale="   91.199">  7  8 -1 -1</clus>
<clus scale="  124.044">  2  5  1 -1</clus>
<clus scale="  179.310">  1  9  2 -1</clus>
<clus scale="  179.310">  1  5  2 -1</clus>
</clustering>
</event>
<event>
 9    1  0.6202448E-006  0.2559883E+03  0.7546771E-02  0.1109923E+00
          1   -1    0    0  502    0  0.00000000000E+00  0.00000000000E+00  0.38022841211E+03  0.38022841211E+03  0.00000000000E+00 0. -1.
         -1   -1    0    0    0  501 -0.00000000000E+00 -0.00000000000E+00 -0.35356175875E+03  0.35356175875E+03  0.00000000000E+00 0.  1.
         23    2    1    2    0    0 -0.26881979648E+03 -0.60194157864E+02 -0.19389398046E+03  0.34971112658E+03  0.93891302980E+02 0.  0.
         23    2    1    2    0    0  0.16384928321E+03  0.45441225289E+02  0.78312470742E+02  0.20667837468E+03  0.87587755540E+02 0.  0.
        -11    1    3    3    0    0 -0.75996737475E+02 -0.62186918091E+02 -0.64268791401E+02  0.11735925373E+03  0.00000000000E+00 0. -1.
         11    1    3    3    0    0 -0.19282305901E+03  0.19927602270E+01 -0.12962518906E+03  0.23235187285E+03  0.00000000000E+00 0.  1.
        -13    1    4    4    0    0  0.64235814011E+02 -0.24819566600E+02  0.35529648891E+02  0.77489396940E+02  0.00000000000E+00 0.  1.
         13    1    4    4    0    0  0.99613469200E+02  0.70260791889E+02  0.42782821851E+02  0.12918897774E+03  0.00000000000E+00 0. -1.
         21    1    1    2  502  501  0.10497051327E+03  0.14752932575E+02  0.14224816308E+03  0.17740066960E+03  0.00000000000E+00 0. -1.
<scales pt_clust_5="13000.00000" pt_clust_6="13000.00000" pt_clust_7="13000.00000" pt_clust_8="13000.00000" pt_clust_9="106.00216"></scales>
<clustering>
<clus scale="   87.588">  7  8 -1 -1</clus>
<clus scale="   93.891">  5  6 -1 -1</clus>
<clus scale="  106.002">  1  9  2 -1</clus>
<clus scale="  253.744">  1  7  2 -1</clus>
<clus scale="  106.002">  1  5  2 -1</clus>
</clustering>
</event>
<event>
 9    1  0.6202448E-006  0.1341450E+03  0.7546771E-02  0.1222934E+00
         -3   -1    0    0    0  501 -0.00000000000E+00  0.00000000000E+00  0.29756160239E+03  0.29756160239E+03  0.00000000000E+00 0.  1.
          3   -1    0    0  502    0  0.00000000000E+00 -0.00000000000E+00 -0.31345037646E+03  0.31345037646E+03  0.00000000000E+00 0. -1.
         23    2    1    2    0    0 -0.19567017434E+03  0.18481046510E+02  0.14407279594E+03  0.26088642425E+03  0.93147139634E+02 0.  0.
         23    2    1    2    0    0  0.75999684724E+02 -0.45850648359E+02 -0.18686911157E+03  0.22445082769E+03  0.87062478481E+02 0.  0.
        -13    1    3    3    0    0 -0.73309656455E+02 -0.26568509501E+01  0.10983496530E+03  0.13207984021E+03  0.00000000000E+00 0. -1.
         13    1    3    3    0    0 -0.12236051788E+03  0.21137897460E+02  0.34237830638E+02  0.12880658404E+03  0.00000000000E+00 0.  1.
        -13    1    4    4    0    0 -0.18641950903E+02 -0.11192214925E+02 -0.20209908756E+02  0.29685491748E+02  0.00000000000E+00 0.  1.
         13    1    4    4    0    0  0.94641635628E+02 -0.34658433434E+02 -0.16665920282E+03  0.19476533595E+03  0.00000000000E+00 0. -1.
         21    1    1    2  502  501  0.11967048961E+03  0.27369601849E+02  0.26907541560E+02  0.12567472690E+03  0.00000000000E+00 0.  1.
<scales pt_clust_5="13000.00000" pt_clust_6="13000.00000" pt_clust_7="13000.00000" pt_clust_8="13000.00000" pt_clust_9="122.76042"></scales>
<clustering>
<clus scale="   87.062">  7  8 -1 -1</clus>
<clus scale="   93.147">  5  6 -1 -1</clus>
<clus scale="  122.760">  1  9  2 -1</clus>
<clus scale="  129.994">  2  7  1 -1</clus>
<clus scale="  129.994">  2  5  1 -1</clus>
</clustering>
</event>
<event>
 9    1  0.6202448E-006  0.1164443E+03  0.7546771E-02  0.1250661E+00
         -3   -1    0    0    0  501 -0.00000000000E+00  0.00000000000E+00  0.22950602466E+03  0.22950602466E+03  0.00000000000E+00 0.  1.
          3   -1    0    0  502    0  0.00000000000E+00 -0.00000000000E+00 -0.32627873257E+03  0.32627873257E+03  0.00000000000E+00 0. -1.
         23    2    1    2    0    0 -0.71774199280E+02  0.15720745034E+02  0.18324825601E+03  0.21314664184E+03  0.80329882927E+02 0.  0.
         23    2    1    2    0    0  0.56856135748E+02 -0.56608230621E+02 -0.27489944925E+03  0.29881386401E+03  0.85339944801E+02 0.  0.
        -11    1    4    4    0    0  0.79289629155E+01 -0.51718787617E+02 -0.66098269465E+02  0.84301142767E+02  0.00000000000E+00 0.  1.
         11    1    4    4    0    0  0.48927172833E+02 -0.48894430036E+01 -0.20880117978E+03  0.21451272124E+03  0.00000000000E+00 0. -1.
        -13    1    3    3    0    0 -0.30044161224E+02  0.29270392321E+01  0.62245722468E+01  0.30821493831E+02  0.00000000000E+00 0. -1.
         13    1    3    3    0    0 -0.41730038057E+02  0.12793705802E+02  0.17702368376E+03  0.18232514801E+03  0.00000000000E+00 0.  1.
         21    1    1    2  502  501  0.14918063532E+02  0.40887485587E+02 -0.51215146650E+01  0.43824251387E+02  0.00000000000E+00 0. -1.
<scales pt_clust_5="13000.00000" pt_clust_6="13000.00000" pt_clust_7="13000.00000" pt_clust_8="13000.00000" pt_clust_9="43.52396"></scales>
<clustering>
<clus scale="   43.524">  1  9  2 -1</clus>
<clus scale="   80.330">  7  8 -1 -1</clus>
<clus scale="   85.340">  5  6 -1 -1</clus>
<clus scale="  112.824">  1  7  2 -1</clus>
<clus scale="  116.444">  2  5  1 -1</clus>
</clustering>
</event>
<event>
 9    1  0.6202448E-006  0.1081280E+03  0.7546771E-02  0.1264208E+00
         -1   -1    0    0    0  501 -0.00000000000E+00  0.00000000000E+00  0.33513596543E+02  0.33513596543E+02  0.00000000000E+00 0.  1.
          1   -1    0    0  502    0  0.00000000000E+00 -0.00000000000E+00 -0.45611799472E+03  0.45611799472E+03  0.00000000000E+00 0. -1.
         23    2    1    2    0    0 -0.29468439100E+02  0.31275547668E+02 -0.12945250467E+03  0.16473943453E+03  0.92382798935E+02 0.  0.
         23    2    1    2    0    0  0.53367565080E+02 -0.37717465308E+02 -0.26056062490E+03  0.28396713609E+03  0.92058627717E+02 0.  0.
        -11    1    3    3    0    0  0.25866959527E+02  0.82900722730E+01 -0.87432196299E+02  0.91554431040E+02  0.00000000000E+00 0. -1.
         11    1    3    3    0    0 -0.55335398627E+02  0.22985475395E+02 -0.42020308376E+02  0.73185003494E+02  0.00000000000E+00 0.  1.
        -13    1    4    4    0    0  0.34863375099E+02 -0.66472008322E+02 -0.20926493399E+03  0.22231912966E+03  0.00000000000E+00 0. -1.
         13    1    4    4    0    0  0.18504189981E+02  0.28754543014E+02 -0.51295690909E+02  0.61648006429E+02  0.00000000000E+00 0.  1.
         21    1    1    2  502  501 -0.23899125980E+02  0.64419176394E+01 -0.32591268602E+02  0.40925020642E+02  0.00000000000E+00 0.  1.
<scales pt_clust_5="13000.00000" pt_clust_6="13000.00000" pt_clust_7="13000.00000" pt_clust_8="13000.00000" pt_clust_9="24.75210"></scales>
<clustering>
<clus scale="   24.752">  1  9  2 -1</clus>
<clus scale="   92.059">  7  8 -1 -1</clus>
<clus scale="   92.383">  5  6 -1 -1</clus>
<clus scale="  107.851">  2  7  1 -1</clus>
<clus scale="  107.851">  2  5  1 -1</clus>
</clustering>
</event>
<event>
 9    1  0.6202448E-006  0.1062519E+03  0.7546771E-02  0.1269497E+00
         -2   -1    0    0    0  501 -0.00000000000E+00  0.00000000000E+00  0.36671809722E+03  0.36671809722E+03  0.00000000000E+00 0.  1.
          2   -1    0    0  502    0  0.00000000000E+00 -0.00000000000E+00 -0.10896338368E+03  0.10896338368E+03  0.00000000000E+00 0. -1.
         23    2    1    2    0    0 -0.32477860441E+02  0.15800760886E+02  0.10159919272E+03  0.13880614973E+03  0.87408671068E+02 0.  0.
         23    2    1    2    0    0  0.59539825653E+02  0.73404767194E+01 -0.55084572193E+02  0.12265524870E+03  0.91712193866E+02 0.  0.
        -11    1    4    4    0    0 -0.11109252060E+02  0.32165478518E+02 -0.11024823806E+02  0.35771220689E+02  0.00000000000E+00 0.  1.
         11    1    4    4    0    0  0.70649077714E+02 -0.24825001799E+02 -0.44059748388E+02  0.86884028015E+02  0.00000000000E+00 0. -1.
        -13    1    3    3    0    0 -0.54317237675E+01  0.30899260216E+02  0.10312683862E+03  0.10779337989E+03  0.00000000000E+00 0.  1.
         13    1    3    3    0    0 -0.27046136673E+02 -0.15098499330E+02 -0.15276459003E+01  0.31012769837E+02  0.00000000000E+00 0. -1.
         21    1    1    2  502  501 -0.27061965213E+02 -0.23141237605E+02  0.21124009302E+03  0.21422008248E+03  0.00000000000E+00 0.  1.
<scales pt_clust_5="13000.00000" pt_clust_6="13000.00000" pt_clust_7="13000.00000" pt_clust_8="13000.00000" pt_clust_9="35.60712"></scales>
<clustering>
<clus scale="   35.607">  1  9  2 -1</clus>
<clus scale="   87.409">  7  8 -1 -1</clus>
<clus scale="   91.712">  5  6 -1 -1</clus>
<clus scale="  102.560">  1  7  2 -1</clus>
<clus scale="  106.252">  2  5  1 -1</clus>
</clustering>
</event>
<event>
 9    1  0.6202448E-006  0.1406327E+03  0.7546771E-02  0.1213213E+00
          1   -1    0    0  502    0  0.00000000000E+00  0.00000000000E+00  0.13983374543E+03  0.13983374543E+03  0.00000000000E+00 0. -1.
         -1   -1    0    0    0  501 -0.00000000000E+00 -0.00000000000E+00 -0.58242962191E+03  0.58242962191E+03  0.00000000000E+00 0.  1.
         23    2    1    2    0    0  0.92541860945E+02 -0.82839612644E+02 -0.49513554084E+03  0.51764662108E+03  0.85862815342E+02 0.  0.
         23    2    1    2    0    0 -0.17275636449E+02  0.44473756462E+02 -0.66135300257E+01  0.10148554887E+03  0.89326453088E+02 0.  0.
        -11    1    4    4    0    0 -0.47621881765E+02  0.51153728943E+02 -0.92072469292E+00  0.69895603163E+02  0.00000000000E+00 0. -1.
         11    1    4    4    0    0  0.30346245316E+02 -0.66799724803E+01 -0.56928053327E+01  0.31589945706E+02  0.00000000000E+00 0.  1.
        -11    1    3    3    0    0  0.65835559362E+02 -0.72585498406E+01 -0.28854341772E+03  0.29604781934E+03  0.00000000000E+00 0.  1.
         11    1    3    3    0    0  0.26706301583E+02 -0.75581062804E+02 -0.20659212312E+03  0.22159880174E+03  0.00000000000E+00 0. -1.
         21    1    1    2  502  501 -0.75266224496E+02  0.38365856182E+02  0.59153194385E+02  0.10313119740E+03  0.00000000000E+00 0. -1.
<scales pt_clust_5="13000.00000" pt_clust_6="13000.00000" pt_clust_7="13000.00000" pt_clust_8="13000.00000" pt_clust_9="84.48043"></scales>
<clustering>
<clus scale="   84.480">  1  9  2 -1</clus>
<clus scale="   85.863">  7  8 -1 -1</clus>
<clus scale="   89.326">  5  6 -1 -1</clus>
<clus scale="  138.459">  2  7  1 -1</clus>
<clus scale="   84.480">  1  5  2 -1</clus>
</clustering>
</event>
<event>
 9    1  0.6202448E-006  0.1996636E+03  0.7546771E-02  0.1150125E+00
         -1   -1    0    0    0  501 -0.00000000000E+00  0.00000000000E+00  0.57272734226E+03  0.57272734226E+03  0.00000000000E+00 0.  1.
          1   -1    0    0  502    0  0.00000000000E+00 -0.00000000000E+00 -0.16542713344E+03  0.16542713344E+03  0.00000000000E+00 0. -1.
         23    2    1    2    0    0  0.92853912917E+02 -0.18338696948E+03  0.17341702436E+03  0.28374894970E+03  0.90484100247E+02 0.  0.
         23    2    1    2    0    0 -0.18509009258E+03  0.40389022770E+02  0.80376783806E+02  0.22523279498E+03  0.91541078374E+02 0.  0.
        -11    1    4    4    0    0 -0.47199385681E+02  0.10099155223E+02  0.68169638505E+02  0.83527687379E+02  0.00000000000E+00 0.  1.
         11    1    4    4    0    0 -0.13789070690E+03  0.30289867547E+02  0.12207145300E+02  0.14170510760E+03  0.00000000000E+00 0. -1.
        -13    1    3    3    0    0  0.54863331829E+02 -0.16396623516E+03  0.10254096631E+03  0.20102129545E+03  0.00000000000E+00 0. -1.
         13    1    3    3    0    0  0.37990581088E+02 -0.19420734319E+02  0.70876058048E+02  0.82727654248E+02  0.00000000000E+00 0.  1.
         21    1    1    2  502  501  0.92236179662E+02  0.14299794671E+03  0.15350640066E+03  0.22917273102E+03  0.00000000000E+00 0.  1.
<scales pt_clust_5="13000.00000" pt_clust_6="13000.00000" pt_clust_7="13000.00000" pt_clust_8="13000.00000" pt_clust_9="170.16441"></scales>
<clustering>
<clus scale="   90.484">  7  8 -1 -1</clus>
<clus scale="   91.541">  5  6 -1 -1</clus>
<clus scale="  170.164">  1  9  2 -1</clus>
<clus scale="  199.181">  1  7  2 -1</clus>
<clus scale="  199.664">  2  5  1 -1</clus>
</clustering>
</event>
<event>
 9    1  0.6202448E-006  0.1344251E+03  0.7546771E-02  0.1221063E+00
          3   -1    0    0  502    0  0.00000000000E+00  0.00000000000E+00  0.29330736082E+03  0.29330736082E+03  0.00000000000E+00 0. -1.
         -3   -1    0    0    0  501 -0.00000000000E+00 -0.00000000000E+00 -0.17094704030E+03  0.17094704030E+03  0.00000000000E+00 0.  1.
         23    2    1    2    0    0  0.43399151928E+02  0.73806316527E+02 -0.42474591180E+02  0.13285272994E+03  0.92276206087E+02 0.  0.
         23    2    1    2    0    0 -0.91452258969E+02 -0.47363167030E+02  0.21592033008E+03  0.25644794397E+03  0.92396827673E+02 0.  0.
        -11    1    3    3    0    0  0.66683676567E+02  0.67540879597E+02 -0.50408055212E+02  0.10746839148E+03  0.00000000000E+00 0.  1.
         11    1    3    3    0    0 -0.23284524639E+02  0.62654369302E+01  0.79334640317E+01  0.25384338462E+02  0.00000000000E+00 0. -1.
        -13    1    4    4    0    0 -0.41558928941E+02  0.24292368651E+02  0.10311883480E+03  0.11380139648E+03  0.00000000000E+00 0.  1.
         13    1    4    4    0    0 -0.49893330028E+02 -0.71655535681E+02  0.11280149528E+03  0.14264654749E+03  0.00000000000E+00 0. -1.
         21    1    1    2  502  501  0.48053107042E+02 -0.26443149497E+02 -0.51085418377E+02  0.74953727208E+02  0.00000000000E+00 0.  1.
<scales pt_clust_5="13000.00000" pt_clust_6="13000.00000" pt_clust_7="13000.00000" pt_clust_8="13000.00000" pt_clust_9="54.84835"></scales>
<clustering>
<clus scale="   54.848">  2  9  1 -1</clus>
<clus scale="   92.276">  5  6 -1 -1</clus>
<clus scale="   92.397">  7  8 -1 -1</clus>
<clus scale="  134.342">  2  5  1 -1</clus>
<clus scale="  134.425">  1  5  2 -1</clus>
</clustering>
</event>
<event>
 9    1  0.6202448E-006  0.9770524E+02  0.7546771E-02  0.1287687E+00
         -1   -1    0    0    0  501 -0.00000000000E+00  0.00000000000E+00  0.47114735065E+03  0.47114735065E+03  0.00000000000E+00 0.  1.
          1   -1    0    0  502    0  0.00000000000E+00 -0.00000000000E+00 -0.13417709773E+03  0.13417709773E+03  0.00000000000E+00 0. -1.
         23    2    1    2    0    0 -0.89458705088E+01  0.42721316065E+02  0.34523074081E+03  0.35896503709E+03  0.88127714180E+02 0.  0.
         23    2    1    2    0    0 -0.32279176686E+02  0.80224612173E+01 -0.95535425845E+02  0.13731194344E+03  0.92850670910E+02 0.  0.
        -11    1    3    3    0    0  0.21768119059E+02  0.46331835849E+02  0.29896021829E+03  0.30331122982E+03  0.00000000000E+00 0.  1.
         11    1    3    3    0    0 -0.30713989568E+02 -0.36105197833E+01  0.46270522522E+02  0.55653807262E+02  0.00000000000E+00 0. -1.
        -13    1    4    4    0    0  0.18029167147E+02  0.34964932086E+02 -0.25124896839E+02  0.46678236738E+02  0.00000000000E+00 0.  1.
         13    1    4    4    0    0 -0.50308343833E+02 -0.26942470869E+02 -0.70410529006E+02  0.90633706702E+02  0.00000000000E+00 0. -1.
         21    1    1    2  502  501  0.41225047195E+02 -0.50743777283E+02  0.87274937964E+02  0.10904746786E+03  0.00000000000E+00 0.  1.
<scales pt_clust_5="13000.00000" pt_clust_6="13000.00000" pt_clust_7="13000.00000" pt_clust_8="13000.00000" pt_clust_9="65.37917"></scales>
<clustering>
<clus scale="   65.379">  1  9  2 -1</clus>
<clus scale="   88.128">  5  6 -1 -1</clus>
<clus scale="   92.851">  7  8 -1 -1</clus>
<clus scale="   93.229">  1  5  2 -1</clus>
<clus scale="   97.705">  2  5  1 -1</clus>
</clustering>
</event>
<event>
 9    1  0.6202448E-006  0.9482012E+02  0.7546771E-02  0.1295704E+00
         -1   -1    0    0    0  501 -0.00000000000E+00  0.00000000000E+00  0.40358204970E+03  0.40358204970E+03  0.00000000000E+00 0.  1.
          1   -1    0    0  502    0  0.00000000000E+00 -0.00000000000E+00 -0.32311172177E+02  0.32311172177E+02  0.00000000000E+00 0. -1.
         23    2    1    2    0    0 -0.67630737026E+01 -0.35593191309E+01  0.18046873444E+03  0.20269331856E+03  0.91963086959E+02 0.  0.
         23    2    1    2    0    0  0.18898178597E+02 -0.33291503913E+02  0.11355876455E+03  0.14676042473E+03  0.84720504447E+02 0.  0.
        -11    1    4    4    0    0  0.10904172476E+02 -0.52596733836E+02  0.11382612719E+03  0.12586383364E+03  0.00000000000E+00 0.  1.
         11    1    4    4    0    0  0.79940061209E+01  0.19305229923E+02 -0.26736264399E+00  0.20896591086E+02  0.00000000000E+00 0. -1.
        -13    1    3    3    0    0 -0.17090958200E+02 -0.45298912394E+02  0.81654724322E+02  0.94929375434E+02  0.00000000000E+00 0.  1.
         13    1    3    3    0    0  0.10327884497E+02  0.41739593264E+02  0.98814010113E+02  0.10776394313E+03  0.00000000000E+00 0. -1.
         21    1    1    2  502  501 -0.12135104894E+02  0.36850823043E+02  0.77243378540E+02  0.86439478585E+02  0.00000000000E+00 0. -1.
<scales pt_clust_5="13000.00000" pt_clust_6="13000.00000" pt_clust_7="13000.00000" pt_clust_8="13000.00000" pt_clust_9="38.79747"></scales>
<clustering>
<clus scale="   38.797">  1  9  2 -1</clus>
<clus scale="   84.721">  5  6 -1 -1</clus>
<clus scale="   87.813">  2  5  1 -1</clus>
<clus scale="   91.963">  7  8 -1 -1</clus>
<clus scale="   87.813">  2  5  1 -1</clus>
</clustering>
</event>
<event>
 9    1  0.6202448E-006  0.9770064E+02  0.7546771E-02  0.1286974E+00
         -2   -1    0    0    0  501 -0.00000000000E+00  0.00000000000E+00  0.10059613523E+03  0.10059613523E+03  0.00000000000E+00 0.  1.
          2   -1    0    0  502    0  0.00000000000E+00 -0.00000000000E+00 -0.15109095751E+03  0.15109095751E+03  0.00000000000E+00 0. -1.
         23    2    1    2    0    0  0.26009894314E+02  0.29514800340E+02  0.39542237438E+02  0.10408856509E+03  0.87881754641E+02 0.  0.
         23    2    1    2    0    0 -0.23154045452E+02 -0.75927669438E+01 -0.68392148184E+02  0.11665933542E+03  0.91313496689E+02 0.  0.
        -13    1    4    4    0    0  0.15828600241E+02 -0.30316400508E+02 -0.62377904633E+02  0.71138117150E+02  0.00000000000E+00 0. -1.
         13    1    4    4    0    0 -0.38982645693E+02  0.22723633564E+02 -0.60142435516E+01  0.45521218273E+02  0.00000000000E+00 0.  1.
        -13    1    3    3    0    0  0.20533954117E+02  0.60893665185E+02  0.29321149524E+02  0.70635766725E+02  0.00000000000E+00 0.  1.
         13    1    3    3    0    0  0.54759401965E+01 -0.31378864846E+02  0.10221087914E+02  0.33452798361E+02  0.00000000000E+00 0. -1.
         21    1    1    2  502  501 -0.28558488619E+01 -0.21922033396E+02 -0.21644911531E+02  0.30939192235E+02  0.00000000000E+00 0. -1.
<scales pt_clust_5="13000.00000" pt_clust_6="13000.00000" pt_clust_7="13000.00000" pt_clust_8="13000.00000" pt_clust_9="22.10727"></scales>
<clustering>
<clus scale="   22.107">  2  9  1 -1</clus>
<clus scale="   87.882">  7  8 -1 -1</clus>
<clus scale="   91.313">  5  6 -1 -1</clus>
<clus scale="   94.501">  1  7  2 -1</clus>
<clus scale="   22.107">  2  5  1 -1</clus>
</clustering>
</event>
<event>
 9    1  0.6202448E-006  0.1184730E+03  0.7546771E-02  0.1251117E+00
         -3   -1    0    0    0  501 -0.00000000000E+00  0.00000000000E+00  0.10055342563E+04  0.10055342563E+04  0.00000000000E+00 0.  1.
          3   -1    0    0  502    0  0.00000000000E+00 -0.00000000000E+00 -0.36705661960E+02  0.36705661960E+02  0.00000000000E+00 0. -1.
         23    2    1    2    0    0  0.14874279454E+02  0.60626924412E+02  0.36483408069E+03  0.37973422636E+03  0.84836950024E+02 0.  0.
         23    2    1    2    0    0 -0.86490640251E+02  0.11373072397E+02  0.16366932622E+03  0.21062166544E+03  0.99819136351E+02 0.  0.
        -13    1    4    4    0    0 -0.32855444704E+02  0.54170719078E+02  0.88543321392E+02  0.10887546471E+03  0.00000000000E+00 0.  1.
         13    1    4    4    0    0 -0.53635195547E+02 -0.42797646680E+02  0.75126004829E+02  0.10174620074E+03  0.00000000000E+00 0. -1.
        -13    1    3    3    0    0 -0.30895602846E+02  0.18389287309E+02  0.73566867913E+02  0.81882771188E+02  0.00000000000E+00 0. -1.
         13    1    3    3    0    0  0.45769882300E+02  0.42237637103E+02  0.29126721277E+03  0.29785145518E+03  0.00000000000E+00 0.  1.
         21    1    1    2  502  501  0.71616360796E+02 -0.71999996809E+02  0.44032518744E+03  0.45188402646E+03  0.00000000000E+00 0.  1.
<scales pt_clust_5="13000.00000" pt_clust_6="13000.00000" pt_clust_7="13000.00000" pt_clust_8="13000.00000" pt_clust_9="101.55246"></scales>
<clustering>
<clus scale="   84.837">  7  8 -1 -1</clus>
<clus scale="   99.819">  5  6 -1 -1</clus>
<clus scale="  101.552">  1  9  2 -1</clus>
<clus scale="  106.157">  1  7  2 -1</clus>
<clus scale="  118.473">  2  5  1 -1</clus>
</clustering>
</event>
<event>
 9    1  0.6202448E-006  0.3330544E+03  0.7546771E-02  0.1116416E+00
         -2   -1    0    0    0  501 -0.00000000000E+00  0.00000000000E+00  0.69593205097E+02  0.69593205097E+02  0.00000000000E+00 0.  1.
          2   -1    0    0  502    0  0.00000000000E+00 -0.00000000000E+00 -0.27528876203E+04  0.27528876203E+04  0.00000000000E+00 0. -1.
         23    2    1    2    0    0 -0.27480048425E+03  0.15168433426E+03 -0.52228705227E+03  0.61642506220E+03  0.93127057982E+02 0.  0.
         23    2    1    2    0    0 -0.21262505747E+02  0.12973622158E+02 -0.33851196587E+03  0.35234192094E+03  0.94520205218E+02 0.  0.
        -11    1    3    3    0    0 -0.17280140319E+03  0.63682232308E+02 -0.23045917924E+03  0.29500370328E+03  0.00000000000E+00 0.  1.
         11    1    3    3    0    0 -0.10199908106E+03  0.88002101954E+02 -0.29182787304E+03  0.32142135892E+03  0.00000000000E+00 0. -1.
        -13    1    4    4    0    0 -0.46818919338E+02 -0.23285033405E+02 -0.15659625672E+03  0.16509570439E+03  0.00000000000E+00 0.  1.
         13    1    4    4    0    0  0.25556413591E+02  0.36258655563E+02 -0.18191570914E+03  0.18724621655E+03  0.00000000000E+00 0. -1.
         21    1    1    2  502  501  0.29606299000E+03 -0.16465795642E+03 -0.18224953971E+04  0.18537138423E+04  0.00000000000E+00 0. -1.
<scales pt_clust_5="13000.00000" pt_clust_6="13000.00000" pt_clust_7="13000.00000" pt_clust_8="13000.00000" pt_clust_9="319.76963"></scales>
<clustering>
<clus scale="   93.127">  5  6 -1 -1</clus>
<clus scale="   94.520">  7  8 -1 -1</clus>
<clus scale="   97.747">  2  7  1 -1</clus>
<clus scale="  319.770">  2  9  1 -1</clus>
<clus scale="   97.747">  2  5  1 -1</clus>
</clustering>
</event>
<event>
 9    1  0.6202448E-006  0.1042186E+03  0.7546771E-02  0.1272807E+00
         -2   -1    0    0    0  501 -0.00000000000E+00  0.00000000000E+00  0.60268063481E+03  0.60268063481E+03  0.00000000000E+00 0.  1.
          2   -1    0    0  502    0  0.00000000000E+00 -0.00000000000E+00 -0.26365291523E+02  0.26365291523E+02  0.00000000000E+00 0. -1.
         23    2    1    2    0    0  0.33015873516E+02  0.73590458813E+01  0.27854204321E+03  0.29575340619E+03  0.93489058036E+02 0.  0.
         23    2    1    2    0    0 -0.65214252339E+02  0.10224248141E+02  0.23715161337E+03  0.26243423393E+03  0.90958262156E+02 0.  0.
        -11    1    3    3    0    0  0.77504757835E+00 -0.23672471856E+02  0.14126274769E+02  0.27577858172E+02  0.00000000000E+00 0. -1.
         11    1    3    3    0    0  0.32240825938E+02  0.31031517737E+02  0.26441576845E+03  0.26817554801E+03  0.00000000000E+00 0.  1.
        -13    1    4    4    0    0 -0.62621264406E+01  0.28677644667E+02  0.17306605324E+02  0.34075506145E+02  0.00000000000E+00 0.  1.
         13    1    4    4    0    0 -0.58952125899E+02 -0.18453396526E+02  0.21984500805E+03  0.22835872778E+03  0.00000000000E+00 0. -1.
         21    1    1    2  502  501  0.32198378823E+02 -0.17583294022E+02  0.60621686702E+02  0.70858286221E+02  0.00000000000E+00 0.  1.
<scales pt_clust_5="13000.00000" pt_clust_6="13000.00000" pt_clust_7="13000.00000" pt_clust_8="13000.00000" pt_clust_9="36.68662"></scales>
<clustering>
<clus scale="   36.687">  2  9  1 -1</clus>
<clus scale="   90.958">  7  8 -1 -1</clus>
<clus scale="   93.489">  5  6 -1 -1</clus>
<clus scale="  101.955">  2  7  1 -1</clus>
<clus scale="   36.687">  2  5  1 -1</clus>
</clustering>
</event>
<event>
 9    1  0.6202448E-006  0.1054284E+03  0.7546771E-02  0.1271779E+00
         -1   -1    0    0    0  501 -0.00000000000E+00  0.00000000000E+00  0.45624225046E+02  0.45624225046E+02  0.00000000000E+00 0.  1.
          1   -1    0    0  502    0  0.00000000000E+00 -0.00000000000E+00 -0.37815215798E+03  0.37815215798E+03  0.00000000000E+00 0. -1.
         23    2    1    2    0    0 -0.54672800979E+02  0.20259071470E+02 -0.15429764566E+03  0.19131771227E+03  0.96928625445E+02 0.  0.
         23    2    1    2    0    0  0.70115067885E+01 -0.36399706898E+02 -0.12362599867E+03  0.15820405871E+03  0.91493369999E+02 0.  0.
        -11    1    3    3    0    0  0.18406429903E+02  0.33877924170E+02 -0.58461256397E+02  0.70030199967E+02  0.00000000000E+00 0.  1.
         11    1    3    3    0    0 -0.73079230883E+02 -0.13618852700E+02 -0.95836389261E+02  0.12128751231E+03  0.00000000000E+00 0. -1.
        -13    1    4    4    0    0  0.30560204131E+02 -0.19973145373E+02 -0.58440505175E+01  0.36973038001E+02  0.00000000000E+00 0.  1.
         13    1    4    4    0    0 -0.23548697342E+02 -0.16426561526E+02 -0.11778194816E+03  0.12123102071E+03  0.00000000000E+00 0. -1.
         21    1    1    2  502  501  0.47661294191E+02  0.16140635428E+02 -0.54604288598E+02  0.74254612041E+02  0.00000000000E+00 0. -1.
<scales pt_clust_5="13000.00000" pt_clust_6="13000.00000" pt_clust_7="13000.00000" pt_clust_8="13000.00000" pt_clust_9="50.32017"></scales>
<clustering>
<clus scale="   50.320">  1  9  2 -1</clus>
<clus scale="   91.493">  7  8 -1 -1</clus>
<clus scale="   96.929">  5  6 -1 -1</clus>
<clus scale="  100.454">  2  7  1 -1</clus>
<clus scale="  100.454">  2  5  1 -1</clus>
</clustering>
</event>
<event>
 9    1  0.6202448E-006  0.1883614E+03  0.7546771E-02  0.1189254E+00
         -1   -1    0    0    0  501 -0.00000000000E+00  0.00000000000E+00  0.10418363744E+03  0.10418363744E+03  0.00000000000E+00 0.  1.
          1   -1    0    0  502    0  0.00000000000E+00 -0.00000000000E+00 -0.49507135688E+03  0.49507135688E+03  0.00000000000E+00 0. -1.
         23    2    1    2    0    0 -0.11929538706E+03  0.99890328595E+02 -0.15581782967E+03  0.23871353826E+03  0.92170983445E+02 0.  0.
         23    2    1    2    0    0 -0.33569865707E+02 -0.18319292387E+02 -0.11166107095E+03  0.14781779490E+03  0.88990861137E+02 0.  0.
        -11    1    3    3    0    0 -0.50491419770E+02 -0.97301911336E+01 -0.44535210584E+02  0.68025326693E+02  0.00000000000E+00 0.  1.
         11    1    3    3    0    0 -0.68803967286E+02  0.10962051973E+03 -0.11128261908E+03  0.17068821157E+03  0.00000000000E+00 0. -1.
        -11    1    4    4    0    0 -0.33080269322E+02 -0.39457080495E+02 -0.11538201709E+03  0.12634941744E+03  0.00000000000E+00 0.  1.
         11    1    4    4    0    0 -0.48959638529E+00  0.21137788108E+02  0.37209461355E+01  0.21468377463E+02  0.00000000000E+00 0. -1.
         21    1    1    2  502  501  0.15286525276E+03 -0.81571036208E+02 -0.12340881883E+03  0.21272366115E+03  0.00000000000E+00 0.  1.
<scales pt_clust_5="13000.00000" pt_clust_6="13000.00000" pt_clust_7="13000.00000" pt_clust_8="13000.00000" pt_clust_9="164.26965"></scales>
<clustering>
<clus scale="   88.991">  7  8 -1 -1</clus>
<clus scale="   92.171">  5  6 -1 -1</clus>
<clus scale="   96.860">  2  7  1 -1</clus>
<clus scale="  164.270">  1  9  2 -1</clus>
<clus scale="   96.860">  2  5  1 -1</clus>
</clustering>
</event>
<event>
 9    1  0.6202448E-006  0.1656873E+03  0.7546771E-02  0.1204362E+00
         -2   -1    0    0    0  501 -0.00000000000E+00  0.00000000000E+00  0.11310745663E+03  0.11310745663E+03  0.00000000000E+00 0.  1.
          2   -1    0    0  502    0  0.00000000000E+00 -0.00000000000E+00 -0.40815528986E+03  0.40815528986E+03  0.00000000000E+00 0. -1.
         23    2    1    2    0    0  0.11418658300E+03 -0.58119310541E+01 -0.17199327390E+03  0.22587880415E+03  0.91472365335E+02 0.  0.
         23    2    1    2    0    0  0.30810767684E+02 -0.28295570830E+02 -0.10282558814E+03  0.14506173950E+03  0.93380211801E+02 0.  0.
        -13    1    4    4    0    0  0.25493973201E+02 -0.54584530299E+02 -0.10171516364E+03  0.11821754579E+03  0.00000000000E+00 0.  1.
         13    1    4    4    0    0  0.53167944827E+01  0.26288959468E+02 -0.11104245012E+01  0.26844193713E+02  0.00000000000E+00 0. -1.
        -13    1    3    3    0    0  0.36608099321E+02 -0.19040880548E+02 -0.13058914467E+03  0.13695339636E+03  0.00000000000E+00 0. -1.
         13    1    3    3    0    0  0.77578483675E+02  0.13228949494E+02 -0.41404129223E+02  0.88925407791E+02  0.00000000000E+00 0.  1.
         21    1    1    2  502  501 -0.14499735068E+03  0.34107501885E+02 -0.20228971194E+02  0.15032220283E+03  0.00000000000E+00 0.  1.
<scales pt_clust_5="13000.00000" pt_clust_6="13000.00000" pt_clust_7="13000.00000" pt_clust_8="13000.00000" pt_clust_9="138.14879"></scales>
<clustering>
<clus scale="   91.472">  7  8 -1 -1</clus>
<clus scale="   93.380">  5  6 -1 -1</clus>
<clus scale="  102.322">  2  5  1 -1</clus>
<clus scale="  138.149">  1  9  2 -1</clus>
<clus scale="  102.322">  2  5  1 -1</clus>
</clustering>
</event>
<event>
 9    1  0.6202448E-006  0.9762567E+02  0.7546771E-02  0.1301381E+00
         -1   -1    0    0    0  501 -0.00000000000E+00  0.00000000000E+00  0.17669271134E+03  0.17669271134E+03  0.00000000000E+00 0.  1.
          1   -1    0    0  502    0  0.00000000000E+00 -0.00000000000E+00 -0.15399171506E+03  0.15399171506E+03  0.00000000000E+00 0. -1.
         23    2    1    2    0    0  0.14389051902E+02 -0.30923792015E+02  0.14396915817E+03  0.17434346558E+03  0.92223639927E+02 0.  0.
         23    2    1    2    0    0  0.12767036060E+02  0.24643303704E+02 -0.90621719366E+02  0.11491509829E+03  0.64983799264E+02 0.  0.
        -11    1    3    3    0    0 -0.13655963940E+02  0.26180797434E+02  0.74532185830E+02  0.80168361777E+02  0.00000000000E+00 0. -1.
         11    1    3    3    0    0  0.28045015842E+02 -0.57104589449E+02  0.69436972336E+02  0.94175103806E+02  0.00000000000E+00 0.  1.
        -11    1    4    4    0    0  0.28494255336E+02 -0.56758982430E+01 -0.16767527645E+02  0.33545318472E+02  0.00000000000E+00 0.  1.
         11    1    4    4    0    0 -0.15727219276E+02  0.30319201947E+02 -0.73854191720E+02  0.81369779817E+02  0.00000000000E+00 0. -1.
         21    1    1    2  502  501 -0.27156087963E+02  0.62804883106E+01 -0.30646442524E+02  0.41425862528E+02  0.00000000000E+00 0.  1.
<scales pt_clust_5="13000.00000" pt_clust_6="13000.00000" pt_clust_7="13000.00000" pt_clust_8="13000.00000" pt_clust_9="27.87288"></scales>
<clustering>
<clus scale="   27.873">  2  9  1 -1</clus>
<clus scale="   64.984">  7  8 -1 -1</clus>
<clus scale="   72.446">  2  7  1 -1</clus>
<clus scale="   92.224">  5  6 -1 -1</clus>
<clus scale="   27.873">  2  5  1 -1</clus>
</clustering>
</event>
<event>
 9    1  0.6202448E-006  0.1065966E+03  0.7546771E-02  0.1267645E+00
         -1   -1    0    0    0  501 -0.00000000000E+00  0.00000000000E+00  0.45081188194E+03  0.45081188194E+03  0.00000000000E+00 0.  1.
          1   -1    0    0  502    0  0.00000000000E+00 -0.00000000000E+00 -0.26461845436E+03  0.26461845436E+03  0.00000000000E+00 0. -1.
         23    2    1    2    0    0 -0.31158814221E+02 -0.79517976722E+02  0.22912924224E+03  0.26069938495E+03  0.90387938006E+02 0.  0.
         23    2    1    2    0    0 -0.30868081029E+02  0.44532357751E+02 -0.23055675790E+03  0.25404974244E+03  0.91917809541E+02 0.  0.
        -11    1    3    3    0    0  0.20718275161E+02 -0.30335186137E+02  0.25052511331E+02  0.44464578798E+02  0.00000000000E+00 0. -1.
         11    1    3    3    0    0 -0.51877089382E+02 -0.49182790585E+02  0.20407673091E+03  0.21623480615E+03  0.00000000000E+00 0.  1.
        -13    1    4    4    0    0 -0.35080731634E+02 -0.19328682520E+02 -0.62648097449E+02  0.74357513500E+02  0.00000000000E+00 0.  1.
         13    1    4    4    0    0  0.42126506047E+01  0.63861040270E+02 -0.16790866045E+03  0.17969222894E+03  0.00000000000E+00 0. -1.
         21    1    1    2  502  501  0.62026895250E+02  0.34985618971E+02  0.18762094324E+03  0.20068120891E+03  0.00000000000E+00 0.  1.
<scales pt_clust_5="13000.00000" pt_clust_6="13000.00000" pt_clust_7="13000.00000" pt_clust_8="13000.00000" pt_clust_9="71.21327"></scales>
<clustering>
<clus scale="   71.213">  1  9  2 -1</clus>
<clus scale="   90.388">  5  6 -1 -1</clus>
<clus scale="   91.918">  7  8 -1 -1</clus>
<clus scale="  105.280">  1  5  2 -1</clus>
<clus scale="  106.597">  2  5  1 -1</clus>
</clustering>
</event>
<event>
 9    1  0.6202448E-006  0.9084283E+02  0.7546771E-02  0.1301903E+00
          1   -1    0    0  502    0  0.00000000000E+00  0.00000000000E+00  0.83096976432E+02  0.83096976432E+02  0.00000000000E+00 0. -1.
         -1   -1    0    0    0  501 -0.00000000000E+00 -0.00000000000E+00 -0.27206323734E+03  0.27206323734E+03  0.00000000000E+00 0.  1.
         23    2    1    2    0    0  0.65631205470E+01  0.16548050674E+02 -0.18870329720E+03  0.21004022399E+03  0.90504413083E+02 0.  0.
         23    2    1    2    0    0  0.88365951273E+01  0.30058300684E+02 -0.11454232908E+02  0.94775697793E+02  0.88711028554E+02 0.  0.
        -11    1    4    4    0    0  0.35557579514E+02 -0.11546530962E+01 -0.32873881330E+02  0.48439310053E+02  0.00000000000E+00 0.  1.
         11    1    4    4    0    0 -0.26720984387E+02  0.31212953780E+02  0.21419648421E+02  0.46336387740E+02  0.00000000000E+00 0. -1.
        -13    1    3    3    0    0  0.13163973443E+02 -0.29627637538E+02 -0.13531838500E+03  0.13914795155E+03  0.00000000000E+00 0.  1.
         13    1    3    3    0    0 -0.66008528956E+01  0.46175688212E+02 -0.53384912207E+02  0.70892272443E+02  0.00000000000E+00 0. -1.
         21    1    1    2  502  501 -0.15399715674E+02 -0.46606351358E+02  0.11191269199E+02  0.50344291991E+02  0.00000000000E+00 0.  1.
<scales pt_clust_5="13000.00000" pt_clust_6="13000.00000" pt_clust_7="13000.00000" pt_clust_8="13000.00000" pt_clust_9="49.08465"></scales>
<clustering>
<clus scale="   49.085">  1  9  2 -1</clus>
<clus scale="   88.711">  5  6 -1 -1</clus>
<clus scale="   89.056">  1  5  2 -1</clus>
<clus scale="   90.504">  7  8 -1 -1</clus>
<clus scale="   49.085">  1  5  2 -1</clus>
</clustering>
</event>
<event>
 9    1  0.6202448E-006  0.3330815E+03  0.7546771E-02  0.1094823E+00
          1   -1    0    0  502    0  0.00000000000E+00  0.00000000000E+00  0.16768017098E+04  0.16768017098E+04  0.00000000000E+00 0. -1.
         -1   -1    0    0    0  501 -0.00000000000E+00 -0.00000000000E+00 -0.28075797934E+03  0.28075797934E+03  0.00000000000E+00 0.  1.
         23    2    1    2    0    0 -0.91786599904E+02  0.10670346046E+03 -0.10779249238E+03  0.20141975387E+03  0.95604850492E+02 0.  0.
         23    2    1    2    0    0  0.33754586847E+03 -0.27954605430E+03  0.36092512382E+03  0.57439632492E+03  0.87068842167E+02 0.  0.
        -11    1    3    3    0    0 -0.48979246464E+02  0.11356201723E+03 -0.95800095690E+02  0.15643834784E+03  0.00000000000E+00 0.  1.
         11    1    3    3    0    0 -0.42807353441E+02 -0.68585567689E+01 -0.11992396693E+02  0.44981406025E+02  0.00000000000E+00 0. -1.
        -13    1    4    4    0    0  0.12911179795E+03 -0.65081161042E+02  0.86395911326E+02  0.16843297595E+03  0.00000000000E+00 0.  1.
         13    1    4    4    0    0  0.20843407052E+03 -0.21446489326E+03  0.27452921250E+03  0.40596334897E+03  0.00000000000E+00 0. -1.
         21    1    1    2  502  501 -0.24575926857E+03  0.17284259384E+03  0.11429110990E+04  0.11817436103E+04  0.00000000000E+00 0.  1.
<scales pt_clust_5="13000.00000" pt_clust_6="13000.00000" pt_clust_7="13000.00000" pt_clust_8="13000.00000" pt_clust_9="321.50012"></scales>
<clustering>
<clus scale="   87.069">  7  8 -1 -1</clus>
<clus scale="   95.605">  5  6 -1 -1</clus>
<clus scale="  170.149">  2  5  1 -1</clus>
<clus scale="  321.500">  1  9  2 -1</clus>
<clus scale="  321.500">  1  5  2 -1</clus>
</clustering>
</event>
<event>
 9    1  0.6202448E-006  0.1801113E+03  0.7546771E-02  0.1167785E+00
         -1   -1    0    0    0  501 -0.00000000000E+00  0.00000000000E+00  0.10762797865E+03  0.10762797865E+03  0.00000000000E+00 0.  1.
          1   -1    0    0  502    0  0.00000000000E+00 -0.00000000000E+00 -0.86912529971E+03  0.86912529971E+03  0.00000000000E+00 0. -1.
         23    2    1    2    0    0  0.14073274097E+03  0.39072468143E+02 -0.15483288635E+02  0.17322387820E+03  0.91839085392E+02 0.  0.
         23    2    1    2    0    0 -0.20839999952E+03 -0.30319983158E+02 -0.58921879929E+03  0.63253171301E+03  0.92561943283E+02 0.  0.
        -11    1    4    4    0    0 -0.15189061424E+03  0.17038790338E+02 -0.34305624099E+03  0.37556445992E+03  0.00000000000E+00 0.  1.
         11    1    4    4    0    0 -0.56509385280E+02 -0.47358773496E+02 -0.24616255830E+03  0.25696725309E+03  0.00000000000E+00 0. -1.
        -13    1    3    3    0    0  0.48792407750E+02 -0.18689456258E+02 -0.35021458313E+02  0.62900694524E+02  0.00000000000E+00 0. -1.
         13    1    3    3    0    0  0.91940333217E+02  0.57761924401E+02  0.19538169677E+02  0.11032318368E+03  0.00000000000E+00 0.  1.
         21    1    1    2  502  501  0.67667258555E+02 -0.87524849853E+01 -0.15679523314E+03  0.17099768715E+03  0.00000000000E+00 0. -1.
<scales pt_clust_5="13000.00000" pt_clust_6="13000.00000" pt_clust_7="13000.00000" pt_clust_8="13000.00000" pt_clust_9="68.23096"></scales>
<clustering>
<clus scale="   68.231">  2  9  1 -1</clus>
<clus scale="   91.839">  7  8 -1 -1</clus>
<clus scale="   92.562">  5  6 -1 -1</clus>
<clus scale="  179.741">  1  7  2 -1</clus>
<clus scale="   68.231">  2  5  1 -1</clus>
</clustering>
</event>
<event>
 9    1  0.6202448E-006  0.1170262E+03  0.7546771E-02  0.1249639E+00
          1   -1    0    0  502    0  0.00000000000E+00  0.00000000000E+00  0.65852123167E+02  0.65852123167E+02  0.00000000000E+00 0. -1.
         -1   -1    0    0    0  501 -0.00000000000E+00 -0.00000000000E+00 -0.52912200409E+03  0.52912200409E+03  0.00000000000E+00 0.  1.
         23    2    1    2    0    0 -0.38185410162E+02 -0.73160158314E+02 -0.41078531312E+03  0.42909532309E+03  0.92561809102E+02 0.  0.
         23    2    1    2    0    0 -0.74741912929E+01  0.32113806315E+02 -0.18717009691E+02  0.95808480935E+02  0.87987376798E+02 0.  0.
        -11    1    4    4    0    0 -0.11078329849E+02 -0.24617868929E+02 -0.27212292019E+02  0.38331158341E+02  0.00000000000E+00 0.  1.
         11    1    4    4    0    0  0.36041385565E+01  0.56731675244E+02  0.84952823276E+01  0.57477322594E+02  0.00000000000E+00 0. -1.
        -11    1    3    3    0    0 -0.51474908827E+02 -0.53264389048E+02 -0.39127003562E+03  0.39821979126E+03  0.00000000000E+00 0.  1.
         11    1    3    3    0    0  0.13289498665E+02 -0.19895769267E+02 -0.19515277505E+02  0.30875531827E+02  0.00000000000E+00 0. -1.
         21    1    1    2  502  501  0.45659601455E+02  0.41046352000E+02 -0.33767558107E+02  0.70070323233E+02  0.00000000000E+00 0. -1.
<scales pt_clust_5="13000.00000" pt_clust_6="13000.00000" pt_clust_7="13000.00000" pt_clust_8="13000.00000" pt_clust_9="61.39709"></scales>
<clustering>
<clus scale="   61.397">  1  9  2 -1</clus>
<clus scale="   87.987">  5  6 -1 -1</clus>
<clus scale="   92.562">  7  8 -1 -1</clus>
<clus scale="  113.443">  1  5  2 -1</clus>
<clus scale="   61.397">  1  5  2 -1</clus>
</clustering>
</event>
<event>
 9    1  0.6202448E-006  0.1816077E+03  0.7546771E-02  0.1193500E+00
         -2   -1    0    0    0  501 -0.00000000000E+00  0.00000000000E+00  0.27820100764E+03  0.27820100764E+03  0.00000000000E+00 0.  1.
          2   -1    0    0  502    0  0.00000000000E+00 -0.00000000000E+00 -0.70814514856E+03  0.70814514856E+03  0.00000000000E+00 0. -1.
         23    2    1    2    0    0  0.17149039613E+02  0.35030377094E+02  0.20254315178E+03  0.22518871653E+03  0.90360460597E+02 0.  0.
         23    2    1    2    0    0  0.15235498300E+03 -0.66224200036E+01 -0.53412200537E+03  0.56313129125E+03  0.92599337343E+02 0.  0.
        -11    1    4    4    0    0  0.54461031941E+02 -0.30553151380E+02 -0.32559807173E+03  0.33153220564E+03  0.00000000000E+00 0. -1.
         11    1    4    4    0    0  0.97893951058E+02  0.23930731376E+02 -0.20852393364E+03  0.23159908561E+03  0.00000000000E+00 0.  1.
        -13    1    3    3    0    0 -0.21788240598E+02  0.48480357651E+02  0.81249342733E+02  0.97090309511E+02  0.00000000000E+00 0.  1.
         13    1    3    3    0    0  0.38937280211E+02 -0.13449980557E+02  0.12129380905E+03  0.12809840702E+03  0.00000000000E+00 0. -1.
         21    1    1    2  502  501 -0.16950402261E+03 -0.28407957090E+02 -0.98365287338E+02  0.19802614843E+03  0.00000000000E+00 0. -1.
<scales pt_clust_5="13000.00000" pt_clust_6="13000.00000" pt_clust_7="13000.00000" pt_clust_8="13000.00000" pt_clust_9="156.22652"></scales>
<clustering>
<clus scale="   90.360">  7  8 -1 -1</clus>
<clus scale="   92.599">  5  6 -1 -1</clus>
<clus scale="   98.419">  1  7  2 -1</clus>
<clus scale="  156.227">  1  9  2 -1</clus>
<clus scale="  181.608">  2  5  1 -1</clus>
</clustering>
</event>
<event>
 9    1  0.6202448E-006  0.2712921E+03  0.7546771E-02  0.1135558E+00
          3   -1    0    0  502    0  0.00000000000E+00  0.00000000000E+00  0.17537510884E+03  0.17537510884E+03  0.00000000000E+00 0. -1.
         -3   -1    0    0    0  501 -0.00000000000E+00 -0.00000000000E+00 -0.74108648479E+03  0.74108648479E+03  0.00000000000E+00 0.  1.
         23    2    1    2    0    0 -0.41844770839E+02 -0.50100721061E+02 -0.17340650271E+03  0.20677538216E+03  0.91788759594E+02 0.  0.
         23    2    1    2    0    0  0.26967343909E+03 -0.58995538104E+02 -0.34953906767E+03  0.45348939267E+03  0.85269174810E+02 0.  0.
        -11    1    3    3    0    0 -0.65941569167E+02 -0.12818208268E+02 -0.90182443864E+02  0.11245207952E+03  0.00000000000E+00 0.  1.
         11    1    3    3    0    0  0.24096798328E+02 -0.37282512793E+02 -0.83224058847E+02  0.94323302639E+02  0.00000000000E+00 0. -1.
        -13    1    4    4    0    0  0.20823643057E+03 -0.73842257337E+02 -0.30299879534E+03  0.37499781328E+03  0.00000000000E+00 0.  1.
         13    1    4    4    0    0  0.61437008516E+02  0.14846719232E+02 -0.46540272334E+02  0.78491579397E+02  0.00000000000E+00 0. -1.
         21    1    1    2  502  501 -0.22782866825E+03  0.10909625917E+03 -0.42765805566E+02  0.25619681880E+03  0.00000000000E+00 0. -1.
<scales pt_clust_5="13000.00000" pt_clust_6="13000.00000" pt_clust_7="13000.00000" pt_clust_8="13000.00000" pt_clust_9="257.54331"></scales>
<clustering>
<clus scale="   85.269">  7  8 -1 -1</clus>
<clus scale="   91.789">  5  6 -1 -1</clus>
<clus scale="  112.633">  2  5  1 -1</clus>
<clus scale="  257.543">  1  9  2 -1</clus>
<clus scale="  257.543">  1  5  2 -1</clus>
</clustering>
</event>
<event>
 9    1  0.6202448E-006  0.1357474E+03  0.7546771E-02  0.1221702E+00
         -1   -1    0    0    0  501 -0.00000000000E+00  0.00000000000E+00  0.49178244398E+03  0.49178244398E+03  0.00000000000E+00 0.  1.
          1   -1    0    0  502    0  0.00000000000E+00 -0.00000000000E+00 -0.10802748565E+03  0.10802748565E+03  0.00000000000E+00 0. -1.
         23    2    1    2    0    0  0.58912458660E+02  0.13392177190E+03  0.22507921202E+03  0.28309220256E+03  0.89860028336E+02 0.  0.
         23    2    1    2    0    0 -0.79191744591E+02 -0.32151530830E+02  0.51327696258E+01  0.13139671612E+03  0.99667940370E+02 0.  0.
        -11    1    4    4    0    0 -0.93959590933E+02 -0.51348855159E+02  0.43637924894E+01  0.10716413737E+03  0.00000000000E+00 0. -1.
         11    1    4    4    0    0  0.14767846342E+02  0.19197324328E+02  0.76897713633E+00  0.24232578748E+02  0.00000000000E+00 0.  1.
        -11    1    3    3    0    0  0.61702727357E+02  0.34499971839E+02  0.75173935975E+02  0.10319203104E+03  0.00000000000E+00 0. -1.
         11    1    3    3    0    0 -0.27902686968E+01  0.99421800066E+02  0.14990527604E+03  0.17990017152E+03  0.00000000000E+00 0.  1.
         21    1    1    2  502  501  0.20279285931E+02 -0.10177024107E+03  0.15354297669E+03  0.18532101094E+03  0.00000000000E+00 0. -1.
<scales pt_clust_5="13000.00000" pt_clust_6="13000.00000" pt_clust_7="13000.00000" pt_clust_8="13000.00000" pt_clust_9="103.77105"></scales>
<clustering>
<clus scale="   89.860">  7  8 -1 -1</clus>
<clus scale="   99.668">  5  6 -1 -1</clus>
<clus scale="  103.771">  1  9  2 -1</clus>
<clus scale="  128.719">  1  7  2 -1</clus>
<clus scale="  135.747">  2  5  1 -1</clus>
</clustering>
</event>
<event>
 9    1  0.6202448E-006  0.9185633E+02  0.7546771E-02  0.1300881E+00
          3   -1    0    0  502    0  0.00000000000E+00  0.00000000000E+00  0.12211029017E+03  0.12211029017E+03  0.00000000000E+00 0. -1.
         -3   -1    0    0    0  501 -0.00000000000E+00 -0.00000000000E+00 -0.29050505444E+03  0.29050505444E+03  0.00000000000E+00 0.  1.
         23    2    1    2    0    0  0.80904833220E+01 -0.10326633514E+02 -0.18566482000E+03  0.20567434283E+03  0.87512368456E+02 0.  0.
         23    2    1    2    0    0  0.71897728276E+02 -0.20468128871E+02  0.25107812045E+02  0.12087206541E+03  0.91604728814E+02 0.  0.
        -11    1    3    3    0    0  0.28913082262E+02  0.12908834975E+02 -0.16555233032E+03  0.16855319167E+03  0.00000000000E+00 0.  1.
         11    1    3    3    0    0 -0.20822598940E+02 -0.23235468488E+02 -0.20112489674E+02  0.37121151159E+02  0.00000000000E+00 0. -1.
        -13    1    4    4    0    0  0.35398992752E+02 -0.17631956910E+02  0.58970449558E+02  0.71003440152E+02  0.00000000000E+00 0.  1.
         13    1    4    4    0    0  0.36498735524E+02 -0.28361719601E+01 -0.33862637512E+02  0.49868625262E+02  0.00000000000E+00 0. -1.
         21    1    1    2  502  501 -0.79988211598E+02  0.30794762384E+02 -0.78377563169E+01  0.86068936376E+02  0.00000000000E+00 0. -1.
<scales pt_clust_5="13000.00000" pt_clust_6="13000.00000" pt_clust_7="13000.00000" pt_clust_8="13000.00000" pt_clust_9="85.71133"></scales>
<clustering>
<clus scale="   85.711">  1  9  2 -1</clus>
<clus scale="   87.512">  5  6 -1 -1</clus>
<clus scale="   87.776">  2  5  1 -1</clus>
<clus scale="   91.605">  7  8 -1 -1</clus>
<clus scale="   85.711">  1  5  2 -1</clus>
</clustering>
</event>
<event>
 9    1  0.6202448E-006  0.1060141E+03  0.7546771E-02  0.1268405E+00
         -1   -1    0    0    0  501 -0.00000000000E+00  0.00000000000E+00  0.16922895304E+03  0.16922895304E+03  0.00000000000E+00 0.  1.
          1   -1    0    0  502    0  0.00000000000E+00 -0.00000000000E+00 -0.21541114197E+03  0.21541114197E+03  0.00000000000E+00 0. -1.
         23    2    1    2    0    0  0.33583525884E+02 -0.44722855879E+02  0.10632374964E+03  0.15195460068E+03  0.93045547352E+02 0.  0.
         23    2    1    2    0    0 -0.35911349033E+01  0.40669512428E+02 -0.28405385050E+02  0.10494779240E+03  0.92413569022E+02 0.  0.
        -11    1    3    3    0    0  0.54456133570E+02 -0.44541439309E+02  0.11018284697E+03  0.13072746485E+03  0.00000000000E+00 0.  1.
         11    1    3    3    0    0 -0.20872607686E+02 -0.18141656983E+00 -0.38590973288E+01  0.21227135835E+02  0.00000000000E+00 0. -1.
        -13    1    4    4    0    0 -0.22813292593E+02  0.45513956400E+01 -0.52529881499E+02  0.57450413154E+02  0.00000000000E+00 0. -1.
         13    1    4    4    0    0  0.19222157690E+02  0.36118116788E+02  0.24124496449E+02  0.47497379249E+02  0.00000000000E+00 0.  1.
         21    1    1    2  502  501 -0.29992390981E+02  0.40533434503E+01 -0.12410055352E+03  0.12773770193E+03  0.00000000000E+00 0.  1.
<scales pt_clust_5="13000.00000" pt_clust_6="13000.00000" pt_clust_7="13000.00000" pt_clust_8="13000.00000" pt_clust_9="30.26505"></scales>
<clustering>
<clus scale="   30.265">  2  9  1 -1</clus>
<clus scale="   92.414">  7  8 -1 -1</clus>
<clus scale="   93.046">  5  6 -1 -1</clus>
<clus scale="  105.460">  2  7  1 -1</clus>
<clus scale="   30.265">  2  5  1 -1</clus>
</clustering>
</event>
<event>
 9    1  0.6202448E-006  0.1311497E+03  0.7546771E-02  0.1228428E+00
         -1   -1    0    0    0  501 -0.00000000000E+00  0.00000000000E+00  0.22611556731E+03  0.22611556731E+03  0.00000000000E+00 0.  1.
          1   -1    0    0  502    0  0.00000000000E+00 -0.00000000000E+00 -0.17350333194E+03  0.17350333194E+03  0.00000000000E+00 0. -1.
         23    2    1    2    0    0 -0.65120193027E+02  0.93945215682E+02  0.25839646651E+02  0.14829670785E+03  0.90872895468E+02 0.  0.
         23    2    1    2    0    0  0.19212441234E+02 -0.87072194927E+02 -0.73559809268E+02  0.14077197578E+03  0.80343130377E+02 0.  0.
        -11    1    4    4    0    0  0.37091577365E+02 -0.67913748107E+02 -0.82473213228E+02  0.11309240997E+03  0.00000000000E+00 0.  1.
         11    1    4    4    0    0 -0.17879136130E+02 -0.19158446820E+02  0.89134039593E+01  0.27679565811E+02  0.00000000000E+00 0. -1.
        -13    1    3    3    0    0  0.80615918337E+01  0.57411857796E+02  0.32090941162E+02  0.66264162132E+02  0.00000000000E+00 0.  1.
         13    1    3    3    0    0 -0.73181784861E+02  0.36533357886E+02 -0.62512945110E+01  0.82032545717E+02  0.00000000000E+00 0. -1.
         21    1    1    2  502  501  0.45907751793E+02 -0.68730207548E+01  0.10033239798E+03  0.11055021562E+03  0.00000000000E+00 0.  1.
<scales pt_clust_5="13000.00000" pt_clust_6="13000.00000" pt_clust_7="13000.00000" pt_clust_8="13000.00000" pt_clust_9="46.41939"></scales>
<clustering>
<clus scale="   46.419">  1  9  2 -1</clus>
<clus scale="   80.343">  5  6 -1 -1</clus>
<clus scale="   90.873">  7  8 -1 -1</clus>
<clus scale="  124.086">  2  5  1 -1</clus>
<clus scale="  124.086">  2  5  1 -1</clus>
</clustering>
</event>
<event>
 9    1  0.6202448E-006  0.1015195E+03  0.7546771E-02  0.1278120E+00
          3   -1    0    0  502    0  0.00000000000E+00  0.00000000000E+00  0.74509091976E+02  0.74509091976E+02  0.00000000000E+00 0. -1.
         -3   -1    0    0    0  501 -0.00000000000E+00 -0.00000000000E+00 -0.30262861177E+03  0.30262861177E+03  0.00000000000E+00 0.  1.
         23    2    1    2    0    0 -0.55282053697E+02 -0.55894534575E+00 -0.52485611292E+02  0.12017463927E+03  0.92902027164E+02 0.  0.
         23    2    1    2    0    0  0.25069709465E+02  0.26692128169E+02 -0.24927308497E+02  0.10105216596E+03  0.90825158949E+02 0.  0.
        -11    1    4    4    0    0 -0.30734504879E+02 -0.84397489079E+01 -0.10428507273E+02  0.33534950659E+02  0.00000000000E+00 0. -1.
         11    1    4    4    0    0  0.55804214344E+02  0.35131877076E+02 -0.14498801224E+02  0.67517215304E+02  0.00000000000E+00 0.  1.
        -13    1    3    3    0    0 -0.33326555578E+02 -0.28223831988E+02  0.13176585597E+02  0.45616514628E+02  0.00000000000E+00 0. -1.
         13    1    3    3    0    0 -0.21955498119E+02  0.27664886642E+02 -0.65662196889E+02  0.74558124647E+02  0.00000000000E+00 0.  1.
         21    1    1    2  502  501  0.30212344232E+02 -0.26133182823E+02 -0.15070660000E+03  0.15591089850E+03  0.00000000000E+00 0. -1.
<scales pt_clust_5="13000.00000" pt_clust_6="13000.00000" pt_clust_7="13000.00000" pt_clust_8="13000.00000" pt_clust_9="39.94658"></scales>
<clustering>
<clus scale="   39.947">  2  9  1 -1</clus>
<clus scale="   90.825">  5  6 -1 -1</clus>
<clus scale="   92.902">  7  8 -1 -1</clus>
<clus scale="   99.622">  1  5  2 -1</clus>
<clus scale="   99.622">  1  5  2 -1</clus>
</clustering>
</event>
<event>
 9    1  0.6202448E-006  0.1094307E+03  0.7546771E-02  0.1264081E+00
         -2   -1    0    0    0  501 -0.00000000000E+00  0.00000000000E+00  0.16315932907E+03  0.16315932907E+03  0.00000000000E+00 0.  1.
          2   -1    0    0  502    0  0.00000000000E+00 -0.00000000000E+00 -0.30775386590E+03  0.30775386590E+03  0.00000000000E+00 0. -1.
         23    2    1    2    0    0 -0.35528649637E+02 -0.12793343894E+02  0.10248618000E+03  0.15230981395E+03  0.10615511171E+03 0.  0.
         23    2    1    2    0    0 -0.55489787092E+01 -0.25343931230E+02 -0.53522689537E+02  0.11709275293E+03  0.10086093633E+03 0.  0.
        -13    1    4    4    0    0 -0.13646706010E+02  0.30116993822E+02  0.78439718234E+01  0.33982257072E+02  0.00000000000E+00 0. -1.
         13    1    4    4    0    0  0.80977273005E+01 -0.55460925052E+02 -0.61366661360E+02  0.83110495857E+02  0.00000000000E+00 0.  1.
        -13    1    3    3    0    0 -0.37101184587E+02 -0.43561594416E+02  0.10683758194E+03  0.12119562418E+03  0.00000000000E+00 0.  1.
         13    1    3    3    0    0  0.15725349506E+01  0.30768250522E+02 -0.43514019386E+01  0.31114189773E+02  0.00000000000E+00 0. -1.
         21    1    1    2  502  501  0.41077628346E+02  0.38137275124E+02 -0.19355802729E+03  0.20151062809E+03  0.00000000000E+00 0. -1.
<scales pt_clust_5="13000.00000" pt_clust_6="13000.00000" pt_clust_7="13000.00000" pt_clust_8="13000.00000" pt_clust_9="56.05197"></scales>
<clustering>
<clus scale="   56.052">  2  9  1 -1</clus>
<clus scale="  100.861">  5  6 -1 -1</clus>
<clus scale="  104.303">  2  5  1 -1</clus>
<clus scale="  106.155">  7  8 -1 -1</clus>
<clus scale="   56.052">  2  5  1 -1</clus>
</clustering>
</event>
<event>
 9    1  0.6202448E-006  0.1443168E+03  0.7546771E-02  0.1226154E+00
          1   -1    0    0  502    0  0.00000000000E+00  0.00000000000E+00  0.27739261188E+03  0.27739261188E+03  0.00000000000E+00 0. -1.
         -1   -1    0    0    0  501 -0.00000000000E+00 -0.00000000000E+00 -0.23767342777E+03  0.23767342777E+03  0.00000000000E+00 0.  1.
         23    2    1    2    0    0  0.47531272188E+02  0.20644236495E+02 -0.99445505420E+02  0.13935601251E+03  0.82736227490E+02 0.  0.
         23    2    1    2    0    0  0.42349393264E+02 -0.91202676749E+02 -0.57785689861E+02  0.14801180699E+03  0.91961457681E+02 0.  0.
        -11    1    3    3    0    0 -0.18154562322E+02  0.86298608226E+01 -0.65183017523E+00  0.20111874937E+02  0.00000000000E+00 0. -1.
         11    1    3    3    0    0  0.65685834510E+02  0.12014375672E+02 -0.98793675244E+02  0.11924413758E+03  0.00000000000E+00 0.  1.
        -11    1    4    4    0    0  0.62478952275E+02 -0.41534811921E+02 -0.57323423553E+02  0.94417874190E+02  0.00000000000E+00 0.  1.
         11    1    4    4    0    0 -0.20129559011E+02 -0.49667864828E+02 -0.46226630768E+00  0.53593932797E+02  0.00000000000E+00 0. -1.
         21    1    1    2  502  501 -0.89880665452E+02  0.70558440254E+02  0.19695037940E+03  0.22769822015E+03  0.00000000000E+00 0. -1.
<scales pt_clust_5="13000.00000" pt_clust_6="13000.00000" pt_clust_7="13000.00000" pt_clust_8="13000.00000" pt_clust_9="111.22248"></scales>
<clustering>
<clus scale="   82.736">  5  6 -1 -1</clus>
<clus scale="   91.961">  7  8 -1 -1</clus>
<clus scale="   97.625">  2  5  1 -1</clus>
<clus scale="  111.222">  1  9  2 -1</clus>
<clus scale="  111.222">  1  5  2 -1</clus>
</clustering>
</event>
<event>
 9    1  0.6202448E-006  0.1119024E+03  0.7546771E-02  0.1262116E+00
         -1   -1    0    0    0  501 -0.00000000000E+00  0.00000000000E+00  0.48452525466E+03  0.48452525466E+03  0.00000000000E+00 0.  1.
          1   -1    0    0  502    0  0.00000000000E+00 -0.00000000000E+00 -0.13879092280E+03  0.13879092280E+03  0.00000000000E+00 0. -1.
         23    2    1    2    0    0 -0.89290285890E+02  0.55237986700E+01 -0.25705947165E+02  0.13056909250E+03  0.91565412092E+02 0.  0.
         23    2    1    2    0    0 -0.15489077739E+01 -0.13922937097E+02 -0.62014619964E+01  0.10424278743E+03  0.10311087870E+03 0.  0.
        -11    1    4    4    0    0  0.43335985202E+02 -0.27586512522E+02  0.13870640343E+02  0.53211069807E+02  0.00000000000E+00 0. -1.
         11    1    4    4    0    0 -0.44884892975E+02  0.13663575425E+02 -0.20072102339E+02  0.51031717619E+02  0.00000000000E+00 0.  1.
        -13    1    3    3    0    0 -0.76678731143E+02  0.33299942034E+02  0.93271738063E+01  0.84116051502E+02  0.00000000000E+00 0.  1.
         13    1    3    3    0    0 -0.12611554748E+02 -0.27776143364E+02 -0.35033120972E+02  0.46453041002E+02  0.00000000000E+00 0. -1.
         21    1    1    2  502  501  0.90839193664E+02  0.83991384268E+01  0.37764174102E+03  0.38850429752E+03  0.00000000000E+00 0.  1.
<scales pt_clust_5="13000.00000" pt_clust_6="13000.00000" pt_clust_7="13000.00000" pt_clust_8="13000.00000" pt_clust_9="91.22667"></scales>
<clustering>
<clus scale="   91.227">  1  9  2 -1</clus>
<clus scale="   91.565">  7  8 -1 -1</clus>
<clus scale="  101.363">  1  7  2 -1</clus>
<clus scale="  103.111">  5  6 -1 -1</clus>
<clus scale="  111.902">  2  5  1 -1</clus>
</clustering>
</event>
<event>
 9    1  0.6202448E-006  0.2288534E+03  0.7546771E-02  0.1161490E+00
          1   -1    0    0  502    0  0.00000000000E+00  0.00000000000E+00  0.36588234413E+03  0.36588234413E+03  0.00000000000E+00 0. -1.
         -1   -1    0    0    0  501 -0.00000000000E+00 -0.00000000000E+00 -0.35422529159E+03  0.35422529159E+03  0.00000000000E+00 0.  1.
         23    2    1    2    0    0  0.34452115016E+02 -0.53877770207E+02 -0.12658855425E+03  0.16214732749E+03  0.78596001132E+02 0.  0.
         23    2    1    2    0    0  0.27488619198E+02 -0.15931116850E+03 -0.11721011790E+03  0.21951709967E+03  0.91180440407E+02 0.  0.
        -11    1    3    3    0    0  0.18139592684E+02  0.18838468920E+02 -0.41335828516E+02  0.48914041472E+02  0.00000000000E+00 0.  1.
         11    1    3    3    0    0  0.16312522331E+02 -0.72716239128E+02 -0.85252725735E+02  0.11323328602E+03  0.00000000000E+00 0. -1.
        -13    1    4    4    0    0  0.17649047742E+02 -0.31445524578E+02 -0.77151536019E+02  0.85162605716E+02  0.00000000000E+00 0.  1.
         13    1    4    4    0    0  0.98395714554E+01 -0.12786564392E+03 -0.40058581884E+02  0.13435449395E+03  0.00000000000E+00 0. -1.
         21    1    1    2  502  501 -0.61940734213E+02  0.21318893871E+03  0.25545572470E+03  0.33844320857E+03  0.00000000000E+00 0. -1.
<scales pt_clust_5="13000.00000" pt_clust_6="13000.00000" pt_clust_7="13000.00000" pt_clust_8="13000.00000" pt_clust_9="209.90480"></scales>
<clustering>
<clus scale="   78.596">  5  6 -1 -1</clus>
<clus scale="   91.180">  7  8 -1 -1</clus>
<clus scale="  101.327">  2  5  1 -1</clus>
<clus scale="  209.905">  1  9  2 -1</clus>
<clus scale="  209.905">  1  5  2 -1</clus>
</clustering>
</event>
<event>
 9    1  0.6202448E-006  0.1199886E+03  0.7546771E-02  0.1243640E+00
         -1   -1    0    0    0  501 -0.00000000000E+00  0.00000000000E+00  0.11274397252E+03  0.11274397252E+03  0.00000000000E+00 0.  1.
          1   -1    0    0  502    0  0.00000000000E+00 -0.00000000000E+00 -0.27071661393E+03  0.27071661393E+03  0.00000000000E+00 0. -1.
         23    2    1    2    0    0 -0.58959309429E+02 -0.28953570059E+02 -0.89654319387E+02  0.14424810989E+03  0.91951676623E+02 0.  0.
         23    2    1    2    0    0  0.80461052350E+02  0.35804162545E+02 -0.12538243376E+03  0.17784824908E+03  0.90295769568E+02 0.  0.
        -11    1    4    4    0    0  0.47274759523E+02 -0.15110045022E+02 -0.15012234434E+02  0.51851552834E+02  0.00000000000E+00 0.  1.
         11    1    4    4    0    0  0.33186292827E+02  0.50914207567E+02 -0.11037019933E+03  0.12599669624E+03  0.00000000000E+00 0. -1.
        -11    1    3    3    0    0  0.24263962953E+02 -0.15128215659E+02 -0.20939021389E+02  0.35440731143E+02  0.00000000000E+00 0.  1.
         11    1    3    3    0    0 -0.83223272382E+02 -0.13825354401E+02 -0.68715297997E+02  0.10880737874E+03  0.00000000000E+00 0. -1.
         21    1    1    2  502  501 -0.21501742921E+02 -0.68505924858E+01  0.57064111746E+02  0.61364227490E+02  0.00000000000E+00 0.  1.
<scales pt_clust_5="13000.00000" pt_clust_6="13000.00000" pt_clust_7="13000.00000" pt_clust_8="13000.00000" pt_clust_9="22.56669"></scales>
<clustering>
<clus scale="   22.567">  1  9  2 -1</clus>
<clus scale="   90.296">  5  6 -1 -1</clus>
<clus scale="   91.952">  7  8 -1 -1</clus>
<clus scale="  118.724">  2  5  1 -1</clus>
<clus scale="  118.724">  2  5  1 -1</clus>
</clustering>
</event>
<event>
 9    1  0.6202448E-006  0.1673726E+03  0.7546771E-02  0.1180995E+00
          1   -1    0    0  502    0  0.00000000000E+00  0.00000000000E+00  0.92043998750E+03  0.92043998750E+03  0.00000000000E+00 0. -1.
         -1   -1    0    0    0  501 -0.00000000000E+00 -0.00000000000E+00 -0.78637061781E+02  0.78637061781E+02  0.00000000000E+00 0.  1.
         23    2    1    2    0    0 -0.10011232147E+03  0.10877717415E+03  0.97155876912E+02  0.19981350466E+03  0.92904368574E+02 0.  0.
         23    2    1    2    0    0  0.10942490499E+03 -0.84151058893E+02  0.75360822700E+03  0.77145217142E+03  0.90320996702E+02 0.  0.
        -11    1    4    4    0    0 -0.10166485205E+02 -0.22872206143E+02  0.61121043313E+02  0.66047537206E+02  0.00000000000E+00 0.  1.
         11    1    4    4    0    0  0.11959139020E+03 -0.61278852749E+02  0.69248718368E+03  0.70540463421E+03  0.00000000000E+00 0. -1.
        -13    1    3    3    0    0 -0.54600552518E+02  0.82764902265E+02  0.12082197718E+02  0.99886079530E+02  0.00000000000E+00 0.  1.
         13    1    3    3    0    0 -0.45511768952E+02  0.26012271887E+02  0.85073679194E+02  0.99927425132E+02  0.00000000000E+00 0. -1.
         21    1    1    2  502  501 -0.93125835227E+01 -0.24626115258E+02 -0.89611781908E+01  0.27811373198E+02  0.00000000000E+00 0. -1.
<scales pt_clust_5="13000.00000" pt_clust_6="13000.00000" pt_clust_7="13000.00000" pt_clust_8="13000.00000" pt_clust_9="26.32812"></scales>
<clustering>
<clus scale="   26.328">  2  9  1 -1</clus>
<clus scale="   90.321">  5  6 -1 -1</clus>
<clus scale="   92.904">  7  8 -1 -1</clus>
<clus scale="  165.953">  1  5  2 -1</clus>
<clus scale="  165.953">  1  5  2 -1</clus>
</clustering>
</event>
<event>
 9    1  0.6202448E-006  0.1436750E+03  0.7546771E-02  0.1208699E+00
          1   -1    0    0  502    0  0.00000000000E+00  0.00000000000E+00  0.18342247064E+04  0.18342247064E+04  0.00000000000E+00 0. -1.
         -1   -1    0    0    0  501 -0.00000000000E+00 -0.00000000000E+00 -0.19652845855E+02  0.19652845855E+02  0.00000000000E+00 0.  1.
         23    2    1    2    0    0  0.69999875963E+02  0.13278879048E+03  0.81126669150E+03  0.83020847720E+03  0.92518243434E+02 0.  0.
         23    2    1    2    0    0 -0.66703387806E+02 -0.57192244338E+02  0.66867562022E+03  0.68059089218E+03  0.91414346108E+02 0.  0.
        -13    1    4    4    0    0 -0.24169648554E+02  0.24485936655E+02  0.16176440117E+03  0.16538275149E+03  0.00000000000E+00 0.  1.
         13    1    4    4    0    0 -0.42533739252E+02 -0.81678180993E+02  0.50691121905E+03  0.51520814068E+03  0.00000000000E+00 0. -1.
        -13    1    3    3    0    0  0.83176140409E+02  0.60544051541E+02  0.47890951199E+03  0.48983484276E+03  0.00000000000E+00 0. -1.
         13    1    3    3    0    0 -0.13176264446E+02  0.72244738935E+02  0.33235717951E+03  0.34037363444E+03  0.00000000000E+00 0.  1.
         21    1    1    2  502  501 -0.32964881570E+01 -0.75596546139E+02  0.33462954883E+03  0.34307818289E+03  0.00000000000E+00 0. -1.
<scales pt_clust_5="13000.00000" pt_clust_6="13000.00000" pt_clust_7="13000.00000" pt_clust_8="13000.00000" pt_clust_9="75.66839"></scales>
<clustering>
<clus scale="   75.668">  2  9  1 -1</clus>
<clus scale="   91.414">  5  6 -1 -1</clus>
<clus scale="   92.518">  7  8 -1 -1</clus>
<clus scale="  142.967">  1  5  2 -1</clus>
<clus scale="  142.967">  1  5  2 -1</clus>
</clustering>
</event>
<event>
 9    1  0.6202448E-006  0.1825021E+03  0.7546771E-02  0.1190237E+00
          1   -1    0    0  502    0  0.00000000000E+00  0.00000000000E+00  0.70832176180E+03  0.70832176180E+03  0.00000000000E+00 0. -1.
         -1   -1    0    0    0  501 -0.00000000000E+00 -0.00000000000E+00 -0.73546580661E+02  0.73546580661E+02  0.00000000000E+00 0.  1.
         23    2    1    2    0    0  0.23374770814E+02  0.44061391036E+02  0.91787527778E+02  0.13886516664E+03  0.91492066103E+02 0.  0.
         23    2    1    2    0    0 -0.17092128593E+03 -0.26315640400E+02  0.32389314481E+03  0.37826313453E+03  0.90937510247E+02 0.  0.
        -11    1    3    3    0    0  0.37332144970E+02  0.61614386983E+02  0.91474579680E+02  0.11643719534E+03  0.00000000000E+00 0.  1.
         11    1    3    3    0    0 -0.13957374156E+02 -0.17552995948E+02  0.31294809818E+00  0.22427971299E+02  0.00000000000E+00 0. -1.
        -13    1    4    4    0    0 -0.96340099244E+02  0.30661163991E+02  0.18048825463E+03  0.20687564322E+03  0.00000000000E+00 0.  1.
         13    1    4    4    0    0 -0.74581186689E+02 -0.56976804392E+02  0.14340489018E+03  0.17138749130E+03  0.00000000000E+00 0. -1.
         21    1    1    2  502  501  0.14754651512E+03 -0.17745750636E+02  0.21909450855E+03  0.26474004130E+03  0.00000000000E+00 0.  1.
<scales pt_clust_5="13000.00000" pt_clust_6="13000.00000" pt_clust_7="13000.00000" pt_clust_8="13000.00000" pt_clust_9="158.23205"></scales>
<clustering>
<clus scale="   90.938">  7  8 -1 -1</clus>
<clus scale="   91.492">  5  6 -1 -1</clus>
<clus scale="  104.205">  2  5  1 -1</clus>
<clus scale="  158.232">  1  9  2 -1</clus>
<clus scale="  158.232">  1  5  2 -1</clus>
</clustering>
</event>
<event>
 9    1  0.6202448E-006  0.1378978E+03  0.7546771E-02  0.1216682E+00
          1   -1    0    0  502    0  0.00000000000E+00  0.00000000000E+00  0.30082050399E+03  0.30082050399E+03  0.00000000000E+00 0. -1.
         -1   -1    0    0    0  501 -0.00000000000E+00 -0.00000000000E+00 -0.10899460733E+03  0.10899460733E+03  0.00000000000E+00 0.  1.
         23    2    1    2    0    0  0.75094658435E+01 -0.12022998290E+03 -0.40016069903E+01  0.15087583723E+03  0.90751664102E+02 0.  0.
         23    2    1    2    0    0 -0.16611892037E+02  0.72828977007E+02  0.10630686421E+03  0.15723551600E+03  0.88554182659E+02 0.  0.
        -11    1    4    4    0    0  0.29415292919E+02  0.37219233960E+02  0.16509776214E+02  0.50230504126E+02  0.00000000000E+00 0.  1.
         11    1    4    4    0    0 -0.46027184956E+02  0.35609743047E+02  0.89797087994E+02  0.10700501188E+03  0.00000000000E+00 0. -1.
        -11    1    3    3    0    0  0.46192462461E+02 -0.61519087982E+02  0.14243438051E+02  0.78238208708E+02  0.00000000000E+00 0.  1.
         11    1    3    3    0    0 -0.38682996617E+02 -0.58710894919E+02 -0.18245045042E+02  0.72637628527E+02  0.00000000000E+00 0. -1.
         21    1    1    2  502  501  0.91024261933E+01  0.47401005894E+02  0.89520639437E+02  0.10170375808E+03  0.00000000000E+00 0. -1.
<scales pt_clust_5="13000.00000" pt_clust_6="13000.00000" pt_clust_7="13000.00000" pt_clust_8="13000.00000" pt_clust_9="48.26706"></scales>
<clustering>
<clus scale="   48.267">  1  9  2 -1</clus>
<clus scale="   88.554">  5  6 -1 -1</clus>
<clus scale="   90.752">  7  8 -1 -1</clus>
<clus scale="  136.462">  1  5  2 -1</clus>
<clus scale="   48.267">  1  5  2 -1</clus>
</clustering>
</event>
<event>
 9    1  0.6202448E-006  0.1064613E+03  0.7546771E-02  0.1269735E+00
          2   -1    0    0  502    0  0.00000000000E+00  0.00000000000E+00  0.22436190879E+03  0.22436190879E+03  0.00000000000E+00 0. -1.
         -2   -1    0    0    0  501 -0.00000000000E+00 -0.00000000000E+00 -0.18235052984E+03  0.18235052984E+03  0.00000000000E+00 0.  1.
         23    2    1    2    0    0 -0.37623319843E+02 -0.34179810658E+02 -0.10157648215E+03  0.14770869985E+03  0.94426186159E+02 0.  0.
         23    2    1    2    0    0  0.77523644428E+02 -0.42287158685E+02  0.10921248383E+03  0.16615493769E+03  0.88780501568E+02 0.  0.
        -11    1    4    4    0    0  0.48898520248E+02 -0.69231990769E+02  0.63779969244E+02  0.10607553113E+03  0.00000000000E+00 0. -1.
         11    1    4    4    0    0  0.28625124180E+02  0.26944832084E+02  0.45432514589E+02  0.60079406557E+02  0.00000000000E+00 0.  1.
        -11    1    3    3    0    0  0.85767792630E+01  0.18192245909E+02  0.45916854620E+01  0.20630136430E+02  0.00000000000E+00 0.  1.
         11    1    3    3    0    0 -0.46200099106E+02 -0.52372056567E+02 -0.10616816761E+03  0.12707856342E+03  0.00000000000E+00 0. -1.
         21    1    1    2  502  501 -0.39900324586E+02  0.76466969343E+02  0.34375377263E+02  0.92848801093E+02  0.00000000000E+00 0. -1.
<scales pt_clust_5="13000.00000" pt_clust_6="13000.00000" pt_clust_7="13000.00000" pt_clust_8="13000.00000" pt_clust_9="86.25099"></scales>
<clustering>
<clus scale="   86.251">  1  9  2 -1</clus>
<clus scale="   88.781">  5  6 -1 -1</clus>
<clus scale="   94.426">  7  8 -1 -1</clus>
<clus scale="  101.487">  1  5  2 -1</clus>
<clus scale="   86.251">  1  5  2 -1</clus>
</clustering>
</event>
<event>
 9    1  0.6202448E-006  0.1175923E+03  0.7546771E-02  0.1249273E+00
         -2   -1    0    0    0  501 -0.00000000000E+00  0.00000000000E+00  0.13500834986E+03  0.13500834986E+03  0.00000000000E+00 0.  1.
          2   -1    0    0  502    0  0.00000000000E+00 -0.00000000000E+00 -0.20252216681E+03  0.20252216681E+03  0.00000000000E+00 0. -1.
         23    2    1    2    0    0 -0.58786568889E+02 -0.49857263441E+02  0.77352521551E+02  0.13831370192E+03  0.84886159945E+02 0.  0.
         23    2    1    2    0    0  0.57497005749E+02  0.26084611821E+02 -0.10530653038E+03  0.15304560774E+03  0.91362903096E+02 0.  0.
        -11    1    3    3    0    0 -0.29698777036E+02 -0.64361659857E+02  0.78529314162E+02  0.10578891152E+03  0.00000000000E+00 0.  1.
         11    1    3    3    0    0 -0.29087791853E+02  0.14504396416E+02 -0.11767926108E+01  0.32524790409E+02  0.00000000000E+00 0. -1.
        -11    1    4    4    0    0 -0.99970934919E+01 -0.20916130903E+02 -0.57029192601E+01  0.23873619297E+02  0.00000000000E+00 0.  1.
         11    1    4    4    0    0  0.67494099241E+02  0.47000742723E+02 -0.99603611121E+02  0.12917198844E+03  0.00000000000E+00 0. -1.
         21    1    1    2  502  501  0.12895631401E+01  0.23772651621E+02 -0.39559808120E+02  0.46171207009E+02  0.00000000000E+00 0. -1.
<scales pt_clust_5="13000.00000" pt_clust_6="13000.00000" pt_clust_7="13000.00000" pt_clust_8="13000.00000" pt_clust_9="23.80760"></scales>
<clustering>
<clus scale="   23.808">  2  9  1 -1</clus>
<clus scale="   84.886">  5  6 -1 -1</clus>
<clus scale="   91.363">  7  8 -1 -1</clus>
<clus scale="  112.634">  1  5  2 -1</clus>
<clus scale="   23.808">  2  5  1 -1</clus>
</clustering>
</event>
<event>
 9    1  0.6202448E-006  0.2846375E+03  0.7546771E-02  0.1098115E+00
         -1   -1    0    0    0  501 -0.00000000000E+00  0.00000000000E+00  0.48575898834E+03  0.48575898834E+03  0.00000000000E+00 0.  1.
          1   -1    0    0  502    0  0.00000000000E+00 -0.00000000000E+00 -0.44275032696E+03  0.44275032696E+03  0.00000000000E+00 0. -1.
         23    2    1    2    0    0 -0.21575840473E+03  0.99694908139E+02  0.17897856218E+03  0.30761145235E+03  0.78107080193E+02 0.  0.
         23    2    1    2    0    0  0.98839809874E+01 -0.30175729882E+03 -0.45180430751E+02  0.31848057516E+03  0.90738332375E+02 0.  0.
        -11    1    3    3    0    0 -0.15166569493E+03  0.53563746953E+02  0.15896940469E+03  0.22614780484E+03  0.00000000000E+00 0.  1.
         11    1    3    3    0    0 -0.64092709803E+02  0.46131161186E+02  0.20009157486E+02  0.81463647510E+02  0.00000000000E+00 0. -1.
        -11    1    4    4    0    0  0.40304062026E+02 -0.92451295129E+02 -0.34912338083E+02  0.10672642942E+03  0.00000000000E+00 0. -1.
         11    1    4    4    0    0 -0.30420081038E+02 -0.20930600369E+03 -0.10268092668E+02  0.21175414574E+03  0.00000000000E+00 0.  1.
         21    1    1    2  502  501  0.20587442375E+03  0.20206239068E+03 -0.90789470052E+02  0.30241728779E+03  0.00000000000E+00 0.  1.
<scales pt_clust_5="13000.00000" pt_clust_6="13000.00000" pt_clust_7="13000.00000" pt_clust_8="13000.00000" pt_clust_9="269.78705"></scales>
<clustering>
<clus scale="   78.107">  5  6 -1 -1</clus>
<clus scale="   90.738">  7  8 -1 -1</clus>
<clus scale="  250.183">  1  5  2 -1</clus>
<clus scale="  269.787">  2  9  1 -1</clus>
<clus scale="  269.787">  2  5  1 -1</clus>
</clustering>
</event>
<event>
 9    1  0.6202448E-006  0.1711814E+03  0.7546771E-02  0.1187979E+00
          1   -1    0    0  502    0  0.00000000000E+00  0.00000000000E+00  0.59807456783E+03  0.59807456783E+03  0.00000000000E+00 0. -1.
         -1   -1    0    0    0  501 -0.00000000000E+00 -0.00000000000E+00 -0.35783060439E+03  0.35783060439E+03  0.00000000000E+00 0.  1.
         23    2    1    2    0    0 -0.70954660024E+02 -0.11149198130E+03  0.43977088852E+03  0.46890257746E+03  0.94900827621E+02 0.  0.
         23    2    1    2    0    0 -0.66532093585E+02  0.68768193629E+02  0.92241539539E+02  0.16164622644E+03  0.92007700631E+02 0.  0.
        -11    1    3    3    0    0  0.20395879364E+02 -0.10227341453E+02  0.35058136902E+02  0.41828977650E+02  0.00000000000E+00 0.  1.
         11    1    3    3    0    0 -0.91350539388E+02 -0.10126463985E+03  0.40471275162E+03  0.42707359981E+03  0.00000000000E+00 0. -1.
        -13    1    4    4    0    0 -0.16012337141E+02  0.34289921706E+02 -0.12921849759E+02  0.39989597054E+02  0.00000000000E+00 0.  1.
         13    1    4    4    0    0 -0.50519756444E+02  0.34478271923E+02  0.10516338930E+03  0.12165662939E+03  0.00000000000E+00 0. -1.
         21    1    1    2  502  501  0.13748675361E+03  0.42723787675E+02 -0.29176846463E+03  0.32535636832E+03  0.00000000000E+00 0.  1.
<scales pt_clust_5="13000.00000" pt_clust_6="13000.00000" pt_clust_7="13000.00000" pt_clust_8="13000.00000" pt_clust_9="142.46716"></scales>
<clustering>
<clus scale="   92.008">  7  8 -1 -1</clus>
<clus scale="   94.901">  5  6 -1 -1</clus>
<clus scale="  132.744">  1  7  2 -1</clus>
<clus scale="  142.467">  2  9  1 -1</clus>
<clus scale="  132.744">  1  5  2 -1</clus>
</clustering>
</event>
