<event>
 9    1  0.7719620E-005  0.1763039E+03  0.7546771E-02  0.1196092E+00
          1   -1    0    0  502    0 -0.00000000000E+00  0.00000000000E+00  0.29343370142E+03  0.29343370142E+03  0.00000000000E+00 0. -1.
         21   -1    0    0  501  502  0.00000000000E+00 -0.00000000000E+00 -0.10000931371E+04  0.10000931371E+04  0.00000000000E+00 0. -1.
        -24    2    1    2    0    0  0.84615642361E+01 -0.62916674170E+02 -0.87362668153E+02  0.13401882355E+03  0.79364370607E+02 0.  0.
         23    2    1    2    0    0  0.13456949816E+03  0.54560649251E+01  0.23882640513E+03  0.28765080998E+03  0.86984011261E+02 0.  0.
         13    1    3    3    0    0 -0.93487595371E+01 -0.77826309191E+02 -0.68435108336E+02  0.10405622403E+03  0.00000000000E+00 0. -1.
        -14    1    3    3    0    0  0.17810323773E+02  0.14909635021E+02 -0.18927559816E+02  0.29962599520E+02  0.00000000000E+00 0.  1.
        -13    1    4    4    0    0  0.49710389436E+00  0.22907134891E+02  0.53924645386E+02  0.58590539520E+02  0.00000000000E+00 0.  1.
         13    1    4    4    0    0  0.13407239426E+03 -0.17451069965E+02  0.18490175975E+03  0.22906027046E+03  0.00000000000E+00 0. -1.
          2    1    1    2  501    0 -0.14303106239E+03  0.57460609245E+02 -0.85812317271E+03  0.87185720503E+03  0.00000000000E+00 0. -1.
<scales pt_clust_5="13000.00000" pt_clust_6="13000.00000" pt_clust_7="13000.00000" pt_clust_8="13000.00000" pt_clust_9="153.35205"></scales>
<clustering>
<clus scale="   79.364">  5  6 -1 -1</clus>
<clus scale="   86.984">  7  8 -1 -1</clus>
<clus scale="  101.631">  1  5  2 -1</clus>
<clus scale="  153.352">  2  9  1 -1</clus>
<clus scale="  153.352">  2  5  1 -1</clus>
</clustering>
</event>
<event>
 9    1  0.7719620E-005  0.3068770E+03  0.7546771E-02  0.1089038E+00
         21   -1    0    0  501  502  0.00000000000E+00  0.00000000000E+00  0.43744879720E+03  0.43744879720E+03  0.00000000000E+00 0. -1.
          3   -1    0    0  502    0 -0.00000000000E+00 -0.00000000000E+00 -0.67812123404E+03  0.67812123404E+03  0.00000000000E+00 0. -1.
         23    2    1    2    0    0  0.14641897814E+02 -0.23605401174E+03 -0.53917690063E+02  0.25904298458E+03  0.90886021629E+02 0.  0.
        -24    2    1    2    0    0  0.23235626320E+03  0.36329269466E+03 -0.32499033830E+03  0.54619359254E+03  0.82083527585E+02 0.  0.
         11    1    4    4    0    0  0.16472397635E+03  0.24059371656E+03 -0.26418758120E+03  0.39346461454E+03  0.00000000000E+00 0. -1.
        -12    1    4    4    0    0  0.67632286849E+02  0.12269897809E+03 -0.60802757107E+02  0.15272897800E+03  0.00000000000E+00 0.  1.
        -13    1    3    3    0    0  0.33447429175E+02 -0.22090967888E+03 -0.30665749064E+02  0.22552207189E+03  0.00000000000E+00 0. -1.
         13    1    3    3    0    0 -0.18805531361E+02 -0.15144332857E+02 -0.23251940999E+02  0.33520912692E+02  0.00000000000E+00 0.  1.
          4    1    1    2  501    0 -0.24699816102E+03 -0.12723868292E+03  0.13823559153E+03  0.31033345411E+03  0.00000000000E+00 0. -1.
<scales pt_clust_5="13000.00000" pt_clust_6="13000.00000" pt_clust_7="13000.00000" pt_clust_8="13000.00000" pt_clust_9="295.69547"></scales>
<clustering>
<clus scale="   82.084">  5  6 -1 -1</clus>
<clus scale="   90.886">  7  8 -1 -1</clus>
<clus scale="  253.370">  2  7  1 -1</clus>
<clus scale="  295.695">  1  9  2 -1</clus>
<clus scale="  295.695">  1  5  2 -1</clus>
</clustering>
</event>
<event>
 9    1  0.7719620E-005  0.1618710E+03  0.7546771E-02  0.1208031E+00
         -2   -1    0    0    0  501 -0.00000000000E+00  0.00000000000E+00  0.56766530101E+03  0.56766530101E+03  0.00000000000E+00 0.  1.
         21   -1    0    0  501  502  0.00000000000E+00 -0.00000000000E+00 -0.10142377530E+03  0.10142377530E+03  0.00000000000E+00 0.  1.
         23    2    1    2    0    0  0.43120748237E+02  0.66240966679E+01  0.33764105640E+01  0.10146506598E+03  0.91544971909E+02 0.  0.
        -24    2    1    2    0    0 -0.15325503948E+03 -0.71709229641E+02  0.34818993894E+03  0.39582170336E+03  0.82518279989E+02 0.  0.
         13    1    4    4    0    0 -0.41396426909E+02 -0.16836530356E+01  0.29418754411E+02  0.50813009746E+02  0.00000000000E+00 0. -1.
        -14    1    4    4    0    0 -0.11185861257E+03 -0.70025576605E+02  0.31877118453E+03  0.34500869361E+03  0.00000000000E+00 0.  1.
        -13    1    3    3    0    0 -0.59917325308E+00 -0.37425101668E+02  0.10808121985E+02  0.38959116318E+02  0.00000000000E+00 0.  1.
         13    1    3    3    0    0  0.43719921490E+02  0.44049198336E+02 -0.74317114210E+01  0.62505949666E+02  0.00000000000E+00 0. -1.
         -1    1    1    2    0  502  0.11013429125E+03  0.65085132973E+02  0.11467517621E+03  0.17180230697E+03  0.00000000000E+00 0.  1.
<scales pt_clust_5="13000.00000" pt_clust_6="13000.00000" pt_clust_7="13000.00000" pt_clust_8="13000.00000" pt_clust_9="139.25853"></scales>
<clustering>
<clus scale="   82.518">  5  6 -1 -1</clus>
<clus scale="   91.545">  7  8 -1 -1</clus>
<clus scale="  101.409">  1  7  2 -1</clus>
<clus scale="  139.259">  2  9  1 -1</clus>
<clus scale="  139.259">  2  5  1 -1</clus>
</clustering>
</event>
<event>
 9    1  0.7719620E-005  0.1387806E+03  0.7546771E-02  0.1233084E+00
         21   -1    0    0  501  502  0.00000000000E+00  0.00000000000E+00  0.54656831731E+02  0.54656831731E+02  0.00000000000E+00 0. -1.
          1   -1    0    0  502    0 -0.00000000000E+00 -0.00000000000E+00 -0.58201920466E+03  0.58201920466E+03  0.00000000000E+00 0. -1.
         23    2    1    2    0    0  0.21657875276E+02  0.18880016159E+02 -0.19406065503E+03  0.21612476377E+03  0.90690997972E+02 0.  0.
        -24    2    1    2    0    0 -0.27235673707E+02  0.10074538736E+03 -0.21604491304E+03  0.25294904325E+03  0.80102428383E+02 0.  0.
         11    1    4    4    0    0  0.36160466160E+01  0.75443843458E+02 -0.75282658355E+02  0.10664111758E+03  0.00000000000E+00 0. -1.
        -12    1    4    4    0    0 -0.30851720323E+02  0.25301543907E+02 -0.14076225468E+03  0.14630792567E+03  0.00000000000E+00 0.  1.
        -13    1    3    3    0    0 -0.20940225498E+02 -0.24298157171E+02 -0.91637250001E+02  0.97089026535E+02  0.00000000000E+00 0. -1.
         13    1    3    3    0    0  0.42598100774E+02  0.43178173330E+02 -0.10242340503E+03  0.11903573724E+03  0.00000000000E+00 0.  1.
          2    1    1    2  501    0  0.55777984311E+01 -0.11962540352E+03 -0.11725680486E+03  0.16760222937E+03  0.00000000000E+00 0. -1.
<scales pt_clust_5="13000.00000" pt_clust_6="13000.00000" pt_clust_7="13000.00000" pt_clust_8="13000.00000" pt_clust_9="113.32984"></scales>
<clustering>
<clus scale="   80.102">  5  6 -1 -1</clus>
<clus scale="   90.691">  7  8 -1 -1</clus>
<clus scale="   95.133">  2  7  1 -1</clus>
<clus scale="  113.330">  1  9  2 -1</clus>
<clus scale="  113.330">  1  5  2 -1</clus>
</clustering>
</event>
<event>
 9    1  0.7719620E-005  0.9167474E+02  0.7546771E-02  0.1308950E+00
         21   -1    0    0  501  502  0.00000000000E+00  0.00000000000E+00  0.82964083547E+02  0.82964083547E+02  0.00000000000E+00 0.  1.
         -2   -1    0    0    0  501 -0.00000000000E+00 -0.00000000000E+00 -0.20159163862E+03  0.20159163862E+03  0.00000000000E+00 0.  1.
         23    2    1    2    0    0  0.55156854323E+00  0.21183616091E+02 -0.13532932877E+03  0.16414522569E+03  0.90446548145E+02 0.  0.
        -24    2    1    2    0    0 -0.23030949777E+02  0.69876823386E+01 -0.44763099714E+01  0.78607914453E+02  0.74698825370E+02 0.  0.
         13    1    4    4    0    0  0.27290630750E+02  0.45871820265E+01 -0.55184711607E+01  0.28218332510E+02  0.00000000000E+00 0. -1.
        -14    1    4    4    0    0 -0.50321580527E+02  0.24005003122E+01  0.10421611893E+01  0.50389581943E+02  0.00000000000E+00 0.  1.
        -13    1    3    3    0    0  0.22827620221E+02 -0.27735877141E+02 -0.34099838996E+02  0.49529568394E+02  0.00000000000E+00 0. -1.
         13    1    3    3    0    0 -0.22276051678E+02  0.48919493231E+02 -0.10122948977E+03  0.11461565729E+03  0.00000000000E+00 0.  1.
         -1    1    1    2    0  502  0.22479381234E+02 -0.28171298429E+02  0.21178083673E+02  0.41802582024E+02  0.00000000000E+00 0.  1.
<scales pt_clust_5="13000.00000" pt_clust_6="13000.00000" pt_clust_7="13000.00000" pt_clust_8="13000.00000" pt_clust_9="36.04087"></scales>
<clustering>
<clus scale="   36.041">  1  9  2 -1</clus>
<clus scale="   74.699">  5  6 -1 -1</clus>
<clus scale="   76.181">  1  5  2 -1</clus>
<clus scale="   90.447">  7  8 -1 -1</clus>
<clus scale="   36.041">  1  5  2 -1</clus>
</clustering>
</event>
<event>
 9    1  0.7719620E-005  0.1366113E+03  0.7546771E-02  0.1221345E+00
         21   -1    0    0  501  502  0.00000000000E+00  0.00000000000E+00  0.80264347033E+02  0.80264347033E+02  0.00000000000E+00 0.  1.
          1   -1    0    0  502    0 -0.00000000000E+00 -0.00000000000E+00 -0.79107257147E+03  0.79107257147E+03  0.00000000000E+00 0. -1.
         23    2    1    2    0    0 -0.24098944861E+02 -0.96188505686E+02 -0.55459711738E+03  0.57016031994E+03  0.87589040722E+02 0.  0.
        -24    2    1    2    0    0  0.42675372281E+02  0.11379562612E+03 -0.20329425077E+03  0.24758633109E+03  0.72109687437E+02 0.  0.
         11    1    4    4    0    0 -0.45981912560E+01  0.36867925030E+02 -0.11673810453E+03  0.12250784590E+03  0.00000000000E+00 0. -1.
        -12    1    4    4    0    0  0.47273563537E+02  0.76927701085E+02 -0.86556146247E+02  0.12507848519E+03  0.00000000000E+00 0.  1.
        -13    1    3    3    0    0 -0.55950821453E+02 -0.58852458788E+02 -0.39180279504E+03  0.40012939973E+03  0.00000000000E+00 0.  1.
         13    1    3    3    0    0  0.31851876592E+02 -0.37336046898E+02 -0.16279432234E+03  0.17003092021E+03  0.00000000000E+00 0. -1.
          2    1    1    2  501    0 -0.18576427420E+02 -0.17607120429E+02  0.47083143719E+02  0.53590267474E+02  0.00000000000E+00 0. -1.
<scales pt_clust_5="13000.00000" pt_clust_6="13000.00000" pt_clust_7="13000.00000" pt_clust_8="13000.00000" pt_clust_9="25.59481"></scales>
<clustering>
<clus scale="   25.595">  1  9  2 -1</clus>
<clus scale="   72.110">  5  6 -1 -1</clus>
<clus scale="   87.589">  7  8 -1 -1</clus>
<clus scale="  127.242">  1  5  2 -1</clus>
<clus scale="   25.595">  1  5  2 -1</clus>
</clustering>
</event>
<event>
 9    1  0.7719620E-005  0.2026747E+03  0.7546771E-02  0.1147502E+00
         21   -1    0    0  501  502  0.00000000000E+00  0.00000000000E+00  0.69051566169E+02  0.69051566169E+02  0.00000000000E+00 0. -1.
          3   -1    0    0  502    0 -0.00000000000E+00 -0.00000000000E+00 -0.36901601569E+03  0.36901601569E+03  0.00000000000E+00 0. -1.
        -24    2    1    2    0    0 -0.29512275286E+01 -0.63299943267E+02 -0.11654780138E+03  0.15480185721E+03  0.79778646438E+02 0.  0.
         23    2    1    2    0    0  0.90828789315E+01 -0.39583129634E+02 -0.13815756301E+03  0.17070059406E+03  0.91661648219E+02 0.  0.
         11    1    3    3    0    0 -0.30287102356E+02 -0.66780846271E+02 -0.74537896183E+02  0.10456045125E+03  0.00000000000E+00 0. -1.
        -12    1    3    3    0    0  0.27335874828E+02  0.34809030040E+01 -0.42009905200E+02  0.50241405964E+02  0.00000000000E+00 0.  1.
        -11    1    4    4    0    0 -0.20464508044E+02  0.11374769002E+02 -0.34356100545E+01  0.23663999573E+02  0.00000000000E+00 0.  1.
         11    1    4    4    0    0  0.29547386976E+02 -0.50957898635E+02 -0.13472195295E+03  0.14703659448E+03  0.00000000000E+00 0. -1.
          4    1    1    2  501    0 -0.61316514030E+01  0.10288307290E+03 -0.45259085135E+02  0.11256513059E+03  0.00000000000E+00 0. -1.
<scales pt_clust_5="13000.00000" pt_clust_6="13000.00000" pt_clust_7="13000.00000" pt_clust_8="13000.00000" pt_clust_9="103.06563"></scales>
<clustering>
<clus scale="   79.779">  5  6 -1 -1</clus>
<clus scale="   91.662">  7  8 -1 -1</clus>
<clus scale="   94.074">  5  7 -1 -1</clus>
<clus scale="  103.066">  1  9  2 -1</clus>
<clus scale="  103.066">  1  5  2 -1</clus>
</clustering>
</event>
<event>
 9    1  0.7719620E-005  0.9332972E+02  0.7546771E-02  0.1302472E+00
          1   -1    0    0  502    0 -0.00000000000E+00  0.00000000000E+00  0.15664161882E+03  0.15664161882E+03  0.00000000000E+00 0. -1.
         21   -1    0    0  501  502  0.00000000000E+00 -0.00000000000E+00 -0.12858811974E+03  0.12858811974E+03  0.00000000000E+00 0.  1.
         23    2    1    2    0    0 -0.21002516846E+02 -0.95966986273E+01  0.99672549053E+01  0.95274654473E+02  0.91895110186E+02 0.  0.
        -24    2    1    2    0    0  0.63174782479E+01 -0.10628387143E+02 -0.64789556827E+02  0.10339237361E+03  0.79620494233E+02 0.  0.
         13    1    4    4    0    0 -0.22171518306E+02  0.20715767480E+02 -0.59957831616E+01  0.30930060814E+02  0.00000000000E+00 0. -1.
        -14    1    4    4    0    0  0.28488996554E+02 -0.31344154623E+02 -0.58793773665E+02  0.72462312794E+02  0.00000000000E+00 0.  1.
        -11    1    3    3    0    0 -0.16336157198E+02  0.40272043844E+02 -0.29182355350E+01  0.43557130828E+02  0.00000000000E+00 0. -1.
         11    1    3    3    0    0 -0.46663596479E+01 -0.49868742471E+02  0.12885490440E+02  0.51717523644E+02  0.00000000000E+00 0.  1.
          2    1    1    2  501    0  0.14685038598E+02  0.20225085771E+02  0.82875801001E+02  0.86562710474E+02  0.00000000000E+00 0. -1.
<scales pt_clust_5="13000.00000" pt_clust_6="13000.00000" pt_clust_7="13000.00000" pt_clust_8="13000.00000" pt_clust_9="24.99410"></scales>
<clustering>
<clus scale="   24.994">  2  9  1 -1</clus>
<clus scale="   79.620">  5  6 -1 -1</clus>
<clus scale="   81.272">  2  5  1 -1</clus>
<clus scale="   91.895">  7  8 -1 -1</clus>
<clus scale="   24.994">  2  5  1 -1</clus>
</clustering>
</event>
<event>
 9    1  0.7719620E-005  0.9607079E+02  0.7546771E-02  0.1296456E+00
         21   -1    0    0  501  502  0.00000000000E+00  0.00000000000E+00  0.43848466807E+03  0.43848466807E+03  0.00000000000E+00 0. -1.
          1   -1    0    0  502    0 -0.00000000000E+00 -0.00000000000E+00 -0.35372991436E+02  0.35372991436E+02  0.00000000000E+00 0. -1.
        -24    2    1    2    0    0  0.60310225800E+01 -0.18063880121E+02  0.96167473473E+02  0.12431559427E+03  0.76442835028E+02 0.  0.
         23    2    1    2    0    0 -0.54058931010E+02  0.41057340162E+02  0.22629236763E+03  0.25289788399E+03  0.90227661380E+02 0.  0.
         11    1    3    3    0    0  0.39153187221E+02 -0.17965649723E+01  0.33356798041E+02  0.51467229290E+02  0.00000000000E+00 0. -1.
        -12    1    3    3    0    0 -0.33122164641E+02 -0.16267315149E+02  0.62810675432E+02  0.72848364984E+02  0.00000000000E+00 0.  1.
        -13    1    4    4    0    0 -0.27498929269E+02 -0.27230424540E+02  0.94299647940E+02  0.10193189262E+03  0.00000000000E+00 0.  1.
         13    1    4    4    0    0 -0.26560001740E+02  0.68287764701E+02  0.13199271969E+03  0.15096599137E+03  0.00000000000E+00 0. -1.
          2    1    1    2  501    0  0.48027908430E+02 -0.22993460040E+02  0.80651835535E+02  0.96644181241E+02  0.00000000000E+00 0. -1.
<scales pt_clust_5="13000.00000" pt_clust_6="13000.00000" pt_clust_7="13000.00000" pt_clust_8="13000.00000" pt_clust_9="53.24831"></scales>
<clustering>
<clus scale="   53.248">  1  9  2 -1</clus>
<clus scale="   76.443">  5  6 -1 -1</clus>
<clus scale="   83.259">  2  5  1 -1</clus>
<clus scale="   90.228">  7  8 -1 -1</clus>
<clus scale="   53.248">  1  5  2 -1</clus>
</clustering>
</event>
<event>
 9    1  0.7719620E-005  0.8249848E+02  0.7546771E-02  0.1325157E+00
          1   -1    0    0  502    0 -0.00000000000E+00  0.00000000000E+00  0.46188715944E+03  0.46188715944E+03  0.00000000000E+00 0. -1.
         21   -1    0    0  501  502  0.00000000000E+00 -0.00000000000E+00 -0.28912973299E+02  0.28912973299E+02  0.00000000000E+00 0.  1.
         23    2    1    2    0    0  0.17156845513E+02 -0.15636835543E+02  0.24468550543E+03  0.25759276522E+03  0.77098431572E+02 0.  0.
        -24    2    1    2    0    0 -0.34911395381E+01 -0.64619218465E+01  0.19029635670E+03  0.20714710350E+03  0.81506285814E+02 0.  0.
         11    1    4    4    0    0  0.36307006319E+02 -0.13910125021E+02  0.68100015243E+02  0.78417487603E+02  0.00000000000E+00 0. -1.
        -12    1    4    4    0    0 -0.39798145857E+02  0.74482031743E+01  0.12219634146E+03  0.12872961590E+03  0.00000000000E+00 0.  1.
        -13    1    3    3    0    0  0.32058973691E+02 -0.39679331221E+02  0.17776953413E+03  0.18494386820E+03  0.00000000000E+00 0.  1.
         13    1    3    3    0    0 -0.14902128178E+02  0.24042495679E+02  0.66915971307E+02  0.72648897023E+02  0.00000000000E+00 0. -1.
          2    1    1    2  501    0 -0.13665705975E+02  0.22098757389E+02 -0.20076759875E+01  0.26060264020E+02  0.00000000000E+00 0. -1.
<scales pt_clust_5="13000.00000" pt_clust_6="13000.00000" pt_clust_7="13000.00000" pt_clust_8="13000.00000" pt_clust_9="25.98281"></scales>
<clustering>
<clus scale="   25.983">  2  9  1 -1</clus>
<clus scale="   77.098">  7  8 -1 -1</clus>
<clus scale="   78.147">  1  7  2 -1</clus>
<clus scale="   81.506">  5  6 -1 -1</clus>
<clus scale="   25.983">  2  5  1 -1</clus>
</clustering>
</event>
<event>
 9    1  0.7719620E-005  0.9576812E+02  0.7546771E-02  0.1294805E+00
          1   -1    0    0  502    0 -0.00000000000E+00  0.00000000000E+00  0.83682965328E+02  0.83682965328E+02  0.00000000000E+00 0. -1.
         21   -1    0    0  501  502  0.00000000000E+00 -0.00000000000E+00 -0.33444249280E+03  0.33444249280E+03  0.00000000000E+00 0. -1.
        -24    2    1    2    0    0 -0.23795383027E+02  0.23610984718E+01  0.42565405785E+02  0.96874328598E+02  0.83672138328E+02 0.  0.
         23    2    1    2    0    0  0.62398017747E+01 -0.30223777400E+02 -0.22222485943E+03  0.24289458667E+03  0.93067073877E+02 0.  0.
         11    1    3    3    0    0 -0.50265397304E+02 -0.96078437237E+01  0.81220664208E+01  0.51815912518E+02  0.00000000000E+00 0. -1.
        -12    1    3    3    0    0  0.26470014277E+02  0.11968942195E+02  0.34443339364E+02  0.45058416080E+02  0.00000000000E+00 0.  1.
        -11    1    4    4    0    0 -0.37009363729E+02 -0.34754511522E+02 -0.85679196954E+02  0.99591635519E+02  0.00000000000E+00 0. -1.
         11    1    4    4    0    0  0.43249165504E+02  0.45307341219E+01 -0.13654566248E+03  0.14330295115E+03  0.00000000000E+00 0.  1.
          2    1    1    2  501    0  0.17555581252E+02  0.27862678928E+02 -0.71100073824E+02  0.78356542853E+02  0.00000000000E+00 0. -1.
<scales pt_clust_5="13000.00000" pt_clust_6="13000.00000" pt_clust_7="13000.00000" pt_clust_8="13000.00000" pt_clust_9="32.93216"></scales>
<clustering>
<clus scale="   32.932">  2  9  1 -1</clus>
<clus scale="   83.672">  5  6 -1 -1</clus>
<clus scale="   86.666">  1  5  2 -1</clus>
<clus scale="   93.067">  7  8 -1 -1</clus>
<clus scale="   32.932">  2  5  1 -1</clus>
</clustering>
</event>
<event>
 9    1  0.7719620E-005  0.1097004E+03  0.7546771E-02  0.1262950E+00
          1   -1    0    0  502    0 -0.00000000000E+00  0.00000000000E+00  0.28910252111E+03  0.28910252111E+03  0.00000000000E+00 0. -1.
         21   -1    0    0  501  502  0.00000000000E+00 -0.00000000000E+00 -0.71034502778E+02  0.71034502778E+02  0.00000000000E+00 0.  1.
         23    2    1    2    0    0  0.54154864696E+02 -0.66619243511E+01  0.13760596181E+03  0.17241716483E+03  0.88403322317E+02 0.  0.
        -24    2    1    2    0    0 -0.62704381408E+02  0.37036941225E+02  0.20372912093E+02  0.11984909094E+03  0.92979431001E+02 0.  0.
         13    1    4    4    0    0 -0.40066401240E+02  0.50546381983E+02  0.48948535573E+02  0.80970441364E+02  0.00000000000E+00 0. -1.
        -14    1    4    4    0    0 -0.22637980169E+02 -0.13509440758E+02 -0.28575623480E+02  0.38878649578E+02  0.00000000000E+00 0.  1.
        -13    1    3    3    0    0  0.27285691876E+02  0.32724892144E+02  0.23292271851E+02  0.48558804299E+02  0.00000000000E+00 0.  1.
         13    1    3    3    0    0  0.26869172821E+02 -0.39386816496E+02  0.11431368996E+03  0.12385836053E+03  0.00000000000E+00 0. -1.
          2    1    1    2  501    0  0.85495167121E+01 -0.30375016874E+02  0.60089144431E+02  0.67870768115E+02  0.00000000000E+00 0. -1.
<scales pt_clust_5="13000.00000" pt_clust_6="13000.00000" pt_clust_7="13000.00000" pt_clust_8="13000.00000" pt_clust_9="31.55530"></scales>
<clustering>
<clus scale="   31.555">  2  9  1 -1</clus>
<clus scale="   88.403">  7  8 -1 -1</clus>
<clus scale="   92.979">  5  6 -1 -1</clus>
<clus scale="  105.850">  1  7  2 -1</clus>
<clus scale="   31.555">  2  5  1 -1</clus>
</clustering>
</event>
<event>
 9    1  0.7719620E-005  0.9104104E+02  0.7546771E-02  0.1306397E+00
         21   -1    0    0  501  502  0.00000000000E+00  0.00000000000E+00  0.39304996009E+03  0.39304996009E+03  0.00000000000E+00 0.  1.
          1   -1    0    0  502    0 -0.00000000000E+00 -0.00000000000E+00 -0.16577725697E+03  0.16577725697E+03  0.00000000000E+00 0. -1.
         23    2    1    2    0    0  0.17610283880E+01 -0.13793477064E+02 -0.13842879516E+03  0.16562577941E+03  0.89866602500E+02 0.  0.
        -24    2    1    2    0    0 -0.42494383036E+02  0.22757010706E+02  0.30875314894E+03  0.32261343862E+03  0.80170254266E+02 0.  0.
         11    1    4    4    0    0 -0.41466235829E+02 -0.21678636576E+02  0.12255200657E+03  0.13118081533E+03  0.00000000000E+00 0. -1.
        -12    1    4    4    0    0 -0.10281472073E+01  0.44435647282E+02  0.18620114238E+03  0.19143262329E+03  0.00000000000E+00 0.  1.
        -11    1    3    3    0    0  0.29152182245E+02  0.24853724032E+02 -0.90329174581E+02  0.98116854355E+02  0.00000000000E+00 0.  1.
         11    1    3    3    0    0 -0.27391153857E+02 -0.38647201096E+02 -0.48099620578E+02  0.67508925054E+02  0.00000000000E+00 0. -1.
          2    1    1    2  501    0  0.40733354648E+02 -0.89635336422E+01  0.56948349327E+02  0.70587999032E+02  0.00000000000E+00 0. -1.
<scales pt_clust_5="13000.00000" pt_clust_6="13000.00000" pt_clust_7="13000.00000" pt_clust_8="13000.00000" pt_clust_9="41.70793"></scales>
<clustering>
<clus scale="   41.708">  1  9  2 -1</clus>
<clus scale="   80.170">  5  6 -1 -1</clus>
<clus scale="   81.485">  1  5  2 -1</clus>
<clus scale="   89.867">  7  8 -1 -1</clus>
<clus scale="   41.708">  1  5  2 -1</clus>
</clustering>
</event>
<event>
 9    1  0.7719620E-005  0.1569292E+03  0.7546771E-02  0.1208682E+00
          1   -1    0    0  502    0 -0.00000000000E+00  0.00000000000E+00  0.10800654317E+04  0.10800654317E+04  0.00000000000E+00 0. -1.
         21   -1    0    0  501  502  0.00000000000E+00 -0.00000000000E+00 -0.40984084749E+02  0.40984084749E+02  0.00000000000E+00 0. -1.
         23    2    1    2    0    0  0.66851381382E+02 -0.20163527033E+02  0.20715448135E+03  0.23443308558E+03  0.84677136559E+02 0.  0.
        -24    2    1    2    0    0 -0.89835227798E+02  0.12992770894E+03  0.35305995754E+03  0.39479334432E+03  0.79113041904E+02 0.  0.
         11    1    4    4    0    0 -0.96948896958E+02  0.13127080681E+03  0.35128438598E+03  0.38733942890E+03  0.00000000000E+00 0. -1.
        -12    1    4    4    0    0  0.71136691603E+01 -0.13430978662E+01  0.17755715519E+01  0.74539154233E+01  0.00000000000E+00 0.  1.
        -13    1    3    3    0    0  0.38246300205E+02  0.27455838284E+02  0.54688593241E+02  0.72162627211E+02  0.00000000000E+00 0. -1.
         13    1    3    3    0    0  0.28605081177E+02 -0.47619365317E+02  0.15246588811E+03  0.16227045837E+03  0.00000000000E+00 0.  1.
          2    1    1    2  501    0  0.22983846415E+02 -0.10976418191E+03  0.47886690810E+03  0.49182308659E+03  0.00000000000E+00 0. -1.
<scales pt_clust_5="13000.00000" pt_clust_6="13000.00000" pt_clust_7="13000.00000" pt_clust_8="13000.00000" pt_clust_9="135.52829"></scales>
<clustering>
<clus scale="   79.113">  5  6 -1 -1</clus>
<clus scale="   84.677">  7  8 -1 -1</clus>
<clus scale="  109.754">  1  7  2 -1</clus>
<clus scale="  135.528">  2  9  1 -1</clus>
<clus scale="  135.528">  2  5  1 -1</clus>
</clustering>
</event>
<event>
 9    1  0.7719620E-005  0.1050219E+03  0.7546771E-02  0.1277721E+00
         21   -1    0    0  501  502  0.00000000000E+00  0.00000000000E+00  0.34124893668E+03  0.34124893668E+03  0.00000000000E+00 0.  1.
          1   -1    0    0  502    0 -0.00000000000E+00 -0.00000000000E+00 -0.12548300551E+03  0.12548300551E+03  0.00000000000E+00 0. -1.
         23    2    1    2    0    0  0.34945790034E+02 -0.80248765047E+01 -0.45346448779E+02  0.11252345382E+03  0.96538180828E+02 0.  0.
        -24    2    1    2    0    0 -0.72760561265E+02  0.59649083395E+02  0.26240097578E+03  0.29020320626E+03  0.80693967575E+02 0.  0.
         13    1    4    4    0    0 -0.43462907471E+02  0.23982058229E+01  0.41539985867E+02  0.60169312301E+02  0.00000000000E+00 0. -1.
        -14    1    4    4    0    0 -0.29297653794E+02  0.57250877572E+02  0.22086098992E+03  0.23003389395E+03  0.00000000000E+00 0.  1.
        -11    1    3    3    0    0  0.13013071018E+02 -0.51637266634E+02 -0.31109585846E+02  0.61672957236E+02  0.00000000000E+00 0.  1.
         11    1    3    3    0    0  0.21932719016E+02  0.43612390129E+02 -0.14236862933E+02  0.50850496580E+02  0.00000000000E+00 0. -1.
          2    1    1    2  501    0  0.37814771231E+02 -0.51624206890E+02 -0.12885958321E+01  0.64005282122E+02  0.00000000000E+00 0. -1.
<scales pt_clust_5="13000.00000" pt_clust_6="13000.00000" pt_clust_7="13000.00000" pt_clust_8="13000.00000" pt_clust_9="63.99234"></scales>
<clustering>
<clus scale="   63.992">  1  9  2 -1</clus>
<clus scale="   80.694">  5  6 -1 -1</clus>
<clus scale="   90.672">  1  5  2 -1</clus>
<clus scale="   96.538">  7  8 -1 -1</clus>
<clus scale="   63.992">  1  5  2 -1</clus>
</clustering>
</event>
<event>
 9    1  0.7719620E-005  0.1607814E+03  0.7546771E-02  0.1194898E+00
         21   -1    0    0  501  502  0.00000000000E+00  0.00000000000E+00  0.12499649318E+03  0.12499649318E+03  0.00000000000E+00 0. -1.
          1   -1    0    0  502    0 -0.00000000000E+00 -0.00000000000E+00 -0.57606986124E+03  0.57606986124E+03  0.00000000000E+00 0. -1.
         23    2    1    2    0    0 -0.97536606813E+02 -0.48557343869E+02 -0.27613540507E+03  0.31860945922E+03  0.11571525509E+03 0.  0.
        -24    2    1    2    0    0  0.77737143600E+02  0.88739532396E+02 -0.25412860582E+03  0.29147456214E+03  0.80363573677E+02 0.  0.
         11    1    4    4    0    0  0.24953511184E+02  0.79662131647E+02 -0.19252473004E+03  0.20984400067E+03  0.00000000000E+00 0. -1.
        -12    1    4    4    0    0  0.52783632416E+02  0.90774007494E+01 -0.61603875778E+02  0.81630561472E+02  0.00000000000E+00 0.  1.
        -13    1    3    3    0    0 -0.59138267780E+02 -0.85941133457E+02 -0.19896625229E+03  0.22465703347E+03  0.00000000000E+00 0.  1.
         13    1    3    3    0    0 -0.38398339033E+02  0.37383789589E+02 -0.77169152776E+02  0.93952425752E+02  0.00000000000E+00 0. -1.
          2    1    1    2  501    0  0.19799463213E+02 -0.40182188527E+02  0.79190642828E+02  0.90982333065E+02  0.00000000000E+00 0. -1.
<scales pt_clust_5="13000.00000" pt_clust_6="13000.00000" pt_clust_7="13000.00000" pt_clust_8="13000.00000" pt_clust_9="44.79539"></scales>
<clustering>
<clus scale="   44.795">  1  9  2 -1</clus>
<clus scale="   80.364">  5  6 -1 -1</clus>
<clus scale="  115.715">  7  8 -1 -1</clus>
<clus scale="  137.546">  1  5  2 -1</clus>
<clus scale="   44.795">  1  5  2 -1</clus>
</clustering>
</event>
<event>
 9    1  0.7719620E-005  0.2117109E+03  0.7546771E-02  0.1178242E+00
         21   -1    0    0  501  502  0.00000000000E+00  0.00000000000E+00  0.44100399261E+03  0.44100399261E+03  0.00000000000E+00 0. -1.
          1   -1    0    0  502    0 -0.00000000000E+00 -0.00000000000E+00 -0.15461674587E+03  0.15461674587E+03  0.00000000000E+00 0. -1.
        -24    2    1    2    0    0  0.47357026965E+01  0.25931647642E+02  0.12144482863E+02  0.88079141644E+02  0.83159903194E+02 0.  0.
         23    2    1    2    0    0 -0.58812124607E+01  0.18197303554E+03  0.20411574147E+03  0.28812539699E+03  0.90577227556E+02 0.  0.
         11    1    3    3    0    0 -0.24067915249E+02  0.42490917468E+02 -0.76135557133E+01  0.49423767990E+02  0.00000000000E+00 0. -1.
        -12    1    3    3    0    0  0.28803617946E+02 -0.16559269826E+02  0.19758038577E+02  0.38655373654E+02  0.00000000000E+00 0.  1.
        -13    1    4    4    0    0  0.97460235001E+01  0.37151120039E+02  0.13106366956E+01  0.38430566776E+02  0.00000000000E+00 0.  1.
         13    1    4    4    0    0 -0.15627235961E+02  0.14482191550E+03  0.20280510478E+03  0.24969483022E+03  0.00000000000E+00 0. -1.
          2    1    1    2  501    0  0.11455097642E+01 -0.20790468318E+03  0.70127022403E+02  0.21941619984E+03  0.00000000000E+00 0. -1.
<scales pt_clust_5="13000.00000" pt_clust_6="13000.00000" pt_clust_7="13000.00000" pt_clust_8="13000.00000" pt_clust_9="191.35655"></scales>
<clustering>
<clus scale="   83.160">  5  6 -1 -1</clus>
<clus scale="   87.238">  2  5  1 -1</clus>
<clus scale="   90.577">  7  8 -1 -1</clus>
<clus scale="  191.357">  1  9  2 -1</clus>
<clus scale="  191.357">  1  5  2 -1</clus>
</clustering>
</event>
<event>
 9    1  0.7719620E-005  0.1442961E+03  0.7546771E-02  0.1217056E+00
         21   -1    0    0  501  502  0.00000000000E+00  0.00000000000E+00  0.31320496031E+03  0.31320496031E+03  0.00000000000E+00 0.  1.
         -2   -1    0    0    0  501 -0.00000000000E+00 -0.00000000000E+00 -0.12869105512E+03  0.12869105512E+03  0.00000000000E+00 0.  1.
         23    2    1    2    0    0 -0.15627183229E+02  0.96491962164E+02 -0.54999684747E+02  0.16137474015E+03  0.11602557398E+03 0.  0.
        -24    2    1    2    0    0  0.16721847627E+02 -0.44869209645E+02  0.15915670748E+03  0.18500512259E+03  0.81259902064E+02 0.  0.
         13    1    4    4    0    0 -0.10965918149E+02 -0.41695170904E+02  0.14937016492E+03  0.15546763266E+03  0.00000000000E+00 0. -1.
        -14    1    4    4    0    0  0.27687765776E+02 -0.31740387416E+01  0.97865425649E+01  0.29537489923E+02  0.00000000000E+00 0.  1.
        -11    1    3    3    0    0 -0.42376059254E+02  0.10523788375E+03 -0.65893833224E+02  0.13119733164E+03  0.00000000000E+00 0.  1.
         11    1    3    3    0    0  0.26748876025E+02 -0.87459215834E+01  0.10894148477E+02  0.30177408504E+02  0.00000000000E+00 0. -1.
         -1    1    1    2    0  502 -0.10946643982E+01 -0.51622752519E+02  0.80356882453E+02  0.95516152693E+02  0.00000000000E+00 0.  1.
<scales pt_clust_5="13000.00000" pt_clust_6="13000.00000" pt_clust_7="13000.00000" pt_clust_8="13000.00000" pt_clust_9="51.63436"></scales>
<clustering>
<clus scale="   51.634">  1  9  2 -1</clus>
<clus scale="   81.260">  5  6 -1 -1</clus>
<clus scale="  116.026">  7  8 -1 -1</clus>
<clus scale="  118.163">  1  5  2 -1</clus>
<clus scale="   51.634">  1  5  2 -1</clus>
</clustering>
</event>
<event>
 9    1  0.7719620E-005  0.1560326E+03  0.7546771E-02  0.1212730E+00
         21   -1    0    0  501  502  0.00000000000E+00  0.00000000000E+00  0.52571706571E+03  0.52571706571E+03  0.00000000000E+00 0. -1.
          1   -1    0    0  502    0 -0.00000000000E+00 -0.00000000000E+00 -0.26688339775E+03  0.26688339775E+03  0.00000000000E+00 0. -1.
         23    2    1    2    0    0  0.46341693707E+02  0.48315683336E+01 -0.15044802893E+03  0.18200216169E+03  0.91210091667E+02 0.  0.
        -24    2    1    2    0    0 -0.16967731745E+03  0.32818425331E+02  0.10177409580E+02  0.19117795147E+03  0.81104798660E+02 0.  0.
         13    1    4    4    0    0 -0.17330394022E+03  0.28091245272E+02 -0.41987376634E+01  0.17561606747E+03  0.00000000000E+00 0. -1.
        -14    1    4    4    0    0  0.36266227720E+01  0.47271800596E+01  0.14376147243E+02  0.15561883999E+02  0.00000000000E+00 0.  1.
        -11    1    3    3    0    0 -0.23342426395E+02 -0.73172911904E+01 -0.13686830948E+02  0.28031071363E+02  0.00000000000E+00 0.  1.
         11    1    3    3    0    0  0.69684120102E+02  0.12148859524E+02 -0.13676119798E+03  0.15397109032E+03  0.00000000000E+00 0. -1.
          2    1    1    2  501    0  0.12333562374E+03 -0.37649993665E+02  0.39910428731E+03  0.41942035031E+03  0.00000000000E+00 0. -1.
<scales pt_clust_5="13000.00000" pt_clust_6="13000.00000" pt_clust_7="13000.00000" pt_clust_8="13000.00000" pt_clust_9="133.29733"></scales>
<clustering>
<clus scale="   81.105">  5  6 -1 -1</clus>
<clus scale="   91.210">  7  8 -1 -1</clus>
<clus scale="  102.422">  2  7  1 -1</clus>
<clus scale="  133.297">  1  9  2 -1</clus>
<clus scale="  133.297">  1  5  2 -1</clus>
</clustering>
</event>
<event>
 9    1  0.7719620E-005  0.1385069E+03  0.7546771E-02  0.1217973E+00
         -2   -1    0    0    0  501 -0.00000000000E+00  0.00000000000E+00  0.69768247251E+03  0.69768247251E+03  0.00000000000E+00 0.  1.
         21   -1    0    0  501  502  0.00000000000E+00 -0.00000000000E+00 -0.67763862905E+02  0.67763862905E+02  0.00000000000E+00 0.  1.
         23    2    1    2    0    0 -0.18819571965E+02 -0.12435645776E+03  0.28645971032E+03  0.32582161285E+03  0.91004686069E+02 0.  0.
        -24    2    1    2    0    0  0.11121896636E+03  0.34202439194E+02  0.13898799649E+03  0.19781127125E+03  0.79197036181E+02 0.  0.
         11    1    4    4    0    0  0.25990203319E+02  0.42328177958E+02  0.78831264658E+02  0.93174747680E+02  0.00000000000E+00 0. -1.
        -12    1    4    4    0    0  0.85228763037E+02 -0.81257387635E+01  0.60156731831E+02  0.10463652357E+03  0.00000000000E+00 0.  1.
        -11    1    3    3    0    0 -0.17741601163E+02  0.10189249534E+02  0.32061224416E+02  0.38032976862E+02  0.00000000000E+00 0. -1.
         11    1    3    3    0    0 -0.10779708026E+01 -0.13454570730E+03  0.25439848591E+03  0.28778863599E+03  0.00000000000E+00 0.  1.
         -1    1    1    2    0  502 -0.92399394390E+02  0.90154018571E+02  0.20447090279E+03  0.24181345131E+03  0.00000000000E+00 0.  1.
<scales pt_clust_5="13000.00000" pt_clust_6="13000.00000" pt_clust_7="13000.00000" pt_clust_8="13000.00000" pt_clust_9="129.09458"></scales>
<clustering>
<clus scale="   79.197">  5  6 -1 -1</clus>
<clus scale="   91.005">  7  8 -1 -1</clus>
<clus scale="  129.095">  2  9  1 -1</clus>
<clus scale="  131.051">  2  5  1 -1</clus>
<clus scale="  129.095">  2  5  1 -1</clus>
</clustering>
</event>
<event>
 9    1  0.7719620E-005  0.9762082E+02  0.7546771E-02  0.1292893E+00
         21   -1    0    0  501  502  0.00000000000E+00  0.00000000000E+00  0.43088729309E+02  0.43088729309E+02  0.00000000000E+00 0. -1.
          1   -1    0    0  502    0 -0.00000000000E+00 -0.00000000000E+00 -0.31132106220E+03  0.31132106220E+03  0.00000000000E+00 0. -1.
        -24    2    1    2    0    0  0.32149909866E+02  0.13849817311E+02 -0.12161109713E+03  0.14831129804E+03  0.77340468312E+02 0.  0.
         23    2    1    2    0    0 -0.39503412777E+02  0.18543666039E+02 -0.71171423156E+02  0.12366011654E+03  0.91225357090E+02 0.  0.
         11    1    3    3    0    0  0.44252029814E+02  0.15639229724E+02 -0.12666036538E+03  0.13507655536E+03  0.00000000000E+00 0. -1.
        -12    1    3    3    0    0 -0.12102119948E+02 -0.17894124131E+01  0.50492682545E+01  0.13234742684E+02  0.00000000000E+00 0.  1.
        -11    1    4    4    0    0  0.84212419294E+01 -0.30986138567E+02 -0.25150539628E+02  0.40787347824E+02  0.00000000000E+00 0. -1.
         11    1    4    4    0    0 -0.47924654707E+02  0.49529804607E+02 -0.46020883528E+02  0.82872768711E+02  0.00000000000E+00 0.  1.
          2    1    1    2  501    0  0.73535029111E+01 -0.32393483350E+02 -0.75449812612E+02  0.82438376936E+02  0.00000000000E+00 0. -1.
<scales pt_clust_5="13000.00000" pt_clust_6="13000.00000" pt_clust_7="13000.00000" pt_clust_8="13000.00000" pt_clust_9="33.21766"></scales>
<clustering>
<clus scale="   33.218">  1  9  2 -1</clus>
<clus scale="   77.340">  5  6 -1 -1</clus>
<clus scale="   84.790">  2  5  1 -1</clus>
<clus scale="   91.225">  7  8 -1 -1</clus>
<clus scale="   33.218">  1  5  2 -1</clus>
</clustering>
</event>
<event>
 9    1  0.7719620E-005  0.8910137E+02  0.7546771E-02  0.1310728E+00
          1   -1    0    0  502    0 -0.00000000000E+00  0.00000000000E+00  0.36510144818E+03  0.36510144818E+03  0.00000000000E+00 0. -1.
         21   -1    0    0  501  502  0.00000000000E+00 -0.00000000000E+00 -0.39549639174E+02  0.39549639174E+02  0.00000000000E+00 0. -1.
        -24    2    1    2    0    0  0.39236449713E+01  0.10675385367E+02  0.22564527917E+03  0.23978186726E+03  0.80313093645E+02 0.  0.
         23    2    1    2    0    0  0.94894371386E+01  0.24049780593E+02  0.80871819192E+02  0.12305931539E+03  0.89078070258E+02 0.  0.
         13    1    3    3    0    0  0.34710789964E+02 -0.10425749959E+02  0.16195532371E+03  0.16596102579E+03  0.00000000000E+00 0. -1.
        -14    1    3    3    0    0 -0.30787144993E+02  0.21101135326E+02  0.63689955459E+02  0.73820841469E+02  0.00000000000E+00 0.  1.
        -13    1    4    4    0    0  0.81542616315E+01 -0.26553570653E+02  0.63887747398E+02  0.69665115838E+02  0.00000000000E+00 0.  1.
         13    1    4    4    0    0  0.13351755071E+01  0.50603351246E+02  0.16984071794E+02  0.53394199551E+02  0.00000000000E+00 0. -1.
          2    1    1    2  501    0 -0.13413082110E+02 -0.34725165960E+02  0.19034710648E+02  0.41809904713E+02  0.00000000000E+00 0. -1.
<scales pt_clust_5="13000.00000" pt_clust_6="13000.00000" pt_clust_7="13000.00000" pt_clust_8="13000.00000" pt_clust_9="37.22564"></scales>
<clustering>
<clus scale="   37.226">  2  9  1 -1</clus>
<clus scale="   80.313">  5  6 -1 -1</clus>
<clus scale="   80.339">  1  5  2 -1</clus>
<clus scale="   89.078">  7  8 -1 -1</clus>
<clus scale="   37.226">  2  5  1 -1</clus>
</clustering>
</event>
<event>
 9    1  0.7719620E-005  0.2052465E+03  0.7546771E-02  0.1170148E+00
          3   -1    0    0  502    0 -0.00000000000E+00  0.00000000000E+00  0.75498688891E+03  0.75498688891E+03  0.00000000000E+00 0. -1.
         21   -1    0    0  501  502  0.00000000000E+00 -0.00000000000E+00 -0.10151532314E+03  0.10151532314E+03  0.00000000000E+00 0.  1.
         23    2    1    2    0    0  0.47793189461E+02 -0.54239446155E+02  0.17354499720E+03  0.20822332146E+03  0.89515244909E+02 0.  0.
        -24    2    1    2    0    0 -0.17200508611E+03 -0.89042967184E+02  0.11924059991E+03  0.24078310750E+03  0.79017621690E+02 0.  0.
         13    1    4    4    0    0 -0.51165013723E+02 -0.18148731660E+02  0.77450130588E+02  0.94582016357E+02  0.00000000000E+00 0. -1.
        -14    1    4    4    0    0 -0.12084007239E+03 -0.70894235524E+02  0.41790469326E+02  0.14620109115E+03  0.00000000000E+00 0.  1.
        -13    1    3    3    0    0  0.62116713177E+02 -0.15272569965E+02  0.14308257307E+03  0.15673021459E+03  0.00000000000E+00 0. -1.
         13    1    3    3    0    0 -0.14323523716E+02 -0.38966876190E+02  0.30462424125E+02  0.51493106871E+02  0.00000000000E+00 0.  1.
          4    1    1    2  501    0  0.12421189665E+03  0.14328241334E+03  0.36068596866E+03  0.40749578308E+03  0.00000000000E+00 0. -1.
<scales pt_clust_5="13000.00000" pt_clust_6="13000.00000" pt_clust_7="13000.00000" pt_clust_8="13000.00000" pt_clust_9="189.42647"></scales>
<clustering>
<clus scale="   79.018">  5  6 -1 -1</clus>
<clus scale="   89.515">  7  8 -1 -1</clus>
<clus scale="  115.061">  1  7  2 -1</clus>
<clus scale="  189.426">  2  9  1 -1</clus>
<clus scale="  189.426">  2  5  1 -1</clus>
</clustering>
</event>
<event>
 9    1  0.7719620E-005  0.9590224E+02  0.7546771E-02  0.1298329E+00
          3   -1    0    0  502    0 -0.00000000000E+00  0.00000000000E+00  0.21038177493E+03  0.21038177493E+03  0.00000000000E+00 0. -1.
         21   -1    0    0  501  502  0.00000000000E+00 -0.00000000000E+00 -0.87363164951E+02  0.87363164951E+02  0.00000000000E+00 0.  1.
         23    2    1    2    0    0 -0.35402449664E+02 -0.20187299866E+02  0.20868077002E+02  0.10161807970E+03  0.90718779567E+02 0.  0.
        -24    2    1    2    0    0  0.20221660545E+02  0.45872159885E+01 -0.13349916818E+02  0.78593150641E+02  0.74623755888E+02 0.  0.
         11    1    4    4    0    0 -0.69117067180E+01  0.33506714621E+02  0.55579100940E+01  0.34660669051E+02  0.00000000000E+00 0. -1.
        -12    1    4    4    0    0  0.27133367263E+02 -0.28919498632E+02 -0.18907826912E+02  0.43932481590E+02  0.00000000000E+00 0.  1.
        -11    1    3    3    0    0  0.20932401255E+01  0.31629184548E+02  0.20326717659E+02  0.37655841780E+02  0.00000000000E+00 0.  1.
         11    1    3    3    0    0 -0.37495689789E+02 -0.51816484414E+02  0.54135934318E+00  0.63962237920E+02  0.00000000000E+00 0. -1.
          4    1    1    2  501    0  0.15180789119E+02  0.15600083878E+02  0.11550044980E+03  0.11753370954E+03  0.00000000000E+00 0. -1.
<scales pt_clust_5="13000.00000" pt_clust_6="13000.00000" pt_clust_7="13000.00000" pt_clust_8="13000.00000" pt_clust_9="21.76739"></scales>
<clustering>
<clus scale="   21.767">  2  9  1 -1</clus>
<clus scale="   74.624">  5  6 -1 -1</clus>
<clus scale="   80.846">  2  5  1 -1</clus>
<clus scale="   90.719">  7  8 -1 -1</clus>
<clus scale="   21.767">  2  5  1 -1</clus>
</clustering>
</event>
<event>
 9    1  0.7719620E-005  0.9148863E+02  0.7546771E-02  0.1308303E+00
         21   -1    0    0  501  502  0.00000000000E+00  0.00000000000E+00  0.21729704450E+02  0.21729704450E+02  0.00000000000E+00 0. -1.
          1   -1    0    0  502    0 -0.00000000000E+00 -0.00000000000E+00 -0.70426911457E+03  0.70426911457E+03  0.00000000000E+00 0. -1.
         23    2    1    2    0    0  0.89974356311E+01  0.19402717140E+02 -0.34415023688E+03  0.35673768647E+03  0.91460221546E+02 0.  0.
        -24    2    1    2    0    0  0.20839145471E+02  0.30263053978E+02 -0.15788898656E+03  0.17968996443E+03  0.77520505785E+02 0.  0.
         11    1    4    4    0    0  0.67896456216E+00  0.47260148849E+02 -0.14016022784E+03  0.14791508419E+03  0.00000000000E+00 0. -1.
        -12    1    4    4    0    0  0.20160180909E+02 -0.16997094871E+02 -0.17728758726E+02  0.31774880240E+02  0.00000000000E+00 0.  1.
        -11    1    3    3    0    0 -0.31908953357E+01  0.53940926198E+02 -0.24868352480E+03  0.25448634706E+03  0.00000000000E+00 0.  1.
         11    1    3    3    0    0  0.12188330967E+02 -0.34538209058E+02 -0.95466712073E+02  0.10225133941E+03  0.00000000000E+00 0. -1.
          2    1    1    2  501    0 -0.29836581102E+02 -0.49665771118E+02 -0.18050018668E+03  0.18957116812E+03  0.00000000000E+00 0. -1.
<scales pt_clust_5="13000.00000" pt_clust_6="13000.00000" pt_clust_7="13000.00000" pt_clust_8="13000.00000" pt_clust_9="57.93888"></scales>
<clustering>
<clus scale="   57.939">  1  9  2 -1</clus>
<clus scale="   77.521">  5  6 -1 -1</clus>
<clus scale="   77.554">  1  5  2 -1</clus>
<clus scale="   91.460">  7  8 -1 -1</clus>
<clus scale="   57.939">  1  5  2 -1</clus>
</clustering>
</event>
<event>
 9    1  0.7719620E-005  0.1337777E+03  0.7546771E-02  0.1237588E+00
         21   -1    0    0  501  502  0.00000000000E+00  0.00000000000E+00  0.50139957987E+02  0.50139957987E+02  0.00000000000E+00 0. -1.
          1   -1    0    0  502    0 -0.00000000000E+00 -0.00000000000E+00 -0.72719699319E+03  0.72719699319E+03  0.00000000000E+00 0. -1.
         23    2    1    2    0    0 -0.14745761512E+02 -0.32175515962E+02 -0.38612793333E+03  0.39809085699E+03  0.90160125381E+02 0.  0.
        -24    2    1    2    0    0  0.10856740047E+03 -0.18557864539E+02 -0.15595931020E+03  0.20721929251E+03  0.80531074558E+02 0.  0.
         13    1    4    4    0    0  0.97017377305E+02  0.15878625200E+02 -0.97941468562E+02  0.13876971392E+03  0.00000000000E+00 0. -1.
        -14    1    4    4    0    0  0.11550023160E+02 -0.34436489739E+02 -0.58017841640E+02  0.68449578590E+02  0.00000000000E+00 0.  1.
        -13    1    3    3    0    0 -0.52852048643E+02 -0.14863160409E+02 -0.22807534269E+03  0.23459031209E+03  0.00000000000E+00 0. -1.
         13    1    3    3    0    0  0.38106287131E+02 -0.17312355554E+02 -0.15805259064E+03  0.16350054490E+03  0.00000000000E+00 0.  1.
          2    1    1    2  501    0 -0.93821638954E+02  0.50733380501E+02 -0.13496979167E+03  0.17202680168E+03  0.00000000000E+00 0. -1.
<scales pt_clust_5="13000.00000" pt_clust_6="13000.00000" pt_clust_7="13000.00000" pt_clust_8="13000.00000" pt_clust_9="106.82331"></scales>
<clustering>
<clus scale="   80.531">  5  6 -1 -1</clus>
<clus scale="   90.160">  7  8 -1 -1</clus>
<clus scale="   96.858">  2  7  1 -1</clus>
<clus scale="  106.823">  1  9  2 -1</clus>
<clus scale="  106.823">  1  5  2 -1</clus>
</clustering>
</event>
<event>
 9    1  0.7719620E-005  0.1098804E+03  0.7546771E-02  0.1263008E+00
          1   -1    0    0  502    0 -0.00000000000E+00  0.00000000000E+00  0.10765783323E+03  0.10765783323E+03  0.00000000000E+00 0. -1.
         21   -1    0    0  501  502  0.00000000000E+00 -0.00000000000E+00 -0.22622571210E+03  0.22622571210E+03  0.00000000000E+00 0. -1.
        -24    2    1    2    0    0 -0.51802210393E+02  0.24821345670E+02 -0.51310275594E+02  0.11433737451E+03  0.84502796560E+02 0.  0.
         23    2    1    2    0    0  0.33380989454E+02 -0.73959812641E+02 -0.10037257863E+03  0.15749351649E+03  0.90250810802E+02 0.  0.
         11    1    3    3    0    0 -0.41385378158E+02  0.55615940847E+02 -0.30492044652E+02  0.75734055673E+02  0.00000000000E+00 0. -1.
        -12    1    3    3    0    0 -0.10416832235E+02 -0.30794595177E+02 -0.20818230942E+02  0.38603318840E+02  0.00000000000E+00 0.  1.
        -11    1    4    4    0    0  0.49481295217E+02 -0.26072929639E+02 -0.14365177772E+02  0.57745602160E+02  0.00000000000E+00 0.  1.
         11    1    4    4    0    0 -0.16100305763E+02 -0.47886883002E+02 -0.86007400862E+02  0.99747914326E+02  0.00000000000E+00 0. -1.
          2    1    1    2  501    0  0.18421220939E+02  0.49138466971E+02  0.33114975357E+02  0.62052654335E+02  0.00000000000E+00 0. -1.
<scales pt_clust_5="13000.00000" pt_clust_6="13000.00000" pt_clust_7="13000.00000" pt_clust_8="13000.00000" pt_clust_9="52.47793"></scales>
<clustering>
<clus scale="   52.478">  2  9  1 -1</clus>
<clus scale="   84.503">  5  6 -1 -1</clus>
<clus scale="   90.251">  7  8 -1 -1</clus>
<clus scale="  105.210">  1  5  2 -1</clus>
<clus scale="   52.478">  2  5  1 -1</clus>
</clustering>
</event>
<event>
 9    1  0.7719620E-005  0.1136540E+03  0.7546771E-02  0.1258642E+00
          1   -1    0    0  502    0 -0.00000000000E+00  0.00000000000E+00  0.50394300569E+02  0.50394300569E+02  0.00000000000E+00 0. -1.
         21   -1    0    0  501  502  0.00000000000E+00 -0.00000000000E+00 -0.53600110372E+03  0.53600110372E+03  0.00000000000E+00 0. -1.
        -24    2    1    2    0    0  0.54184429077E+02 -0.27306688560E+01 -0.73257615956E+02  0.12050538896E+03  0.78812826156E+02 0.  0.
         23    2    1    2    0    0 -0.86457598301E+02  0.27890977908E+02 -0.13967114317E+03  0.19015841704E+03  0.91648089900E+02 0.  0.
         11    1    3    3    0    0 -0.14509512892E+02  0.15046264731E+02 -0.32600120135E+02  0.38725752149E+02  0.00000000000E+00 0. -1.
        -12    1    3    3    0    0  0.68693941968E+02 -0.17776933587E+02 -0.40657495821E+02  0.81779636813E+02  0.00000000000E+00 0.  1.
        -13    1    4    4    0    0 -0.63275222586E+02 -0.20662887528E+02 -0.11038176764E+03  0.12889857773E+03  0.00000000000E+00 0.  1.
         13    1    4    4    0    0 -0.23182375715E+02  0.48553865437E+02 -0.29289375537E+02  0.61259839307E+02  0.00000000000E+00 0. -1.
          2    1    1    2  501    0  0.32273169224E+02 -0.25160309053E+02 -0.27267804402E+03  0.27573159829E+03  0.00000000000E+00 0. -1.
<scales pt_clust_5="13000.00000" pt_clust_6="13000.00000" pt_clust_7="13000.00000" pt_clust_8="13000.00000" pt_clust_9="40.92186"></scales>
<clustering>
<clus scale="   40.922">  2  9  1 -1</clus>
<clus scale="   78.813">  5  6 -1 -1</clus>
<clus scale="   91.648">  7  8 -1 -1</clus>
<clus scale="  103.582">  1  5  2 -1</clus>
<clus scale="   40.922">  2  5  1 -1</clus>
</clustering>
</event>
<event>
 9    1  0.7719620E-005  0.1264866E+03  0.7546771E-02  0.1235538E+00
         21   -1    0    0  501  502  0.00000000000E+00  0.00000000000E+00  0.28244233945E+03  0.28244233945E+03  0.00000000000E+00 0. -1.
         -2   -1    0    0    0  501 -0.00000000000E+00 -0.00000000000E+00 -0.25337765330E+03  0.25337765330E+03  0.00000000000E+00 0.  1.
         23    2    1    2    0    0  0.55515046398E+02  0.65608955468E+02 -0.20561753906E+03  0.24123914023E+03  0.92365009585E+02 0.  0.
        -24    2    1    2    0    0 -0.82471255276E+02 -0.51535198010E+02  0.23110042225E+03  0.26396162394E+03  0.82528474891E+02 0.  0.
         13    1    4    4    0    0 -0.66364085661E+02 -0.47162852050E+02  0.23332719448E+03  0.24712366573E+03  0.00000000000E+00 0. -1.
        -14    1    4    4    0    0 -0.16107169615E+02 -0.43723459601E+01 -0.22267722284E+01  0.16837958212E+02  0.00000000000E+00 0.  1.
        -13    1    3    3    0    0  0.51388628069E+02 -0.58460301934E+01 -0.11226724117E+03  0.12360785009E+03  0.00000000000E+00 0.  1.
         13    1    3    3    0    0  0.41264183289E+01  0.71454985662E+02 -0.93350297895E+02  0.11763129015E+03  0.00000000000E+00 0. -1.
         -1    1    1    2    0  502  0.26956208878E+02 -0.14073757458E+02  0.35818029572E+01  0.30619228575E+02  0.00000000000E+00 0.  1.
<scales pt_clust_5="13000.00000" pt_clust_6="13000.00000" pt_clust_7="13000.00000" pt_clust_8="13000.00000" pt_clust_9="30.40901"></scales>
<clustering>
<clus scale="   30.409">  1  9  2 -1</clus>
<clus scale="   82.528">  5  6 -1 -1</clus>
<clus scale="   92.365">  7  8 -1 -1</clus>
<clus scale="  119.493">  1  5  2 -1</clus>
<clus scale="   30.409">  1  5  2 -1</clus>
</clustering>
</event>
<event>
 9    1  0.7719620E-005  0.1229654E+03  0.7546771E-02  0.1240814E+00
          1   -1    0    0  502    0 -0.00000000000E+00  0.00000000000E+00  0.93613408265E+03  0.93613408265E+03  0.00000000000E+00 0. -1.
         21   -1    0    0  501  502  0.00000000000E+00 -0.00000000000E+00 -0.49045728113E+02  0.49045728113E+02  0.00000000000E+00 0. -1.
        -24    2    1    2    0    0 -0.62422422964E+02 -0.62557473017E+02  0.66620079764E+03  0.67681489412E+03  0.80280145811E+02 0.  0.
         23    2    1    2    0    0  0.30986975069E+02  0.73664723556E+02  0.24126377220E+03  0.26929128680E+03  0.89010703011E+02 0.  0.
         11    1    3    3    0    0 -0.57722087675E+02 -0.78678184202E+02  0.47752240793E+03  0.48739075305E+03  0.00000000000E+00 0. -1.
        -12    1    3    3    0    0 -0.47003352888E+01  0.16120711186E+02  0.18867838970E+03  0.18942414108E+03  0.00000000000E+00 0.  1.
        -13    1    4    4    0    0  0.51634453598E+02  0.76193220052E+02  0.22429823456E+03  0.24244838958E+03  0.00000000000E+00 0.  1.
         13    1    4    4    0    0 -0.20647478529E+02 -0.25284964957E+01  0.16965537640E+02  0.26842897227E+02  0.00000000000E+00 0. -1.
          2    1    1    2  501    0  0.31435447895E+02 -0.11107250539E+02 -0.20376215301E+02  0.39073629841E+02  0.00000000000E+00 0. -1.
<scales pt_clust_5="13000.00000" pt_clust_6="13000.00000" pt_clust_7="13000.00000" pt_clust_8="13000.00000" pt_clust_9="33.34004"></scales>
<clustering>
<clus scale="   33.340">  2  9  1 -1</clus>
<clus scale="   80.280">  5  6 -1 -1</clus>
<clus scale="   89.011">  7  8 -1 -1</clus>
<clus scale="  116.801">  1  5  2 -1</clus>
<clus scale="   33.340">  2  5  1 -1</clus>
</clustering>
</event>
<event>
 9    1  0.7719620E-005  0.9217853E+02  0.7546771E-02  0.1305053E+00
         21   -1    0    0  501  502  0.00000000000E+00  0.00000000000E+00  0.68020364638E+03  0.68020364638E+03  0.00000000000E+00 0. -1.
          1   -1    0    0  502    0 -0.00000000000E+00 -0.00000000000E+00 -0.30282092749E+02  0.30282092749E+02  0.00000000000E+00 0. -1.
         23    2    1    2    0    0 -0.18017349014E+02 -0.58245430253E+01  0.28591712327E+03  0.30039574393E+03  0.90169015888E+02 0.  0.
        -24    2    1    2    0    0 -0.16241655102E+02  0.35032413895E+02  0.35319318753E+03  0.36379029698E+03  0.78146599885E+02 0.  0.
         13    1    4    4    0    0 -0.47622550362E+02  0.20991413329E+02  0.18886297443E+03  0.19590244982E+03  0.00000000000E+00 0. -1.
        -14    1    4    4    0    0  0.31380895260E+02  0.14041000566E+02  0.16433021310E+03  0.16788784716E+03  0.00000000000E+00 0.  1.
        -13    1    3    3    0    0 -0.11615710078E+02 -0.48027087296E+02  0.14905154189E+03  0.15702830310E+03  0.00000000000E+00 0. -1.
         13    1    3    3    0    0 -0.64016389355E+01  0.42202544271E+02  0.13686558138E+03  0.14336744083E+03  0.00000000000E+00 0.  1.
          2    1    1    2  501    0  0.34259004115E+02 -0.29207870870E+02  0.10811242832E+02  0.46299698220E+02  0.00000000000E+00 0. -1.
<scales pt_clust_5="13000.00000" pt_clust_6="13000.00000" pt_clust_7="13000.00000" pt_clust_8="13000.00000" pt_clust_9="45.01979"></scales>
<clustering>
<clus scale="   45.020">  1  9  2 -1</clus>
<clus scale="   78.147">  5  6 -1 -1</clus>
<clus scale="   80.457">  1  5  2 -1</clus>
<clus scale="   90.169">  7  8 -1 -1</clus>
<clus scale="   45.020">  1  5  2 -1</clus>
</clustering>
</event>
<event>
 9    1  0.7719620E-005  0.1145424E+03  0.7546771E-02  0.1259319E+00
         21   -1    0    0  501  502  0.00000000000E+00  0.00000000000E+00  0.10109902911E+04  0.10109902911E+04  0.00000000000E+00 0.  1.
         -4   -1    0    0    0  501 -0.00000000000E+00 -0.00000000000E+00 -0.26114466321E+02  0.26114466321E+02  0.00000000000E+00 0.  1.
         23    2    1    2    0    0 -0.21097126769E+02 -0.94471697612E+02  0.41185477749E+03  0.43343545351E+03  0.94190998559E+02 0.  0.
        -24    2    1    2    0    0  0.13850199338E+02  0.25966994041E+02  0.48575769087E+03  0.49249239199E+03  0.75644623931E+02 0.  0.
         13    1    4    4    0    0 -0.11574600208E+01 -0.25816058689E+02  0.11743234370E+03  0.12024210555E+03  0.00000000000E+00 0. -1.
        -14    1    4    4    0    0  0.15007659359E+02  0.51783052730E+02  0.36832534717E+03  0.37225028644E+03  0.00000000000E+00 0.  1.
        -13    1    3    3    0    0 -0.49047878272E+02 -0.29906392977E+02  0.25708108939E+03  0.26342128469E+03  0.00000000000E+00 0. -1.
         13    1    3    3    0    0  0.27950751504E+02 -0.64565304635E+02  0.15477368810E+03  0.17001416882E+03  0.00000000000E+00 0.  1.
         -3    1    1    2    0  502  0.72469274304E+01  0.68504703571E+02  0.87263356382E+02  0.11117691188E+03  0.00000000000E+00 0.  1.
<scales pt_clust_5="13000.00000" pt_clust_6="13000.00000" pt_clust_7="13000.00000" pt_clust_8="13000.00000" pt_clust_9="68.88699"></scales>
<clustering>
<clus scale="   68.887">  1  9  2 -1</clus>
<clus scale="   75.645">  5  6 -1 -1</clus>
<clus scale="   94.191">  7  8 -1 -1</clus>
<clus scale="   99.851">  1  5  2 -1</clus>
<clus scale="   68.887">  1  5  2 -1</clus>
</clustering>
</event>
<event>
 9    1  0.8030925E-005  0.1170219E+03  0.7546771E-02  0.1251527E+00
          1   -1    0    0  502    0 -0.00000000000E+00  0.00000000000E+00  0.42980027318E+03  0.42980027318E+03  0.00000000000E+00 0. -1.
         21   -1    0    0  501  502  0.00000000000E+00 -0.00000000000E+00 -0.13437386519E+03  0.13437386519E+03  0.00000000000E+00 0. -1.
         23    2    1    2    0    0 -0.78079181142E+02  0.25063678768E+02  0.35645940727E+03  0.37662045055E+03  0.89750254683E+02 0.  0.
        -24    2    1    2    0    0  0.52765879416E+02  0.15364352122E+02  0.15105549024E+02  0.97707889576E+02  0.79362161811E+02 0.  0.
         11    1    4    4    0    0 -0.18048551684E+02  0.15727042700E+02  0.12112907156E+02  0.26829323691E+02  0.00000000000E+00 0. -1.
        -12    1    4    4    0    0  0.70814431100E+02 -0.36269057800E+00  0.29926418688E+01  0.70878565884E+02  0.00000000000E+00 0.  1.
        -13    1    3    3    0    0 -0.53231770365E+01  0.40979099329E+02  0.76772531873E+02  0.87187409904E+02  0.00000000000E+00 0.  1.
         13    1    3    3    0    0 -0.72756004106E+02 -0.15915420561E+02  0.27968687540E+03  0.28943304064E+03  0.00000000000E+00 0. -1.
          2    1    1    2  501    0  0.25313301726E+02 -0.40428030890E+02 -0.76138548305E+02  0.89845798254E+02  0.00000000000E+00 0. -1.
<scales pt_clust_5="13000.00000" pt_clust_6="13000.00000" pt_clust_7="13000.00000" pt_clust_8="13000.00000" pt_clust_9="47.69894"></scales>
<clustering>
<clus scale="   47.699">  2  9  1 -1</clus>
<clus scale="   79.362">  5  6 -1 -1</clus>
<clus scale="   89.750">  7  8 -1 -1</clus>
<clus scale="  109.258">  2  5  1 -1</clus>
<clus scale="   47.699">  2  5  1 -1</clus>
</clustering>
</event>
<event>
 9    1  0.7719620E-005  0.4823150E+03  0.7546771E-02  0.1068096E+00
         21   -1    0    0  501  502  0.00000000000E+00  0.00000000000E+00  0.24124650026E+03  0.24124650026E+03  0.00000000000E+00 0. -1.
          1   -1    0    0  502    0 -0.00000000000E+00 -0.00000000000E+00 -0.22899569306E+04  0.22899569306E+04  0.00000000000E+00 0. -1.
         23    2    1    2    0    0 -0.57326406340E+02  0.38950720334E+02 -0.13512078752E+03  0.17737350739E+03  0.91652923718E+02 0.  0.
        -24    2    1    2    0    0 -0.35029371257E+03  0.22432592354E+03 -0.18082972162E+04  0.18572866246E+04  0.80913403588E+02 0.  0.
         11    1    4    4    0    0 -0.26458104902E+03  0.17696461718E+03 -0.15148462316E+04  0.15479272311E+04  0.00000000000E+00 0. -1.
        -12    1    4    4    0    0 -0.85712663549E+02  0.47361306367E+02 -0.29345098453E+03  0.30935939351E+03  0.00000000000E+00 0.  1.
        -11    1    3    3    0    0 -0.38884434960E+02  0.69154967776E+02 -0.88763048210E+02  0.11905161728E+03  0.00000000000E+00 0.  1.
         11    1    3    3    0    0 -0.18441971380E+02 -0.30204247442E+02 -0.46357739307E+02  0.58321890106E+02  0.00000000000E+00 0. -1.
          2    1    1    2  501    0  0.40762011891E+03 -0.26327664388E+03 -0.10529242667E+03  0.49654329888E+03  0.00000000000E+00 0. -1.
<scales pt_clust_5="13000.00000" pt_clust_6="13000.00000" pt_clust_7="13000.00000" pt_clust_8="13000.00000" pt_clust_9="475.47953"></scales>
<clustering>
<clus scale="   80.913">  5  6 -1 -1</clus>
<clus scale="   91.653">  7  8 -1 -1</clus>
<clus scale="  114.908">  2  7  1 -1</clus>
<clus scale="  475.480">  1  9  2 -1</clus>
<clus scale="  475.480">  1  5  2 -1</clus>
</clustering>
</event>
<event>
 9    1  0.7719620E-005  0.1088276E+03  0.7546771E-02  0.1266853E+00
         21   -1    0    0  501  502  0.00000000000E+00  0.00000000000E+00  0.80054361938E+02  0.80054361938E+02  0.00000000000E+00 0. -1.
          1   -1    0    0  502    0 -0.00000000000E+00 -0.00000000000E+00 -0.41832152811E+03  0.41832152811E+03  0.00000000000E+00 0. -1.
         23    2    1    2    0    0 -0.25397989992E+02  0.63522909049E+02 -0.23185155053E+03  0.25856097775E+03  0.91751947464E+02 0.  0.
        -24    2    1    2    0    0 -0.79373891317E+01 -0.17199389444E+02  0.32280520966E+02  0.89835799482E+02  0.81667727355E+02 0.  0.
         11    1    4    4    0    0  0.32606236304E+02  0.19935756272E+00  0.32042853546E+02  0.45715980277E+02  0.00000000000E+00 0. -1.
        -12    1    4    4    0    0 -0.40543625435E+02 -0.17398747006E+02  0.23766741967E+00  0.44119819205E+02  0.00000000000E+00 0.  1.
        -13    1    3    3    0    0  0.20329533931E+02 -0.60431198581E+01 -0.10296333628E+03  0.10512496309E+03  0.00000000000E+00 0.  1.
         13    1    3    3    0    0 -0.45727523922E+02  0.69566028907E+02 -0.12888821425E+03  0.15343601466E+03  0.00000000000E+00 0. -1.
          2    1    1    2  501    0  0.33335379124E+02 -0.46323519606E+02 -0.13869613661E+03  0.14997911281E+03  0.00000000000E+00 0. -1.
<scales pt_clust_5="13000.00000" pt_clust_6="13000.00000" pt_clust_7="13000.00000" pt_clust_8="13000.00000" pt_clust_9="57.07118"></scales>
<clustering>
<clus scale="   57.071">  1  9  2 -1</clus>
<clus scale="   81.668">  5  6 -1 -1</clus>
<clus scale="   91.752">  7  8 -1 -1</clus>
<clus scale="  100.472">  1  5  2 -1</clus>
<clus scale="   57.071">  1  5  2 -1</clus>
</clustering>
</event>
<event>
 9    1  0.7719620E-005  0.1489962E+03  0.7546771E-02  0.1215257E+00
         21   -1    0    0  501  502  0.00000000000E+00  0.00000000000E+00  0.54416779851E+03  0.54416779851E+03  0.00000000000E+00 0. -1.
          3   -1    0    0  502    0 -0.00000000000E+00 -0.00000000000E+00 -0.11948055404E+03  0.11948055404E+03  0.00000000000E+00 0. -1.
         23    2    1    2    0    0  0.22977765106E+02  0.57546047891E+02 -0.31558080927E+02  0.11586945388E+03  0.92683831132E+02 0.  0.
        -24    2    1    2    0    0  0.37222474000E+02  0.72478661932E+02  0.64687821927E+02  0.13082833509E+03  0.79327611520E+02 0.  0.
         13    1    4    4    0    0  0.49408244168E+02  0.63927345696E+02  0.76924092093E+02  0.11155803899E+03  0.00000000000E+00 0. -1.
        -14    1    4    4    0    0 -0.12185770168E+02  0.85513162351E+01 -0.12236270166E+02  0.19270296093E+02  0.00000000000E+00 0.  1.
        -11    1    3    3    0    0  0.42508983308E+02 -0.70359770894E+01 -0.19647324707E+02  0.47355422114E+02  0.00000000000E+00 0. -1.
         11    1    3    3    0    0 -0.19531218202E+02  0.64582024981E+02 -0.11910756221E+02  0.68514031766E+02  0.00000000000E+00 0.  1.
          4    1    1    2  501    0 -0.60200239107E+02 -0.13002470982E+03  0.39155750347E+03  0.41695056358E+03  0.00000000000E+00 0. -1.
<scales pt_clust_5="13000.00000" pt_clust_6="13000.00000" pt_clust_7="13000.00000" pt_clust_8="13000.00000" pt_clust_9="126.12292"></scales>
<clustering>
<clus scale="   79.328">  5  6 -1 -1</clus>
<clus scale="   92.684">  7  8 -1 -1</clus>
<clus scale="  111.489">  2  7  1 -1</clus>
<clus scale="  126.123">  1  9  2 -1</clus>
<clus scale="  126.123">  1  5  2 -1</clus>
</clustering>
</event>
<event>
 9    1  0.7719620E-005  0.9460218E+02  0.7546771E-02  0.1299918E+00
          1   -1    0    0  502    0 -0.00000000000E+00  0.00000000000E+00  0.33839496516E+03  0.33839496516E+03  0.00000000000E+00 0. -1.
         21   -1    0    0  501  502  0.00000000000E+00 -0.00000000000E+00 -0.47277475806E+02  0.47277475806E+02  0.00000000000E+00 0. -1.
         23    2    1    2    0    0  0.22847228590E+01  0.17335926319E+02  0.10950378050E+03  0.14485460325E+03  0.93198840333E+02 0.  0.
        -24    2    1    2    0    0  0.24071985217E+02  0.41663214934E+02  0.10509825964E+03  0.14066700797E+03  0.80164075509E+02 0.  0.
         13    1    4    4    0    0  0.12566045426E+02  0.19053860267E+02 -0.84356035938E+01  0.24333402900E+02  0.00000000000E+00 0. -1.
        -14    1    4    4    0    0  0.11505939792E+02  0.22609354667E+02  0.11353386323E+03  0.11633360507E+03  0.00000000000E+00 0.  1.
        -11    1    3    3    0    0  0.19974803081E+02 -0.19838186378E+02  0.30575082210E+00  0.28153860844E+02  0.00000000000E+00 0.  1.
         11    1    3    3    0    0 -0.17690080222E+02  0.37174112697E+02  0.10919802967E+03  0.11670074240E+03  0.00000000000E+00 0. -1.
          2    1    1    2  501    0 -0.26356708076E+02 -0.58999141253E+02  0.76515449220E+02  0.10015082974E+03  0.00000000000E+00 0. -1.
<scales pt_clust_5="13000.00000" pt_clust_6="13000.00000" pt_clust_7="13000.00000" pt_clust_8="13000.00000" pt_clust_9="64.61872"></scales>
<clustering>
<clus scale="   64.619">  2  9  1 -1</clus>
<clus scale="   80.164">  5  6 -1 -1</clus>
<clus scale="   81.791">  2  5  1 -1</clus>
<clus scale="   93.199">  7  8 -1 -1</clus>
<clus scale="   64.619">  2  5  1 -1</clus>
</clustering>
</event>
<event>
 9    1  0.7719620E-005  0.1677281E+03  0.7546771E-02  0.1213270E+00
         21   -1    0    0  501  502  0.00000000000E+00  0.00000000000E+00  0.10070837378E+04  0.10070837378E+04  0.00000000000E+00 0. -1.
          3   -1    0    0  502    0 -0.00000000000E+00 -0.00000000000E+00 -0.52723872742E+02  0.52723872742E+02  0.00000000000E+00 0. -1.
        -24    2    1    2    0    0  0.10585777994E+02  0.15702789196E+02  0.86416574487E+02  0.11879567894E+03  0.79284000309E+02 0.  0.
         23    2    1    2    0    0 -0.57641317579E+02 -0.14213437508E+03  0.24783458234E+03  0.30639867950E+03  0.94517027698E+02 0.  0.
         13    1    3    3    0    0  0.42922410554E+01 -0.27494935080E+02  0.78466389014E+01  0.28913051212E+02  0.00000000000E+00 0. -1.
        -14    1    3    3    0    0  0.62935369387E+01  0.43197724276E+02  0.78569935586E+02  0.89882627731E+02  0.00000000000E+00 0.  1.
        -13    1    4    4    0    0 -0.30742611908E+02 -0.13429318735E+03  0.14582315121E+03  0.20060947082E+03  0.00000000000E+00 0.  1.
         13    1    4    4    0    0 -0.26898705672E+02 -0.78411877312E+01  0.10201143112E+03  0.10578920867E+03  0.00000000000E+00 0. -1.
          4    1    1    2  501    0  0.47055539585E+02  0.12643158588E+03  0.62010870820E+03  0.63461325207E+03  0.00000000000E+00 0. -1.
<scales pt_clust_5="13000.00000" pt_clust_6="13000.00000" pt_clust_7="13000.00000" pt_clust_8="13000.00000" pt_clust_9="138.56139"></scales>
<clustering>
<clus scale="   79.284">  5  6 -1 -1</clus>
<clus scale="   81.514">  2  5  1 -1</clus>
<clus scale="   94.517">  7  8 -1 -1</clus>
<clus scale="  138.561">  1  9  2 -1</clus>
<clus scale="  138.561">  1  5  2 -1</clus>
</clustering>
</event>
<event>
 9    1  0.7719620E-005  0.1410793E+03  0.7546771E-02  0.1229834E+00
         21   -1    0    0  501  502  0.00000000000E+00  0.00000000000E+00  0.81197571305E+03  0.81197571305E+03  0.00000000000E+00 0. -1.
          1   -1    0    0  502    0 -0.00000000000E+00 -0.00000000000E+00 -0.91364372063E+02  0.91364372063E+02  0.00000000000E+00 0. -1.
        -24    2    1    2    0    0 -0.34210871806E+02 -0.41978521026E+02  0.36287845892E+03  0.37557522767E+03  0.80270765005E+02 0.  0.
         23    2    1    2    0    0  0.89706193833E+02  0.12808900121E+03  0.29060160045E+02  0.18349678781E+03  0.91501829454E+02 0.  0.
         11    1    3    3    0    0 -0.43034429075E+02 -0.24536923056E+02  0.96424518751E+02  0.10840530658E+03  0.00000000000E+00 0. -1.
        -12    1    3    3    0    0  0.88235572688E+01 -0.17441597970E+02  0.26645394017E+03  0.26716992109E+03  0.00000000000E+00 0.  1.
        -11    1    4    4    0    0  0.89389373088E+02  0.61497883981E+02 -0.51666869122E+01  0.10862386666E+03  0.00000000000E+00 0. -1.
         11    1    4    4    0    0  0.31682074502E+00  0.66591117228E+02  0.34226846957E+02  0.74872921151E+02  0.00000000000E+00 0.  1.
          2    1    1    2  501    0 -0.55495322026E+02 -0.86110480183E+02  0.32867272202E+03  0.34426806963E+03  0.00000000000E+00 0. -1.
<scales pt_clust_5="13000.00000" pt_clust_6="13000.00000" pt_clust_7="13000.00000" pt_clust_8="13000.00000" pt_clust_9="107.38148"></scales>
<clustering>
<clus scale="   80.271">  5  6 -1 -1</clus>
<clus scale="   91.502">  7  8 -1 -1</clus>
<clus scale="   96.830">  2  5  1 -1</clus>
<clus scale="  107.381">  1  9  2 -1</clus>
<clus scale="  107.381">  1  5  2 -1</clus>
</clustering>
</event>
<event>
 9    1  0.7719620E-005  0.3700411E+03  0.7546771E-02  0.1073468E+00
         21   -1    0    0  501  502  0.00000000000E+00  0.00000000000E+00  0.27935078096E+03  0.27935078096E+03  0.00000000000E+00 0. -1.
          1   -1    0    0  502    0 -0.00000000000E+00 -0.00000000000E+00 -0.11217658964E+04  0.11217658964E+04  0.00000000000E+00 0. -1.
         23    2    1    2    0    0  0.13616139882E+03 -0.14587527740E+03 -0.80459372854E+02  0.23387577199E+03  0.91676839808E+02 0.  0.
        -24    2    1    2    0    0 -0.35742208580E+03  0.36857801582E+03 -0.65237245959E+03  0.83473331569E+03  0.87118202009E+02 0.  0.
         13    1    4    4    0    0 -0.29752661256E+03  0.34391269419E+03 -0.55085191342E+03  0.71430795664E+03  0.00000000000E+00 0. -1.
        -14    1    4    4    0    0 -0.59895473235E+02  0.24665321630E+02 -0.10152054618E+03  0.12042535905E+03  0.00000000000E+00 0.  1.
        -11    1    3    3    0    0  0.52327935515E+02 -0.57105578932E+02 -0.80590465321E+02  0.11177693448E+03  0.00000000000E+00 0.  1.
         11    1    3    3    0    0  0.83833463308E+02 -0.88769698469E+02  0.13109246764E+00  0.12209883751E+03  0.00000000000E+00 0. -1.
          2    1    1    2  501    0  0.22126068697E+03 -0.22270273842E+03 -0.10958328301E+03  0.33250758971E+03  0.00000000000E+00 0. -1.
<scales pt_clust_5="13000.00000" pt_clust_6="13000.00000" pt_clust_7="13000.00000" pt_clust_8="13000.00000" pt_clust_9="359.63990"></scales>
<clustering>
<clus scale="   87.118">  5  6 -1 -1</clus>
<clus scale="   91.677">  7  8 -1 -1</clus>
<clus scale="  219.600">  2  7  1 -1</clus>
<clus scale="  359.640">  1  9  2 -1</clus>
<clus scale="  359.640">  1  5  2 -1</clus>
</clustering>
</event>
<event>
 9    1  0.7719620E-005  0.9247746E+02  0.7546771E-02  0.1304683E+00
         21   -1    0    0  501  502  0.00000000000E+00  0.00000000000E+00  0.28824249333E+02  0.28824249333E+02  0.00000000000E+00 0.  1.
          1   -1    0    0  502    0 -0.00000000000E+00 -0.00000000000E+00 -0.42606856748E+03  0.42606856748E+03  0.00000000000E+00 0. -1.
        -24    2    1    2    0    0  0.46449700542E+01 -0.14555795963E+02 -0.15002172973E+03  0.17062643948E+03  0.79833674073E+02 0.  0.
         23    2    1    2    0    0  0.24479493793E+02 -0.14219582860E+02 -0.14465758452E+03  0.17383161448E+03  0.92142125448E+02 0.  0.
         11    1    3    3    0    0 -0.32646290508E+02 -0.26578568714E+02 -0.76893137989E+02  0.87662735918E+02  0.00000000000E+00 0. -1.
        -12    1    3    3    0    0  0.37291260562E+02  0.12022772751E+02 -0.73128591737E+02  0.82963703560E+02  0.00000000000E+00 0.  1.
        -11    1    4    4    0    0  0.45823135720E+02  0.95007410242E+01 -0.13102620036E+03  0.13913263107E+03  0.00000000000E+00 0. -1.
         11    1    4    4    0    0 -0.21343641928E+02 -0.23720323884E+02 -0.13631384156E+02  0.34698983413E+02  0.00000000000E+00 0.  1.
          2    1    1    2  501    0 -0.29124463847E+02  0.28775378823E+02 -0.10256500391E+03  0.11043476286E+03  0.00000000000E+00 0. -1.
<scales pt_clust_5="13000.00000" pt_clust_6="13000.00000" pt_clust_7="13000.00000" pt_clust_8="13000.00000" pt_clust_9="40.94214"></scales>
<clustering>
<clus scale="   40.942">  1  9  2 -1</clus>
<clus scale="   79.834">  5  6 -1 -1</clus>
<clus scale="   80.220">  2  5  1 -1</clus>
<clus scale="   92.142">  7  8 -1 -1</clus>
<clus scale="   40.942">  1  5  2 -1</clus>
</clustering>
</event>
<event>
 9    1  0.7719620E-005  0.2199603E+03  0.7546771E-02  0.1133913E+00
         21   -1    0    0  501  502  0.00000000000E+00  0.00000000000E+00  0.76502621582E+02  0.76502621582E+02  0.00000000000E+00 0. -1.
          1   -1    0    0  502    0 -0.00000000000E+00 -0.00000000000E+00 -0.84123944396E+03  0.84123944396E+03  0.00000000000E+00 0. -1.
        -24    2    1    2    0    0  0.76549524756E+02  0.48220510227E+02 -0.49159983081E+03  0.50641629691E+03  0.81252844721E+02 0.  0.
         23    2    1    2    0    0  0.20957474823E+02  0.21751781675E+02 -0.27518382535E+03  0.29129274764E+03  0.90625445280E+02 0.  0.
         13    1    3    3    0    0  0.47283846511E+02  0.65924259292E+02 -0.26171732857E+03  0.27400315724E+03  0.00000000000E+00 0. -1.
        -14    1    3    3    0    0  0.29265678245E+02 -0.17703749065E+02 -0.22988250225E+03  0.23241313967E+03  0.00000000000E+00 0.  1.
        -11    1    4    4    0    0 -0.18648506882E+02  0.35829072756E+02 -0.20915930090E+03  0.21302371327E+03  0.00000000000E+00 0.  1.
         11    1    4    4    0    0  0.39605981705E+02 -0.14077291081E+02 -0.66024524459E+02  0.78269034369E+02  0.00000000000E+00 0. -1.
          2    1    1    2  501    0 -0.97506999580E+02 -0.69972291902E+02  0.20468337859E+01  0.12003302100E+03  0.00000000000E+00 0. -1.
<scales pt_clust_5="13000.00000" pt_clust_6="13000.00000" pt_clust_7="13000.00000" pt_clust_8="13000.00000" pt_clust_9="120.01557"></scales>
<clustering>
<clus scale="   81.253">  5  6 -1 -1</clus>
<clus scale="   90.625">  7  8 -1 -1</clus>
<clus scale="   91.327">  5  7 -1 -1</clus>
<clus scale="  120.016">  1  9  2 -1</clus>
<clus scale="  120.016">  1  5  2 -1</clus>
</clustering>
</event>
<event>
 9    1  0.7719620E-005  0.1072841E+03  0.7546771E-02  0.1270075E+00
         21   -1    0    0  501  502  0.00000000000E+00  0.00000000000E+00  0.17246497169E+03  0.17246497169E+03  0.00000000000E+00 0.  1.
         -4   -1    0    0    0  501 -0.00000000000E+00 -0.00000000000E+00 -0.19584245399E+03  0.19584245399E+03  0.00000000000E+00 0.  1.
         23    2    1    2    0    0  0.39780498693E+02 -0.22002968606E+02 -0.54985740621E+02  0.11608531953E+03  0.91573746432E+02 0.  0.
        -24    2    1    2    0    0 -0.27348133130E+02  0.11281209843E+03  0.63459192986E+02  0.15518941160E+03  0.81130723903E+02 0.  0.
         11    1    4    4    0    0 -0.14843573570E+02  0.24851689612E+02  0.59603532017E+02  0.66260992913E+02  0.00000000000E+00 0. -1.
        -12    1    4    4    0    0 -0.12504559560E+02  0.87960408814E+02  0.38556609691E+01  0.88928418687E+02  0.00000000000E+00 0.  1.
        -13    1    3    3    0    0  0.46327728736E+02 -0.53062866170E+02 -0.36157234646E+02  0.79178733465E+02  0.00000000000E+00 0. -1.
         13    1    3    3    0    0 -0.65472300432E+01  0.31059897563E+02 -0.18828505975E+02  0.36906586067E+02  0.00000000000E+00 0.  1.
         -3    1    1    2    0  502 -0.12432365562E+02 -0.90809129820E+02 -0.31850934659E+02  0.97032694546E+02  0.00000000000E+00 0.  1.
<scales pt_clust_5="13000.00000" pt_clust_6="13000.00000" pt_clust_7="13000.00000" pt_clust_8="13000.00000" pt_clust_9="91.65626"></scales>
<clustering>
<clus scale="   81.131">  5  6 -1 -1</clus>
<clus scale="   91.574">  7  8 -1 -1</clus>
<clus scale="   91.656">  1  9  2 -1</clus>
<clus scale="   98.521">  1  5  2 -1</clus>
<clus scale="   91.656">  1  5  2 -1</clus>
</clustering>
</event>
<event>
 9    1  0.7719620E-005  0.1163091E+03  0.7546771E-02  0.1252323E+00
          1   -1    0    0  502    0 -0.00000000000E+00  0.00000000000E+00  0.10327051290E+03  0.10327051290E+03  0.00000000000E+00 0. -1.
         21   -1    0    0  501  502  0.00000000000E+00 -0.00000000000E+00 -0.19879400944E+03  0.19879400944E+03  0.00000000000E+00 0. -1.
         23    2    1    2    0    0  0.26729926053E+02  0.64197554806E+02  0.60810520815E+01  0.11354446625E+03  0.89551949353E+02 0.  0.
        -24    2    1    2    0    0 -0.21387995062E+02 -0.84283307876E+02 -0.11388763761E+03  0.16437781140E+03  0.80551527363E+02 0.  0.
         11    1    4    4    0    0 -0.44286977296E+02 -0.74175185915E+02 -0.60664973209E+02  0.10556293638E+03  0.00000000000E+00 0. -1.
        -12    1    4    4    0    0  0.22898982234E+02 -0.10108121961E+02 -0.53222664405E+02  0.58814875018E+02  0.00000000000E+00 0.  1.
        -13    1    3    3    0    0  0.39413708775E+02  0.33467288340E+02 -0.33686463498E+02  0.61711244123E+02  0.00000000000E+00 0. -1.
         13    1    3    3    0    0 -0.12683782723E+02  0.30730266465E+02  0.39767515579E+02  0.51833222131E+02  0.00000000000E+00 0.  1.
          2    1    1    2  501    0 -0.53419309906E+01  0.20085753070E+02  0.12283088988E+02  0.24142244680E+02  0.00000000000E+00 0. -1.
<scales pt_clust_5="13000.00000" pt_clust_6="13000.00000" pt_clust_7="13000.00000" pt_clust_8="13000.00000" pt_clust_9="20.78399"></scales>
<clustering>
<clus scale="   20.784">  2  9  1 -1</clus>
<clus scale="   80.552">  5  6 -1 -1</clus>
<clus scale="   89.552">  7  8 -1 -1</clus>
<clus scale="  109.530">  2  5  1 -1</clus>
<clus scale="   20.784">  2  5  1 -1</clus>
</clustering>
</event>
<event>
 9    1  0.7719620E-005  0.8318574E+02  0.7546771E-02  0.1320596E+00
          1   -1    0    0  502    0 -0.00000000000E+00  0.00000000000E+00  0.29044247817E+03  0.29044247817E+03  0.00000000000E+00 0. -1.
         21   -1    0    0  501  502  0.00000000000E+00 -0.00000000000E+00 -0.19761486506E+03  0.19761486506E+03  0.00000000000E+00 0. -1.
         23    2    1    2    0    0  0.12682283111E+02 -0.15638144364E+02  0.25619954264E+03  0.26928229737E+03  0.80432320392E+02 0.  0.
        -24    2    1    2    0    0 -0.54519759863E+02  0.29761637105E+01 -0.83914131110E+02  0.12808743951E+03  0.79897115062E+02 0.  0.
         13    1    4    4    0    0 -0.50405463008E+02  0.30556051882E+02 -0.27259140944E+02  0.64941849162E+02  0.00000000000E+00 0. -1.
        -14    1    4    4    0    0 -0.41142968557E+01 -0.27579888171E+02 -0.56654990165E+02  0.63145590351E+02  0.00000000000E+00 0.  1.
        -11    1    3    3    0    0 -0.32575950120E+02 -0.40583522521E+01  0.70054875525E+02  0.77365033018E+02  0.00000000000E+00 0.  1.
         11    1    3    3    0    0  0.45258233231E+02 -0.11579792112E+02  0.18614466711E+03  0.19191726435E+03  0.00000000000E+00 0. -1.
          2    1    1    2  501    0  0.41837476752E+02  0.12661980654E+02 -0.79457798424E+02  0.90687606349E+02  0.00000000000E+00 0. -1.
<scales pt_clust_5="13000.00000" pt_clust_6="13000.00000" pt_clust_7="13000.00000" pt_clust_8="13000.00000" pt_clust_9="43.71156"></scales>
<clustering>
<clus scale="   43.712">  2  9  1 -1</clus>
<clus scale="   79.897">  5  6 -1 -1</clus>
<clus scale="   80.432">  7  8 -1 -1</clus>
<clus scale="   82.668">  2  5  1 -1</clus>
<clus scale="   43.712">  2  5  1 -1</clus>
</clustering>
</event>
<event>
 9    1  0.7719620E-005  0.3071279E+03  0.7546771E-02  0.1082027E+00
          1   -1    0    0  502    0 -0.00000000000E+00  0.00000000000E+00  0.23460201442E+04  0.23460201442E+04  0.00000000000E+00 0. -1.
         21   -1    0    0  501  502  0.00000000000E+00 -0.00000000000E+00 -0.62610445871E+02  0.62610445871E+02  0.00000000000E+00 0. -1.
        -24    2    1    2    0    0 -0.30117508171E+03  0.51880261094E+02  0.17082773182E+04  0.17372468093E+04  0.80106734873E+02 0.  0.
         23    2    1    2    0    0  0.25116974315E+03 -0.59632209155E+02  0.36841349453E+03  0.45856149759E+03  0.88926395844E+02 0.  0.
         13    1    3    3    0    0 -0.25947880303E+03  0.28979587205E+02  0.12815399347E+04  0.13078660749E+04  0.00000000000E+00 0. -1.
        -14    1    3    3    0    0 -0.41696278677E+02  0.22900673890E+02  0.42673738352E+03  0.42938073433E+03  0.00000000000E+00 0.  1.
        -11    1    4    4    0    0  0.15213113639E+03 -0.30615784480E+02  0.14463952405E+03  0.21213627893E+03  0.00000000000E+00 0. -1.
         11    1    4    4    0    0  0.99038606760E+02 -0.29016424675E+02  0.22377397048E+03  0.24642521866E+03  0.00000000000E+00 0.  1.
          2    1    1    2  501    0  0.50005338553E+02  0.77519480609E+01  0.20671888554E+03  0.21282228319E+03  0.00000000000E+00 0. -1.
<scales pt_clust_5="13000.00000" pt_clust_6="13000.00000" pt_clust_7="13000.00000" pt_clust_8="13000.00000" pt_clust_9="50.60266"></scales>
<clustering>
<clus scale="   50.603">  2  9  1 -1</clus>
<clus scale="   80.107">  5  6 -1 -1</clus>
<clus scale="   88.926">  7  8 -1 -1</clus>
<clus scale="  304.691">  1  5  2 -1</clus>
<clus scale="   50.603">  2  5  1 -1</clus>
</clustering>
</event>
<event>
 9    1  0.7719620E-005  0.1558520E+03  0.7546771E-02  0.1213923E+00
         21   -1    0    0  501  502  0.00000000000E+00  0.00000000000E+00  0.46593989616E+02  0.46593989616E+02  0.00000000000E+00 0. -1.
          1   -1    0    0  502    0 -0.00000000000E+00 -0.00000000000E+00 -0.90233527217E+03  0.90233527217E+03  0.00000000000E+00 0. -1.
        -24    2    1    2    0    0  0.50647569281E+02  0.62495037486E-01 -0.22221819976E+03  0.24376744780E+03  0.86466526007E+02 0.  0.
         23    2    1    2    0    0  0.31306697316E+01 -0.12357956344E+03 -0.20983615032E+03  0.26057303554E+03  0.92657364922E+02 0.  0.
         11    1    3    3    0    0  0.52299962408E+02  0.64848466892E+00 -0.22995814886E+03  0.23583141611E+03  0.00000000000E+00 0. -1.
        -12    1    3    3    0    0 -0.16523931277E+01 -0.58598963144E+00  0.77399490941E+01  0.79360316832E+01  0.00000000000E+00 0.  1.
        -11    1    4    4    0    0  0.74305327144E+01 -0.21325276829E+02 -0.12675664380E+03  0.12875258054E+03  0.00000000000E+00 0.  1.
         11    1    4    4    0    0 -0.42998629828E+01 -0.10225428661E+03 -0.83079506526E+02  0.13182045500E+03  0.00000000000E+00 0. -1.
          2    1    1    2  501    0 -0.53778239012E+02  0.12351706840E+03 -0.42368693247E+03  0.44458877845E+03  0.00000000000E+00 0. -1.
<scales pt_clust_5="13000.00000" pt_clust_6="13000.00000" pt_clust_7="13000.00000" pt_clust_8="13000.00000" pt_clust_9="125.31752"></scales>
<clustering>
<clus scale="   86.467">  5  6 -1 -1</clus>
<clus scale="   92.657">  7  8 -1 -1</clus>
<clus scale="  100.208">  2  5  1 -1</clus>
<clus scale="  125.318">  1  9  2 -1</clus>
<clus scale="  125.318">  1  5  2 -1</clus>
</clustering>
</event>
<event>
 9    1  0.7719620E-005  0.1628794E+03  0.7546771E-02  0.1209214E+00
          1   -1    0    0  502    0 -0.00000000000E+00  0.00000000000E+00  0.35111124493E+03  0.35111124493E+03  0.00000000000E+00 0. -1.
         21   -1    0    0  501  502  0.00000000000E+00 -0.00000000000E+00 -0.12248919945E+03  0.12248919945E+03  0.00000000000E+00 0. -1.
        -24    2    1    2    0    0 -0.52695187028E+02  0.19414567372E+02  0.69789165207E+02  0.11953771971E+03  0.79151946859E+02 0.  0.
         23    2    1    2    0    0  0.12360562504E+03  0.82273498426E+02  0.30835853663E+02  0.17587183891E+03  0.89066125803E+02 0.  0.
         13    1    3    3    0    0  0.80107000085E+01  0.18376901992E+02  0.52819808956E+02  0.56496141989E+02  0.00000000000E+00 0. -1.
        -14    1    3    3    0    0 -0.60705887036E+02  0.10376653797E+01  0.16969356252E+02  0.63041577724E+02  0.00000000000E+00 0.  1.
        -11    1    4    4    0    0  0.97212683459E+02  0.37896323230E+02 -0.16727838806E+02  0.10567051495E+03  0.00000000000E+00 0. -1.
         11    1    4    4    0    0  0.26392941580E+02  0.44377175196E+02  0.47563692469E+02  0.70201323954E+02  0.00000000000E+00 0.  1.
          2    1    1    2  501    0 -0.70910438010E+02 -0.10168806580E+03  0.12799702662E+03  0.17819088576E+03  0.00000000000E+00 0. -1.
<scales pt_clust_5="13000.00000" pt_clust_6="13000.00000" pt_clust_7="13000.00000" pt_clust_8="13000.00000" pt_clust_9="136.37062"></scales>
<clustering>
<clus scale="   79.152">  5  6 -1 -1</clus>
<clus scale="   89.066">  7  8 -1 -1</clus>
<clus scale="   97.050">  1  5  2 -1</clus>
<clus scale="  136.371">  2  9  1 -1</clus>
<clus scale="  136.371">  2  5  1 -1</clus>
</clustering>
</event>
<event>
 9    1  0.7719620E-005  0.1538987E+03  0.7546771E-02  0.1197095E+00
         21   -1    0    0  501  502  0.00000000000E+00  0.00000000000E+00  0.30432619808E+03  0.30432619808E+03  0.00000000000E+00 0. -1.
          3   -1    0    0  502    0 -0.00000000000E+00 -0.00000000000E+00 -0.36866500633E+03  0.36866500633E+03  0.00000000000E+00 0. -1.
         23    2    1    2    0    0 -0.11711417365E+03 -0.23146465093E+02 -0.15685017717E+03  0.21712755468E+03  0.91054425535E+02 0.  0.
        -24    2    1    2    0    0  0.12946983969E+03  0.14834796090E+03  0.19819816046E+03  0.29155365324E+03  0.83375446135E+02 0.  0.
         13    1    4    4    0    0  0.78240010272E+02  0.96232938461E+02  0.65979574395E+02  0.14048338653E+03  0.00000000000E+00 0. -1.
        -14    1    4    4    0    0  0.51229829419E+02  0.52115022440E+02  0.13221858606E+03  0.15107026672E+03  0.00000000000E+00 0.  1.
        -13    1    3    3    0    0 -0.39061171017E+02  0.24708606838E+02 -0.97826124996E+02  0.10819538375E+03  0.00000000000E+00 0.  1.
         13    1    3    3    0    0 -0.78053002632E+02 -0.47855071932E+02 -0.59024052170E+02  0.10893217093E+03  0.00000000000E+00 0. -1.
          4    1    1    2  501    0 -0.12355666042E+02 -0.12520149581E+03 -0.10568679154E+03  0.16430999648E+03  0.00000000000E+00 0. -1.
<scales pt_clust_5="13000.00000" pt_clust_6="13000.00000" pt_clust_7="13000.00000" pt_clust_8="13000.00000" pt_clust_9="125.80975"></scales>
<clustering>
<clus scale="   83.375">  5  6 -1 -1</clus>
<clus scale="   91.054">  7  8 -1 -1</clus>
<clus scale="  125.810">  1  9  2 -1</clus>
<clus scale="  149.484">  1  5  2 -1</clus>
<clus scale="  125.810">  1  5  2 -1</clus>
</clustering>
</event>
<event>
 9    1  0.7719620E-005  0.1644161E+03  0.7546771E-02  0.1209361E+00
         21   -1    0    0  501  502  0.00000000000E+00  0.00000000000E+00  0.20130257974E+03  0.20130257974E+03  0.00000000000E+00 0.  1.
         -2   -1    0    0    0  501 -0.00000000000E+00 -0.00000000000E+00 -0.22853771146E+03  0.22853771146E+03  0.00000000000E+00 0.  1.
        -24    2    1    2    0    0 -0.57143974224E+01 -0.48077333598E+02  0.11775905134E+02  0.94791166484E+02  0.80638755930E+02 0.  0.
         23    2    1    2    0    0 -0.11271348961E+03  0.10625192133E+03 -0.80021460963E+02  0.19687784706E+03  0.91452998432E+02 0.  0.
         11    1    3    3    0    0 -0.23273940885E+02 -0.57115883480E+02  0.29397135380E+02  0.68323436964E+02  0.00000000000E+00 0. -1.
        -12    1    3    3    0    0  0.17559543462E+02  0.90385498821E+01 -0.17621230246E+02  0.26467729520E+02  0.00000000000E+00 0.  1.
        -13    1    4    4    0    0 -0.15094877787E+02  0.63755099369E+02 -0.32137246909E+01  0.65596463757E+02  0.00000000000E+00 0.  1.
         13    1    4    4    0    0 -0.97618611820E+02  0.42496821959E+02 -0.76807736272E+02  0.13128138330E+03  0.00000000000E+00 0. -1.
         -1    1    1    2    0  502  0.11842788703E+03 -0.58174587730E+02  0.41010424105E+02  0.13817127766E+03  0.00000000000E+00 0.  1.
<scales pt_clust_5="13000.00000" pt_clust_6="13000.00000" pt_clust_7="13000.00000" pt_clust_8="13000.00000" pt_clust_9="136.63453"></scales>
<clustering>
<clus scale="   80.639">  5  6 -1 -1</clus>
<clus scale="   91.453">  7  8 -1 -1</clus>
<clus scale="   94.057">  2  5  1 -1</clus>
<clus scale="  136.635">  1  9  2 -1</clus>
<clus scale="  136.635">  1  5  2 -1</clus>
</clustering>
</event>
<event>
 9    1  0.7719620E-005  0.1100279E+03  0.7546771E-02  0.1264308E+00
         -4   -1    0    0    0  501 -0.00000000000E+00  0.00000000000E+00  0.14078201402E+03  0.14078201402E+03  0.00000000000E+00 0.  1.
         21   -1    0    0  501  502  0.00000000000E+00 -0.00000000000E+00 -0.20714317417E+03  0.20714317417E+03  0.00000000000E+00 0.  1.
         23    2    1    2    0    0  0.75284535943E+02 -0.22647798934E+02  0.72872807254E+02  0.14118733636E+03  0.91884349938E+02 0.  0.
        -24    2    1    2    0    0 -0.11197393502E+02 -0.44949538833E+01 -0.78272008160E+02  0.11421622553E+03  0.82299773282E+02 0.  0.
         11    1    4    4    0    0 -0.17423900236E+02 -0.41654394151E+02 -0.47852356583E+02  0.65791556313E+02  0.00000000000E+00 0. -1.
        -12    1    4    4    0    0  0.62265067345E+01  0.37159440268E+02 -0.30419651577E+02  0.48424669222E+02  0.00000000000E+00 0.  1.
        -11    1    3    3    0    0  0.25241488328E+02 -0.55564218420E+02  0.36621130165E+02  0.71173185092E+02  0.00000000000E+00 0.  1.
         11    1    3    3    0    0  0.50043047615E+02  0.32916419486E+02  0.36251677089E+02  0.70014151271E+02  0.00000000000E+00 0. -1.
         -3    1    1    2    0  502 -0.64087142441E+02  0.27142752817E+02 -0.60961959243E+02  0.92521626291E+02  0.00000000000E+00 0.  1.
<scales pt_clust_5="13000.00000" pt_clust_6="13000.00000" pt_clust_7="13000.00000" pt_clust_8="13000.00000" pt_clust_9="69.59807"></scales>
<clustering>
<clus scale="   69.598">  2  9  1 -1</clus>
<clus scale="   82.300">  5  6 -1 -1</clus>
<clus scale="   91.884">  7  8 -1 -1</clus>
<clus scale="  102.160">  2  5  1 -1</clus>
<clus scale="   69.598">  2  5  1 -1</clus>
</clustering>
</event>
<event>
 9    1  0.7719620E-005  0.1902069E+03  0.7546771E-02  0.1159222E+00
         21   -1    0    0  501  502  0.00000000000E+00  0.00000000000E+00  0.10845231106E+04  0.10845231106E+04  0.00000000000E+00 0. -1.
          3   -1    0    0  502    0 -0.00000000000E+00 -0.00000000000E+00 -0.24418448477E+03  0.24418448477E+03  0.00000000000E+00 0. -1.
         23    2    1    2    0    0 -0.15844794795E+03  0.18460790468E+02 -0.14714088664E+03  0.23467271393E+03  0.89298875393E+02 0.  0.
        -24    2    1    2    0    0  0.29310813039E+03  0.59782297261E+02  0.57414809296E+03  0.65233565361E+03  0.80059185346E+02 0.  0.
         13    1    4    4    0    0  0.18752853440E+03  0.74930968622E+02  0.40081806540E+03  0.44881702600E+03  0.00000000000E+00 0. -1.
        -14    1    4    4    0    0  0.10557959598E+03 -0.15148671361E+02  0.17333002757E+03  0.20351862762E+03  0.00000000000E+00 0.  1.
        -11    1    3    3    0    0 -0.10441822490E+03  0.16956066346E+02 -0.37151408680E+02  0.11212002963E+03  0.00000000000E+00 0.  1.
         11    1    3    3    0    0 -0.54029723058E+02  0.15047241216E+01 -0.10998947796E+03  0.12255268430E+03  0.00000000000E+00 0. -1.
          4    1    1    2  501    0 -0.13466018243E+03 -0.78243087729E+02  0.41333141954E+03  0.44169922785E+03  0.00000000000E+00 0. -1.
<scales pt_clust_5="13000.00000" pt_clust_6="13000.00000" pt_clust_7="13000.00000" pt_clust_8="13000.00000" pt_clust_9="155.74128"></scales>
<clustering>
<clus scale="   80.059">  5  6 -1 -1</clus>
<clus scale="   89.299">  7  8 -1 -1</clus>
<clus scale="  155.741">  1  9  2 -1</clus>
<clus scale="  186.048">  1  5  2 -1</clus>
<clus scale="  155.741">  1  5  2 -1</clus>
</clustering>
</event>
<event>
 9    1  0.7719620E-005  0.1104385E+03  0.7546771E-02  0.1262934E+00
          3   -1    0    0  502    0 -0.00000000000E+00  0.00000000000E+00  0.94824137555E+03  0.94824137555E+03  0.00000000000E+00 0. -1.
         21   -1    0    0  501  502  0.00000000000E+00 -0.00000000000E+00 -0.32138687605E+02  0.32138687605E+02  0.00000000000E+00 0.  1.
        -24    2    1    2    0    0  0.19772073966E+02  0.64914354226E+02  0.34437921395E+03  0.36030651632E+03  0.81356833813E+02 0.  0.
         23    2    1    2    0    0  0.76391945873E+02 -0.60661044165E+02  0.23421992431E+03  0.26911164661E+03  0.89702919266E+02 0.  0.
         11    1    3    3    0    0 -0.12260589919E+02  0.69193699550E+02  0.18994196456E+03  0.20252417146E+03  0.00000000000E+00 0. -1.
        -12    1    3    3    0    0  0.32032663884E+02 -0.42793453238E+01  0.15443724939E+03  0.15778234486E+03  0.00000000000E+00 0.  1.
        -13    1    4    4    0    0  0.58926273157E+02  0.78719601659E+01  0.82194351252E+02  0.10144054812E+03  0.00000000000E+00 0. -1.
         13    1    4    4    0    0  0.17465672716E+02 -0.68533004331E+02  0.15202557306E+03  0.16767109849E+03  0.00000000000E+00 0.  1.
          4    1    1    2  501    0 -0.96164019839E+02 -0.42533100610E+01  0.33750354969E+03  0.35096190023E+03  0.00000000000E+00 0. -1.
<scales pt_clust_5="13000.00000" pt_clust_6="13000.00000" pt_clust_7="13000.00000" pt_clust_8="13000.00000" pt_clust_9="96.25808"></scales>
<clustering>
<clus scale="   81.357">  5  6 -1 -1</clus>
<clus scale="   89.703">  7  8 -1 -1</clus>
<clus scale="   96.258">  2  9  1 -1</clus>
<clus scale="  103.774">  1  5  2 -1</clus>
<clus scale="   96.258">  2  5  1 -1</clus>
</clustering>
</event>
<event>
 9    1  0.7719620E-005  0.1062742E+03  0.7546771E-02  0.1274067E+00
          1   -1    0    0  502    0 -0.00000000000E+00  0.00000000000E+00  0.24757408113E+03  0.24757408113E+03  0.00000000000E+00 0. -1.
         21   -1    0    0  501  502  0.00000000000E+00 -0.00000000000E+00 -0.83405137786E+02  0.83405137786E+02  0.00000000000E+00 0.  1.
        -24    2    1    2    0    0  0.50505885848E+02 -0.32476322688E+02  0.17830311254E+03  0.20293392487E+03  0.76056701760E+02 0.  0.
         23    2    1    2    0    0 -0.23126684180E+02  0.27316397263E+02 -0.22639781722E+01  0.97760859938E+02  0.90945209099E+02 0.  0.
         13    1    3    3    0    0  0.27601719686E+02 -0.71468375823E+01  0.16306510157E+03  0.16553899712E+03  0.00000000000E+00 0. -1.
        -14    1    3    3    0    0  0.22904166161E+02 -0.25329485106E+02  0.15238010965E+02  0.37394927750E+02  0.00000000000E+00 0.  1.
        -13    1    4    4    0    0 -0.39426001051E+02 -0.16709856303E+02  0.18225135428E+02  0.46537988976E+02  0.00000000000E+00 0.  1.
         13    1    4    4    0    0  0.16299316871E+02  0.44026253566E+02 -0.20489113600E+02  0.51222870962E+02  0.00000000000E+00 0. -1.
          2    1    1    2  501    0 -0.27379201668E+02  0.51599254251E+01 -0.11870191020E+02  0.30284434108E+02  0.00000000000E+00 0. -1.
<scales pt_clust_5="13000.00000" pt_clust_6="13000.00000" pt_clust_7="13000.00000" pt_clust_8="13000.00000" pt_clust_9="27.86118"></scales>
<clustering>
<clus scale="   27.861">  2  9  1 -1</clus>
<clus scale="   76.057">  5  6 -1 -1</clus>
<clus scale="   90.945">  7  8 -1 -1</clus>
<clus scale="   93.850">  1  5  2 -1</clus>
<clus scale="   27.861">  2  5  1 -1</clus>
</clustering>
</event>
<event>
 9    1  0.7719620E-005  0.1707212E+03  0.7546771E-02  0.1201926E+00
         21   -1    0    0  501  502  0.00000000000E+00  0.00000000000E+00  0.95442230514E+03  0.95442230514E+03  0.00000000000E+00 0. -1.
          1   -1    0    0  502    0 -0.00000000000E+00 -0.00000000000E+00 -0.70253912619E+02  0.70253912619E+02  0.00000000000E+00 0. -1.
         23    2    1    2    0    0 -0.30339663711E+02  0.32513209854E+02  0.32291135008E+02  0.10374084539E+03  0.87987735472E+02 0.  0.
        -24    2    1    2    0    0 -0.13716742697E+03  0.14424987787E+02  0.54492435734E+03  0.56811544272E+03  0.82399136802E+02 0.  0.
         13    1    4    4    0    0 -0.78037392077E+02  0.48944945987E+02  0.32128042995E+03  0.33422530869E+03  0.00000000000E+00 0. -1.
        -14    1    4    4    0    0 -0.59130034896E+02 -0.34519958200E+02  0.22364392739E+03  0.23389013403E+03  0.00000000000E+00 0.  1.
        -13    1    3    3    0    0 -0.51947506521E+02 -0.75853738358E+01  0.11874521873E+02  0.53824581742E+02  0.00000000000E+00 0.  1.
         13    1    3    3    0    0  0.21607842810E+02  0.40098583689E+02  0.20416613135E+02  0.49916263650E+02  0.00000000000E+00 0. -1.
          2    1    1    2  501    0  0.16750709068E+03 -0.46938197641E+02  0.30695290017E+03  0.35281992964E+03  0.00000000000E+00 0. -1.
<scales pt_clust_5="13000.00000" pt_clust_6="13000.00000" pt_clust_7="13000.00000" pt_clust_8="13000.00000" pt_clust_9="149.51968"></scales>
<clustering>
<clus scale="   82.399">  5  6 -1 -1</clus>
<clus scale="   87.988">  7  8 -1 -1</clus>
<clus scale="   98.587">  2  7  1 -1</clus>
<clus scale="  149.520">  1  9  2 -1</clus>
<clus scale="  149.520">  1  5  2 -1</clus>
</clustering>
</event>
<event>
 9    1  0.7719620E-005  0.9997101E+02  0.7546771E-02  0.1285630E+00
         21   -1    0    0  501  502  0.00000000000E+00  0.00000000000E+00  0.20307566176E+03  0.20307566176E+03  0.00000000000E+00 0. -1.
          1   -1    0    0  502    0 -0.00000000000E+00 -0.00000000000E+00 -0.22749768439E+03  0.22749768439E+03  0.00000000000E+00 0. -1.
         23    2    1    2    0    0 -0.37106082854E+02  0.32857244807E+02 -0.17734987808E+03  0.20512839866E+03  0.90378209548E+02 0.  0.
        -24    2    1    2    0    0  0.18911342698E+02 -0.64588002166E+01  0.14653765319E+02  0.83502528005E+02  0.79740732141E+02 0.  0.
         13    1    4    4    0    0  0.16743123386E+02  0.22889066460E+02  0.36952648964E+02  0.46580465966E+02  0.00000000000E+00 0. -1.
        -14    1    4    4    0    0  0.21682193119E+01 -0.29347866677E+02 -0.22298883645E+02  0.36922062040E+02  0.00000000000E+00 0.  1.
        -11    1    3    3    0    0  0.29368732977E+02  0.19312105918E+02 -0.64544991456E+02  0.73495141566E+02  0.00000000000E+00 0.  1.
         11    1    3    3    0    0 -0.66474815831E+02  0.13545138889E+02 -0.11280488663E+03  0.13163325710E+03  0.00000000000E+00 0. -1.
          2    1    1    2  501    0  0.18194740156E+02 -0.26398444590E+02  0.13827409013E+03  0.14194241948E+03  0.00000000000E+00 0. -1.
<scales pt_clust_5="13000.00000" pt_clust_6="13000.00000" pt_clust_7="13000.00000" pt_clust_8="13000.00000" pt_clust_9="32.06129"></scales>
<clustering>
<clus scale="   32.061">  1  9  2 -1</clus>
<clus scale="   79.741">  5  6 -1 -1</clus>
<clus scale="   90.378">  7  8 -1 -1</clus>
<clus scale="   90.469">  1  5  2 -1</clus>
<clus scale="   32.061">  1  5  2 -1</clus>
</clustering>
</event>
<event>
 9    1  0.7719620E-005  0.1598172E+03  0.7546771E-02  0.1190691E+00
         21   -1    0    0  501  502  0.00000000000E+00  0.00000000000E+00  0.12045600760E+04  0.12045600760E+04  0.00000000000E+00 0.  1.
          3   -1    0    0  502    0 -0.00000000000E+00 -0.00000000000E+00 -0.32390418066E+02  0.32390418066E+02  0.00000000000E+00 0. -1.
         23    2    1    2    0    0  0.54532089550E+02  0.12629715427E+03  0.24582298772E+03  0.29623357134E+03  0.91655155516E+02 0.  0.
        -24    2    1    2    0    0 -0.44882229729E+02 -0.10184636657E+03  0.79479940689E+03  0.80656908151E+03  0.80377167963E+02 0.  0.
         13    1    4    4    0    0  0.13964790236E+02 -0.58963633711E+02  0.26823415855E+03  0.27499325316E+03  0.00000000000E+00 0. -1.
        -14    1    4    4    0    0 -0.58847019965E+02 -0.42882732860E+02  0.52656524834E+03  0.53157582836E+03  0.00000000000E+00 0.  1.
        -13    1    3    3    0    0  0.40104003646E+02  0.39924806232E+02  0.31624261008E+02  0.64826037558E+02  0.00000000000E+00 0.  1.
         13    1    3    3    0    0  0.14428085904E+02  0.86372348034E+02  0.21419872671E+03  0.23140753379E+03  0.00000000000E+00 0. -1.
          4    1    1    2  501    0 -0.96498598205E+01 -0.24450787695E+02  0.13154726331E+03  0.13414784119E+03  0.00000000000E+00 0. -1.
<scales pt_clust_5="13000.00000" pt_clust_6="13000.00000" pt_clust_7="13000.00000" pt_clust_8="13000.00000" pt_clust_9="26.28613"></scales>
<clustering>
<clus scale="   26.286">  1  9  2 -1</clus>
<clus scale="   80.377">  5  6 -1 -1</clus>
<clus scale="   91.655">  7  8 -1 -1</clus>
<clus scale="  153.627">  1  5  2 -1</clus>
<clus scale="   26.286">  1  5  2 -1</clus>
</clustering>
</event>
<event>
 9    1  0.7719620E-005  0.1043601E+03  0.7546771E-02  0.1277877E+00
         21   -1    0    0  501  502  0.00000000000E+00  0.00000000000E+00  0.37244925743E+02  0.37244925743E+02  0.00000000000E+00 0. -1.
          1   -1    0    0  502    0 -0.00000000000E+00 -0.00000000000E+00 -0.96133059564E+03  0.96133059564E+03  0.00000000000E+00 0. -1.
         23    2    1    2    0    0  0.11999755165E+01 -0.58294399670E+02 -0.33091110939E+03  0.34852027453E+03  0.92544813296E+02 0.  0.
        -24    2    1    2    0    0  0.63317390194E+02  0.94766270809E+01 -0.76119243610E+02  0.12670845348E+03  0.78498373067E+02 0.  0.
         13    1    4    4    0    0  0.58364452687E+02  0.39474878995E+02 -0.47682028092E+02  0.85077912598E+02  0.00000000000E+00 0. -1.
        -14    1    4    4    0    0  0.49529375068E+01 -0.29998251914E+02 -0.28437215518E+02  0.41630540883E+02  0.00000000000E+00 0.  1.
        -11    1    3    3    0    0 -0.12414608648E+02  0.23092333691E+02 -0.97004345788E+02  0.10048493163E+03  0.00000000000E+00 0.  1.
         11    1    3    3    0    0  0.13614584165E+02 -0.81386733361E+02 -0.23390676360E+03  0.24803534290E+03  0.00000000000E+00 0. -1.
          2    1    1    2  501    0 -0.64517365710E+02  0.48817772590E+02 -0.51705531690E+03  0.52334679337E+03  0.00000000000E+00 0. -1.
<scales pt_clust_5="13000.00000" pt_clust_6="13000.00000" pt_clust_7="13000.00000" pt_clust_8="13000.00000" pt_clust_9="80.90533"></scales>
<clustering>
<clus scale="   78.498">  5  6 -1 -1</clus>
<clus scale="   80.905">  1  9  2 -1</clus>
<clus scale="   92.133">  1  5  2 -1</clus>
<clus scale="   92.545">  7  8 -1 -1</clus>
<clus scale="   80.905">  1  5  2 -1</clus>
</clustering>
</event>
<event>
 9    1  0.7719620E-005  0.1659187E+03  0.7546771E-02  0.1212248E+00
         21   -1    0    0  501  502  0.00000000000E+00  0.00000000000E+00  0.10658356466E+04  0.10658356466E+04  0.00000000000E+00 0. -1.
          1   -1    0    0  502    0 -0.00000000000E+00 -0.00000000000E+00 -0.43326009038E+03  0.43326009038E+03  0.00000000000E+00 0. -1.
        -24    2    1    2    0    0 -0.33148926216E+02 -0.95469117364E+01 -0.15621309319E+03  0.17835097561E+03  0.78845070760E+02 0.  0.
         23    2    1    2    0    0 -0.10440498644E+03  0.35918433885E+02 -0.24185708913E+03  0.28062593430E+03  0.89808286654E+02 0.  0.
         13    1    3    3    0    0 -0.49421450768E+02 -0.66757954276E+01 -0.15376095140E+03  0.16164614507E+03  0.00000000000E+00 0. -1.
        -14    1    3    3    0    0  0.16272524552E+02 -0.28711163089E+01 -0.24521417985E+01  0.16704830545E+02  0.00000000000E+00 0.  1.
        -13    1    4    4    0    0 -0.10540069870E+03  0.55940968888E+02 -0.18316871832E+03  0.21860804802E+03  0.00000000000E+00 0. -1.
         13    1    4    4    0    0  0.99571225429E+00 -0.20022535003E+02 -0.58688370805E+02  0.62017886280E+02  0.00000000000E+00 0.  1.
          2    1    1    2  501    0  0.13755391266E+03 -0.26371522149E+02  0.10306457386E+04  0.10401188271E+04  0.00000000000E+00 0. -1.
<scales pt_clust_5="13000.00000" pt_clust_6="13000.00000" pt_clust_7="13000.00000" pt_clust_8="13000.00000" pt_clust_9="139.51158"></scales>
<clustering>
<clus scale="   78.845">  5  6 -1 -1</clus>
<clus scale="   86.061">  2  5  1 -1</clus>
<clus scale="   89.808">  7  8 -1 -1</clus>
<clus scale="  139.512">  1  9  2 -1</clus>
<clus scale="  139.512">  1  5  2 -1</clus>
</clustering>
</event>
<event>
 9    1  0.7719620E-005  0.9514852E+02  0.7546771E-02  0.1297168E+00
         21   -1    0    0  501  502  0.00000000000E+00  0.00000000000E+00  0.23864838806E+03  0.23864838806E+03  0.00000000000E+00 0. -1.
          1   -1    0    0  502    0 -0.00000000000E+00 -0.00000000000E+00 -0.57658505339E+02  0.57658505339E+02  0.00000000000E+00 0. -1.
         23    2    1    2    0    0 -0.42884074939E+02 -0.51198835519E+01  0.28399639205E+02  0.10338001347E+03  0.89530054099E+02 0.  0.
        -24    2    1    2    0    0  0.90222277811E+01  0.19461038765E+02  0.99864174057E+02  0.12864366419E+03  0.78206179112E+02 0.  0.
         11    1    4    4    0    0 -0.69922774992E+01  0.47045295222E+02  0.46768677436E+02  0.66704279745E+02  0.00000000000E+00 0. -1.
        -12    1    4    4    0    0  0.16014505280E+02 -0.27584256457E+02  0.53095496621E+02  0.61939384442E+02  0.00000000000E+00 0.  1.
        -13    1    3    3    0    0  0.22491404453E+02  0.13451117222E+02  0.23569590073E+02  0.35246580046E+02  0.00000000000E+00 0.  1.
         13    1    3    3    0    0 -0.65375479391E+02 -0.18571000774E+02  0.48300491319E+01  0.68133433423E+02  0.00000000000E+00 0. -1.
          2    1    1    2  501    0  0.33861847158E+02 -0.14341155213E+02  0.52726069464E+02  0.64283215748E+02  0.00000000000E+00 0. -1.
<scales pt_clust_5="13000.00000" pt_clust_6="13000.00000" pt_clust_7="13000.00000" pt_clust_8="13000.00000" pt_clust_9="36.77354"></scales>
<clustering>
<clus scale="   36.774">  1  9  2 -1</clus>
<clus scale="   78.206">  5  6 -1 -1</clus>
<clus scale="   84.580">  1  5  2 -1</clus>
<clus scale="   89.530">  7  8 -1 -1</clus>
<clus scale="   36.774">  1  5  2 -1</clus>
</clustering>
</event>
<event>
 9    1  0.7719620E-005  0.9709563E+02  0.7546771E-02  0.1292994E+00
         21   -1    0    0  501  502  0.00000000000E+00  0.00000000000E+00  0.17409499520E+03  0.17409499520E+03  0.00000000000E+00 0. -1.
          1   -1    0    0  502    0 -0.00000000000E+00 -0.00000000000E+00 -0.54879402288E+03  0.54879402288E+03  0.00000000000E+00 0. -1.
         23    2    1    2    0    0 -0.25531623866E+02 -0.11228421244E+02 -0.28520942979E+03  0.30126048122E+03  0.92927484869E+02 0.  0.
        -24    2    1    2    0    0 -0.22229390888E+02  0.47387452886E+02 -0.24048267406E+03  0.25918624202E+03  0.81276534231E+02 0.  0.
         11    1    4    4    0    0 -0.43532636515E+02 -0.11921382390E+01 -0.11363001113E+03  0.12168932191E+03  0.00000000000E+00 0. -1.
        -12    1    4    4    0    0  0.21303245628E+02  0.48579591125E+02 -0.12685266293E+03  0.13749692011E+03  0.00000000000E+00 0.  1.
        -11    1    3    3    0    0 -0.46268365630E+02  0.16348105193E+02 -0.23669294371E+03  0.24172623317E+03  0.00000000000E+00 0.  1.
         11    1    3    3    0    0  0.20736741765E+02 -0.27576526437E+02 -0.48516486084E+02  0.59534248054E+02  0.00000000000E+00 0. -1.
          2    1    1    2  501    0  0.47761014753E+02 -0.36159031642E+02  0.15099307617E+03  0.16244229483E+03  0.00000000000E+00 0. -1.
<scales pt_clust_5="13000.00000" pt_clust_6="13000.00000" pt_clust_7="13000.00000" pt_clust_8="13000.00000" pt_clust_9="59.90484"></scales>
<clustering>
<clus scale="   59.905">  1  9  2 -1</clus>
<clus scale="   81.277">  5  6 -1 -1</clus>
<clus scale="   86.011">  1  5  2 -1</clus>
<clus scale="   92.927">  7  8 -1 -1</clus>
<clus scale="   59.905">  1  5  2 -1</clus>
</clustering>
</event>
<event>
 9    1  0.7719620E-005  0.3287593E+03  0.7546771E-02  0.1071687E+00
          1   -1    0    0  502    0 -0.00000000000E+00  0.00000000000E+00  0.94270267504E+03  0.94270267504E+03  0.00000000000E+00 0. -1.
         21   -1    0    0  501  502  0.00000000000E+00 -0.00000000000E+00 -0.99727081870E+02  0.99727081870E+02  0.00000000000E+00 0. -1.
        -24    2    1    2    0    0  0.12159483945E+03 -0.88197996960E+02  0.36471874222E+03  0.40238848171E+03  0.79577243224E+02 0.  0.
         23    2    1    2    0    0  0.11469495935E+03 -0.40877272531E+02  0.21153731351E+03  0.26105234941E+03  0.92598104838E+02 0.  0.
         11    1    3    3    0    0  0.12010563025E+03 -0.91402043112E+02  0.36788641121E+03  0.39764319114E+03  0.00000000000E+00 0. -1.
        -12    1    3    3    0    0  0.14892091971E+01  0.32040461511E+01 -0.31676689935E+01  0.47452905731E+01  0.00000000000E+00 0.  1.
        -11    1    4    4    0    0  0.29915571202E+02  0.19729810255E+02  0.10944811219E+03  0.11516551600E+03  0.00000000000E+00 0.  1.
         11    1    4    4    0    0  0.84779388151E+02 -0.60607082786E+02  0.10208920131E+03  0.14588683341E+03  0.00000000000E+00 0. -1.
          2    1    1    2  501    0 -0.23628979880E+03  0.12907526949E+03  0.26671953744E+03  0.37898892578E+03  0.00000000000E+00 0. -1.
<scales pt_clust_5="13000.00000" pt_clust_6="13000.00000" pt_clust_7="13000.00000" pt_clust_8="13000.00000" pt_clust_9="269.24579"></scales>
<clustering>
<clus scale="   79.577">  5  6 -1 -1</clus>
<clus scale="   92.598">  7  8 -1 -1</clus>
<clus scale="  111.785">  5  7 -1 -1</clus>
<clus scale="  269.246">  2  9  1 -1</clus>
<clus scale="  269.246">  2  5  1 -1</clus>
</clustering>
</event>
<event>
 9    1  0.7719620E-005  0.1101549E+03  0.7546771E-02  0.1264491E+00
          1   -1    0    0  502    0 -0.00000000000E+00  0.00000000000E+00  0.16717757229E+03  0.16717757229E+03  0.00000000000E+00 0. -1.
         21   -1    0    0  501  502  0.00000000000E+00 -0.00000000000E+00 -0.18028754727E+03  0.18028754727E+03  0.00000000000E+00 0. -1.
         23    2    1    2    0    0  0.38027229884E+02 -0.42229340352E+01  0.19505284944E+02  0.10107321411E+03  0.91495546811E+02 0.  0.
        -24    2    1    2    0    0 -0.53954459827E+02  0.95698664133E+02  0.22793887408E+02  0.13826392822E+03  0.80796252958E+02 0.  0.
         11    1    4    4    0    0 -0.47150857934E+02  0.10051019031E+03 -0.30986395228E+01  0.11106351033E+03  0.00000000000E+00 0. -1.
        -12    1    4    4    0    0 -0.68036018933E+01 -0.48115261720E+01  0.25892526931E+02  0.27200417896E+02  0.00000000000E+00 0.  1.
        -13    1    3    3    0    0  0.66670658186E+02  0.95956540878E+01  0.14015949599E+02  0.68800436652E+02  0.00000000000E+00 0.  1.
         13    1    3    3    0    0 -0.28643428302E+02 -0.13818588123E+02  0.54893353450E+01  0.32272777463E+02  0.00000000000E+00 0. -1.
          2    1    1    2  501    0  0.15927229943E+02 -0.91475730098E+02 -0.55409147326E+02  0.10812797722E+03  0.00000000000E+00 0. -1.
<scales pt_clust_5="13000.00000" pt_clust_6="13000.00000" pt_clust_7="13000.00000" pt_clust_8="13000.00000" pt_clust_9="92.85196"></scales>
<clustering>
<clus scale="   80.796">  5  6 -1 -1</clus>
<clus scale="   91.496">  7  8 -1 -1</clus>
<clus scale="   92.852">  2  9  1 -1</clus>
<clus scale="  101.443">  2  5  1 -1</clus>
<clus scale="   92.852">  2  5  1 -1</clus>
</clustering>
</event>
<event>
 9    1  0.7719620E-005  0.1111086E+03  0.7546771E-02  0.1266712E+00
          1   -1    0    0  502    0 -0.00000000000E+00  0.00000000000E+00  0.27964052620E+03  0.27964052620E+03  0.00000000000E+00 0. -1.
         21   -1    0    0  501  502  0.00000000000E+00 -0.00000000000E+00 -0.79996589243E+02  0.79996589243E+02  0.00000000000E+00 0.  1.
        -24    2    1    2    0    0 -0.31139817498E+02 -0.30065849867E+02  0.17892270283E+03  0.20132295261E+03  0.81510453905E+02 0.  0.
         23    2    1    2    0    0  0.54595380037E+02  0.49677193354E+02  0.64332246519E+01  0.12456634184E+03  0.10013445001E+03 0.  0.
         11    1    3    3    0    0  0.60264006957E+01 -0.45362817786E+02  0.13108379247E+03  0.13884186470E+03  0.00000000000E+00 0. -1.
        -12    1    3    3    0    0 -0.37166218194E+02  0.15296967919E+02  0.47838910357E+02  0.62481087911E+02  0.00000000000E+00 0.  1.
        -13    1    4    4    0    0 -0.43416397270E+01 -0.19812508071E+02  0.24363784210E+02  0.31701408369E+02  0.00000000000E+00 0. -1.
         13    1    4    4    0    0  0.58937019764E+02  0.69489701425E+02 -0.17930559558E+02  0.92864933472E+02  0.00000000000E+00 0.  1.
          2    1    1    2  501    0 -0.23455562538E+02 -0.19611343487E+02  0.14288009477E+02  0.33747820999E+02  0.00000000000E+00 0. -1.
<scales pt_clust_5="13000.00000" pt_clust_6="13000.00000" pt_clust_7="13000.00000" pt_clust_8="13000.00000" pt_clust_9="30.57398"></scales>
<clustering>
<clus scale="   30.574">  2  9  1 -1</clus>
<clus scale="   81.510">  5  6 -1 -1</clus>
<clus scale="   94.669">  1  5  2 -1</clus>
<clus scale="  100.134">  7  8 -1 -1</clus>
<clus scale="   30.574">  2  5  1 -1</clus>
</clustering>
</event>
<event>
 9    1  0.7719620E-005  0.1104988E+03  0.7546771E-02  0.1262853E+00
         -4   -1    0    0    0  501 -0.00000000000E+00  0.00000000000E+00  0.15495569838E+03  0.15495569838E+03  0.00000000000E+00 0.  1.
         21   -1    0    0  501  502  0.00000000000E+00 -0.00000000000E+00 -0.31660204617E+03  0.31660204617E+03  0.00000000000E+00 0.  1.
         23    2    1    2    0    0 -0.64477528038E+02  0.24352770030E+02  0.10405937438E+03  0.15237127896E+03  0.87397049303E+02 0.  0.
        -24    2    1    2    0    0  0.65749082600E+02  0.53901253064E+00 -0.75504025034E+02  0.12735866968E+03  0.78715567389E+02 0.  0.
         13    1    4    4    0    0  0.69309790901E+02 -0.23535199705E+02 -0.37533852327E+02  0.82258998355E+02  0.00000000000E+00 0. -1.
        -14    1    4    4    0    0 -0.35607083010E+01  0.24074212235E+02 -0.37970172706E+02  0.45099671326E+02  0.00000000000E+00 0.  1.
        -11    1    3    3    0    0 -0.57461304758E+02  0.54858706131E+02  0.67548683941E+02  0.10427897144E+03  0.00000000000E+00 0.  1.
         11    1    3    3    0    0 -0.70162232801E+01 -0.30505936101E+02  0.36510690435E+02  0.48092307519E+02  0.00000000000E+00 0. -1.
         -3    1    1    2    0  502 -0.12715545614E+01 -0.24891782561E+02 -0.19020169713E+03  0.19182779590E+03  0.00000000000E+00 0.  1.
<scales pt_clust_5="13000.00000" pt_clust_6="13000.00000" pt_clust_7="13000.00000" pt_clust_8="13000.00000" pt_clust_9="24.92424"></scales>
<clustering>
<clus scale="   24.924">  2  9  1 -1</clus>
<clus scale="   78.716">  5  6 -1 -1</clus>
<clus scale="   87.397">  7  8 -1 -1</clus>
<clus scale="  103.768">  2  5  1 -1</clus>
<clus scale="   24.924">  2  5  1 -1</clus>
</clustering>
</event>
<event>
 9    1  0.7719620E-005  0.9376202E+02  0.7546771E-02  0.1295733E+00
         21   -1    0    0  501  502  0.00000000000E+00  0.00000000000E+00  0.12188960355E+03  0.12188960355E+03  0.00000000000E+00 0. -1.
          1   -1    0    0  502    0 -0.00000000000E+00 -0.00000000000E+00 -0.12750879605E+03  0.12750879605E+03  0.00000000000E+00 0. -1.
         23    2    1    2    0    0  0.59230604802E+01  0.23529749190E+02 -0.44608990705E+02  0.10451117147E+03  0.91344902256E+02 0.  0.
        -24    2    1    2    0    0  0.25295892658E+02 -0.14123169285E+02  0.55623872424E+02  0.10828396043E+03  0.88272616408E+02 0.  0.
         11    1    4    4    0    0 -0.38702265143E+01 -0.47070714006E+02  0.18536866205E+02  0.50737029663E+02  0.00000000000E+00 0. -1.
        -12    1    4    4    0    0  0.29166119172E+02  0.32947544721E+02  0.37087006218E+02  0.57546930769E+02  0.00000000000E+00 0.  1.
        -13    1    3    3    0    0  0.40342496646E+02  0.34187070689E+02 -0.86069090594E+01  0.53575663519E+02  0.00000000000E+00 0. -1.
         13    1    3    3    0    0 -0.34419436166E+02 -0.10657321499E+02 -0.36002081646E+02  0.50935507952E+02  0.00000000000E+00 0.  1.
          2    1    1    2  501    0 -0.31218953138E+02 -0.94065799054E+01 -0.16634074225E+02  0.36603267694E+02  0.00000000000E+00 0. -1.
<scales pt_clust_5="13000.00000" pt_clust_6="13000.00000" pt_clust_7="13000.00000" pt_clust_8="13000.00000" pt_clust_9="32.60533"></scales>
<clustering>
<clus scale="   32.605">  1  9  2 -1</clus>
<clus scale="   88.273">  5  6 -1 -1</clus>
<clus scale="   90.772">  1  5  2 -1</clus>
<clus scale="   91.345">  7  8 -1 -1</clus>
<clus scale="   32.605">  1  5  2 -1</clus>
</clustering>
</event>
<event>
 9    1  0.7719620E-005  0.1310055E+03  0.7546771E-02  0.1230635E+00
         21   -1    0    0  501  502  0.00000000000E+00  0.00000000000E+00  0.63970152997E+02  0.63970152997E+02  0.00000000000E+00 0. -1.
          1   -1    0    0  502    0 -0.00000000000E+00 -0.00000000000E+00 -0.84109539828E+03  0.84109539828E+03  0.00000000000E+00 0. -1.
        -24    2    1    2    0    0 -0.63136690255E+02  0.80618936852E+02 -0.54603924192E+03  0.56043719654E+03  0.73792566778E+02 0.  0.
         23    2    1    2    0    0  0.51027589962E+02 -0.58068518002E+02 -0.27143980433E+03  0.29684152650E+03  0.91975848781E+02 0.  0.
         11    1    3    3    0    0 -0.77112199494E+02  0.81274067456E+02 -0.47502885166E+03  0.48806165108E+03  0.00000000000E+00 0. -1.
        -12    1    3    3    0    0  0.13975509239E+02 -0.65513060466E+00 -0.71010390262E+02  0.72375545454E+02  0.00000000000E+00 0.  1.
        -11    1    4    4    0    0  0.24804071015E+02 -0.78757009372E+02 -0.22471945583E+03  0.23940915248E+03  0.00000000000E+00 0.  1.
         11    1    4    4    0    0  0.26223518948E+02  0.20688491370E+02 -0.46720348503E+02  0.57432374018E+02  0.00000000000E+00 0. -1.
          2    1    1    2  501    0  0.12109100292E+02 -0.22550418849E+02  0.40353800971E+02  0.47786828237E+02  0.00000000000E+00 0. -1.
<scales pt_clust_5="13000.00000" pt_clust_6="13000.00000" pt_clust_7="13000.00000" pt_clust_8="13000.00000" pt_clust_9="25.59593"></scales>
<clustering>
<clus scale="   25.596">  1  9  2 -1</clus>
<clus scale="   73.793">  5  6 -1 -1</clus>
<clus scale="   91.976">  7  8 -1 -1</clus>
<clus scale="  118.946">  2  5  1 -1</clus>
<clus scale="   25.596">  1  5  2 -1</clus>
</clustering>
</event>
<event>
 9    1  0.7719620E-005  0.1003502E+03  0.7546771E-02  0.1285988E+00
         -4   -1    0    0    0  501 -0.00000000000E+00  0.00000000000E+00  0.24712171824E+03  0.24712171824E+03  0.00000000000E+00 0.  1.
         21   -1    0    0  501  502  0.00000000000E+00 -0.00000000000E+00 -0.75767616110E+02  0.75767616110E+02  0.00000000000E+00 0.  1.
        -24    2    1    2    0    0 -0.52036950402E+02  0.27562277711E+01  0.15570887511E+03  0.18168147372E+03  0.77765436466E+02 0.  0.
         23    2    1    2    0    0  0.21317046559E+02 -0.30738603759E+01  0.40562125494E+02  0.10165201135E+03  0.90686163753E+02 0.  0.
         11    1    3    3    0    0  0.13520127039E+02  0.18638374562E+02  0.21633156496E+02  0.31593928237E+02  0.00000000000E+00 0. -1.
        -12    1    3    3    0    0 -0.65557077441E+02 -0.15882146791E+02  0.13407571861E+03  0.15008754549E+03  0.00000000000E+00 0.  1.
        -11    1    4    4    0    0 -0.80814773916E+01 -0.42904249100E+02  0.20585697131E+02  0.48268579781E+02  0.00000000000E+00 0.  1.
         11    1    4    4    0    0  0.29398523951E+02  0.39830388724E+02  0.19976428363E+02  0.53383431573E+02  0.00000000000E+00 0. -1.
         -3    1    1    2    0  502  0.30719903843E+02  0.31763260478E+00 -0.24916898468E+02  0.39555849275E+02  0.00000000000E+00 0.  1.
<scales pt_clust_5="13000.00000" pt_clust_6="13000.00000" pt_clust_7="13000.00000" pt_clust_8="13000.00000" pt_clust_9="30.72155"></scales>
<clustering>
<clus scale="   30.722">  2  9  1 -1</clus>
<clus scale="   77.765">  5  6 -1 -1</clus>
<clus scale="   88.846">  1  5  2 -1</clus>
<clus scale="   90.686">  7  8 -1 -1</clus>
<clus scale="   30.722">  2  5  1 -1</clus>
</clustering>
</event>
<event>
 9    1  0.7719620E-005  0.1991598E+03  0.7546771E-02  0.1177916E+00
         21   -1    0    0  501  502  0.00000000000E+00  0.00000000000E+00  0.63591195938E+02  0.63591195938E+02  0.00000000000E+00 0. -1.
          1   -1    0    0  502    0 -0.00000000000E+00 -0.00000000000E+00 -0.88799619340E+03  0.88799619340E+03  0.00000000000E+00 0. -1.
        -24    2    1    2    0    0 -0.24988213305E+02 -0.59189598193E+02 -0.16401854682E+03  0.19505432696E+03  0.83763282091E+02 0.  0.
         23    2    1    2    0    0 -0.11578674409E+03 -0.61175365024E+02 -0.40620882734E+03  0.44203095239E+03  0.11505110197E+03 0.  0.
         13    1    3    3    0    0 -0.25874460852E+02  0.12216079786E+02 -0.22002099983E+02  0.36094497273E+02  0.00000000000E+00 0. -1.
        -14    1    3    3    0    0  0.88624754667E+00 -0.71405677979E+02 -0.14201644683E+03  0.15895982968E+03  0.00000000000E+00 0.  1.
        -13    1    4    4    0    0 -0.26846850818E+02 -0.55682365253E+02 -0.66349232215E+02  0.90683514569E+02  0.00000000000E+00 0.  1.
         13    1    4    4    0    0 -0.88939893275E+02 -0.54929997709E+01 -0.33985959513E+03  0.35134743782E+03  0.00000000000E+00 0. -1.
          2    1    1    2  501    0  0.14077495740E+03  0.12036496322E+03 -0.25417762330E+03  0.31450210999E+03  0.00000000000E+00 0. -1.
<scales pt_clust_5="13000.00000" pt_clust_6="13000.00000" pt_clust_7="13000.00000" pt_clust_8="13000.00000" pt_clust_9="162.56646"></scales>
<clustering>
<clus scale="   83.763">  5  6 -1 -1</clus>
<clus scale="  105.566">  2  5  1 -1</clus>
<clus scale="  115.051">  7  8 -1 -1</clus>
<clus scale="  162.566">  1  9  2 -1</clus>
<clus scale="  162.566">  1  5  2 -1</clus>
</clustering>
</event>
<event>
 9    1  0.7719620E-005  0.1096264E+03  0.7546771E-02  0.1266084E+00
          1   -1    0    0  502    0 -0.00000000000E+00  0.00000000000E+00  0.17046889370E+03  0.17046889370E+03  0.00000000000E+00 0. -1.
         21   -1    0    0  501  502  0.00000000000E+00 -0.00000000000E+00 -0.10590516395E+03  0.10590516395E+03  0.00000000000E+00 0.  1.
         23    2    1    2    0    0 -0.63082235066E+02 -0.18615654049E+02  0.10653342365E+03  0.15522937559E+03  0.91765340595E+02 0.  0.
        -24    2    1    2    0    0  0.44551877161E+02  0.72865033507E+01 -0.30407364079E+02  0.96539575061E+02  0.79732796721E+02 0.  0.
         13    1    4    4    0    0  0.29132423160E+02  0.22381631722E+02  0.19913459610E+02  0.41787335298E+02  0.00000000000E+00 0. -1.
        -14    1    4    4    0    0  0.15419454001E+02 -0.15095128371E+02 -0.50320823689E+02  0.54752239762E+02  0.00000000000E+00 0.  1.
        -13    1    3    3    0    0 -0.36045709966E+02 -0.52396108326E+02  0.37715785347E+02  0.73940015140E+02  0.00000000000E+00 0.  1.
         13    1    3    3    0    0 -0.27036525099E+02  0.33780454276E+02  0.68817638300E+02  0.81289360446E+02  0.00000000000E+00 0. -1.
          2    1    1    2  501    0  0.18530357904E+02  0.11329150699E+02 -0.11562329819E+02  0.24605106999E+02  0.00000000000E+00 0. -1.
<scales pt_clust_5="13000.00000" pt_clust_6="13000.00000" pt_clust_7="13000.00000" pt_clust_8="13000.00000" pt_clust_9="21.71920"></scales>
<clustering>
<clus scale="   21.719">  2  9  1 -1</clus>
<clus scale="   79.733">  5  6 -1 -1</clus>
<clus scale="   91.765">  7  8 -1 -1</clus>
<clus scale="   99.772">  2  5  1 -1</clus>
<clus scale="   21.719">  2  5  1 -1</clus>
</clustering>
</event>
<event>
 9    1  0.7719620E-005  0.4543055E+03  0.7546771E-02  0.1026446E+00
          1   -1    0    0  502    0 -0.00000000000E+00  0.00000000000E+00  0.16645004000E+04  0.16645004000E+04  0.00000000000E+00 0. -1.
         21   -1    0    0  501  502  0.00000000000E+00 -0.00000000000E+00 -0.11028739276E+03  0.11028739276E+03  0.00000000000E+00 0.  1.
        -24    2    1    2    0    0  0.29478286272E+03  0.15314612185E+03  0.61492690190E+03  0.70341471807E+03  0.79413475687E+02 0.  0.
         23    2    1    2    0    0  0.66555712961E+02  0.21011845562E+02  0.15821425488E+03  0.19332421532E+03  0.86436920342E+02 0.  0.
         11    1    3    3    0    0  0.55277156203E+02  0.23855554032E+02  0.58293182263E+02  0.83801829064E+02  0.00000000000E+00 0. -1.
        -12    1    3    3    0    0  0.23950570652E+03  0.12929056782E+03  0.55663371964E+03  0.61961288901E+03  0.00000000000E+00 0.  1.
        -11    1    4    4    0    0  0.12626950761E+02 -0.32653330437E+02  0.50833329251E+02  0.61722825898E+02  0.00000000000E+00 0.  1.
         11    1    4    4    0    0  0.53928762200E+02  0.53665175999E+02  0.10738092563E+03  0.13160138942E+03  0.00000000000E+00 0. -1.
          2    1    1    2  501    0 -0.36133857568E+03 -0.17415796741E+03  0.78107185050E+03  0.87804885942E+03  0.00000000000E+00 0. -1.
<scales pt_clust_5="13000.00000" pt_clust_6="13000.00000" pt_clust_7="13000.00000" pt_clust_8="13000.00000" pt_clust_9="401.11934"></scales>
<clustering>
<clus scale="   79.413">  5  6 -1 -1</clus>
<clus scale="   86.437">  7  8 -1 -1</clus>
<clus scale="   90.054">  5  7 -1 -1</clus>
<clus scale="  401.119">  2  9  1 -1</clus>
<clus scale="  401.119">  2  5  1 -1</clus>
</clustering>
</event>
<event>
 9    1  0.7719620E-005  0.9664701E+02  0.7546771E-02  0.1293810E+00
         21   -1    0    0  501  502  0.00000000000E+00  0.00000000000E+00  0.19444790758E+03  0.19444790758E+03  0.00000000000E+00 0. -1.
          1   -1    0    0  502    0 -0.00000000000E+00 -0.00000000000E+00 -0.17131003545E+03  0.17131003545E+03  0.00000000000E+00 0. -1.
         23    2    1    2    0    0  0.24599812686E+02  0.21447551575E+02 -0.12052872335E+03  0.15556307591E+03  0.92776878480E+02 0.  0.
        -24    2    1    2    0    0 -0.15992540851E+02  0.49171332286E+01  0.22939466012E+02  0.86323072420E+02  0.81520023118E+02 0.  0.
         13    1    4    4    0    0  0.16670343173E+02 -0.17427310737E+02 -0.17457251877E+02  0.29771918718E+02  0.00000000000E+00 0. -1.
        -14    1    4    4    0    0 -0.32662884024E+02  0.22344443966E+02  0.40396717889E+02  0.56551153703E+02  0.00000000000E+00 0.  1.
        -11    1    3    3    0    0 -0.18240822378E+02  0.21502454100E+02 -0.59055813504E+00  0.28203402140E+02  0.00000000000E+00 0.  1.
         11    1    3    3    0    0  0.42840635064E+02 -0.54902524329E-01 -0.11993816522E+03  0.12735967377E+03  0.00000000000E+00 0. -1.
          2    1    1    2  501    0 -0.86072718352E+01 -0.26364684804E+02  0.12072712947E+03  0.12387179470E+03  0.00000000000E+00 0. -1.
<scales pt_clust_5="13000.00000" pt_clust_6="13000.00000" pt_clust_7="13000.00000" pt_clust_8="13000.00000" pt_clust_9="27.73413"></scales>
<clustering>
<clus scale="   27.734">  1  9  2 -1</clus>
<clus scale="   81.520">  5  6 -1 -1</clus>
<clus scale="   85.899">  1  5  2 -1</clus>
<clus scale="   92.777">  7  8 -1 -1</clus>
<clus scale="   27.734">  1  5  2 -1</clus>
</clustering>
</event>
<event>
 9    1  0.7719620E-005  0.2063758E+03  0.7546771E-02  0.1177320E+00
          1   -1    0    0  502    0 -0.00000000000E+00  0.00000000000E+00  0.11391517144E+04  0.11391517144E+04  0.00000000000E+00 0. -1.
         21   -1    0    0  501  502  0.00000000000E+00 -0.00000000000E+00 -0.15121784603E+03  0.15121784603E+03  0.00000000000E+00 0.  1.
         23    2    1    2    0    0 -0.21371849925E+02 -0.10465292818E+02  0.31019519512E+03  0.32475789220E+03  0.93168402086E+02 0.  0.
        -24    2    1    2    0    0 -0.18598279356E+03 -0.25422044268E+02 -0.48074161313E+02  0.20990794324E+03  0.80711460234E+02 0.  0.
         13    1    4    4    0    0 -0.17648578589E+02 -0.23016763374E+02  0.11678419541E+02  0.31267062629E+02  0.00000000000E+00 0. -1.
        -14    1    4    4    0    0 -0.16833421497E+03 -0.24052808934E+01 -0.59752580854E+02  0.17864088061E+03  0.00000000000E+00 0.  1.
        -13    1    3    3    0    0  0.36258984514E+02  0.23156424640E+01  0.98535756719E+02  0.10502081465E+03  0.00000000000E+00 0. -1.
         13    1    3    3    0    0 -0.57630834439E+02 -0.12780935282E+02  0.21165943840E+03  0.21973707755E+03  0.00000000000E+00 0.  1.
          2    1    1    2  501    0  0.20735464348E+03  0.35887337086E+02  0.72581283454E+03  0.75570372496E+03  0.00000000000E+00 0. -1.
<scales pt_clust_5="13000.00000" pt_clust_6="13000.00000" pt_clust_7="13000.00000" pt_clust_8="13000.00000" pt_clust_9="189.93859"></scales>
<clustering>
<clus scale="   80.711">  5  6 -1 -1</clus>
<clus scale="   93.168">  7  8 -1 -1</clus>
<clus scale="   96.159">  1  7  2 -1</clus>
<clus scale="  189.939">  2  9  1 -1</clus>
<clus scale="  189.939">  2  5  1 -1</clus>
</clustering>
</event>
<event>
 9    1  0.7719620E-005  0.1069718E+03  0.7546771E-02  0.1272149E+00
         21   -1    0    0  501  502  0.00000000000E+00  0.00000000000E+00  0.30218688508E+03  0.30218688508E+03  0.00000000000E+00 0.  1.
         -2   -1    0    0    0  501 -0.00000000000E+00 -0.00000000000E+00 -0.78958007661E+02  0.78958007661E+02  0.00000000000E+00 0.  1.
         23    2    1    2    0    0 -0.27105903307E+02  0.57069687829E+02  0.40038092837E+02  0.11773137610E+03  0.90917263364E+02 0.  0.
        -24    2    1    2    0    0 -0.12857820452E+02 -0.45861004441E+02  0.19927127972E+03  0.21890153933E+03  0.77073249078E+02 0.  0.
         11    1    4    4    0    0  0.13840275512E+02  0.16258373643E+02  0.67491553724E+02  0.70788401337E+02  0.00000000000E+00 0. -1.
        -12    1    4    4    0    0 -0.26698095965E+02 -0.62119378084E+02  0.13177972600E+03  0.14811313799E+03  0.00000000000E+00 0.  1.
        -11    1    3    3    0    0 -0.52624898512E+02  0.11377293049E+02  0.36958849424E+02  0.65305277667E+02  0.00000000000E+00 0. -1.
         11    1    3    3    0    0  0.25518995204E+02  0.45692394780E+02  0.30792434132E+01  0.52426098433E+02  0.00000000000E+00 0.  1.
         -1    1    1    2    0  502  0.39963723760E+02 -0.11208683388E+02 -0.16080495141E+02  0.44511977310E+02  0.00000000000E+00 0.  1.
<scales pt_clust_5="13000.00000" pt_clust_6="13000.00000" pt_clust_7="13000.00000" pt_clust_8="13000.00000" pt_clust_9="41.50585"></scales>
<clustering>
<clus scale="   41.506">  1  9  2 -1</clus>
<clus scale="   77.073">  5  6 -1 -1</clus>
<clus scale="   90.917">  7  8 -1 -1</clus>
<clus scale="   95.485">  1  5  2 -1</clus>
<clus scale="   41.506">  1  5  2 -1</clus>
</clustering>
</event>
<event>
 9    1  0.7719620E-005  0.9056904E+02  0.7546771E-02  0.1308851E+00
         21   -1    0    0  501  502  0.00000000000E+00  0.00000000000E+00  0.67762355313E+02  0.67762355313E+02  0.00000000000E+00 0.  1.
          1   -1    0    0  502    0 -0.00000000000E+00 -0.00000000000E+00 -0.45336026507E+03  0.45336026507E+03  0.00000000000E+00 0. -1.
         23    2    1    2    0    0 -0.34384097670E+01 -0.48990912568E+00 -0.39250543236E+03  0.40277966825E+03  0.90326541238E+02 0.  0.
        -24    2    1    2    0    0  0.26409613276E+02  0.11650809757E+02 -0.14240680341E+02  0.85184418068E+02  0.78869379759E+02 0.  0.
         13    1    4    4    0    0 -0.18697171794E+02 -0.86400089945E+01 -0.27138870246E+02  0.34069814598E+02  0.00000000000E+00 0. -1.
        -14    1    4    4    0    0  0.45106785071E+02  0.20290818751E+02  0.12898189905E+02  0.51114603469E+02  0.00000000000E+00 0.  1.
        -13    1    3    3    0    0 -0.23063365269E+02  0.37874577016E+02 -0.24996148585E+03  0.25386442604E+03  0.00000000000E+00 0.  1.
         13    1    3    3    0    0  0.19624955502E+02 -0.38364486142E+02 -0.14254394651E+03  0.14891524221E+03  0.00000000000E+00 0. -1.
          2    1    1    2  501    0 -0.22971203510E+02 -0.11160900631E+02  0.21148202943E+02  0.33158534064E+02  0.00000000000E+00 0. -1.
<scales pt_clust_5="13000.00000" pt_clust_6="13000.00000" pt_clust_7="13000.00000" pt_clust_8="13000.00000" pt_clust_9="25.53903"></scales>
<clustering>
<clus scale="   25.539">  1  9  2 -1</clus>
<clus scale="   78.869">  5  6 -1 -1</clus>
<clus scale="   79.147">  1  5  2 -1</clus>
<clus scale="   90.327">  7  8 -1 -1</clus>
<clus scale="   25.539">  1  5  2 -1</clus>
</clustering>
</event>
<event>
 9    1  0.7719620E-005  0.9683758E+02  0.7546771E-02  0.1293822E+00
         21   -1    0    0  501  502  0.00000000000E+00  0.00000000000E+00  0.41958164175E+02  0.41958164175E+02  0.00000000000E+00 0. -1.
          1   -1    0    0  502    0 -0.00000000000E+00 -0.00000000000E+00 -0.37313481701E+03  0.37313481701E+03  0.00000000000E+00 0. -1.
         23    2    1    2    0    0 -0.16054281939E+02  0.14286641913E+01 -0.18336198546E+03  0.20583498737E+03  0.92122979019E+02 0.  0.
        -24    2    1    2    0    0  0.45040226344E+02 -0.52426448422E+01 -0.15401457466E+03  0.17937203938E+03  0.79985823681E+02 0.  0.
         13    1    4    4    0    0  0.43040774685E+02 -0.33742764517E+02 -0.60338208322E+02  0.81435752752E+02  0.00000000000E+00 0. -1.
        -14    1    4    4    0    0  0.19994516584E+01  0.28500119674E+02 -0.93676366341E+02  0.97936286632E+02  0.00000000000E+00 0.  1.
        -11    1    3    3    0    0  0.47572939936E+01  0.42540313305E+02 -0.12061825073E+03  0.12798856398E+03  0.00000000000E+00 0.  1.
         11    1    3    3    0    0 -0.20811575932E+02 -0.41111649114E+02 -0.62743734738E+02  0.77846423389E+02  0.00000000000E+00 0. -1.
          2    1    1    2  501    0 -0.28985944405E+02  0.38139806509E+01  0.61999072956E+01  0.29885954426E+02  0.00000000000E+00 0. -1.
<scales pt_clust_5="13000.00000" pt_clust_6="13000.00000" pt_clust_7="13000.00000" pt_clust_8="13000.00000" pt_clust_9="29.23579"></scales>
<clustering>
<clus scale="   29.236">  1  9  2 -1</clus>
<clus scale="   79.986">  5  6 -1 -1</clus>
<clus scale="   85.373">  1  5  2 -1</clus>
<clus scale="   92.123">  7  8 -1 -1</clus>
<clus scale="   29.236">  1  5  2 -1</clus>
</clustering>
</event>
<event>
 9    1  0.7719620E-005  0.1034794E+03  0.7546771E-02  0.1281155E+00
         21   -1    0    0  501  502  0.00000000000E+00  0.00000000000E+00  0.25546498692E+02  0.25546498692E+02  0.00000000000E+00 0. -1.
          1   -1    0    0  502    0 -0.00000000000E+00 -0.00000000000E+00 -0.76530115438E+03  0.76530115438E+03  0.00000000000E+00 0. -1.
         23    2    1    2    0    0 -0.78175146433E+01 -0.41576002060E+02 -0.33907716446E+03  0.35332586501E+03  0.89867491042E+02 0.  0.
        -24    2    1    2    0    0 -0.54726663365E+02  0.61512603163E+02 -0.23598406406E+03  0.26022777457E+03  0.72465220189E+02 0.  0.
         11    1    4    4    0    0 -0.43105633035E+02  0.35227177515E+02 -0.59745848229E+02  0.81661594496E+02  0.00000000000E+00 0. -1.
        -12    1    4    4    0    0 -0.11621030331E+02  0.26285425648E+02 -0.17623821583E+03  0.17856618007E+03  0.00000000000E+00 0.  1.
        -11    1    3    3    0    0 -0.22582907238E+02 -0.61328411379E+02 -0.30061155491E+03  0.30763365988E+03  0.00000000000E+00 0. -1.
         11    1    3    3    0    0  0.14765392594E+02  0.19752409318E+02 -0.38465609541E+02  0.45692205131E+02  0.00000000000E+00 0.  1.
          2    1    1    2  501    0  0.62544178009E+02 -0.19936601103E+02 -0.16469342718E+03  0.17729401350E+03  0.00000000000E+00 0. -1.
<scales pt_clust_5="13000.00000" pt_clust_6="13000.00000" pt_clust_7="13000.00000" pt_clust_8="13000.00000" pt_clust_9="65.64482"></scales>
<clustering>
<clus scale="   65.645">  1  9  2 -1</clus>
<clus scale="   72.465">  5  6 -1 -1</clus>
<clus scale="   88.786">  1  5  2 -1</clus>
<clus scale="   89.867">  7  8 -1 -1</clus>
<clus scale="   65.645">  1  5  2 -1</clus>
</clustering>
</event>
<event>
 9    1  0.7719620E-005  0.2754728E+03  0.7546771E-02  0.1098188E+00
         21   -1    0    0  501  502  0.00000000000E+00  0.00000000000E+00  0.11064157037E+04  0.11064157037E+04  0.00000000000E+00 0.  1.
          1   -1    0    0  502    0 -0.00000000000E+00 -0.00000000000E+00 -0.55425236845E+02  0.55425236845E+02  0.00000000000E+00 0. -1.
        -24    2    1    2    0    0 -0.53268333393E+02  0.10539915818E+03  0.28462233875E+03  0.31878417351E+03  0.81651550373E+02 0.  0.
         23    2    1    2    0    0 -0.25473299516E+02  0.88135978594E+02  0.19004149573E+03  0.23002456470E+03  0.91535187519E+02 0.  0.
         13    1    3    3    0    0 -0.40034485674E+02  0.11903827224E+02  0.45867798276E+02  0.62034797206E+02  0.00000000000E+00 0. -1.
        -14    1    3    3    0    0 -0.13233847719E+02  0.93495330951E+02  0.23875454048E+03  0.25674937631E+03  0.00000000000E+00 0.  1.
        -13    1    4    4    0    0 -0.49002264156E+02  0.29491115749E+02  0.13348835656E+03  0.14522427187E+03  0.00000000000E+00 0.  1.
         13    1    4    4    0    0  0.23528964639E+02  0.58644862845E+02  0.56553139169E+02  0.84800292835E+02  0.00000000000E+00 0. -1.
          2    1    1    2  501    0  0.78741632909E+02 -0.19353513677E+03  0.57632663238E+03  0.61303220234E+03  0.00000000000E+00 0. -1.
<scales pt_clust_5="13000.00000" pt_clust_6="13000.00000" pt_clust_7="13000.00000" pt_clust_8="13000.00000" pt_clust_9="208.94041"></scales>
<clustering>
<clus scale="   81.652">  5  6 -1 -1</clus>
<clus scale="   91.535">  7  8 -1 -1</clus>
<clus scale="   99.239">  5  7 -1 -1</clus>
<clus scale="  208.940">  1  9  2 -1</clus>
<clus scale="  208.940">  1  5  2 -1</clus>
</clustering>
</event>
<event>
 9    1  0.7719620E-005  0.2741457E+03  0.7546771E-02  0.1140658E+00
          1   -1    0    0  502    0 -0.00000000000E+00  0.00000000000E+00  0.94021797321E+03  0.94021797321E+03  0.00000000000E+00 0. -1.
         21   -1    0    0  501  502  0.00000000000E+00 -0.00000000000E+00 -0.18558559730E+03  0.18558559730E+03  0.00000000000E+00 0. -1.
        -24    2    1    2    0    0 -0.47002017428E+02 -0.23011493797E+02 -0.17610283440E+01  0.96494576821E+02  0.81051734380E+02 0.  0.
         23    2    1    2    0    0  0.49269720090E+02 -0.23962531092E+03  0.71801122001E+03  0.76387270052E+03  0.90075499333E+02 0.  0.
         13    1    3    3    0    0 -0.47194847545E+02 -0.17287781396E+02  0.33739076195E+02  0.60535496057E+02  0.00000000000E+00 0. -1.
        -14    1    3    3    0    0  0.19283011675E+00 -0.57237124010E+01 -0.35500104539E+02  0.35959080764E+02  0.00000000000E+00 0.  1.
        -11    1    4    4    0    0  0.14696023430E+02 -0.15337123986E+03  0.32003465936E+03  0.35519134774E+03  0.00000000000E+00 0.  1.
         11    1    4    4    0    0  0.34573696660E+02 -0.86254071062E+02  0.39797656066E+03  0.40868135278E+03  0.00000000000E+00 0. -1.
          2    1    1    2  501    0 -0.22677026621E+01  0.26263680472E+03  0.38382184239E+02  0.26543629318E+03  0.00000000000E+00 0. -1.
<scales pt_clust_5="13000.00000" pt_clust_6="13000.00000" pt_clust_7="13000.00000" pt_clust_8="13000.00000" pt_clust_9="258.92518"></scales>
<clustering>
<clus scale="   81.052">  5  6 -1 -1</clus>
<clus scale="   90.075">  7  8 -1 -1</clus>
<clus scale="   96.479">  1  5  2 -1</clus>
<clus scale="  258.925">  2  9  1 -1</clus>
<clus scale="  258.925">  2  5  1 -1</clus>
</clustering>
</event>
<event>
 9    1  0.7719620E-005  0.8941854E+02  0.7546771E-02  0.1309300E+00
          3   -1    0    0  502    0 -0.00000000000E+00  0.00000000000E+00  0.16654485101E+03  0.16654485101E+03  0.00000000000E+00 0. -1.
         21   -1    0    0  501  502  0.00000000000E+00 -0.00000000000E+00 -0.87272663928E+02  0.87272663928E+02  0.00000000000E+00 0.  1.
        -24    2    1    2    0    0  0.18211663046E+01  0.11952494085E+02  0.10325131432E+03  0.13147306586E+03  0.80486982643E+02 0.  0.
         23    2    1    2    0    0 -0.28225672748E+02 -0.80824129193E+01 -0.16446359539E+02  0.94615076969E+02  0.88428027498E+02 0.  0.
         13    1    3    3    0    0  0.31800155464E+02 -0.96811831444E+01  0.82800591381E+02  0.89223949294E+02  0.00000000000E+00 0. -1.
        -14    1    3    3    0    0 -0.29978989159E+02  0.21633677230E+02  0.20450722941E+02  0.42249116562E+02  0.00000000000E+00 0.  1.
        -13    1    4    4    0    0 -0.22698767461E+02  0.34220232804E+02 -0.28851049183E+02  0.50186067951E+02  0.00000000000E+00 0.  1.
         13    1    4    4    0    0 -0.55269052863E+01 -0.42302645723E+02  0.12404689644E+02  0.44429009019E+02  0.00000000000E+00 0. -1.
          4    1    1    2  501    0  0.26404506443E+02 -0.38700811660E+01 -0.75327676978E+01  0.27729372116E+02  0.00000000000E+00 0. -1.
<scales pt_clust_5="13000.00000" pt_clust_6="13000.00000" pt_clust_7="13000.00000" pt_clust_8="13000.00000" pt_clust_9="26.68662"></scales>
<clustering>
<clus scale="   26.687">  2  9  1 -1</clus>
<clus scale="   80.487">  5  6 -1 -1</clus>
<clus scale="   81.574">  1  5  2 -1</clus>
<clus scale="   88.428">  7  8 -1 -1</clus>
<clus scale="   26.687">  2  5  1 -1</clus>
</clustering>
</event>
<event>
 9    1  0.7719620E-005  0.1290220E+03  0.7546771E-02  0.1251760E+00
         21   -1    0    0  501  502  0.00000000000E+00  0.00000000000E+00  0.17869599200E+03  0.17869599200E+03  0.00000000000E+00 0.  1.
          3   -1    0    0  502    0 -0.00000000000E+00 -0.00000000000E+00 -0.16662620689E+03  0.16662620689E+03  0.00000000000E+00 0. -1.
        -24    2    1    2    0    0  0.41922849269E+01 -0.62258151867E+01 -0.45644290112E+02  0.93100440443E+02  0.80795759562E+02 0.  0.
         23    2    1    2    0    0 -0.94162527002E+02  0.13722352566E+02  0.87714724074E+02  0.15708563774E+03  0.89034489461E+02 0.  0.
         13    1    3    3    0    0 -0.30707488957E+02  0.82818808839E+00 -0.48468381160E+02  0.57383096342E+02  0.00000000000E+00 0. -1.
        -14    1    3    3    0    0  0.34899773884E+02 -0.70540032751E+01  0.28240910478E+01  0.35717344101E+02  0.00000000000E+00 0.  1.
        -13    1    4    4    0    0 -0.84161287506E+02  0.41180142067E+02  0.41655442673E+02  0.10253829684E+03  0.00000000000E+00 0. -1.
         13    1    4    4    0    0 -0.10001239496E+02 -0.27457789501E+02  0.46059281402E+02  0.54547340897E+02  0.00000000000E+00 0.  1.
          4    1    1    2  501    0  0.89970242075E+02 -0.74965373790E+01 -0.30000648849E+02  0.95136120707E+02  0.00000000000E+00 0. -1.
<scales pt_clust_5="13000.00000" pt_clust_6="13000.00000" pt_clust_7="13000.00000" pt_clust_8="13000.00000" pt_clust_9="93.37849"></scales>
<clustering>
<clus scale="   80.796">  5  6 -1 -1</clus>
<clus scale="   81.144">  2  5  1 -1</clus>
<clus scale="   89.034">  7  8 -1 -1</clus>
<clus scale="   93.378">  1  9  2 -1</clus>
<clus scale="   93.378">  1  5  2 -1</clus>
</clustering>
</event>
<event>
 9    1  0.7719620E-005  0.1717255E+03  0.7546771E-02  0.1201455E+00
          3   -1    0    0  502    0 -0.00000000000E+00  0.00000000000E+00  0.75124278780E+03  0.75124278780E+03  0.00000000000E+00 0. -1.
         21   -1    0    0  501  502  0.00000000000E+00 -0.00000000000E+00 -0.63746744648E+02  0.63746744648E+02  0.00000000000E+00 0.  1.
        -24    2    1    2    0    0 -0.21588035645E+01  0.49649057226E+02  0.23570695524E+03  0.25521471833E+03  0.84303584668E+02 0.  0.
         23    2    1    2    0    0 -0.47388191843E+02 -0.15673237146E+03  0.16749767318E+03  0.25197073775E+03  0.92860676117E+02 0.  0.
         11    1    3    3    0    0 -0.19395868302E+02 -0.18769959543E+02  0.74689413504E+02  0.79416746206E+02  0.00000000000E+00 0. -1.
        -12    1    3    3    0    0  0.17237064737E+02  0.68419016769E+02  0.16101754174E+03  0.17579797213E+03  0.00000000000E+00 0.  1.
        -13    1    4    4    0    0  0.10533901891E+02 -0.76346898738E+02  0.11870133730E+03  0.14152674487E+03  0.00000000000E+00 0. -1.
         13    1    4    4    0    0 -0.57922093734E+02 -0.80385472723E+02  0.48796335882E+02  0.11044399288E+03  0.00000000000E+00 0.  1.
          4    1    1    2  501    0  0.49546995408E+02  0.10708331423E+03  0.28429141473E+03  0.30780407637E+03  0.00000000000E+00 0. -1.
<scales pt_clust_5="13000.00000" pt_clust_6="13000.00000" pt_clust_7="13000.00000" pt_clust_8="13000.00000" pt_clust_9="144.45262"></scales>
<clustering>
<clus scale="   84.304">  5  6 -1 -1</clus>
<clus scale="   92.861">  7  8 -1 -1</clus>
<clus scale="   97.861">  1  5  2 -1</clus>
<clus scale="  144.453">  2  9  1 -1</clus>
<clus scale="  144.453">  2  5  1 -1</clus>
</clustering>
</event>
<event>
 9    1  0.7719620E-005  0.9513109E+02  0.7546771E-02  0.1300748E+00
          1   -1    0    0  502    0 -0.00000000000E+00  0.00000000000E+00  0.46988507011E+03  0.46988507011E+03  0.00000000000E+00 0. -1.
         21   -1    0    0  501  502  0.00000000000E+00 -0.00000000000E+00 -0.19874492784E+03  0.19874492784E+03  0.00000000000E+00 0. -1.
         23    2    1    2    0    0 -0.17183519104E+02  0.25612185571E+02  0.44112194882E+03  0.45144289397E+03  0.90889248014E+02 0.  0.
        -24    2    1    2    0    0 -0.13338582526E+02  0.27022496052E+01 -0.50527413995E+02  0.90685492023E+02  0.74064964468E+02 0.  0.
         13    1    4    4    0    0 -0.43938748253E+02 -0.30695324822E+01 -0.32101170613E+02  0.54502484186E+02  0.00000000000E+00 0. -1.
        -14    1    4    4    0    0  0.30600165726E+02  0.57717820874E+01 -0.18426243381E+02  0.36183007837E+02  0.00000000000E+00 0.  1.
        -13    1    3    3    0    0 -0.53441606392E+02  0.24801910390E+02  0.30037208753E+03  0.30609562398E+03  0.00000000000E+00 0. -1.
         13    1    3    3    0    0  0.36258087288E+02  0.81027518109E+00  0.14074986129E+03  0.14534726999E+03  0.00000000000E+00 0.  1.
          2    1    1    2  501    0  0.30522101631E+02 -0.28314435176E+02 -0.11945439256E+03  0.12650161196E+03  0.00000000000E+00 0. -1.
<scales pt_clust_5="13000.00000" pt_clust_6="13000.00000" pt_clust_7="13000.00000" pt_clust_8="13000.00000" pt_clust_9="41.63299"></scales>
<clustering>
<clus scale="   41.633">  2  9  1 -1</clus>
<clus scale="   74.065">  5  6 -1 -1</clus>
<clus scale="   79.213">  2  5  1 -1</clus>
<clus scale="   90.889">  7  8 -1 -1</clus>
<clus scale="   41.633">  2  5  1 -1</clus>
</clustering>
</event>
<event>
 9    1  0.7719620E-005  0.9978212E+02  0.7546771E-02  0.1284463E+00
          1   -1    0    0  502    0 -0.00000000000E+00  0.00000000000E+00  0.66179621505E+03  0.66179621505E+03  0.00000000000E+00 0. -1.
         21   -1    0    0  501  502  0.00000000000E+00 -0.00000000000E+00 -0.29884216428E+02  0.29884216428E+02  0.00000000000E+00 0.  1.
         23    2    1    2    0    0  0.16122184396E+02  0.38009471118E+02  0.50749336817E+03  0.51725636568E+03  0.91104250076E+02 0.  0.
        -24    2    1    2    0    0 -0.38817679440E+02 -0.23316868349E+02  0.99806073031E+02  0.13786266464E+03  0.83632371129E+02 0.  0.
         11    1    4    4    0    0 -0.60154874300E+02 -0.10325816390E+02  0.94225444419E+02  0.11226604902E+03  0.00000000000E+00 0. -1.
        -12    1    4    4    0    0  0.21337194860E+02 -0.12991051960E+02  0.55806286127E+01  0.25596615621E+02  0.00000000000E+00 0.  1.
        -11    1    3    3    0    0  0.46964147357E+02 -0.42351150882E+01  0.21338249394E+03  0.21853067532E+03  0.00000000000E+00 0.  1.
         11    1    3    3    0    0 -0.30841962961E+02  0.42244586206E+02  0.29411087423E+03  0.29872569036E+03  0.00000000000E+00 0. -1.
          2    1    1    2  501    0  0.22695495044E+02 -0.14692602769E+02  0.24612557419E+02  0.36561401151E+02  0.00000000000E+00 0. -1.
<scales pt_clust_5="13000.00000" pt_clust_6="13000.00000" pt_clust_7="13000.00000" pt_clust_8="13000.00000" pt_clust_9="27.03624"></scales>
<clustering>
<clus scale="   27.036">  2  9  1 -1</clus>
<clus scale="   83.632">  5  6 -1 -1</clus>
<clus scale="   91.104">  7  8 -1 -1</clus>
<clus scale="   93.010">  2  5  1 -1</clus>
<clus scale="   27.036">  2  5  1 -1</clus>
</clustering>
</event>
<event>
 9    1  0.7719620E-005  0.1083792E+03  0.7546771E-02  0.1266744E+00
          1   -1    0    0  502    0 -0.00000000000E+00  0.00000000000E+00  0.32981173125E+03  0.32981173125E+03  0.00000000000E+00 0. -1.
         21   -1    0    0  501  502  0.00000000000E+00 -0.00000000000E+00 -0.56431714096E+02  0.56431714096E+02  0.00000000000E+00 0.  1.
         23    2    1    2    0    0 -0.55797453087E+02 -0.33678111304E+01  0.17611602735E+03  0.20606141307E+03  0.91212679719E+02 0.  0.
        -24    2    1    2    0    0  0.60695724898E+02 -0.36964268616E+02  0.81537956987E+02  0.13661624488E+03  0.83457964039E+02 0.  0.
         13    1    4    4    0    0  0.23240301271E+02  0.15666288783E+02  0.63711394215E+02  0.69603778347E+02  0.00000000000E+00 0. -1.
        -14    1    4    4    0    0  0.37455423627E+02 -0.52630557399E+02  0.17826562773E+02  0.67012466538E+02  0.00000000000E+00 0.  1.
        -13    1    3    3    0    0 -0.20050699140E+01 -0.27443055340E+02  0.91469322998E+01  0.28996688815E+02  0.00000000000E+00 0.  1.
         13    1    3    3    0    0 -0.53792383173E+02  0.24075244210E+02  0.16696909505E+03  0.17706472425E+03  0.00000000000E+00 0. -1.
          2    1    1    2  501    0 -0.48982718113E+01  0.40332079746E+02  0.15726032817E+02  0.43565787397E+02  0.00000000000E+00 0. -1.
<scales pt_clust_5="13000.00000" pt_clust_6="13000.00000" pt_clust_7="13000.00000" pt_clust_8="13000.00000" pt_clust_9="40.62843"></scales>
<clustering>
<clus scale="   40.628">  2  9  1 -1</clus>
<clus scale="   83.458">  5  6 -1 -1</clus>
<clus scale="   91.213">  7  8 -1 -1</clus>
<clus scale="  101.939">  2  5  1 -1</clus>
<clus scale="   40.628">  2  5  1 -1</clus>
</clustering>
</event>
<event>
 9    1  0.7719620E-005  0.1318811E+03  0.7546771E-02  0.1243574E+00
         21   -1    0    0  501  502  0.00000000000E+00  0.00000000000E+00  0.15215563788E+03  0.15215563788E+03  0.00000000000E+00 0. -1.
          1   -1    0    0  502    0 -0.00000000000E+00 -0.00000000000E+00 -0.24681914493E+03  0.24681914493E+03  0.00000000000E+00 0. -1.
        -24    2    1    2    0    0 -0.34670174480E+02  0.44428319670E+01  0.29043928561E+02  0.94127684715E+02  0.82430039968E+02 0.  0.
         23    2    1    2    0    0 -0.59997745411E+02 -0.33491237453E+02 -0.16189544959E+03  0.19871440129E+03  0.92498022905E+02 0.  0.
         11    1    3    3    0    0 -0.46497333141E+02  0.67086437431E+01 -0.14327886035E+02  0.49115132173E+02  0.00000000000E+00 0. -1.
        -12    1    3    3    0    0  0.11827158662E+02 -0.22658117761E+01  0.43371814596E+02  0.45012552542E+02  0.00000000000E+00 0.  1.
        -11    1    4    4    0    0 -0.16314799063E+02 -0.59740636265E+02 -0.10830818763E+03  0.12476289432E+03  0.00000000000E+00 0.  1.
         11    1    4    4    0    0 -0.43682946348E+02  0.26249398812E+02 -0.53587261959E+02  0.73951506975E+02  0.00000000000E+00 0. -1.
          2    1    1    2  501    0  0.94667919891E+02  0.29048405486E+02  0.38188013978E+02  0.10613269680E+03  0.00000000000E+00 0. -1.
<scales pt_clust_5="13000.00000" pt_clust_6="13000.00000" pt_clust_7="13000.00000" pt_clust_8="13000.00000" pt_clust_9="94.00387"></scales>
<clustering>
<clus scale="   82.430">  5  6 -1 -1</clus>
<clus scale="   89.535">  2  5  1 -1</clus>
<clus scale="   92.498">  7  8 -1 -1</clus>
<clus scale="   94.004">  1  9  2 -1</clus>
<clus scale="   94.004">  1  5  2 -1</clus>
</clustering>
</event>
<event>
 9    1  0.7719620E-005  0.1344649E+03  0.7546771E-02  0.1223586E+00
         21   -1    0    0  501  502  0.00000000000E+00  0.00000000000E+00  0.72727317037E+02  0.72727317037E+02  0.00000000000E+00 0.  1.
          1   -1    0    0  502    0 -0.00000000000E+00 -0.00000000000E+00 -0.42502014491E+03  0.42502014491E+03  0.00000000000E+00 0. -1.
         23    2    1    2    0    0 -0.17517701516E+02 -0.93243553166E+02 -0.28409604965E+03  0.31353116930E+03  0.92682245458E+02 0.  0.
        -24    2    1    2    0    0  0.16638131051E+01  0.10816688628E+03 -0.28133089532E+02  0.13861858656E+03  0.81980474822E+02 0.  0.
         11    1    4    4    0    0 -0.21119819413E+02  0.81181336803E+02  0.12469315526E+02  0.84805306714E+02  0.00000000000E+00 0. -1.
        -12    1    4    4    0    0  0.22783632518E+02  0.26985549474E+02 -0.40602405058E+02  0.53813279844E+02  0.00000000000E+00 0.  1.
        -11    1    3    3    0    0 -0.20531676358E+02  0.12566944064E+02 -0.81051918358E+02  0.84551116413E+02  0.00000000000E+00 0.  1.
         11    1    3    3    0    0  0.30139748417E+01 -0.10581049723E+03 -0.20304413129E+03  0.22898005289E+03  0.00000000000E+00 0. -1.
          2    1    1    2  501    0  0.15853888411E+02 -0.14923333111E+02 -0.40063688689E+02  0.45597706085E+02  0.00000000000E+00 0. -1.
<scales pt_clust_5="13000.00000" pt_clust_6="13000.00000" pt_clust_7="13000.00000" pt_clust_8="13000.00000" pt_clust_9="21.77274"></scales>
<clustering>
<clus scale="   21.773">  1  9  2 -1</clus>
<clus scale="   81.980">  5  6 -1 -1</clus>
<clus scale="   92.682">  7  8 -1 -1</clus>
<clus scale="  127.325">  1  5  2 -1</clus>
<clus scale="   21.773">  1  5  2 -1</clus>
</clustering>
</event>
<event>
 9    1  0.7719620E-005  0.2400336E+03  0.7546771E-02  0.1145575E+00
         21   -1    0    0  501  502  0.00000000000E+00  0.00000000000E+00  0.52259660756E+03  0.52259660756E+03  0.00000000000E+00 0. -1.
          1   -1    0    0  502    0 -0.00000000000E+00 -0.00000000000E+00 -0.32017527388E+03  0.32017527388E+03  0.00000000000E+00 0. -1.
         23    2    1    2    0    0 -0.66663023347E+02  0.59900335902E+02 -0.14609484395E+03  0.19406538590E+03  0.91025609867E+02 0.  0.
        -24    2    1    2    0    0  0.16184506524E+03  0.15143118179E+03  0.68201079564E+01  0.23581808991E+03  0.80239826114E+02 0.  0.
         13    1    4    4    0    0  0.13516754406E+03  0.12748013932E+03  0.36408980843E+02  0.18933321097E+03  0.00000000000E+00 0. -1.
        -14    1    4    4    0    0  0.26677521176E+02  0.23951042469E+02 -0.29588872886E+02  0.46484878941E+02  0.00000000000E+00 0.  1.
        -13    1    3    3    0    0 -0.53056707167E+02 -0.10341508887E+02 -0.45700146970E+02  0.70784634029E+02  0.00000000000E+00 0.  1.
         13    1    3    3    0    0 -0.13606316180E+02  0.70241844789E+02 -0.10039469699E+03  0.12328075187E+03  0.00000000000E+00 0. -1.
          2    1    1    2  501    0 -0.95182041891E+02 -0.21133151769E+03  0.34169606968E+03  0.41288840563E+03  0.00000000000E+00 0. -1.
<scales pt_clust_5="13000.00000" pt_clust_6="13000.00000" pt_clust_7="13000.00000" pt_clust_8="13000.00000" pt_clust_9="226.22488"></scales>
<clustering>
<clus scale="   80.240">  5  6 -1 -1</clus>
<clus scale="   91.026">  7  8 -1 -1</clus>
<clus scale="  127.741">  2  7  1 -1</clus>
<clus scale="  226.225">  1  9  2 -1</clus>
<clus scale="  226.225">  1  5  2 -1</clus>
</clustering>
</event>
<event>
 9    1  0.7719620E-005  0.1506505E+03  0.7546771E-02  0.1214021E+00
         -4   -1    0    0    0  501 -0.00000000000E+00  0.00000000000E+00  0.37037847724E+03  0.37037847724E+03  0.00000000000E+00 0.  1.
         21   -1    0    0  501  502  0.00000000000E+00 -0.00000000000E+00 -0.35157840230E+03  0.35157840230E+03  0.00000000000E+00 0. -1.
         23    2    1    2    0    0 -0.57227205501E+02  0.24780724772E+02  0.27681173039E+03  0.29813335050E+03  0.91486191478E+02 0.  0.
        -24    2    1    2    0    0  0.12597432149E+03  0.74258979191E+02 -0.39708184757E+02  0.17444142415E+03  0.86424214540E+02 0.  0.
         11    1    4    4    0    0  0.97139476699E+02  0.15352620301E+02 -0.11305078847E+01  0.98351710364E+02  0.00000000000E+00 0. -1.
        -12    1    4    4    0    0  0.28834844792E+02  0.58906358890E+02 -0.38577676872E+02  0.76089713790E+02  0.00000000000E+00 0.  1.
        -11    1    3    3    0    0  0.15760334773E+02  0.31924399024E+02  0.66965062005E+02  0.75841116385E+02  0.00000000000E+00 0. -1.
         11    1    3    3    0    0 -0.72987540274E+02 -0.71436742518E+01  0.20984666838E+03  0.22229223412E+03  0.00000000000E+00 0.  1.
         -3    1    1    2    0  502 -0.68747115990E+02 -0.99039703963E+02 -0.21830347069E+03  0.24938210488E+03  0.00000000000E+00 0.  1.
<scales pt_clust_5="13000.00000" pt_clust_6="13000.00000" pt_clust_7="13000.00000" pt_clust_8="13000.00000" pt_clust_9="123.39543"></scales>
<clustering>
<clus scale="   86.424">  5  6 -1 -1</clus>
<clus scale="   91.486">  7  8 -1 -1</clus>
<clus scale="  110.719">  1  7  2 -1</clus>
<clus scale="  123.395">  2  9  1 -1</clus>
<clus scale="  123.395">  2  5  1 -1</clus>
</clustering>
</event>
<event>
 9    1  0.7719620E-005  0.1112001E+03  0.7546771E-02  0.1263539E+00
          3   -1    0    0  502    0 -0.00000000000E+00  0.00000000000E+00  0.67641396635E+02  0.67641396635E+02  0.00000000000E+00 0. -1.
         21   -1    0    0  501  502  0.00000000000E+00 -0.00000000000E+00 -0.50218024732E+03  0.50218024732E+03  0.00000000000E+00 0. -1.
         23    2    1    2    0    0 -0.34376482684E+00  0.78111043912E+02 -0.20386298149E+02  0.12368828084E+03  0.93710918832E+02 0.  0.
        -24    2    1    2    0    0 -0.33730052990E+01 -0.26579118370E+02 -0.11756190013E+03  0.14507627747E+03  0.80675270204E+02 0.  0.
         11    1    4    4    0    0 -0.61333469230E+01  0.28788208719E+02 -0.44755246239E+02  0.53566883162E+02  0.00000000000E+00 0. -1.
        -12    1    4    4    0    0  0.27603416240E+01 -0.55367327088E+02 -0.72806653894E+02  0.91509394305E+02  0.00000000000E+00 0.  1.
        -13    1    3    3    0    0  0.40505312570E+02  0.56842130049E+02  0.69321136182E+01  0.70141017202E+02  0.00000000000E+00 0. -1.
         13    1    3    3    0    0 -0.40849077397E+02  0.21268913863E+02 -0.27318411768E+02  0.53547263633E+02  0.00000000000E+00 0.  1.
          4    1    1    2  501    0  0.37167701259E+01 -0.51531925543E+02 -0.29659065240E+03  0.30105708565E+03  0.00000000000E+00 0. -1.
<scales pt_clust_5="13000.00000" pt_clust_6="13000.00000" pt_clust_7="13000.00000" pt_clust_8="13000.00000" pt_clust_9="51.66579"></scales>
<clustering>
<clus scale="   51.666">  2  9  1 -1</clus>
<clus scale="   80.675">  5  6 -1 -1</clus>
<clus scale="   93.711">  7  8 -1 -1</clus>
<clus scale="  100.460">  2  5  1 -1</clus>
<clus scale="   51.666">  2  5  1 -1</clus>
</clustering>
</event>
<event>
 9    1  0.7719620E-005  0.9875776E+02  0.7546771E-02  0.1293484E+00
          1   -1    0    0  502    0 -0.00000000000E+00  0.00000000000E+00  0.48486234811E+03  0.48486234811E+03  0.00000000000E+00 0. -1.
         21   -1    0    0  501  502  0.00000000000E+00 -0.00000000000E+00 -0.97278285792E+02  0.97278285792E+02  0.00000000000E+00 0. -1.
         23    2    1    2    0    0 -0.10662921930E+01 -0.72868240784E+01  0.39907755838E+03  0.41118093077E+03  0.98755381860E+02 0.  0.
        -24    2    1    2    0    0 -0.54513817682E+01 -0.61244101653E+02 -0.87340427971E+01  0.10206425743E+03  0.80995503527E+02 0.  0.
         11    1    4    4    0    0  0.18191265299E+02 -0.48515510906E+02  0.26153242339E+02  0.58040236186E+02  0.00000000000E+00 0. -1.
        -12    1    4    4    0    0 -0.23642647067E+02 -0.12728590747E+02 -0.34887285136E+02  0.44024021249E+02  0.00000000000E+00 0.  1.
        -13    1    3    3    0    0 -0.47570816877E+02 -0.11638729031E+02  0.15095847941E+03  0.15870382837E+03  0.00000000000E+00 0.  1.
         13    1    3    3    0    0  0.46504524684E+02  0.43519049527E+01  0.24811907896E+03  0.25247710240E+03  0.00000000000E+00 0. -1.
          2    1    1    2  501    0  0.65176739613E+01  0.68530925732E+02 -0.27594532599E+01  0.68895445697E+02  0.00000000000E+00 0. -1.
<scales pt_clust_5="13000.00000" pt_clust_6="13000.00000" pt_clust_7="13000.00000" pt_clust_8="13000.00000" pt_clust_9="68.84016"></scales>
<clustering>
<clus scale="   68.840">  2  9  1 -1</clus>
<clus scale="   80.996">  5  6 -1 -1</clus>
<clus scale="   80.998">  2  5  1 -1</clus>
<clus scale="   98.755">  7  8 -1 -1</clus>
<clus scale="   68.840">  2  5  1 -1</clus>
</clustering>
</event>
<event>
 9    1  0.7719620E-005  0.4171780E+03  0.7546771E-02  0.1037989E+00
          1   -1    0    0  502    0 -0.00000000000E+00  0.00000000000E+00  0.19830038796E+04  0.19830038796E+04  0.00000000000E+00 0. -1.
         21   -1    0    0  501  502  0.00000000000E+00 -0.00000000000E+00 -0.82109322436E+02  0.82109322436E+02  0.00000000000E+00 0. -1.
        -24    2    1    2    0    0  0.13427036945E+03  0.21115183221E+03  0.68214932492E+03  0.73102527629E+03  0.80353125254E+02 0.  0.
         23    2    1    2    0    0  0.55076851781E+02  0.97511626729E+02  0.59867208504E+03  0.61602371624E+03  0.92384937170E+02 0.  0.
         13    1    3    3    0    0  0.13720658323E+03  0.17811795643E+03  0.63290291326E+03  0.67165299858E+03  0.00000000000E+00 0. -1.
        -14    1    3    3    0    0 -0.29362137755E+01  0.33033875777E+02  0.49246411655E+02  0.59372277716E+02  0.00000000000E+00 0.  1.
        -11    1    4    4    0    0  0.37163445668E+02  0.94696028601E+01  0.70422954363E+02  0.80188450374E+02  0.00000000000E+00 0.  1.
         11    1    4    4    0    0  0.17913406113E+02  0.88042023869E+02  0.52824913067E+03  0.53583526586E+03  0.00000000000E+00 0. -1.
          2    1    1    2  501    0 -0.18934722123E+03 -0.30866345894E+03  0.62007314718E+03  0.71806420947E+03  0.00000000000E+00 0. -1.
<scales pt_clust_5="13000.00000" pt_clust_6="13000.00000" pt_clust_7="13000.00000" pt_clust_8="13000.00000" pt_clust_9="362.11255"></scales>
<clustering>
<clus scale="   80.353">  5  6 -1 -1</clus>
<clus scale="   92.385">  7  8 -1 -1</clus>
<clus scale="  113.394">  5  7 -1 -1</clus>
<clus scale="  362.113">  2  9  1 -1</clus>
<clus scale="  362.113">  2  5  1 -1</clus>
</clustering>
</event>
<event>
 9    1  0.7719620E-005  0.1732699E+03  0.7546771E-02  0.1205390E+00
          1   -1    0    0  502    0 -0.00000000000E+00  0.00000000000E+00  0.62381828131E+03  0.62381828131E+03  0.00000000000E+00 0. -1.
         21   -1    0    0  501  502  0.00000000000E+00 -0.00000000000E+00 -0.93339900109E+02  0.93339900109E+02  0.00000000000E+00 0.  1.
        -24    2    1    2    0    0  0.34347999091E+02  0.39992993228E+01  0.16823905176E+03  0.18963606209E+03  0.80384563635E+02 0.  0.
         23    2    1    2    0    0 -0.35275115196E+02  0.14216633004E+03  0.47285355726E+02  0.18030279915E+03  0.93902051976E+02 0.  0.
         13    1    3    3    0    0  0.48820907961E+02  0.27488131084E+02  0.13667931900E+03  0.14771700866E+03  0.00000000000E+00 0. -1.
        -14    1    3    3    0    0 -0.14472908870E+02 -0.23488831761E+02  0.31559732765E+02  0.41919053435E+02  0.00000000000E+00 0.  1.
        -11    1    4    4    0    0 -0.22611561866E+02 -0.74685426851E+01  0.58397500116E+01  0.24518656979E+02  0.00000000000E+00 0. -1.
         11    1    4    4    0    0 -0.12663553330E+02  0.14963487272E+03  0.41445605714E+02  0.15578414217E+03  0.00000000000E+00 0.  1.
          2    1    1    2  501    0  0.92711610496E+00 -0.14616562936E+03  0.31495397371E+03  0.34721932018E+03  0.00000000000E+00 0. -1.
<scales pt_clust_5="13000.00000" pt_clust_6="13000.00000" pt_clust_7="13000.00000" pt_clust_8="13000.00000" pt_clust_9="145.61896"></scales>
<clustering>
<clus scale="   80.385">  5  6 -1 -1</clus>
<clus scale="   87.507">  1  5  2 -1</clus>
<clus scale="   93.902">  7  8 -1 -1</clus>
<clus scale="  145.619">  2  9  1 -1</clus>
<clus scale="  145.619">  2  5  1 -1</clus>
</clustering>
</event>
<event>
 9    1  0.7719620E-005  0.9198797E+02  0.7546771E-02  0.1305409E+00
          3   -1    0    0  502    0 -0.00000000000E+00  0.00000000000E+00  0.12889372592E+03  0.12889372592E+03  0.00000000000E+00 0. -1.
         21   -1    0    0  501  502  0.00000000000E+00 -0.00000000000E+00 -0.14570781443E+03  0.14570781443E+03  0.00000000000E+00 0. -1.
         23    2    1    2    0    0 -0.22984273384E+02 -0.13576007570E+02  0.58273267899E+02  0.11102249331E+03  0.90651174648E+02 0.  0.
        -24    2    1    2    0    0 -0.34899729092E+02  0.14223158192E+02 -0.45078784815E+02  0.98375589184E+02  0.78901016389E+02 0.  0.
         11    1    4    4    0    0 -0.41150502278E+02  0.10381025079E+02  0.93475290630E+01  0.43456942126E+02  0.00000000000E+00 0. -1.
        -12    1    4    4    0    0  0.62507731852E+01  0.38421331133E+01 -0.54426313878E+02  0.54918647057E+02  0.00000000000E+00 0.  1.
        -11    1    3    3    0    0  0.24922949792E+02  0.88223771605E+01 -0.66735330766E+01  0.27267632989E+02  0.00000000000E+00 0.  1.
         11    1    3    3    0    0 -0.47907223175E+02 -0.22398384730E+02  0.64946800976E+02  0.83754860324E+02  0.00000000000E+00 0. -1.
          4    1    1    2  501    0  0.57884002476E+02 -0.64715062199E+00 -0.30008571599E+02  0.65203457853E+02  0.00000000000E+00 0. -1.
<scales pt_clust_5="13000.00000" pt_clust_6="13000.00000" pt_clust_7="13000.00000" pt_clust_8="13000.00000" pt_clust_9="57.88762"></scales>
<clustering>
<clus scale="   57.888">  2  9  1 -1</clus>
<clus scale="   78.901">  5  6 -1 -1</clus>
<clus scale="   80.433">  2  5  1 -1</clus>
<clus scale="   90.651">  7  8 -1 -1</clus>
<clus scale="   57.888">  2  5  1 -1</clus>
</clustering>
</event>
<event>
 9    1  0.7719620E-005  0.9753514E+02  0.7546771E-02  0.1291552E+00
         21   -1    0    0  501  502  0.00000000000E+00  0.00000000000E+00  0.20222095234E+03  0.20222095234E+03  0.00000000000E+00 0. -1.
          3   -1    0    0  502    0 -0.00000000000E+00 -0.00000000000E+00 -0.13612680110E+03  0.13612680110E+03  0.00000000000E+00 0. -1.
         23    2    1    2    0    0  0.32103122825E+02  0.99778277132E+01 -0.88204738992E+02  0.13043740634E+03  0.90020405748E+02 0.  0.
        -24    2    1    2    0    0 -0.49837212303E+02 -0.21864284088E+02  0.63934704491E+02  0.11505846591E+03  0.78670257975E+02 0.  0.
         13    1    4    4    0    0 -0.32354359124E+02 -0.27194739291E+02  0.80158871668E+02  0.90618999700E+02  0.00000000000E+00 0. -1.
        -14    1    4    4    0    0 -0.17482853179E+02  0.53304552025E+01 -0.16224167177E+02  0.24439466208E+02  0.00000000000E+00 0.  1.
        -11    1    3    3    0    0  0.62275083970E+02  0.61250458136E+01 -0.73870939595E+02  0.96812282208E+02  0.00000000000E+00 0.  1.
         11    1    3    3    0    0 -0.30171961145E+02  0.38527818996E+01 -0.14333799398E+02  0.33625124132E+02  0.00000000000E+00 0. -1.
          4    1    1    2  501    0  0.17734089477E+02  0.11886456375E+02  0.90364185741E+02  0.92851881184E+02  0.00000000000E+00 0. -1.
<scales pt_clust_5="13000.00000" pt_clust_6="13000.00000" pt_clust_7="13000.00000" pt_clust_8="13000.00000" pt_clust_9="21.34914"></scales>
<clustering>
<clus scale="   21.349">  1  9  2 -1</clus>
<clus scale="   78.670">  5  6 -1 -1</clus>
<clus scale="   87.169">  1  5  2 -1</clus>
<clus scale="   90.020">  7  8 -1 -1</clus>
<clus scale="   21.349">  1  5  2 -1</clus>
</clustering>
</event>
<event>
 9    1  0.7719620E-005  0.1039333E+03  0.7546771E-02  0.1275721E+00
         21   -1    0    0  501  502  0.00000000000E+00  0.00000000000E+00  0.96689589997E+02  0.96689589997E+02  0.00000000000E+00 0. -1.
          1   -1    0    0  502    0 -0.00000000000E+00 -0.00000000000E+00 -0.25740192748E+03  0.25740192748E+03  0.00000000000E+00 0. -1.
         23    2    1    2    0    0 -0.20706242801E+02 -0.91413159139E+01 -0.51936225703E+02  0.10838079690E+03  0.92394336671E+02 0.  0.
        -24    2    1    2    0    0  0.79060674418E+02 -0.59145710303E+02 -0.57259364903E+02  0.14216202263E+03  0.84750224314E+02 0.  0.
         13    1    4    4    0    0  0.47991464626E+02 -0.28361653607E+02 -0.76271063484E+02  0.94471367076E+02  0.00000000000E+00 0. -1.
        -14    1    4    4    0    0  0.31069209792E+02 -0.30784056696E+02  0.19011698581E+02  0.47690655549E+02  0.00000000000E+00 0.  1.
        -11    1    3    3    0    0  0.20912919998E+02  0.13717555955E+02  0.12801256210E+02  0.28096151422E+02  0.00000000000E+00 0.  1.
         11    1    3    3    0    0 -0.41619162798E+02 -0.22858871868E+02 -0.64737481913E+02  0.80284645478E+02  0.00000000000E+00 0. -1.
          2    1    1    2  501    0 -0.58354431617E+02  0.68287026217E+02 -0.51516746880E+02  0.10354869795E+03  0.00000000000E+00 0. -1.
<scales pt_clust_5="13000.00000" pt_clust_6="13000.00000" pt_clust_7="13000.00000" pt_clust_8="13000.00000" pt_clust_9="89.82408"></scales>
<clustering>
<clus scale="   84.750">  5  6 -1 -1</clus>
<clus scale="   89.824">  1  9  2 -1</clus>
<clus scale="   92.394">  7  8 -1 -1</clus>
<clus scale="   97.201">  1  5  2 -1</clus>
<clus scale="   89.824">  1  5  2 -1</clus>
</clustering>
</event>
<event>
 9    1  0.7719620E-005  0.1003880E+03  0.7546771E-02  0.1281580E+00
         21   -1    0    0  501  502  0.00000000000E+00  0.00000000000E+00  0.82827710470E+02  0.82827710470E+02  0.00000000000E+00 0.  1.
         -2   -1    0    0    0  501 -0.00000000000E+00 -0.00000000000E+00 -0.35271541118E+03  0.35271541118E+03  0.00000000000E+00 0.  1.
        -24    2    1    2    0    0 -0.38790917163E+01  0.45169360497E+02 -0.25657202488E+03  0.27450119642E+03  0.86408242693E+02 0.  0.
         23    2    1    2    0    0  0.45843516867E+02 -0.24348414752E+02 -0.33830664168E+02  0.10990104622E+03  0.90770329853E+02 0.  0.
         11    1    3    3    0    0  0.24385592736E+02 -0.11889562742E+02 -0.13016249329E+03  0.13295974389E+03  0.00000000000E+00 0. -1.
        -12    1    3    3    0    0 -0.28264684452E+02  0.57058923238E+02 -0.12640953159E+03  0.14154145253E+03  0.00000000000E+00 0.  1.
        -13    1    4    4    0    0  0.37491655070E+02  0.30632595193E+02 -0.10202902079E+02  0.49478068869E+02  0.00000000000E+00 0.  1.
         13    1    4    4    0    0  0.83518617967E+01 -0.54981009945E+02 -0.23627762089E+02  0.60422977346E+02  0.00000000000E+00 0. -1.
         -1    1    1    2    0  502 -0.41964425151E+02 -0.20820945745E+02  0.20514988337E+02  0.51140879015E+02  0.00000000000E+00 0.  1.
<scales pt_clust_5="13000.00000" pt_clust_6="13000.00000" pt_clust_7="13000.00000" pt_clust_8="13000.00000" pt_clust_9="46.84575"></scales>
<clustering>
<clus scale="   46.846">  1  9  2 -1</clus>
<clus scale="   86.408">  5  6 -1 -1</clus>
<clus scale="   90.770">  7  8 -1 -1</clus>
<clus scale="   96.462">  2  5  1 -1</clus>
<clus scale="   46.846">  1  5  2 -1</clus>
</clustering>
</event>
<event>
 9    1  0.7719620E-005  0.2476310E+03  0.7546771E-02  0.1156203E+00
          1   -1    0    0  502    0 -0.00000000000E+00  0.00000000000E+00  0.33286138435E+03  0.33286138435E+03  0.00000000000E+00 0. -1.
         21   -1    0    0  501  502  0.00000000000E+00 -0.00000000000E+00 -0.42624160312E+03  0.42624160312E+03  0.00000000000E+00 0. -1.
        -24    2    1    2    0    0  0.13721724408E+02 -0.36807889953E+02  0.32345274375E+02  0.96085059225E+02  0.81504695254E+02 0.  0.
         23    2    1    2    0    0 -0.20219391112E+03  0.12101482553E+03 -0.30053229732E+03  0.39251840523E+03  0.90686663955E+02 0.  0.
         13    1    3    3    0    0 -0.52659821989E+01 -0.48363847127E+02  0.48431648741E+02  0.68647045655E+02  0.00000000000E+00 0. -1.
        -14    1    3    3    0    0  0.18987706607E+02  0.11555957174E+02 -0.16086374366E+02  0.27438013570E+02  0.00000000000E+00 0.  1.
        -13    1    4    4    0    0 -0.55521774546E+02  0.95343521504E+01 -0.26354730389E+02  0.62194397927E+02  0.00000000000E+00 0.  1.
         13    1    4    4    0    0 -0.14667213658E+03  0.11148047338E+03 -0.27417756693E+03  0.33032400730E+03  0.00000000000E+00 0. -1.
          2    1    1    2  501    0  0.18847218672E+03 -0.84206935580E+02  0.17480680418E+03  0.27049952302E+03  0.00000000000E+00 0. -1.
<scales pt_clust_5="13000.00000" pt_clust_6="13000.00000" pt_clust_7="13000.00000" pt_clust_8="13000.00000" pt_clust_9="230.42804"></scales>
<clustering>
<clus scale="   81.505">  5  6 -1 -1</clus>
<clus scale="   90.477">  1  5  2 -1</clus>
<clus scale="   90.687">  7  8 -1 -1</clus>
<clus scale="  230.428">  2  9  1 -1</clus>
<clus scale="  230.428">  2  5  1 -1</clus>
</clustering>
</event>
<event>
 9    1  0.7719620E-005  0.9852160E+02  0.7546771E-02  0.1285929E+00
         -4   -1    0    0    0  501 -0.00000000000E+00  0.00000000000E+00  0.82693857885E+02  0.82693857885E+02  0.00000000000E+00 0.  1.
         21   -1    0    0  501  502  0.00000000000E+00 -0.00000000000E+00 -0.17704184884E+03  0.17704184884E+03  0.00000000000E+00 0. -1.
         23    2    1    2    0    0 -0.31727579084E+02  0.18276625016E+02  0.28624002628E+01  0.97871492719E+02  0.90719135000E+02 0.  0.
        -24    2    1    2    0    0  0.48426284469E+02  0.58424026890E+01 -0.84430739318E+02  0.12986587402E+03  0.85775035978E+02 0.  0.
         13    1    4    4    0    0  0.22437367933E+02  0.35415875830E+02 -0.79905548728E+02  0.90236447503E+02  0.00000000000E+00 0. -1.
        -14    1    4    4    0    0  0.25988916536E+02 -0.29573473141E+02 -0.45251905909E+01  0.39629426519E+02  0.00000000000E+00 0.  1.
        -11    1    3    3    0    0  0.26998647955E+02  0.27071402653E+02 -0.20446205623E+01  0.38287965554E+02  0.00000000000E+00 0. -1.
         11    1    3    3    0    0 -0.58726227040E+02 -0.87947776367E+01  0.49070208251E+01  0.59583527165E+02  0.00000000000E+00 0.  1.
         -3    1    1    2    0  502 -0.16698705385E+02 -0.24119027705E+02 -0.12779651896E+02  0.31998339981E+02  0.00000000000E+00 0.  1.
<scales pt_clust_5="13000.00000" pt_clust_6="13000.00000" pt_clust_7="13000.00000" pt_clust_8="13000.00000" pt_clust_9="29.33555"></scales>
<clustering>
<clus scale="   29.336">  2  9  1 -1</clus>
<clus scale="   85.775">  5  6 -1 -1</clus>
<clus scale="   90.719">  7  8 -1 -1</clus>
<clus scale="   93.989">  2  5  1 -1</clus>
<clus scale="   29.336">  2  5  1 -1</clus>
</clustering>
</event>
<event>
 9    1  0.7719620E-005  0.1014771E+03  0.7546771E-02  0.1282018E+00
          1   -1    0    0  502    0 -0.00000000000E+00  0.00000000000E+00  0.62070290254E+02  0.62070290254E+02  0.00000000000E+00 0. -1.
         21   -1    0    0  501  502  0.00000000000E+00 -0.00000000000E+00 -0.36360129026E+03  0.36360129026E+03  0.00000000000E+00 0. -1.
         23    2    1    2    0    0  0.42905967031E+02  0.35988374167E+02 -0.16498968573E+02  0.10904232663E+03  0.92097382971E+02 0.  0.
        -24    2    1    2    0    0 -0.74021391047E+01 -0.13187610580E+02 -0.11978501573E+03  0.14608022042E+03  0.82233059465E+02 0.  0.
         13    1    4    4    0    0  0.30411922205E+02  0.17073838544E+02 -0.56349863581E+02  0.66269963788E+02  0.00000000000E+00 0. -1.
        -14    1    4    4    0    0 -0.37814061310E+02 -0.30261449124E+02 -0.63435152150E+02  0.79810256635E+02  0.00000000000E+00 0.  1.
        -13    1    3    3    0    0 -0.24831692482E+02  0.30905809757E+02 -0.27824831057E+01  0.39743228863E+02  0.00000000000E+00 0.  1.
         13    1    3    3    0    0  0.67737659513E+02  0.50825644107E+01 -0.13716485467E+02  0.69299097763E+02  0.00000000000E+00 0. -1.
          2    1    1    2  501    0 -0.35503827926E+02 -0.22800763587E+02 -0.16524701570E+03  0.17054903346E+03  0.00000000000E+00 0. -1.
<scales pt_clust_5="13000.00000" pt_clust_6="13000.00000" pt_clust_7="13000.00000" pt_clust_8="13000.00000" pt_clust_9="42.19475"></scales>
<clustering>
<clus scale="   42.195">  2  9  1 -1</clus>
<clus scale="   82.233">  5  6 -1 -1</clus>
<clus scale="   92.097">  7  8 -1 -1</clus>
<clus scale="   92.617">  2  5  1 -1</clus>
<clus scale="   42.195">  2  5  1 -1</clus>
</clustering>
</event>
<event>
 9    1  0.7719620E-005  0.1312369E+03  0.7546771E-02  0.1228887E+00
         21   -1    0    0  501  502  0.00000000000E+00  0.00000000000E+00  0.62477526491E+03  0.62477526491E+03  0.00000000000E+00 0.  1.
         -2   -1    0    0    0  501 -0.00000000000E+00 -0.00000000000E+00 -0.44625639075E+02  0.44625639075E+02  0.00000000000E+00 0.  1.
        -24    2    1    2    0    0  0.94641361191E+02 -0.29139352931E+02  0.85306007510E+02  0.15303379222E+03  0.79599858703E+02 0.  0.
         23    2    1    2    0    0 -0.66172051053E+02  0.33604567547E+02  0.41054414823E+03  0.42727816510E+03  0.92261180456E+02 0.  0.
         11    1    3    3    0    0 -0.12482867955E+01 -0.19978793650E+02  0.43777125926E+02  0.48136754876E+02  0.00000000000E+00 0. -1.
        -12    1    3    3    0    0  0.95889647987E+02 -0.91605592817E+01  0.41528881584E+02  0.10489703734E+03  0.00000000000E+00 0.  1.
        -11    1    4    4    0    0  0.87566449193E+01  0.38741408187E+02  0.19555978677E+03  0.19955251374E+03  0.00000000000E+00 0.  1.
         11    1    4    4    0    0 -0.74928695972E+02 -0.51368406392E+01  0.21498436146E+03  0.22772565135E+03  0.00000000000E+00 0. -1.
         -1    1    1    2    0  502 -0.28469310138E+02 -0.44652146159E+01  0.84299470092E+02  0.89088946672E+02  0.00000000000E+00 0.  1.
<scales pt_clust_5="13000.00000" pt_clust_6="13000.00000" pt_clust_7="13000.00000" pt_clust_8="13000.00000" pt_clust_9="28.81735"></scales>
<clustering>
<clus scale="   28.817">  1  9  2 -1</clus>
<clus scale="   79.600">  5  6 -1 -1</clus>
<clus scale="   92.261">  7  8 -1 -1</clus>
<clus scale="  122.667">  2  5  1 -1</clus>
<clus scale="   28.817">  1  5  2 -1</clus>
</clustering>
</event>
<event>
 9    1  0.7719620E-005  0.1044093E+03  0.7546771E-02  0.1276526E+00
          1   -1    0    0  502    0 -0.00000000000E+00  0.00000000000E+00  0.64711103326E+03  0.64711103326E+03  0.00000000000E+00 0. -1.
         21   -1    0    0  501  502  0.00000000000E+00 -0.00000000000E+00 -0.26314661425E+02  0.26314661425E+02  0.00000000000E+00 0. -1.
         23    2    1    2    0    0 -0.55016791503E+02  0.22624302771E+02  0.28517209149E+03  0.30576740580E+03  0.92907902031E+02 0.  0.
        -24    2    1    2    0    0  0.24577966085E+02 -0.19367010606E+02  0.11230768916E+03  0.14225324914E+03  0.81509584280E+02 0.  0.
         11    1    4    4    0    0  0.48254011705E+02 -0.33628843244E+02  0.85276950691E+02  0.10359298752E+03  0.00000000000E+00 0. -1.
        -12    1    4    4    0    0 -0.23676045621E+02  0.14261832639E+02  0.27030738464E+02  0.38660261618E+02  0.00000000000E+00 0.  1.
        -11    1    3    3    0    0 -0.34909174144E+02 -0.30768101291E+02  0.18217605045E+03  0.18802510432E+03  0.00000000000E+00 0. -1.
         11    1    3    3    0    0 -0.20107617359E+02  0.53392404063E+02  0.10299604104E+03  0.11774230148E+03  0.00000000000E+00 0.  1.
          2    1    1    2  501    0  0.30438825418E+02 -0.32572921655E+01  0.22331659118E+03  0.22540503974E+03  0.00000000000E+00 0. -1.
<scales pt_clust_5="13000.00000" pt_clust_6="13000.00000" pt_clust_7="13000.00000" pt_clust_8="13000.00000" pt_clust_9="30.61263"></scales>
<clustering>
<clus scale="   30.613">  2  9  1 -1</clus>
<clus scale="   81.510">  5  6 -1 -1</clus>
<clus scale="   92.908">  7  8 -1 -1</clus>
<clus scale="   94.410">  2  5  1 -1</clus>
<clus scale="   30.613">  2  5  1 -1</clus>
</clustering>
</event>
<event>
 9    1  0.7719620E-005  0.9173567E+02  0.7546771E-02  0.1304255E+00
         21   -1    0    0  501  502  0.00000000000E+00  0.00000000000E+00  0.69417844823E+03  0.69417844823E+03  0.00000000000E+00 0.  1.
         -4   -1    0    0    0  501 -0.00000000000E+00 -0.00000000000E+00 -0.15617257640E+02  0.15617257640E+02  0.00000000000E+00 0.  1.
         23    2    1    2    0    0  0.10366788681E+02 -0.34322359190E+02  0.28203272467E+03  0.29794756109E+03  0.89133589219E+02 0.  0.
        -24    2    1    2    0    0 -0.83565005139E+01  0.39260559432E+01  0.30169984588E+03  0.31224672065E+03  0.79937303790E+02 0.  0.
         13    1    4    4    0    0  0.24037191164E+02 -0.26228481804E+02  0.11524390423E+03  0.12061043602E+03  0.00000000000E+00 0. -1.
        -14    1    4    4    0    0 -0.32393691678E+02  0.30154537748E+02  0.18645594166E+03  0.19163628463E+03  0.00000000000E+00 0.  1.
        -11    1    3    3    0    0  0.34349902460E+02  0.84107688741E+01  0.19398217950E+03  0.19717946850E+03  0.00000000000E+00 0. -1.
         11    1    3    3    0    0 -0.23983113779E+02 -0.42733128064E+02  0.88050545165E+02  0.10076809259E+03  0.00000000000E+00 0.  1.
         -3    1    1    2    0  502 -0.20102881671E+01  0.30396303247E+02  0.94828620044E+02  0.99601424132E+02  0.00000000000E+00 0.  1.
<scales pt_clust_5="13000.00000" pt_clust_6="13000.00000" pt_clust_7="13000.00000" pt_clust_8="13000.00000" pt_clust_9="30.46272"></scales>
<clustering>
<clus scale="   30.463">  1  9  2 -1</clus>
<clus scale="   79.937">  5  6 -1 -1</clus>
<clus scale="   82.829">  1  5  2 -1</clus>
<clus scale="   89.134">  7  8 -1 -1</clus>
<clus scale="   30.463">  1  5  2 -1</clus>
</clustering>
</event>
<event>
 9    1  0.7719620E-005  0.1071338E+03  0.7546771E-02  0.1270107E+00
          1   -1    0    0  502    0 -0.00000000000E+00  0.00000000000E+00  0.77630476878E+02  0.77630476878E+02  0.00000000000E+00 0. -1.
         21   -1    0    0  501  502  0.00000000000E+00 -0.00000000000E+00 -0.68563028329E+03  0.68563028329E+03  0.00000000000E+00 0.  1.
        -24    2    1    2    0    0  0.50847753908E+02  0.20803162000E+02  0.16886700065E+02  0.99147732737E+02  0.80788901719E+02 0.  0.
         23    2    1    2    0    0 -0.48188726978E+02 -0.93270240780E+02 -0.50759180490E+03  0.52621235684E+03  0.90711150743E+02 0.  0.
         13    1    3    3    0    0 -0.20460754020E+02 -0.62601129536E+01  0.26741960805E+01  0.21563459693E+02  0.00000000000E+00 0. -1.
        -14    1    3    3    0    0  0.71308507928E+02  0.27063274953E+02  0.14212503985E+02  0.77584273044E+02  0.00000000000E+00 0.  1.
        -11    1    4    4    0    0 -0.55300934673E+02 -0.14394743453E+02 -0.16599950107E+03  0.17555978004E+03  0.00000000000E+00 0. -1.
         11    1    4    4    0    0  0.71122076959E+01 -0.78875497327E+02 -0.34159230383E+03  0.35065257680E+03  0.00000000000E+00 0.  1.
          2    1    1    2  501    0 -0.26590269309E+01  0.72467078780E+02 -0.11729470159E+03  0.13790067060E+03  0.00000000000E+00 0. -1.
<scales pt_clust_5="13000.00000" pt_clust_6="13000.00000" pt_clust_7="13000.00000" pt_clust_8="13000.00000" pt_clust_9="72.51585"></scales>
<clustering>
<clus scale="   72.516">  2  9  1 -1</clus>
<clus scale="   80.789">  5  6 -1 -1</clus>
<clus scale="   90.711">  7  8 -1 -1</clus>
<clus scale="   98.874">  1  5  2 -1</clus>
<clus scale="   72.516">  2  5  1 -1</clus>
</clustering>
</event>
<event>
 9    1  0.7719620E-005  0.1417749E+03  0.7546771E-02  0.1213362E+00
         21   -1    0    0  501  502  0.00000000000E+00  0.00000000000E+00  0.99930350892E+02  0.99930350892E+02  0.00000000000E+00 0. -1.
          1   -1    0    0  502    0 -0.00000000000E+00 -0.00000000000E+00 -0.35007026202E+03  0.35007026202E+03  0.00000000000E+00 0. -1.
        -24    2    1    2    0    0  0.10140419724E+03 -0.20815972072E+02 -0.18371607968E+03  0.22505950340E+03  0.78638834089E+02 0.  0.
         23    2    1    2    0    0 -0.11103003650E+03  0.73787230790E+02 -0.46652948763E+02  0.16758695679E+03  0.90203470143E+02 0.  0.
         11    1    3    3    0    0  0.93462106374E+02 -0.10638216565E+02 -0.18899660818E+03  0.21111147502E+03  0.00000000000E+00 0. -1.
        -12    1    3    3    0    0  0.79420908636E+01 -0.10177755507E+02  0.52805285035E+01  0.13948028382E+02  0.00000000000E+00 0.  1.
        -11    1    4    4    0    0 -0.10886066928E+03  0.26154441790E+02 -0.42389620056E+02  0.11971457735E+03  0.00000000000E+00 0. -1.
         11    1    4    4    0    0 -0.21693672223E+01  0.47632788999E+02 -0.42633287076E+01  0.47872379444E+02  0.00000000000E+00 0.  1.
          2    1    1    2  501    0  0.96258392654E+01 -0.52971258717E+02 -0.19770882681E+02  0.57354152715E+02  0.00000000000E+00 0. -1.
<scales pt_clust_5="13000.00000" pt_clust_6="13000.00000" pt_clust_7="13000.00000" pt_clust_8="13000.00000" pt_clust_9="53.83875"></scales>
<clustering>
<clus scale="   53.839">  1  9  2 -1</clus>
<clus scale="   78.639">  5  6 -1 -1</clus>
<clus scale="   90.203">  7  8 -1 -1</clus>
<clus scale="  134.713">  2  5  1 -1</clus>
<clus scale="   53.839">  1  5  2 -1</clus>
</clustering>
</event>
<event>
 9    1  0.7719620E-005  0.1323589E+03  0.7546771E-02  0.1240368E+00
         21   -1    0    0  501  502  0.00000000000E+00  0.00000000000E+00  0.69651718774E+03  0.69651718774E+03  0.00000000000E+00 0. -1.
          1   -1    0    0  502    0 -0.00000000000E+00 -0.00000000000E+00 -0.76573924129E+02  0.76573924129E+02  0.00000000000E+00 0. -1.
         23    2    1    2    0    0  0.19259816236E+02  0.70080983370E+01 -0.31215544646E+01  0.94559272272E+02  0.92258646785E+02 0.  0.
        -24    2    1    2    0    0  0.75344660762E+02 -0.69220275920E+02  0.47321981926E+03  0.49071840617E+03  0.79995576780E+02 0.  0.
         13    1    4    4    0    0  0.68564867296E+02 -0.21757838595E+02  0.18417881428E+03  0.19772804605E+03  0.00000000000E+00 0. -1.
        -14    1    4    4    0    0  0.67797934658E+01 -0.47462437325E+02  0.28904100499E+03  0.29299036011E+03  0.00000000000E+00 0.  1.
        -13    1    3    3    0    0  0.36921817033E+02 -0.23148827436E+02  0.24518002937E+02  0.50002212478E+02  0.00000000000E+00 0. -1.
         13    1    3    3    0    0 -0.17662000797E+02  0.30156925773E+02 -0.27639557401E+02  0.44557059795E+02  0.00000000000E+00 0.  1.
          2    1    1    2  501    0 -0.94604476998E+02  0.62212177583E+02  0.14984499882E+03  0.18781343343E+03  0.00000000000E+00 0. -1.
<scales pt_clust_5="13000.00000" pt_clust_6="13000.00000" pt_clust_7="13000.00000" pt_clust_8="13000.00000" pt_clust_9="105.44950"></scales>
<clustering>
<clus scale="   79.996">  5  6 -1 -1</clus>
<clus scale="   92.259">  7  8 -1 -1</clus>
<clus scale="   94.508">  2  7  1 -1</clus>
<clus scale="  105.450">  1  9  2 -1</clus>
<clus scale="  105.450">  1  5  2 -1</clus>
</clustering>
</event>
<event>
 9    1  0.7719620E-005  0.9549004E+02  0.7546771E-02  0.1295964E+00
         21   -1    0    0  501  502  0.00000000000E+00  0.00000000000E+00  0.14237375702E+03  0.14237375702E+03  0.00000000000E+00 0.  1.
          1   -1    0    0  502    0 -0.00000000000E+00 -0.00000000000E+00 -0.96812667639E+02  0.96812667639E+02  0.00000000000E+00 0. -1.
         23    2    1    2    0    0 -0.16732114982E+02 -0.19020893088E+02 -0.79839526713E+01  0.93930520476E+02  0.90096843069E+02 0.  0.
        -24    2    1    2    0    0  0.17185271818E+01  0.49841047823E+02  0.58543755622E+02  0.11061089165E+03  0.79500406568E+02 0.  0.
         13    1    4    4    0    0 -0.35018886904E+01 -0.20547540137E+02  0.35723937080E+01  0.21147733375E+02  0.00000000000E+00 0. -1.
        -14    1    4    4    0    0  0.52204158722E+01  0.70388587961E+02  0.54971361914E+02  0.89463158270E+02  0.00000000000E+00 0.  1.
        -13    1    3    3    0    0  0.60128718136E+01 -0.52005780305E+02 -0.11853680240E+02  0.53677421210E+02  0.00000000000E+00 0.  1.
         13    1    3    3    0    0 -0.22744986795E+02  0.32984887217E+02  0.38697275690E+01  0.40253099266E+02  0.00000000000E+00 0. -1.
          2    1    1    2  501    0  0.15013587800E+02 -0.30820154736E+02 -0.49987135678E+01  0.34645012540E+02  0.00000000000E+00 0. -1.
<scales pt_clust_5="13000.00000" pt_clust_6="13000.00000" pt_clust_7="13000.00000" pt_clust_8="13000.00000" pt_clust_9="34.28252"></scales>
<clustering>
<clus scale="   34.283">  1  9  2 -1</clus>
<clus scale="   79.500">  5  6 -1 -1</clus>
<clus scale="   85.564">  1  5  2 -1</clus>
<clus scale="   90.097">  7  8 -1 -1</clus>
<clus scale="   34.283">  1  5  2 -1</clus>
</clustering>
</event>
<event>
 9    1  0.7719620E-005  0.1147520E+03  0.7546771E-02  0.1256078E+00
         21   -1    0    0  501  502  0.00000000000E+00  0.00000000000E+00  0.88152581217E+02  0.88152581217E+02  0.00000000000E+00 0.  1.
          1   -1    0    0  502    0 -0.00000000000E+00 -0.00000000000E+00 -0.36738530686E+03  0.36738530686E+03  0.00000000000E+00 0. -1.
         23    2    1    2    0    0  0.32466070194E+02  0.46464754221E+02 -0.20534654415E+03  0.23174306209E+03  0.91239380392E+02 0.  0.
        -24    2    1    2    0    0 -0.87381731789E+02 -0.62134812046E+02 -0.93846552659E+02  0.16329939625E+03  0.79769765280E+02 0.  0.
         11    1    4    4    0    0 -0.40243413189E+02 -0.67566878641E+02 -0.83558057779E+02  0.11474652245E+03  0.00000000000E+00 0. -1.
        -12    1    4    4    0    0 -0.47138318600E+02  0.54320665950E+01 -0.10288494880E+02  0.48552873806E+02  0.00000000000E+00 0.  1.
        -13    1    3    3    0    0  0.34047759355E+00 -0.24292159954E+02 -0.22684893484E+02  0.33238973399E+02  0.00000000000E+00 0.  1.
         13    1    3    3    0    0  0.32125592600E+02  0.70756914175E+02 -0.18266165067E+03  0.19850408869E+03  0.00000000000E+00 0. -1.
          2    1    1    2  501    0  0.54915661595E+02  0.15670057825E+02  0.19960371170E+02  0.60495429727E+02  0.00000000000E+00 0. -1.
<scales pt_clust_5="13000.00000" pt_clust_6="13000.00000" pt_clust_7="13000.00000" pt_clust_8="13000.00000" pt_clust_9="57.10762"></scales>
<clustering>
<clus scale="   57.108">  1  9  2 -1</clus>
<clus scale="   79.770">  5  6 -1 -1</clus>
<clus scale="   91.239">  7  8 -1 -1</clus>
<clus scale="  105.861">  1  5  2 -1</clus>
<clus scale="   57.108">  1  5  2 -1</clus>
</clustering>
</event>
<event>
 9    1  0.7719620E-005  0.1404566E+03  0.7546771E-02  0.1216026E+00
          1   -1    0    0  502    0 -0.00000000000E+00  0.00000000000E+00  0.49213226105E+03  0.49213226105E+03  0.00000000000E+00 0. -1.
         21   -1    0    0  501  502  0.00000000000E+00 -0.00000000000E+00 -0.75357278525E+02  0.75357278525E+02  0.00000000000E+00 0. -1.
        -24    2    1    2    0    0 -0.10682047078E+03  0.10422788134E+02  0.37946782089E+03  0.40262809743E+03  0.81205358542E+02 0.  0.
         23    2    1    2    0    0  0.78797283685E+02 -0.12322482663E+02  0.89853938192E+01  0.12497371989E+03  0.95795813410E+02 0.  0.
         11    1    3    3    0    0 -0.10783963781E+03 -0.38994101817E+01  0.24906091448E+03  0.27143310779E+03  0.00000000000E+00 0. -1.
        -12    1    3    3    0    0  0.10191670326E+01  0.14322198316E+02  0.13040690641E+03  0.13119498964E+03  0.00000000000E+00 0.  1.
        -11    1    4    4    0    0  0.32913935798E+02 -0.38220936387E+02 -0.30668004783E+02  0.59031293950E+02  0.00000000000E+00 0. -1.
         11    1    4    4    0    0  0.45883347887E+02  0.25898453724E+02  0.39653398603E+02  0.65942425944E+02  0.00000000000E+00 0.  1.
          2    1    1    2  501    0  0.28023187096E+02  0.18996945289E+01  0.28321767809E+02  0.39887722248E+02  0.00000000000E+00 0. -1.
<scales pt_clust_5="13000.00000" pt_clust_6="13000.00000" pt_clust_7="13000.00000" pt_clust_8="13000.00000" pt_clust_9="28.08750"></scales>
<clustering>
<clus scale="   28.088">  2  9  1 -1</clus>
<clus scale="   81.205">  5  6 -1 -1</clus>
<clus scale="   95.796">  7  8 -1 -1</clus>
<clus scale="  130.941">  1  5  2 -1</clus>
<clus scale="   28.088">  2  5  1 -1</clus>
</clustering>
</event>
<event>
 9    1  0.7719620E-005  0.1182513E+03  0.7546771E-02  0.1249908E+00
          1   -1    0    0  502    0 -0.00000000000E+00  0.00000000000E+00  0.86627804376E+03  0.86627804376E+03  0.00000000000E+00 0. -1.
         21   -1    0    0  501  502  0.00000000000E+00 -0.00000000000E+00 -0.20618437090E+02  0.20618437090E+02  0.00000000000E+00 0. -1.
        -24    2    1    2    0    0 -0.78587997429E+02 -0.33930435113E+02  0.51008052780E+03  0.52325258419E+03  0.79270260827E+02 0.  0.
         23    2    1    2    0    0  0.57481146962E+02  0.11066822285E+02  0.24527322532E+03  0.26812745245E+03  0.91141751632E+02 0.  0.
         13    1    3    3    0    0 -0.77785058136E+02  0.32774237076E+01  0.30223332949E+03  0.31209973123E+03  0.00000000000E+00 0. -1.
        -14    1    3    3    0    0 -0.80293929258E+00 -0.37207858820E+02  0.20784719830E+03  0.21115285296E+03  0.00000000000E+00 0.  1.
        -13    1    4    4    0    0 -0.67009702481E+01 -0.26849378882E+02  0.32564600664E+02  0.42734592136E+02  0.00000000000E+00 0. -1.
         13    1    4    4    0    0  0.64182117210E+02  0.37916201167E+02  0.21270862465E+03  0.22539286032E+03  0.00000000000E+00 0.  1.
          2    1    1    2  501    0  0.21106850467E+02  0.22863612827E+02  0.90305853551E+02  0.95516444206E+02  0.00000000000E+00 0. -1.
<scales pt_clust_5="13000.00000" pt_clust_6="13000.00000" pt_clust_7="13000.00000" pt_clust_8="13000.00000" pt_clust_9="31.11662"></scales>
<clustering>
<clus scale="   31.117">  2  9  1 -1</clus>
<clus scale="   79.270">  5  6 -1 -1</clus>
<clus scale="   91.142">  7  8 -1 -1</clus>
<clus scale="  109.363">  1  5  2 -1</clus>
<clus scale="   31.117">  2  5  1 -1</clus>
</clustering>
</event>
<event>
 9    1  0.7719620E-005  0.9591154E+02  0.7546771E-02  0.1295795E+00
          3   -1    0    0  502    0 -0.00000000000E+00  0.00000000000E+00  0.28463820277E+03  0.28463820277E+03  0.00000000000E+00 0. -1.
         21   -1    0    0  501  502  0.00000000000E+00 -0.00000000000E+00 -0.19696746076E+03  0.19696746076E+03  0.00000000000E+00 0.  1.
         23    2    1    2    0    0 -0.56099027040E+01 -0.33787075513E+02  0.23076717730E+03  0.25084215750E+03  0.92169736803E+02 0.  0.
        -24    2    1    2    0    0 -0.25932476060E+02 -0.66460922134E+01 -0.67024962301E+01  0.85047791966E+02  0.80445879983E+02 0.  0.
         13    1    4    4    0    0 -0.39491161930E+02 -0.21396072528E+02  0.22024619332E+02  0.50024270579E+02  0.00000000000E+00 0. -1.
        -14    1    4    4    0    0  0.13558685870E+02  0.14749980315E+02 -0.28727115562E+02  0.35023521387E+02  0.00000000000E+00 0.  1.
        -11    1    3    3    0    0  0.17069286049E+02  0.26340256203E+02  0.50458722684E+02  0.59424341124E+02  0.00000000000E+00 0.  1.
         11    1    3    3    0    0 -0.22679188753E+02 -0.60127331716E+02  0.18030845462E+03  0.19141781638E+03  0.00000000000E+00 0. -1.
          4    1    1    2  501    0  0.31542378764E+02  0.40433167726E+02 -0.13639393906E+03  0.14571571405E+03  0.00000000000E+00 0. -1.
<scales pt_clust_5="13000.00000" pt_clust_6="13000.00000" pt_clust_7="13000.00000" pt_clust_8="13000.00000" pt_clust_9="51.28121"></scales>
<clustering>
<clus scale="   51.281">  2  9  1 -1</clus>
<clus scale="   80.446">  5  6 -1 -1</clus>
<clus scale="   84.707">  2  5  1 -1</clus>
<clus scale="   92.170">  7  8 -1 -1</clus>
<clus scale="   51.281">  2  5  1 -1</clus>
</clustering>
</event>
<event>
 9    1  0.7719620E-005  0.1068959E+03  0.7546771E-02  0.1271445E+00
          1   -1    0    0  502    0 -0.00000000000E+00  0.00000000000E+00  0.24479334840E+03  0.24479334840E+03  0.00000000000E+00 0. -1.
         21   -1    0    0  501  502  0.00000000000E+00 -0.00000000000E+00 -0.77998020097E+02  0.77998020097E+02  0.00000000000E+00 0.  1.
        -24    2    1    2    0    0  0.79727974554E+02 -0.76216591254E+01  0.82341929976E+02  0.14054547669E+03  0.80982701677E+02 0.  0.
         23    2    1    2    0    0 -0.19044524520E+02  0.14339749848E+02  0.29428155646E+02  0.10005470504E+03  0.92609963371E+02 0.  0.
         11    1    3    3    0    0 -0.10551060348E+02 -0.18582303692E+02  0.25630122765E+02  0.33369598108E+02  0.00000000000E+00 0. -1.
        -12    1    3    3    0    0  0.90279034902E+02  0.10960644566E+02  0.56711807211E+02  0.10717587858E+03  0.00000000000E+00 0.  1.
        -11    1    4    4    0    0 -0.18433312127E+02  0.45853745096E+02 -0.91261165233E+01  0.50255735375E+02  0.00000000000E+00 0. -1.
         11    1    4    4    0    0 -0.61121239371E+00 -0.31513995247E+02  0.38554272170E+02  0.49798969664E+02  0.00000000000E+00 0.  1.
          2    1    1    2  501    0 -0.60683450033E+02 -0.67180907228E+01  0.55025242684E+02  0.82191186774E+02  0.00000000000E+00 0. -1.
<scales pt_clust_5="13000.00000" pt_clust_6="13000.00000" pt_clust_7="13000.00000" pt_clust_8="13000.00000" pt_clust_9="61.05422"></scales>
<clustering>
<clus scale="   61.054">  2  9  1 -1</clus>
<clus scale="   80.983">  5  6 -1 -1</clus>
<clus scale="   92.610">  7  8 -1 -1</clus>
<clus scale="   96.996">  1  5  2 -1</clus>
<clus scale="   61.054">  2  5  1 -1</clus>
</clustering>
</event>
<event>
 9    1  0.7719620E-005  0.3065284E+03  0.7546771E-02  0.1082022E+00
          1   -1    0    0  502    0 -0.00000000000E+00  0.00000000000E+00  0.34009128707E+03  0.34009128707E+03  0.00000000000E+00 0. -1.
         21   -1    0    0  501  502  0.00000000000E+00 -0.00000000000E+00 -0.20214911371E+03  0.20214911371E+03  0.00000000000E+00 0. -1.
        -24    2    1    2    0    0 -0.47330110790E+02 -0.18967160459E+03  0.89070560562E+02  0.22946136758E+03  0.80644265019E+02 0.  0.
         23    2    1    2    0    0 -0.22766855651E+02 -0.10282295682E+02  0.32390331419E+02  0.10025425918E+03  0.91529927308E+02 0.  0.
         11    1    3    3    0    0 -0.37727582386E+02 -0.25736971516E+02  0.31358967833E+02  0.55399883024E+02  0.00000000000E+00 0. -1.
        -12    1    3    3    0    0 -0.96025284038E+01 -0.16393463307E+03  0.57711592729E+02  0.17406148456E+03  0.00000000000E+00 0.  1.
        -13    1    4    4    0    0 -0.21222048619E+01 -0.44900370255E+02 -0.50605194507E+01  0.45234454342E+02  0.00000000000E+00 0.  1.
         13    1    4    4    0    0 -0.20644650789E+02  0.34618074573E+02  0.37450850869E+02  0.55019804836E+02  0.00000000000E+00 0. -1.
          2    1    1    2  501    0  0.70096966440E+02  0.19995390027E+03  0.16481281376E+02  0.21252477402E+03  0.00000000000E+00 0. -1.
<scales pt_clust_5="13000.00000" pt_clust_6="13000.00000" pt_clust_7="13000.00000" pt_clust_8="13000.00000" pt_clust_9="211.88475"></scales>
<clustering>
<clus scale="   80.644">  5  6 -1 -1</clus>
<clus scale="   91.530">  7  8 -1 -1</clus>
<clus scale="   94.133">  5  7 -1 -1</clus>
<clus scale="  211.885">  2  9  1 -1</clus>
<clus scale="  211.885">  2  5  1 -1</clus>
</clustering>
</event>
<event>
 9    1  0.7719620E-005  0.1012802E+03  0.7546771E-02  0.1279165E+00
         21   -1    0    0  501  502  0.00000000000E+00  0.00000000000E+00  0.57391533249E+02  0.57391533249E+02  0.00000000000E+00 0. -1.
          1   -1    0    0  502    0 -0.00000000000E+00 -0.00000000000E+00 -0.59311889088E+03  0.59311889088E+03  0.00000000000E+00 0. -1.
         23    2    1    2    0    0 -0.43183307483E+02  0.35537501514E+02 -0.34538789761E+03  0.36154000198E+03  0.91053067789E+02 0.  0.
        -24    2    1    2    0    0  0.44828669509E+02  0.62799320708E+02 -0.13470454240E+03  0.17597448470E+03  0.82875456154E+02 0.  0.
         13    1    4    4    0    0  0.33772275213E+02  0.68326871834E+02 -0.51801322987E+02  0.92154788541E+02  0.00000000000E+00 0. -1.
        -14    1    4    4    0    0  0.11056394295E+02 -0.55275511262E+01 -0.82903219409E+02  0.83819696161E+02  0.00000000000E+00 0.  1.
        -11    1    3    3    0    0  0.16891325593E+02 -0.17854267787E+02 -0.11312708539E+03  0.11576626973E+03  0.00000000000E+00 0.  1.
         11    1    3    3    0    0 -0.60074633076E+02  0.53391769301E+02 -0.23226081222E+03  0.24577373224E+03  0.00000000000E+00 0. -1.
          2    1    1    2  501    0 -0.16453620259E+01 -0.98336822222E+02 -0.55634917620E+02  0.11299593745E+03  0.00000000000E+00 0. -1.
<scales pt_clust_5="13000.00000" pt_clust_6="13000.00000" pt_clust_7="13000.00000" pt_clust_8="13000.00000" pt_clust_9="98.35059"></scales>
<clustering>
<clus scale="   82.875">  5  6 -1 -1</clus>
<clus scale="   91.053">  7  8 -1 -1</clus>
<clus scale="   98.351">  1  9  2 -1</clus>
<clus scale="   98.351">  1  5  2 -1</clus>
<clus scale="   98.351">  1  5  2 -1</clus>
</clustering>
</event>
<event>
 9    1  0.7719620E-005  0.1058562E+03  0.7546771E-02  0.1272651E+00
          1   -1    0    0  502    0 -0.00000000000E+00  0.00000000000E+00  0.54657319776E+03  0.54657319776E+03  0.00000000000E+00 0. -1.
         21   -1    0    0  501  502  0.00000000000E+00 -0.00000000000E+00 -0.58682527737E+02  0.58682527737E+02  0.00000000000E+00 0.  1.
         23    2    1    2    0    0 -0.48627228952E+02  0.22009331402E+02  0.29919585497E+03  0.31697465020E+03  0.90031945302E+02 0.  0.
        -24    2    1    2    0    0  0.33193405532E+01 -0.95271297922E+02  0.14673851810E+03  0.19246640344E+03  0.80146650129E+02 0.  0.
         11    1    4    4    0    0 -0.19870869344E+02 -0.56308135537E+02  0.13185275815E+03  0.14474324651E+03  0.00000000000E+00 0. -1.
        -12    1    4    4    0    0  0.23190209897E+02 -0.38963162386E+02  0.14885759950E+02  0.47723156931E+02  0.00000000000E+00 0.  1.
        -13    1    3    3    0    0 -0.41265552010E+02  0.47814653114E+02  0.27013007909E+03  0.27741547625E+03  0.00000000000E+00 0.  1.
         13    1    3    3    0    0 -0.73616769428E+01 -0.25805321712E+02  0.29065775879E+02  0.39559173949E+02  0.00000000000E+00 0. -1.
          2    1    1    2  501    0  0.45307888399E+02  0.73261966520E+02  0.41956296949E+02  0.95814671858E+02  0.00000000000E+00 0. -1.
<scales pt_clust_5="13000.00000" pt_clust_6="13000.00000" pt_clust_7="13000.00000" pt_clust_8="13000.00000" pt_clust_9="86.14012"></scales>
<clustering>
<clus scale="   80.147">  5  6 -1 -1</clus>
<clus scale="   86.140">  2  9  1 -1</clus>
<clus scale="   90.032">  7  8 -1 -1</clus>
<clus scale="   97.587">  2  5  1 -1</clus>
<clus scale="   86.140">  2  5  1 -1</clus>
</clustering>
</event>
<event>
 9    1  0.7719620E-005  0.1681413E+03  0.7546771E-02  0.1185839E+00
         21   -1    0    0  501  502  0.00000000000E+00  0.00000000000E+00  0.80876592763E+02  0.80876592763E+02  0.00000000000E+00 0.  1.
          1   -1    0    0  502    0 -0.00000000000E+00 -0.00000000000E+00 -0.41106557012E+03  0.41106557012E+03  0.00000000000E+00 0. -1.
         23    2    1    2    0    0  0.11731682229E+03  0.20152512145E+02 -0.23225612006E+03  0.28432416938E+03  0.11281829394E+03 0.  0.
        -24    2    1    2    0    0 -0.13575986974E+03 -0.11144762190E+02 -0.67064096097E+02  0.17054824875E+03  0.77679882911E+02 0.  0.
         13    1    4    4    0    0 -0.66824290430E+02 -0.23342580322E+02 -0.71228021153E+02  0.10041809023E+03  0.00000000000E+00 0. -1.
        -14    1    4    4    0    0 -0.68935579311E+02  0.12197818132E+02  0.41639250560E+01  0.70130158519E+02  0.00000000000E+00 0.  1.
        -11    1    3    3    0    0  0.40342217479E+02  0.63129319043E+02 -0.91769856678E+02  0.11846734583E+03  0.00000000000E+00 0.  1.
         11    1    3    3    0    0  0.76974604810E+02 -0.42976806899E+02 -0.14048626338E+03  0.16585682354E+03  0.00000000000E+00 0. -1.
          2    1    1    2  501    0  0.18443047452E+02 -0.90077499549E+01 -0.30868761202E+02  0.37069744762E+02  0.00000000000E+00 0. -1.
<scales pt_clust_5="13000.00000" pt_clust_6="13000.00000" pt_clust_7="13000.00000" pt_clust_8="13000.00000" pt_clust_9="20.52525"></scales>
<clustering>
<clus scale="   20.525">  1  9  2 -1</clus>
<clus scale="   77.680">  5  6 -1 -1</clus>
<clus scale="  112.818">  7  8 -1 -1</clus>
<clus scale="  146.893">  1  5  2 -1</clus>
<clus scale="   20.525">  1  5  2 -1</clus>
</clustering>
</event>
<event>
 9    1  0.7719620E-005  0.2341452E+03  0.7546771E-02  0.1150485E+00
         21   -1    0    0  501  502  0.00000000000E+00  0.00000000000E+00  0.30199455610E+03  0.30199455610E+03  0.00000000000E+00 0. -1.
          1   -1    0    0  502    0 -0.00000000000E+00 -0.00000000000E+00 -0.36355796437E+03  0.36355796437E+03  0.00000000000E+00 0. -1.
         23    2    1    2    0    0  0.44336894043E+02 -0.66862909918E+02 -0.21362711342E+02  0.12430857559E+03  0.92519444620E+02 0.  0.
        -24    2    1    2    0    0 -0.17071836746E+03 -0.13469391735E+03  0.11345200745E+03  0.25803627372E+03  0.80150784153E+02 0.  0.
         13    1    4    4    0    0 -0.17437579273E+03 -0.13958062095E+03  0.10307267029E+03  0.24599520767E+03  0.00000000000E+00 0. -1.
        -14    1    4    4    0    0  0.36574252770E+01  0.48867035939E+01  0.10379337162E+02  0.12041066049E+02  0.00000000000E+00 0.  1.
        -11    1    3    3    0    0 -0.22115180129E+02 -0.48802185320E+02 -0.10384816938E+02  0.54576358498E+02  0.00000000000E+00 0.  1.
         11    1    3    3    0    0  0.66452074172E+02 -0.18060724598E+02 -0.10977894404E+02  0.69732217090E+02  0.00000000000E+00 0. -1.
          2    1    1    2  501    0  0.12638147341E+03  0.20155682727E+03 -0.15365270438E+03  0.28320767116E+03  0.00000000000E+00 0. -1.
<scales pt_clust_5="13000.00000" pt_clust_6="13000.00000" pt_clust_7="13000.00000" pt_clust_8="13000.00000" pt_clust_9="219.99968"></scales>
<clustering>
<clus scale="   80.151">  5  6 -1 -1</clus>
<clus scale="   92.519">  7  8 -1 -1</clus>
<clus scale="  122.459">  2  7  1 -1</clus>
<clus scale="  220.000">  1  9  2 -1</clus>
<clus scale="  220.000">  1  5  2 -1</clus>
</clustering>
</event>
<event>
 9    1  0.7719620E-005  0.1633683E+03  0.7546771E-02  0.1197578E+00
         21   -1    0    0  501  502  0.00000000000E+00  0.00000000000E+00  0.26835310975E+03  0.26835310975E+03  0.00000000000E+00 0. -1.
          3   -1    0    0  502    0 -0.00000000000E+00 -0.00000000000E+00 -0.30251862633E+03  0.30251862633E+03  0.00000000000E+00 0. -1.
        -24    2    1    2    0    0  0.93689730614E+02 -0.11089388384E+02  0.75775706523E+02  0.14502652844E+03  0.79937451135E+02 0.  0.
         23    2    1    2    0    0  0.24389412959E+01 -0.13142088637E+03  0.71822359355E+02  0.17566946965E+03  0.91781879776E+02 0.  0.
         11    1    3    3    0    0  0.88582861366E+02  0.18432415812E+02  0.41622830823E+02  0.99594865963E+02  0.00000000000E+00 0. -1.
        -12    1    3    3    0    0  0.51068692476E+01 -0.29521804196E+02  0.34152875700E+02  0.45431662473E+02  0.00000000000E+00 0.  1.
        -13    1    4    4    0    0 -0.34096919716E+02 -0.17201883931E+02  0.53639117634E+01  0.38565221305E+02  0.00000000000E+00 0.  1.
         13    1    4    4    0    0  0.36535861012E+02 -0.11421900244E+03  0.66458447591E+02  0.13710424835E+03  0.00000000000E+00 0. -1.
          4    1    1    2  501    0 -0.96128671909E+02  0.14251027475E+03 -0.18176358245E+03  0.25017573799E+03  0.00000000000E+00 0. -1.
<scales pt_clust_5="13000.00000" pt_clust_6="13000.00000" pt_clust_7="13000.00000" pt_clust_8="13000.00000" pt_clust_9="135.14922"></scales>
<clustering>
<clus scale="   79.937">  5  6 -1 -1</clus>
<clus scale="   91.782">  7  8 -1 -1</clus>
<clus scale="  123.656">  2  5  1 -1</clus>
<clus scale="  135.149">  1  9  2 -1</clus>
<clus scale="  135.149">  1  5  2 -1</clus>
</clustering>
</event>
<event>
 9    1  0.7719620E-005  0.1358037E+03  0.7546771E-02  0.1222114E+00
         21   -1    0    0  501  502  0.00000000000E+00  0.00000000000E+00  0.67058511226E+02  0.67058511226E+02  0.00000000000E+00 0. -1.
          1   -1    0    0  502    0 -0.00000000000E+00 -0.00000000000E+00 -0.47077594006E+03  0.47077594006E+03  0.00000000000E+00 0. -1.
         23    2    1    2    0    0 -0.11594689552E+03 -0.39444773093E+02 -0.15367851988E+03  0.21588555634E+03  0.89386314709E+02 0.  0.
        -24    2    1    2    0    0  0.63154386169E+02  0.58589775067E+02 -0.72887141286E+02  0.13610937027E+03  0.76105105453E+02 0.  0.
         11    1    4    4    0    0  0.65187053737E+02  0.71483510362E+02 -0.75598514602E+02  0.12277776525E+03  0.00000000000E+00 0. -1.
        -12    1    4    4    0    0 -0.20326675684E+01 -0.12893735295E+02  0.27113733158E+01  0.13331605026E+02  0.00000000000E+00 0.  1.
        -11    1    3    3    0    0 -0.68047856038E+02 -0.27709535894E+02 -0.14927072576E+03  0.16637331114E+03  0.00000000000E+00 0.  1.
         11    1    3    3    0    0 -0.47899039483E+02 -0.11735237199E+02 -0.44077941197E+01  0.49512245198E+02  0.00000000000E+00 0. -1.
          2    1    1    2  501    0  0.52792509352E+02 -0.19145001974E+02 -0.17715176767E+03  0.18583952468E+03  0.00000000000E+00 0. -1.
<scales pt_clust_5="13000.00000" pt_clust_6="13000.00000" pt_clust_7="13000.00000" pt_clust_8="13000.00000" pt_clust_9="56.15677"></scales>
<clustering>
<clus scale="   56.157">  1  9  2 -1</clus>
<clus scale="   76.105">  5  6 -1 -1</clus>
<clus scale="   89.386">  7  8 -1 -1</clus>
<clus scale="  127.455">  1  5  2 -1</clus>
<clus scale="   56.157">  1  5  2 -1</clus>
</clustering>
</event>
<event>
 9    1  0.7719620E-005  0.1485635E+03  0.7546771E-02  0.1204035E+00
         21   -1    0    0  501  502  0.00000000000E+00  0.00000000000E+00  0.95343058323E+02  0.95343058323E+02  0.00000000000E+00 0. -1.
         -2   -1    0    0    0  501 -0.00000000000E+00 -0.00000000000E+00 -0.35861501522E+03  0.35861501522E+03  0.00000000000E+00 0.  1.
         23    2    1    2    0    0  0.10878991390E+03 -0.47467823364E+02 -0.21315384917E+03  0.26094775225E+03  0.92578217544E+02 0.  0.
        -24    2    1    2    0    0 -0.11380579970E+03  0.13787309028E+02 -0.64960005176E+02  0.15586441875E+03  0.83259022481E+02 0.  0.
         13    1    4    4    0    0 -0.10151539150E+03  0.21700519545E+01 -0.14404539334E+02  0.10255522703E+03  0.00000000000E+00 0. -1.
        -14    1    4    4    0    0 -0.12290408197E+02  0.11617257074E+02 -0.50555465842E+02  0.53309191722E+02  0.00000000000E+00 0.  1.
        -11    1    3    3    0    0  0.67717608590E+02  0.18833868334E+01 -0.45996739471E+02  0.81883586274E+02  0.00000000000E+00 0.  1.
         11    1    3    3    0    0  0.41072305312E+02 -0.49351210198E+02 -0.16715710970E+03  0.17906416597E+03  0.00000000000E+00 0. -1.
         -1    1    1    2    0  502  0.50158857984E+01  0.33680514336E+02  0.14841897449E+02  0.37145902549E+02  0.00000000000E+00 0.  1.
<scales pt_clust_5="13000.00000" pt_clust_6="13000.00000" pt_clust_7="13000.00000" pt_clust_8="13000.00000" pt_clust_9="34.05196"></scales>
<clustering>
<clus scale="   34.052">  1  9  2 -1</clus>
<clus scale="   83.259">  5  6 -1 -1</clus>
<clus scale="   92.578">  7  8 -1 -1</clus>
<clus scale="  142.942">  1  5  2 -1</clus>
<clus scale="   34.052">  1  5  2 -1</clus>
</clustering>
</event>
<event>
 9    1  0.7719620E-005  0.1855375E+03  0.7546771E-02  0.1191752E+00
         21   -1    0    0  501  502  0.00000000000E+00  0.00000000000E+00  0.59242701758E+02  0.59242701758E+02  0.00000000000E+00 0.  1.
          1   -1    0    0  502    0 -0.00000000000E+00 -0.00000000000E+00 -0.10464503539E+04  0.10464503539E+04  0.00000000000E+00 0. -1.
         23    2    1    2    0    0  0.10645587585E+02 -0.29445028453E+02 -0.26610491971E+03  0.28286239433E+03  0.90658521903E+02 0.  0.
        -24    2    1    2    0    0 -0.14131045909E+03  0.10271027031E+03 -0.18769166836E+03  0.26878330994E+03  0.80611784827E+02 0.  0.
         11    1    4    4    0    0 -0.26015058709E+02  0.64974765266E+02 -0.55165279370E+02  0.89116280493E+02  0.00000000000E+00 0. -1.
        -12    1    4    4    0    0 -0.11529540039E+03  0.37735505047E+02 -0.13252638899E+03  0.17966702945E+03  0.00000000000E+00 0.  1.
        -13    1    3    3    0    0 -0.37156757527E+02 -0.86527700091E+01 -0.16204882294E+03  0.16647917610E+03  0.00000000000E+00 0. -1.
         13    1    3    3    0    0  0.47802345112E+02 -0.20792258444E+02 -0.10405609678E+03  0.11638321823E+03  0.00000000000E+00 0.  1.
          2    1    1    2  501    0  0.13066487151E+03 -0.73265241859E+02 -0.53341106403E+03  0.55404735135E+03  0.00000000000E+00 0. -1.
<scales pt_clust_5="13000.00000" pt_clust_6="13000.00000" pt_clust_7="13000.00000" pt_clust_8="13000.00000" pt_clust_9="167.11050"></scales>
<clustering>
<clus scale="   80.612">  5  6 -1 -1</clus>
<clus scale="   90.659">  7  8 -1 -1</clus>
<clus scale="   95.913">  2  7  1 -1</clus>
<clus scale="  167.110">  1  9  2 -1</clus>
<clus scale="  167.110">  1  5  2 -1</clus>
</clustering>
</event>
<event>
 9    1  0.7719620E-005  0.2552880E+03  0.7546771E-02  0.1121491E+00
         21   -1    0    0  501  502  0.00000000000E+00  0.00000000000E+00  0.23731979511E+03  0.23731979511E+03  0.00000000000E+00 0. -1.
          1   -1    0    0  502    0 -0.00000000000E+00 -0.00000000000E+00 -0.84730386186E+03  0.84730386186E+03  0.00000000000E+00 0. -1.
         23    2    1    2    0    0 -0.12973622850E+03  0.10762151506E+03  0.38604052972E+02  0.19498918174E+03  0.90092333759E+02 0.  0.
        -24    2    1    2    0    0  0.33627555433E+03 -0.13921745719E+03 -0.53487796087E+03  0.65175468016E+03  0.78911223919E+02 0.  0.
         13    1    4    4    0    0  0.24237306610E+03 -0.60448919497E+02 -0.35386342868E+03  0.43314905194E+03  0.00000000000E+00 0. -1.
        -14    1    4    4    0    0  0.93902488235E+02 -0.78768537694E+02 -0.18101453219E+03  0.21860562823E+03  0.00000000000E+00 0.  1.
        -11    1    3    3    0    0 -0.10805039525E+03  0.12296784867E+03  0.39553361110E+02  0.16840560589E+03  0.00000000000E+00 0.  1.
         11    1    3    3    0    0 -0.21685833245E+02 -0.15346333614E+02 -0.94930813836E+00  0.26583575848E+02  0.00000000000E+00 0. -1.
          2    1    1    2  501    0 -0.20653932584E+03  0.31595942133E+02 -0.11371015886E+03  0.23787979507E+03  0.00000000000E+00 0. -1.
<scales pt_clust_5="13000.00000" pt_clust_6="13000.00000" pt_clust_7="13000.00000" pt_clust_8="13000.00000" pt_clust_9="242.78591"></scales>
<clustering>
<clus scale="   78.911">  5  6 -1 -1</clus>
<clus scale="   90.092">  7  8 -1 -1</clus>
<clus scale="  191.130">  2  7  1 -1</clus>
<clus scale="  242.786">  1  9  2 -1</clus>
<clus scale="  242.786">  1  5  2 -1</clus>
</clustering>
</event>
<event>
 9    1  0.7719620E-005  0.1246079E+03  0.7546771E-02  0.1246047E+00
         21   -1    0    0  501  502  0.00000000000E+00  0.00000000000E+00  0.18288656975E+03  0.18288656975E+03  0.00000000000E+00 0.  1.
          1   -1    0    0  502    0 -0.00000000000E+00 -0.00000000000E+00 -0.19348789003E+03  0.19348789003E+03  0.00000000000E+00 0. -1.
         23    2    1    2    0    0 -0.10523899463E+02 -0.39439808070E+02  0.79934863968E+02  0.12879415953E+03  0.92369378749E+02 0.  0.
        -24    2    1    2    0    0 -0.73892569767E+02 -0.24105022596E+02 -0.87881607702E+02  0.14188672165E+03  0.79796621648E+02 0.  0.
         13    1    4    4    0    0 -0.33819204305E+02 -0.39897269613E+02 -0.83584995100E+02  0.98600112111E+02  0.00000000000E+00 0. -1.
        -14    1    4    4    0    0 -0.40073365462E+02  0.15792247016E+02 -0.42966126012E+01  0.43286609536E+02  0.00000000000E+00 0.  1.
        -13    1    3    3    0    0 -0.37608534058E+01  0.30453349877E+02  0.21937361296E+02  0.37719999439E+02  0.00000000000E+00 0. -1.
         13    1    3    3    0    0 -0.67630460570E+01 -0.69893157947E+02  0.57997502673E+02  0.91074160090E+02  0.00000000000E+00 0.  1.
          2    1    1    2  501    0  0.84416469230E+02  0.63544830667E+02 -0.26545765452E+01  0.10569357860E+03  0.00000000000E+00 0. -1.
<scales pt_clust_5="13000.00000" pt_clust_6="13000.00000" pt_clust_7="13000.00000" pt_clust_8="13000.00000" pt_clust_9="95.70591"></scales>
<clustering>
<clus scale="   79.797">  5  6 -1 -1</clus>
<clus scale="   92.369">  7  8 -1 -1</clus>
<clus scale="  100.987">  2  7  1 -1</clus>
<clus scale="   95.706">  1  9  2 -1</clus>
<clus scale="   95.706">  1  5  2 -1</clus>
</clustering>
</event>
<event>
 9    1  0.7719620E-005  0.1015304E+03  0.7546771E-02  0.1282927E+00
          1   -1    0    0  502    0 -0.00000000000E+00  0.00000000000E+00  0.63250144548E+02  0.63250144548E+02  0.00000000000E+00 0. -1.
         21   -1    0    0  501  502  0.00000000000E+00 -0.00000000000E+00 -0.77224222918E+03  0.77224222918E+03  0.00000000000E+00 0.  1.
        -24    2    1    2    0    0  0.36755708465E+02 -0.22260973225E+02  0.18667172665E+02  0.93165212134E+02  0.80528009928E+02 0.  0.
         23    2    1    2    0    0 -0.45063817954E+02 -0.18811693318E+02 -0.54470428202E+03  0.55463456291E+03  0.92369454015E+02 0.  0.
         11    1    3    3    0    0  0.45263971445E+02  0.15755717756E+02  0.24412003366E+02  0.53786761023E+02  0.00000000000E+00 0. -1.
        -12    1    3    3    0    0 -0.85082629806E+01 -0.38016690981E+02 -0.57448307013E+01  0.39378451111E+02  0.00000000000E+00 0.  1.
        -11    1    4    4    0    0 -0.58890757520E+02  0.20851820926E+02 -0.32294972204E+03  0.32893683698E+03  0.00000000000E+00 0.  1.
         11    1    4    4    0    0  0.13826939566E+02 -0.39663514244E+02 -0.22175455998E+03  0.22569772593E+03  0.00000000000E+00 0. -1.
          2    1    1    2  501    0  0.83081094891E+01  0.41072666543E+02 -0.18295497528E+03  0.18769259869E+03  0.00000000000E+00 0. -1.
<scales pt_clust_5="13000.00000" pt_clust_6="13000.00000" pt_clust_7="13000.00000" pt_clust_8="13000.00000" pt_clust_9="41.90452"></scales>
<clustering>
<clus scale="   41.905">  2  9  1 -1</clus>
<clus scale="   80.528">  5  6 -1 -1</clus>
<clus scale="   90.890">  1  5  2 -1</clus>
<clus scale="   92.369">  7  8 -1 -1</clus>
<clus scale="   41.905">  2  5  1 -1</clus>
</clustering>
</event>
<event>
 9    1  0.7719620E-005  0.1031072E+03  0.7546771E-02  0.1280806E+00
         21   -1    0    0  501  502  0.00000000000E+00  0.00000000000E+00  0.11633244767E+03  0.11633244767E+03  0.00000000000E+00 0. -1.
          1   -1    0    0  502    0 -0.00000000000E+00 -0.00000000000E+00 -0.23608445010E+03  0.23608445010E+03  0.00000000000E+00 0. -1.
        -24    2    1    2    0    0 -0.35367781792E+02  0.18536882919E+02 -0.11691532540E+03  0.14580712249E+03  0.77434021203E+02 0.  0.
         23    2    1    2    0    0  0.22961569466E+02 -0.77090339330E+02 -0.48343300058E+02  0.13142151753E+03  0.92002100629E+02 0.  0.
         13    1    3    3    0    0  0.13490356983E+02 -0.16216448788E+02 -0.58130549609E+02  0.61839499841E+02  0.00000000000E+00 0. -1.
        -14    1    3    3    0    0 -0.48858138775E+02  0.34753331707E+02 -0.58784775790E+02  0.83967622652E+02  0.00000000000E+00 0.  1.
        -13    1    4    4    0    0  0.10882514512E+02  0.17973258884E+02  0.52062664617E+01  0.21646532458E+02  0.00000000000E+00 0.  1.
         13    1    4    4    0    0  0.12079054954E+02 -0.95063598214E+02 -0.53549566519E+02  0.10977498508E+03  0.00000000000E+00 0. -1.
          2    1    1    2  501    0  0.12406212326E+02  0.58553456411E+02  0.45506623027E+02  0.75188257736E+02  0.00000000000E+00 0. -1.
<scales pt_clust_5="13000.00000" pt_clust_6="13000.00000" pt_clust_7="13000.00000" pt_clust_8="13000.00000" pt_clust_9="59.85333"></scales>
<clustering>
<clus scale="   59.853">  1  9  2 -1</clus>
<clus scale="   77.434">  5  6 -1 -1</clus>
<clus scale="   90.348">  2  5  1 -1</clus>
<clus scale="   92.002">  7  8 -1 -1</clus>
<clus scale="   59.853">  1  5  2 -1</clus>
</clustering>
</event>
<event>
 9    1  0.1441355E-004  0.1220853E+03  0.7546771E-02  0.1251940E+00
         21   -1    0    0  501  502  0.00000000000E+00  0.00000000000E+00  0.34336642047E+03  0.34336642047E+03  0.00000000000E+00 0. -1.
          3   -1    0    0  502    0 -0.00000000000E+00 -0.00000000000E+00 -0.31792498248E+03  0.31792498248E+03  0.00000000000E+00 0. -1.
        -24    2    1    2    0    0 -0.17557430463E+02  0.36614065948E+02 -0.27737021565E+03  0.29332849397E+03  0.86362698281E+02 0.  0.
         23    2    1    2    0    0  0.35099879946E+02  0.57599103670E+02  0.14435517158E+03  0.18278106437E+03  0.89559162645E+02 0.  0.
         13    1    3    3    0    0 -0.30191503043E+02  0.44383380803E+02 -0.27247140782E+03  0.27770862325E+03  0.00000000000E+00 0. -1.
        -14    1    3    3    0    0  0.12634072580E+02 -0.77693148542E+01 -0.48988078364E+01  0.15619870725E+02  0.00000000000E+00 0.  1.
        -11    1    4    4    0    0  0.31147124429E+02 -0.17092410249E+02  0.32053426398E+02  0.47850976920E+02  0.00000000000E+00 0.  1.
         11    1    4    4    0    0  0.39527555163E+01  0.74691513919E+02  0.11230174518E+03  0.13493008745E+03  0.00000000000E+00 0. -1.
          4    1    1    2  501    0 -0.17542449482E+02 -0.94213169619E+02  0.15845648206E+03  0.18518184460E+03  0.00000000000E+00 0. -1.
<scales pt_clust_5="13000.00000" pt_clust_6="13000.00000" pt_clust_7="13000.00000" pt_clust_8="13000.00000" pt_clust_9="82.96973"></scales>
<clustering>
<clus scale="   86.363">  5  6 -1 -1</clus>
<clus scale="   89.559">  7  8 -1 -1</clus>
<clus scale="   95.433">  2  5  1 -1</clus>
<clus scale="   82.970">  1  9  2 -1</clus>
<clus scale="   82.970">  1  5  2 -1</clus>
</clustering>
</event>
<event>
 9    1  0.7719620E-005  0.1221634E+03  0.7546771E-02  0.1242864E+00
          1   -1    0    0  502    0 -0.00000000000E+00  0.00000000000E+00  0.59345363343E+02  0.59345363343E+02  0.00000000000E+00 0. -1.
         21   -1    0    0  501  502  0.00000000000E+00 -0.00000000000E+00 -0.34705883711E+03  0.34705883711E+03  0.00000000000E+00 0. -1.
        -24    2    1    2    0    0  0.95887019839E+02  0.10231390619E+02 -0.76619022578E+02  0.14763015812E+03  0.81395251933E+02 0.  0.
         23    2    1    2    0    0 -0.57382660472E+02 -0.82609765444E+01 -0.13461430395E+03  0.17312545132E+03  0.92143353584E+02 0.  0.
         11    1    3    3    0    0  0.62161144091E+02 -0.33718696461E+02 -0.45477312388E+02  0.84078203286E+02  0.00000000000E+00 0. -1.
        -12    1    3    3    0    0  0.33725875748E+02  0.43950087080E+02 -0.31141710190E+02  0.63551954831E+02  0.00000000000E+00 0.  1.
        -11    1    4    4    0    0 -0.35345511659E+02 -0.43094744480E+02 -0.36284957636E+02  0.66506092555E+02  0.00000000000E+00 0.  1.
         11    1    4    4    0    0 -0.22037148813E+02  0.34833767935E+02 -0.98329346318E+02  0.10661935877E+03  0.00000000000E+00 0. -1.
          2    1    1    2  501    0 -0.38504359367E+02 -0.19704140749E+01 -0.76480147231E+02  0.85648591012E+02  0.00000000000E+00 0. -1.
<scales pt_clust_5="13000.00000" pt_clust_6="13000.00000" pt_clust_7="13000.00000" pt_clust_8="13000.00000" pt_clust_9="38.55474"></scales>
<clustering>
<clus scale="   38.555">  2  9  1 -1</clus>
<clus scale="   81.395">  5  6 -1 -1</clus>
<clus scale="   92.143">  7  8 -1 -1</clus>
<clus scale="  114.275">  1  5  2 -1</clus>
<clus scale="   38.555">  2  5  1 -1</clus>
</clustering>
</event>
<event>
 9    1  0.7719620E-005  0.1182383E+03  0.7546771E-02  0.1248714E+00
         21   -1    0    0  501  502  0.00000000000E+00  0.00000000000E+00  0.12252121774E+03  0.12252121774E+03  0.00000000000E+00 0. -1.
          3   -1    0    0  502    0 -0.00000000000E+00 -0.00000000000E+00 -0.22631344112E+03  0.22631344112E+03  0.00000000000E+00 0. -1.
        -24    2    1    2    0    0  0.17185494843E+02 -0.81145756786E+02 -0.10374879145E+03  0.15608906440E+03  0.81975662364E+02 0.  0.
         23    2    1    2    0    0 -0.33774944530E+02  0.60814412259E+02 -0.58919587419E+02  0.12828649816E+03  0.90259449428E+02 0.  0.
         11    1    3    3    0    0  0.95976877839E+01 -0.60401037186E+02 -0.12783833928E+02  0.62480615505E+02  0.00000000000E+00 0. -1.
        -12    1    3    3    0    0  0.75878070593E+01 -0.20744719600E+02 -0.90964957522E+02  0.93608448894E+02  0.00000000000E+00 0.  1.
        -13    1    4    4    0    0 -0.56671098141E+02  0.21713077975E+02 -0.56488387175E+02  0.82909643621E+02  0.00000000000E+00 0. -1.
         13    1    4    4    0    0  0.22896153611E+02  0.39101334283E+02 -0.24312002440E+01  0.45376854535E+02  0.00000000000E+00 0.  1.
          4    1    1    2  501    0  0.16589449687E+02  0.20331344527E+02  0.58876155495E+02  0.64459096309E+02  0.00000000000E+00 0. -1.
<scales pt_clust_5="13000.00000" pt_clust_6="13000.00000" pt_clust_7="13000.00000" pt_clust_8="13000.00000" pt_clust_9="26.24068"></scales>
<clustering>
<clus scale="   26.241">  1  9  2 -1</clus>
<clus scale="   81.976">  5  6 -1 -1</clus>
<clus scale="   90.259">  7  8 -1 -1</clus>
<clus scale="  112.043">  2  5  1 -1</clus>
<clus scale="   26.241">  1  5  2 -1</clus>
</clustering>
</event>
<event>
 9    1  0.7719620E-005  0.1711240E+03  0.7546771E-02  0.1179695E+00
          1   -1    0    0  502    0 -0.00000000000E+00  0.00000000000E+00  0.36305464774E+03  0.36305464774E+03  0.00000000000E+00 0. -1.
         21   -1    0    0  501  502  0.00000000000E+00 -0.00000000000E+00 -0.17096007723E+03  0.17096007723E+03  0.00000000000E+00 0. -1.
         23    2    1    2    0    0 -0.16787321758E+03 -0.31648061862E+02  0.20299322297E+03  0.28121262008E+03  0.93226992439E+02 0.  0.
        -24    2    1    2    0    0  0.10212692320E+03 -0.60677432879E+02  0.56856984999E+01  0.13825249599E+03  0.70496568552E+02 0.  0.
         13    1    4    4    0    0  0.44125176100E+02  0.77870397797E+01  0.16764436911E+02  0.47840521521E+02  0.00000000000E+00 0. -1.
        -14    1    4    4    0    0  0.58001747099E+02 -0.68464472659E+02 -0.11078738411E+02  0.90411974471E+02  0.00000000000E+00 0.  1.
        -11    1    3    3    0    0 -0.45984923277E+02 -0.30195699083E+02  0.12481282529E+03  0.13639880780E+03  0.00000000000E+00 0.  1.
         11    1    3    3    0    0 -0.12188829430E+03 -0.14523627784E+01  0.78180397679E+02  0.14481381228E+03  0.00000000000E+00 0. -1.
          2    1    1    2  501    0  0.65746294379E+02  0.92325494741E+02 -0.16584350950E+02  0.11454960890E+03  0.00000000000E+00 0. -1.
<scales pt_clust_5="13000.00000" pt_clust_6="13000.00000" pt_clust_7="13000.00000" pt_clust_8="13000.00000" pt_clust_9="113.34272"></scales>
<clustering>
<clus scale="   70.497">  5  6 -1 -1</clus>
<clus scale="   93.227">  7  8 -1 -1</clus>
<clus scale="  113.343">  2  9  1 -1</clus>
<clus scale="  159.881">  2  5  1 -1</clus>
<clus scale="  113.343">  2  5  1 -1</clus>
</clustering>
</event>
<event>
 9    1  0.7719620E-005  0.9950851E+02  0.7546771E-02  0.1286859E+00
          3   -1    0    0  502    0 -0.00000000000E+00  0.00000000000E+00  0.13568696271E+03  0.13568696271E+03  0.00000000000E+00 0. -1.
         21   -1    0    0  501  502  0.00000000000E+00 -0.00000000000E+00 -0.22761356131E+03  0.22761356131E+03  0.00000000000E+00 0.  1.
         23    2    1    2    0    0 -0.34858812159E+02 -0.20721696623E+02  0.10005521658E+03  0.14175605255E+03  0.91865154298E+02 0.  0.
        -24    2    1    2    0    0  0.20312154455E+02  0.18621704139E+01 -0.16850668986E+03  0.18810245466E+03  0.81067734805E+02 0.  0.
         11    1    4    4    0    0  0.41768427445E+02 -0.21287597136E+02 -0.66787791129E+02  0.81598850280E+02  0.00000000000E+00 0. -1.
        -12    1    4    4    0    0 -0.21456272990E+02  0.23149767549E+02 -0.10171889873E+03  0.10650360438E+03  0.00000000000E+00 0.  1.
        -13    1    3    3    0    0 -0.28323793039E+02  0.14735503108E+02  0.10075724853E+03  0.10569482218E+03  0.00000000000E+00 0. -1.
         13    1    3    3    0    0 -0.65350191198E+01 -0.35457199730E+02 -0.70203194370E+00  0.36061230379E+02  0.00000000000E+00 0.  1.
          4    1    1    2  501    0  0.14546657703E+02  0.18859526209E+02 -0.23475125321E+02  0.33442016805E+02  0.00000000000E+00 0. -1.
<scales pt_clust_5="13000.00000" pt_clust_6="13000.00000" pt_clust_7="13000.00000" pt_clust_8="13000.00000" pt_clust_9="23.81779"></scales>
<clustering>
<clus scale="   23.818">  2  9  1 -1</clus>
<clus scale="   81.068">  5  6 -1 -1</clus>
<clus scale="   89.637">  2  5  1 -1</clus>
<clus scale="   91.865">  7  8 -1 -1</clus>
<clus scale="   23.818">  2  5  1 -1</clus>
</clustering>
</event>
<event>
 9    1  0.7719620E-005  0.1740882E+03  0.7546771E-02  0.1207442E+00
          1   -1    0    0  502    0 -0.00000000000E+00  0.00000000000E+00  0.10835466743E+03  0.10835466743E+03  0.00000000000E+00 0. -1.
         21   -1    0    0  501  502  0.00000000000E+00 -0.00000000000E+00 -0.50833685028E+03  0.50833685028E+03  0.00000000000E+00 0. -1.
        -24    2    1    2    0    0  0.38673419112E+01 -0.15644883227E+02 -0.18928499847E+03  0.20650573988E+03  0.80969693445E+02 0.  0.
         23    2    1    2    0    0 -0.59054957767E+02  0.15012964673E+03 -0.44633791204E+02  0.18948490535E+03  0.88802900702E+02 0.  0.
         11    1    3    3    0    0 -0.29736226333E+02  0.32505549439E+01 -0.29048412271E+02  0.41696756702E+02  0.00000000000E+00 0. -1.
        -12    1    3    3    0    0  0.33603568245E+02 -0.18895438171E+02 -0.16023658619E+03  0.16480898318E+03  0.00000000000E+00 0.  1.
        -11    1    4    4    0    0  0.23117006017E+02  0.30208390722E+02 -0.16262316209E+02  0.41369140258E+02  0.00000000000E+00 0.  1.
         11    1    4    4    0    0 -0.82171963784E+02  0.11992125601E+03 -0.28371474995E+02  0.14811576509E+03  0.00000000000E+00 0. -1.
          2    1    1    2  501    0  0.55187615856E+02 -0.13448476350E+03 -0.16606339318E+03  0.22070087248E+03  0.00000000000E+00 0. -1.
<scales pt_clust_5="13000.00000" pt_clust_6="13000.00000" pt_clust_7="13000.00000" pt_clust_8="13000.00000" pt_clust_9="149.73556"></scales>
<clustering>
<clus scale="   80.970">  5  6 -1 -1</clus>
<clus scale="   82.558">  1  5  2 -1</clus>
<clus scale="   88.803">  7  8 -1 -1</clus>
<clus scale="  149.736">  2  9  1 -1</clus>
<clus scale="  149.736">  2  5  1 -1</clus>
</clustering>
</event>
<event>
 9    1  0.7719620E-005  0.9472223E+02  0.7546771E-02  0.1297204E+00
         21   -1    0    0  501  502  0.00000000000E+00  0.00000000000E+00  0.14000448633E+03  0.14000448633E+03  0.00000000000E+00 0.  1.
         -4   -1    0    0    0  501 -0.00000000000E+00 -0.00000000000E+00 -0.10779935416E+03  0.10779935416E+03  0.00000000000E+00 0.  1.
         23    2    1    2    0    0  0.10224308824E+02 -0.53348150182E+02 -0.10326759582E+02  0.10580817648E+03  0.90211787637E+02 0.  0.
        -24    2    1    2    0    0  0.79218625857E+01  0.38647650470E+01  0.14920847580E+02  0.82495590890E+02  0.80654810818E+02 0.  0.
         13    1    4    4    0    0 -0.38682187241E+01 -0.26342992704E+02 -0.21141400312E+02  0.33998164477E+02  0.00000000000E+00 0. -1.
        -14    1    4    4    0    0  0.11790081310E+02  0.30207757751E+02  0.36062247892E+02  0.48497426412E+02  0.00000000000E+00 0.  1.
        -13    1    3    3    0    0  0.22730401570E+02 -0.75251977201E+02 -0.15338548714E+02  0.80092460974E+02  0.00000000000E+00 0.  1.
         13    1    3    3    0    0 -0.12506092746E+02  0.21903827020E+02  0.50117891326E+01  0.25715715510E+02  0.00000000000E+00 0. -1.
         -3    1    1    2    0  502 -0.18146171410E+02  0.49483385135E+02  0.27611044174E+02  0.59500073123E+02  0.00000000000E+00 0.  1.
<scales pt_clust_5="13000.00000" pt_clust_6="13000.00000" pt_clust_7="13000.00000" pt_clust_8="13000.00000" pt_clust_9="52.70568"></scales>
<clustering>
<clus scale="   52.706">  1  9  2 -1</clus>
<clus scale="   80.655">  5  6 -1 -1</clus>
<clus scale="   85.670">  1  5  2 -1</clus>
<clus scale="   90.212">  7  8 -1 -1</clus>
<clus scale="   52.706">  1  5  2 -1</clus>
</clustering>
</event>
<event>
 9    1  0.7719620E-005  0.9910135E+02  0.7546771E-02  0.1290659E+00
         -4   -1    0    0    0  501 -0.00000000000E+00  0.00000000000E+00  0.63325362541E+02  0.63325362541E+02  0.00000000000E+00 0.  1.
         21   -1    0    0  501  502  0.00000000000E+00 -0.00000000000E+00 -0.24456637675E+03  0.24456637675E+03  0.00000000000E+00 0. -1.
         23    2    1    2    0    0 -0.26754422458E+02 -0.16327399595E+02 -0.43408245957E+01  0.97381702837E+02  0.92097612297E+02 0.  0.
        -24    2    1    2    0    0  0.47054686909E+02  0.22911709918E+02 -0.13689238597E+03  0.16516603761E+03  0.76165639430E+02 0.  0.
         11    1    4    4    0    0  0.65540390063E+02  0.29596348599E+02 -0.11597775118E+03  0.13646364112E+03  0.00000000000E+00 0. -1.
        -12    1    4    4    0    0 -0.18485703154E+02 -0.66846386811E+01 -0.20914634799E+02  0.28702396488E+02  0.00000000000E+00 0.  1.
        -13    1    3    3    0    0 -0.56584518090E+02 -0.20223801672E+02 -0.20173881876E+02  0.63386081686E+02  0.00000000000E+00 0.  1.
         13    1    3    3    0    0  0.29830095633E+02  0.38964020771E+01  0.15833057280E+02  0.33995621151E+02  0.00000000000E+00 0. -1.
         -3    1    1    2    0  502 -0.20300264452E+02 -0.65843103226E+01 -0.40007803634E+02  0.45343998841E+02  0.00000000000E+00 0.  1.
<scales pt_clust_5="13000.00000" pt_clust_6="13000.00000" pt_clust_7="13000.00000" pt_clust_8="13000.00000" pt_clust_9="21.34137"></scales>
<clustering>
<clus scale="   21.341">  2  9  1 -1</clus>
<clus scale="   76.166">  5  6 -1 -1</clus>
<clus scale="   84.500">  2  5  1 -1</clus>
<clus scale="   92.098">  7  8 -1 -1</clus>
<clus scale="   21.341">  2  5  1 -1</clus>
</clustering>
</event>
<event>
 9    1  0.1078944E-004  0.9480978E+02  0.7546771E-02  0.1295365E+00
          3   -1    0    0  502    0 -0.00000000000E+00  0.00000000000E+00  0.19708554111E+03  0.19708554111E+03  0.00000000000E+00 0. -1.
         21   -1    0    0  501  502  0.00000000000E+00 -0.00000000000E+00 -0.16800618465E+03  0.16800618465E+03  0.00000000000E+00 0. -1.
        -24    2    1    2    0    0 -0.25909933876E+02 -0.20646482969E+02  0.15279066304E+03  0.17736422728E+03  0.83758465073E+02 0.  0.
         23    2    1    2    0    0 -0.50526778270E+01 -0.16839875978E+02 -0.87496484299E+02  0.12710222501E+03  0.90499888732E+02 0.  0.
         11    1    3    3    0    0 -0.52797814096E+02 -0.28920691137E+02  0.11928125126E+03  0.13361149820E+03  0.00000000000E+00 0. -1.
        -12    1    3    3    0    0  0.26887880220E+02  0.82742081676E+01  0.33509411787E+02  0.43752729079E+02  0.00000000000E+00 0.  1.
        -13    1    4    4    0    0 -0.12330747017E+02  0.18308628961E+02  0.92335326876E+01  0.23927209247E+02  0.00000000000E+00 0.  1.
         13    1    4    4    0    0  0.72780691903E+01 -0.35148504939E+02 -0.96730016986E+02  0.10317501576E+03  0.00000000000E+00 0. -1.
          4    1    1    2  501    0  0.30962611703E+02  0.37486358947E+02 -0.36214822293E+02  0.60625273478E+02  0.00000000000E+00 0. -1.
<scales pt_clust_5="13000.00000" pt_clust_6="13000.00000" pt_clust_7="13000.00000" pt_clust_8="13000.00000" pt_clust_9="48.62006"></scales>
<clustering>
<clus scale="   48.620">  2  9  1 -1</clus>
<clus scale="   83.758">  5  6 -1 -1</clus>
<clus scale="   88.398">  1  5  2 -1</clus>
<clus scale="   90.500">  7  8 -1 -1</clus>
<clus scale="   48.620">  2  5  1 -1</clus>
</clustering>
</event>
<event>
 9    1  0.7719620E-005  0.1539702E+03  0.7546771E-02  0.1198618E+00
         21   -1    0    0  501  502  0.00000000000E+00  0.00000000000E+00  0.18612481517E+03  0.18612481517E+03  0.00000000000E+00 0. -1.
         -2   -1    0    0    0  501 -0.00000000000E+00 -0.00000000000E+00 -0.22854438512E+03  0.22854438512E+03  0.00000000000E+00 0.  1.
         23    2    1    2    0    0  0.51476003894E+02 -0.12493006291E+03 -0.10944099053E+02  0.16338489453E+03  0.91200607776E+02 0.  0.
        -24    2    1    2    0    0 -0.67871031447E+02  0.88030984876E+02  0.63696787009E+02  0.14790105005E+03  0.73902021100E+02 0.  0.
         13    1    4    4    0    0 -0.69202021202E+02  0.97067511745E+02  0.68595027100E+02  0.13753653812E+03  0.00000000000E+00 0. -1.
        -14    1    4    4    0    0  0.13309897551E+01 -0.90365268694E+01 -0.48982400903E+01  0.10364511931E+02  0.00000000000E+00 0.  1.
        -13    1    3    3    0    0 -0.30659404774E+01 -0.35790743428E+02  0.34154266431E+02  0.49567037651E+02  0.00000000000E+00 0.  1.
         13    1    3    3    0    0  0.54541944371E+02 -0.89139319487E+02 -0.45098365483E+02  0.11381785688E+03  0.00000000000E+00 0. -1.
         -1    1    1    2    0  502  0.16395027554E+02  0.36899078039E+02 -0.95172257907E+02  0.10338325572E+03  0.00000000000E+00 0.  1.
<scales pt_clust_5="13000.00000" pt_clust_6="13000.00000" pt_clust_7="13000.00000" pt_clust_8="13000.00000" pt_clust_9="40.37748"></scales>
<clustering>
<clus scale="   40.377">  1  9  2 -1</clus>
<clus scale="   73.902">  5  6 -1 -1</clus>
<clus scale="   91.201">  7  8 -1 -1</clus>
<clus scale="  144.398">  1  5  2 -1</clus>
<clus scale="   40.377">  1  5  2 -1</clus>
</clustering>
</event>
<event>
 9    1  0.7719620E-005  0.1169758E+03  0.7546771E-02  0.1268083E+00
         21   -1    0    0  501  502  0.00000000000E+00  0.00000000000E+00  0.45002770348E+02  0.45002770348E+02  0.00000000000E+00 0. -1.
         -2   -1    0    0    0  501 -0.00000000000E+00 -0.00000000000E+00 -0.43874355575E+03  0.43874355575E+03  0.00000000000E+00 0.  1.
        -24    2    1    2    0    0 -0.16979481137E+02 -0.22495412723E+02 -0.67279650151E+02  0.10376249591E+03  0.73795378313E+02 0.  0.
         23    2    1    2    0    0  0.26092558757E+02 -0.59260617009E+02 -0.17513927698E+03  0.20774736084E+03  0.91063479205E+02 0.  0.
         13    1    3    3    0    0  0.28027784926E+02 -0.52909584076E+01 -0.13503612620E+02  0.31557859917E+02  0.00000000000E+00 0. -1.
        -14    1    3    3    0    0 -0.45007266063E+02 -0.17204454315E+02 -0.53776037531E+02  0.72204635996E+02  0.00000000000E+00 0.  1.
        -11    1    4    4    0    0  0.51011649862E+02 -0.69303036500E+01 -0.61679741199E+02  0.80340575083E+02  0.00000000000E+00 0.  1.
         11    1    4    4    0    0 -0.24919091105E+02 -0.52330313359E+02 -0.11345953578E+03  0.12740678576E+03  0.00000000000E+00 0. -1.
         -1    1    1    2    0  502 -0.91130776202E+01  0.81756029732E+02 -0.15132185827E+03  0.17223646934E+03  0.00000000000E+00 0.  1.
<scales pt_clust_5="13000.00000" pt_clust_6="13000.00000" pt_clust_7="13000.00000" pt_clust_8="13000.00000" pt_clust_9="73.42201"></scales>
<clustering>
<clus scale="   73.795">  5  6 -1 -1</clus>
<clus scale="   78.994">  2  5  1 -1</clus>
<clus scale="   73.422">  1  9  2 -1</clus>
<clus scale="   91.063">  7  8 -1 -1</clus>
<clus scale="   73.422">  1  5  2 -1</clus>
</clustering>
</event>
<event>
 9    1  0.7719620E-005  0.1073392E+03  0.7546771E-02  0.1269416E+00
          1   -1    0    0  502    0 -0.00000000000E+00  0.00000000000E+00  0.14569808415E+03  0.14569808415E+03  0.00000000000E+00 0. -1.
         21   -1    0    0  501  502  0.00000000000E+00 -0.00000000000E+00 -0.15852963572E+03  0.15852963572E+03  0.00000000000E+00 0.  1.
         23    2    1    2    0    0  0.63508165252E+02 -0.87065755173E+00  0.82647364961E+02  0.13802168597E+03  0.90472944935E+02 0.  0.
        -24    2    1    2    0    0 -0.43289060952E+02 -0.16667095290E+02 -0.34585008131E+02  0.99689471790E+02  0.81179634977E+02 0.  0.
         11    1    4    4    0    0 -0.32926260193E+02 -0.37911534920E+01  0.22631553929E+02  0.40133510790E+02  0.00000000000E+00 0. -1.
        -12    1    4    4    0    0 -0.10362800758E+02 -0.12875941798E+02 -0.57216562060E+02  0.59555961000E+02  0.00000000000E+00 0.  1.
        -13    1    3    3    0    0  0.50187693012E+02 -0.41833509468E+02  0.62693647452E+02  0.90550209691E+02  0.00000000000E+00 0.  1.
         13    1    3    3    0    0  0.13320472240E+02  0.40962851916E+02  0.19953717509E+02  0.47471476281E+02  0.00000000000E+00 0. -1.
          2    1    1    2  501    0 -0.20219104301E+02  0.17537752841E+02 -0.60893908400E+02  0.66516562101E+02  0.00000000000E+00 0. -1.
<scales pt_clust_5="13000.00000" pt_clust_6="13000.00000" pt_clust_7="13000.00000" pt_clust_8="13000.00000" pt_clust_9="26.76537"></scales>
<clustering>
<clus scale="   26.765">  2  9  1 -1</clus>
<clus scale="   81.180">  5  6 -1 -1</clus>
<clus scale="   90.473">  7  8 -1 -1</clus>
<clus scale="   99.632">  2  5  1 -1</clus>
<clus scale="   26.765">  2  5  1 -1</clus>
</clustering>
</event>
<event>
 9    1  0.7719620E-005  0.2081697E+03  0.7546771E-02  0.1165557E+00
         21   -1    0    0  501  502  0.00000000000E+00  0.00000000000E+00  0.76102874818E+03  0.76102874818E+03  0.00000000000E+00 0. -1.
          1   -1    0    0  502    0 -0.00000000000E+00 -0.00000000000E+00 -0.37939918144E+03  0.37939918144E+03  0.00000000000E+00 0. -1.
         23    2    1    2    0    0  0.48980912142E+02  0.65597562006E+02  0.10770683652E+03  0.16314686838E+03  0.91180963664E+02 0.  0.
        -24    2    1    2    0    0  0.10593871250E+03  0.52141416438E+02 -0.32073347160E+03  0.35159858944E+03  0.82521937554E+02 0.  0.
         13    1    4    4    0    0  0.25928197711E+02  0.56673636557E+02 -0.16661883199E+03  0.17789324802E+03  0.00000000000E+00 0. -1.
        -14    1    4    4    0    0  0.80010514791E+02 -0.45322201194E+01 -0.15411463961E+03  0.17370534143E+03  0.00000000000E+00 0.  1.
        -11    1    3    3    0    0 -0.22908998570E+02  0.39205989019E+02  0.47686097462E+02  0.65847518416E+02  0.00000000000E+00 0.  1.
         11    1    3    3    0    0  0.71889910712E+02  0.26391572987E+02  0.60020739057E+02  0.97299349966E+02  0.00000000000E+00 0. -1.
          2    1    1    2  501    0 -0.15491962464E+03 -0.11773897844E+03  0.59465620182E+03  0.62568247179E+03  0.00000000000E+00 0. -1.
<scales pt_clust_5="13000.00000" pt_clust_6="13000.00000" pt_clust_7="13000.00000" pt_clust_8="13000.00000" pt_clust_9="191.11454"></scales>
<clustering>
<clus scale="   82.522">  5  6 -1 -1</clus>
<clus scale="   91.181">  7  8 -1 -1</clus>
<clus scale="  122.540">  2  7  1 -1</clus>
<clus scale="  191.115">  1  9  2 -1</clus>
<clus scale="  191.115">  1  5  2 -1</clus>
</clustering>
</event>
<event>
 9    1  0.7719620E-005  0.2960628E+03  0.7546771E-02  0.1134282E+00
         21   -1    0    0  501  502  0.00000000000E+00  0.00000000000E+00  0.13625926405E+03  0.13625926405E+03  0.00000000000E+00 0.  1.
         -2   -1    0    0    0  501 -0.00000000000E+00 -0.00000000000E+00 -0.10955163796E+04  0.10955163796E+04  0.00000000000E+00 0.  1.
         23    2    1    2    0    0  0.90586945703E+01  0.70602129002E+01 -0.34505358421E+02  0.95823299623E+02  0.88654263504E+02 0.  0.
        -24    2    1    2    0    0 -0.11791946085E+03  0.25683604613E+03 -0.73903881877E+03  0.79539222094E+03  0.81244419150E+02 0.  0.
         13    1    4    4    0    0 -0.67395635549E+02  0.13932636913E+03 -0.29287267492E+03  0.33125279251E+03  0.00000000000E+00 0. -1.
        -14    1    4    4    0    0 -0.50523825299E+02  0.11750967700E+03 -0.44616614385E+03  0.46413942843E+03  0.00000000000E+00 0.  1.
        -11    1    3    3    0    0 -0.78611131144E+01 -0.21897490915E+02 -0.52743248624E+02  0.57646747377E+02  0.00000000000E+00 0. -1.
         11    1    3    3    0    0  0.16919807685E+02  0.28957703815E+02  0.18237890203E+02  0.38176552246E+02  0.00000000000E+00 0.  1.
         -1    1    1    2    0  502  0.10886076628E+03 -0.26389625903E+03 -0.18571293834E+03  0.34056012308E+03  0.00000000000E+00 0.  1.
<scales pt_clust_5="13000.00000" pt_clust_6="13000.00000" pt_clust_7="13000.00000" pt_clust_8="13000.00000" pt_clust_9="284.69729"></scales>
<clustering>
<clus scale="   81.244">  5  6 -1 -1</clus>
<clus scale="   88.654">  7  8 -1 -1</clus>
<clus scale="   89.395">  2  7  1 -1</clus>
<clus scale="  284.697">  1  9  2 -1</clus>
<clus scale="  284.697">  1  5  2 -1</clus>
</clustering>
</event>
<event>
 9    1  0.7719620E-005  0.1391159E+03  0.7546771E-02  0.1217412E+00
          1   -1    0    0  502    0 -0.00000000000E+00  0.00000000000E+00  0.63341927405E+03  0.63341927405E+03  0.00000000000E+00 0. -1.
         21   -1    0    0  501  502  0.00000000000E+00 -0.00000000000E+00 -0.42874160001E+02  0.42874160001E+02  0.00000000000E+00 0.  1.
        -24    2    1    2    0    0  0.79825791080E+02 -0.73333473307E+02  0.39753813710E+03  0.41936549689E+03  0.77980089165E+02 0.  0.
         23    2    1    2    0    0 -0.82131865730E+02  0.51810474480E+02  0.11494642536E+03  0.17592172028E+03  0.91136174644E+02 0.  0.
         11    1    3    3    0    0  0.37380343837E+02 -0.43727643348E+02  0.32619816449E+03  0.33123200240E+03  0.00000000000E+00 0. -1.
        -12    1    3    3    0    0  0.42445447242E+02 -0.29605829959E+02  0.71339972608E+02  0.88133494489E+02  0.00000000000E+00 0.  1.
        -11    1    4    4    0    0 -0.12216704341E+02  0.44655138519E+02  0.65811892250E+01  0.46761536680E+02  0.00000000000E+00 0.  1.
         11    1    4    4    0    0 -0.69915161388E+02  0.71553359613E+01  0.10836523613E+03  0.12916018360E+03  0.00000000000E+00 0. -1.
          2    1    1    2  501    0  0.23060746498E+01  0.21522998828E+02  0.78060551588E+02  0.81006216879E+02  0.00000000000E+00 0. -1.
<scales pt_clust_5="13000.00000" pt_clust_6="13000.00000" pt_clust_7="13000.00000" pt_clust_8="13000.00000" pt_clust_9="21.64620"></scales>
<clustering>
<clus scale="   21.646">  2  9  1 -1</clus>
<clus scale="   77.980">  5  6 -1 -1</clus>
<clus scale="   91.136">  7  8 -1 -1</clus>
<clus scale="  130.875">  1  5  2 -1</clus>
<clus scale="   21.646">  2  5  1 -1</clus>
</clustering>
</event>
<event>
 9    1  0.7719620E-005  0.8790740E+02  0.7546771E-02  0.1309925E+00
          1   -1    0    0  502    0 -0.00000000000E+00  0.00000000000E+00  0.26094125993E+03  0.26094125993E+03  0.00000000000E+00 0. -1.
         21   -1    0    0  501  502  0.00000000000E+00 -0.00000000000E+00 -0.74455225748E+02  0.74455225748E+02  0.00000000000E+00 0. -1.
         23    2    1    2    0    0  0.17677086479E+02  0.23613833807E+02  0.98727628362E+02  0.12694487183E+03  0.74146903840E+02 0.  0.
        -24    2    1    2    0    0 -0.10787438019E+02 -0.56229595093E+02  0.12538904083E+03  0.15817915785E+03  0.77589292000E+02 0.  0.
         13    1    4    4    0    0  0.21685957514E+02 -0.22275766195E+01  0.73145016888E+02  0.76324546160E+02  0.00000000000E+00 0. -1.
        -14    1    4    4    0    0 -0.32473395533E+02 -0.54002018474E+02  0.52244023945E+02  0.81854611689E+02  0.00000000000E+00 0.  1.
        -11    1    3    3    0    0  0.13606868221E+02 -0.22764369221E+02  0.62693958280E+02  0.68072724153E+02  0.00000000000E+00 0. -1.
         11    1    3    3    0    0  0.40702182579E+01  0.46378203028E+02  0.36033670082E+02  0.58872147679E+02  0.00000000000E+00 0.  1.
          2    1    1    2  501    0 -0.68896484599E+01  0.32615761286E+02 -0.37630635016E+02  0.50272455996E+02  0.00000000000E+00 0. -1.
<scales pt_clust_5="13000.00000" pt_clust_6="13000.00000" pt_clust_7="13000.00000" pt_clust_8="13000.00000" pt_clust_9="33.33549"></scales>
<clustering>
<clus scale="   33.335">  2  9  1 -1</clus>
<clus scale="   74.147">  7  8 -1 -1</clus>
<clus scale="   77.589">  5  6 -1 -1</clus>
<clus scale="   84.884">  1  7  2 -1</clus>
<clus scale="   33.335">  2  5  1 -1</clus>
</clustering>
</event>
<event>
 9    1  0.7719620E-005  0.3794997E+03  0.7546771E-02  0.1105676E+00
         21   -1    0    0  501  502  0.00000000000E+00  0.00000000000E+00  0.44958239720E+03  0.44958239720E+03  0.00000000000E+00 0. -1.
         -2   -1    0    0    0  501 -0.00000000000E+00 -0.00000000000E+00 -0.52077580867E+03  0.52077580867E+03  0.00000000000E+00 0.  1.
        -24    2    1    2    0    0 -0.32579577164E+02  0.12932327616E+02  0.42643003090E+02  0.96723689538E+02  0.79425263358E+02 0.  0.
         23    2    1    2    0    0  0.87719178383E+02 -0.37253848812E+03 -0.27041236368E+03  0.47756256058E+03  0.91997681770E+02 0.  0.
         13    1    3    3    0    0 -0.57890426861E+01  0.42633132773E+02  0.79012388389E+01  0.43743875005E+02  0.00000000000E+00 0. -1.
        -14    1    3    3    0    0 -0.26790534478E+02 -0.29700805158E+02  0.34741764252E+02  0.52979814533E+02  0.00000000000E+00 0.  1.
        -13    1    4    4    0    0  0.42158471360E+02 -0.31452022926E+03 -0.23954653007E+03  0.39759634228E+03  0.00000000000E+00 0. -1.
         13    1    4    4    0    0  0.45560707023E+02 -0.58018258859E+02 -0.30865833601E+02  0.79966218301E+02  0.00000000000E+00 0.  1.
         -1    1    1    2    0  502 -0.55139601219E+02  0.35960616050E+03  0.15657594911E+03  0.39607195576E+03  0.00000000000E+00 0.  1.
<scales pt_clust_5="13000.00000" pt_clust_6="13000.00000" pt_clust_7="13000.00000" pt_clust_8="13000.00000" pt_clust_9="368.17994"></scales>
<clustering>
<clus scale="   79.425">  5  6 -1 -1</clus>
<clus scale="   86.816">  2  5  1 -1</clus>
<clus scale="   91.998">  7  8 -1 -1</clus>
<clus scale="  368.180">  1  9  2 -1</clus>
<clus scale="  368.180">  1  5  2 -1</clus>
</clustering>
</event>
<event>
 9    1  0.7719620E-005  0.2817686E+03  0.7546771E-02  0.1095121E+00
         21   -1    0    0  501  502  0.00000000000E+00  0.00000000000E+00  0.58685366356E+02  0.58685366356E+02  0.00000000000E+00 0.  1.
          1   -1    0    0  502    0 -0.00000000000E+00 -0.00000000000E+00 -0.17260957132E+04  0.17260957132E+04  0.00000000000E+00 0. -1.
         23    2    1    2    0    0  0.21631330971E+03 -0.15736807817E+03 -0.11576653626E+04  0.11914815435E+04  0.88786354525E+02 0.  0.
        -24    2    1    2    0    0 -0.22916137283E+03  0.13873609942E+03 -0.45283293156E+03  0.53205245369E+03  0.79117061940E+02 0.  0.
         13    1    4    4    0    0 -0.11893746935E+03  0.26968652355E+02 -0.18408591437E+03  0.22081905193E+03  0.00000000000E+00 0. -1.
        -14    1    4    4    0    0 -0.11022390348E+03  0.11176744706E+03 -0.26874701720E+03  0.31123340176E+03  0.00000000000E+00 0.  1.
        -13    1    3    3    0    0  0.17259055106E+03 -0.14001728380E+03 -0.10603922010E+04  0.10834315659E+04  0.00000000000E+00 0. -1.
         13    1    3    3    0    0  0.43722758649E+02 -0.17350794374E+02 -0.97273161655E+02  0.10804997764E+03  0.00000000000E+00 0.  1.
          2    1    1    2  501    0  0.12848063121E+02  0.18631978755E+02 -0.56912052683E+02  0.61247082371E+02  0.00000000000E+00 0. -1.
<scales pt_clust_5="13000.00000" pt_clust_6="13000.00000" pt_clust_7="13000.00000" pt_clust_8="13000.00000" pt_clust_9="22.63235"></scales>
<clustering>
<clus scale="   22.632">  1  9  2 -1</clus>
<clus scale="   79.117">  5  6 -1 -1</clus>
<clus scale="   88.786">  7  8 -1 -1</clus>
<clus scale="  278.873">  1  5  2 -1</clus>
<clus scale="   22.632">  1  5  2 -1</clus>
</clustering>
</event>
<event>
 9    1  0.7719620E-005  0.9508939E+02  0.7546771E-02  0.1296863E+00
         21   -1    0    0  501  502  0.00000000000E+00  0.00000000000E+00  0.10139097714E+03  0.10139097714E+03  0.00000000000E+00 0. -1.
         -4   -1    0    0    0  501 -0.00000000000E+00 -0.00000000000E+00 -0.43152474912E+03  0.43152474912E+03  0.00000000000E+00 0.  1.
         23    2    1    2    0    0 -0.13565242477E+02 -0.17934981364E+02 -0.39335999164E+03  0.40468519612E+03  0.92370696535E+02 0.  0.
        -24    2    1    2    0    0 -0.44907495912E+01  0.32072587677E+02  0.46273647238E+02  0.99712457378E+02  0.82173633335E+02 0.  0.
         11    1    4    4    0    0 -0.11941134657E+02  0.52925621499E+02  0.53718518205E+02  0.76350450595E+02  0.00000000000E+00 0. -1.
        -12    1    4    4    0    0  0.74503850658E+01 -0.20853033822E+02 -0.74448709671E+01  0.23362006783E+02  0.00000000000E+00 0.  1.
        -13    1    3    3    0    0  0.11919450783E+02 -0.49705704569E+02 -0.26937832176E+03  0.27418499340E+03  0.00000000000E+00 0.  1.
         13    1    3    3    0    0 -0.25484693260E+02  0.31770723205E+02 -0.12398166988E+03  0.13050020272E+03  0.00000000000E+00 0. -1.
         -3    1    1    2    0  502  0.18055992069E+02 -0.14137606313E+02  0.16952572419E+02  0.28518072752E+02  0.00000000000E+00 0.  1.
<scales pt_clust_5="13000.00000" pt_clust_6="13000.00000" pt_clust_7="13000.00000" pt_clust_8="13000.00000" pt_clust_9="22.93231"></scales>
<clustering>
<clus scale="   22.932">  1  9  2 -1</clus>
<clus scale="   82.174">  5  6 -1 -1</clus>
<clus scale="   85.218">  1  5  2 -1</clus>
<clus scale="   92.371">  7  8 -1 -1</clus>
<clus scale="   22.932">  1  5  2 -1</clus>
</clustering>
</event>
<event>
 9    1  0.7719620E-005  0.9990143E+02  0.7546771E-02  0.1285472E+00
         21   -1    0    0  501  502  0.00000000000E+00  0.00000000000E+00  0.28918993040E+03  0.28918993040E+03  0.00000000000E+00 0.  1.
          1   -1    0    0  502    0 -0.00000000000E+00 -0.00000000000E+00 -0.56912902364E+02  0.56912902364E+02  0.00000000000E+00 0. -1.
         23    2    1    2    0    0  0.82343090060E+01  0.35463466620E+02  0.23047696232E+02  0.10020328634E+03  0.90465689527E+02 0.  0.
        -24    2    1    2    0    0 -0.23259370226E+01 -0.61572693919E+02  0.17748216941E+03  0.20437265237E+03  0.80446590737E+02 0.  0.
         11    1    4    4    0    0  0.17603345866E+01 -0.37434453621E+02  0.15506379475E+02  0.40557180624E+02  0.00000000000E+00 0. -1.
        -12    1    4    4    0    0 -0.40862716092E+01 -0.24138240298E+02  0.16197578993E+03  0.16381547175E+03  0.00000000000E+00 0.  1.
        -13    1    3    3    0    0 -0.35912793889E+02 -0.65336687230E+01  0.10630912540E+02  0.38018862336E+02  0.00000000000E+00 0.  1.
         13    1    3    3    0    0  0.44147102895E+02  0.41997135343E+02  0.12416783691E+02  0.62184424001E+02  0.00000000000E+00 0. -1.
          2    1    1    2  501    0 -0.59083719833E+01  0.26109227298E+02  0.31747162401E+02  0.41526894058E+02  0.00000000000E+00 0. -1.
<scales pt_clust_5="13000.00000" pt_clust_6="13000.00000" pt_clust_7="13000.00000" pt_clust_8="13000.00000" pt_clust_9="26.76940"></scales>
<clustering>
<clus scale="   26.769">  1  9  2 -1</clus>
<clus scale="   80.447">  5  6 -1 -1</clus>
<clus scale="   90.466">  7  8 -1 -1</clus>
<clus scale="   90.928">  1  5  2 -1</clus>
<clus scale="   26.769">  1  5  2 -1</clus>
</clustering>
</event>
<event>
 9    1  0.7719620E-005  0.1356779E+03  0.7546771E-02  0.1221294E+00
         21   -1    0    0  501  502  0.00000000000E+00  0.00000000000E+00  0.35964867443E+03  0.35964867443E+03  0.00000000000E+00 0.  1.
         -2   -1    0    0    0  501 -0.00000000000E+00 -0.00000000000E+00 -0.15718807355E+03  0.15718807355E+03  0.00000000000E+00 0.  1.
         23    2    1    2    0    0  0.46091833159E+02 -0.10725407196E+03 -0.73378288681E+02  0.16473314679E+03  0.90137358330E+02 0.  0.
        -24    2    1    2    0    0  0.55563235339E+01  0.76865117311E+02  0.58049705397E+02  0.12622055758E+03  0.81380230210E+02 0.  0.
         11    1    4    4    0    0 -0.37780570782E+02  0.40270559420E+02  0.31793441015E+02  0.63717441695E+02  0.00000000000E+00 0. -1.
        -12    1    4    4    0    0  0.43336894316E+02  0.36594557892E+02  0.26256264383E+02  0.62503115887E+02  0.00000000000E+00 0.  1.
        -13    1    3    3    0    0  0.19513764065E+02 -0.71663386465E+02  0.52153213105E+01  0.74455540586E+02  0.00000000000E+00 0. -1.
         13    1    3    3    0    0  0.26578069093E+02 -0.35590685491E+02 -0.78593609992E+02  0.90277606204E+02  0.00000000000E+00 0.  1.
         -1    1    1    2    0  502 -0.51648156693E+02  0.30388954645E+02  0.21778918416E+03  0.22588304361E+03  0.00000000000E+00 0.  1.
<scales pt_clust_5="13000.00000" pt_clust_6="13000.00000" pt_clust_7="13000.00000" pt_clust_8="13000.00000" pt_clust_9="59.92513"></scales>
<clustering>
<clus scale="   59.925">  1  9  2 -1</clus>
<clus scale="   81.380">  5  6 -1 -1</clus>
<clus scale="   90.137">  7  8 -1 -1</clus>
<clus scale="  130.025">  1  5  2 -1</clus>
<clus scale="   59.925">  1  5  2 -1</clus>
</clustering>
</event>
<event>
 9    1  0.7719620E-005  0.9990367E+02  0.7546771E-02  0.1286381E+00
         21   -1    0    0  501  502  0.00000000000E+00  0.00000000000E+00  0.48793151433E+02  0.48793151433E+02  0.00000000000E+00 0. -1.
         -2   -1    0    0    0  501 -0.00000000000E+00 -0.00000000000E+00 -0.38922413493E+03  0.38922413493E+03  0.00000000000E+00 0.  1.
        -24    2    1    2    0    0  0.44804262055E+02 -0.10521306318E+01 -0.19578454784E+03  0.21607772768E+03  0.79683538773E+02 0.  0.
         23    2    1    2    0    0 -0.31975479000E+02  0.20864030016E+02 -0.16390324387E+03  0.19147788285E+03  0.91333275785E+02 0.  0.
         13    1    3    3    0    0 -0.74325904916E+01  0.21401848948E+02 -0.11548449413E+03  0.11768581445E+03  0.00000000000E+00 0. -1.
        -14    1    3    3    0    0  0.52236852547E+02 -0.22453979580E+02 -0.80300053709E+02  0.98391913228E+02  0.00000000000E+00 0.  1.
        -13    1    4    4    0    0 -0.49867839351E+02 -0.19988128884E+02 -0.78388599838E+02  0.95032096064E+02  0.00000000000E+00 0.  1.
         13    1    4    4    0    0  0.17892360351E+02  0.40852158900E+02 -0.85514644031E+02  0.96445786790E+02  0.00000000000E+00 0. -1.
         -1    1    1    2    0  502 -0.12828783055E+02 -0.19811899384E+02  0.19256808208E+02  0.30461675827E+02  0.00000000000E+00 0.  1.
<scales pt_clust_5="13000.00000" pt_clust_6="13000.00000" pt_clust_7="13000.00000" pt_clust_8="13000.00000" pt_clust_9="23.60273"></scales>
<clustering>
<clus scale="   23.603">  1  9  2 -1</clus>
<clus scale="   79.684">  5  6 -1 -1</clus>
<clus scale="   89.378">  2  5  1 -1</clus>
<clus scale="   91.333">  7  8 -1 -1</clus>
<clus scale="   23.603">  1  5  2 -1</clus>
</clustering>
</event>
<event>
 9    1  0.7719620E-005  0.1612045E+03  0.7546771E-02  0.1188848E+00
         -2   -1    0    0    0  501 -0.00000000000E+00  0.00000000000E+00  0.96275121941E+02  0.96275121941E+02  0.00000000000E+00 0.  1.
         21   -1    0    0  501  502  0.00000000000E+00 -0.00000000000E+00 -0.36896569296E+03  0.36896569296E+03  0.00000000000E+00 0. -1.
        -24    2    1    2    0    0 -0.28795845294E+02  0.14236730551E+03 -0.99197715359E+02  0.19444225198E+03  0.82885175029E+02 0.  0.
         23    2    1    2    0    0  0.28173236538E+02 -0.10967430256E+03 -0.18531258695E+03  0.23602894786E+03  0.92448501589E+02 0.  0.
         13    1    3    3    0    0 -0.55744037726E+02  0.11704838019E+03 -0.70051869758E+02  0.14736005396E+03  0.00000000000E+00 0. -1.
        -14    1    3    3    0    0  0.26948192433E+02  0.25318925320E+02 -0.29145845601E+02  0.47082198022E+02  0.00000000000E+00 0.  1.
        -13    1    4    4    0    0  0.44196939712E+02 -0.27934893553E+02 -0.11754378079E+03  0.12864784554E+03  0.00000000000E+00 0.  1.
         13    1    4    4    0    0 -0.16023703174E+02 -0.81739409008E+02 -0.67768806161E+02  0.10738110233E+03  0.00000000000E+00 0. -1.
         -1    1    1    2    0  502  0.62260875554E+00 -0.32693002947E+02  0.11819731293E+02  0.34769615057E+02  0.00000000000E+00 0.  1.
<scales pt_clust_5="13000.00000" pt_clust_6="13000.00000" pt_clust_7="13000.00000" pt_clust_8="13000.00000" pt_clust_9="32.69895"></scales>
<clustering>
<clus scale="   32.699">  2  9  1 -1</clus>
<clus scale="   82.885">  5  6 -1 -1</clus>
<clus scale="   92.449">  7  8 -1 -1</clus>
<clus scale="  155.917">  1  5  2 -1</clus>
<clus scale="   32.699">  2  5  1 -1</clus>
</clustering>
</event>
<event>
 9    1  0.7719620E-005  0.9186346E+02  0.7546771E-02  0.1304487E+00
         21   -1    0    0  501  502  0.00000000000E+00  0.00000000000E+00  0.37122818279E+03  0.37122818279E+03  0.00000000000E+00 0. -1.
          1   -1    0    0  502    0 -0.00000000000E+00 -0.00000000000E+00 -0.36427499653E+02  0.36427499653E+02  0.00000000000E+00 0. -1.
         23    2    1    2    0    0 -0.20629374968E+02  0.13719322845E+02  0.66857161001E+02  0.11519549569E+03  0.90478347241E+02 0.  0.
        -24    2    1    2    0    0  0.45866454995E+01  0.51806085906E+01  0.13619446970E+03  0.15839904624E+03  0.80581935016E+02 0.  0.
         11    1    4    4    0    0 -0.19987638870E+02  0.36119796380E+02  0.65934846086E+02  0.77791704742E+02  0.00000000000E+00 0. -1.
        -12    1    4    4    0    0  0.24574284369E+02 -0.30939187790E+02  0.70259623610E+02  0.80607341497E+02  0.00000000000E+00 0.  1.
        -11    1    3    3    0    0 -0.20051435140E+02 -0.30415311026E+02  0.60472103907E+02  0.70597638395E+02  0.00000000000E+00 0.  1.
         11    1    3    3    0    0 -0.57793982827E+00  0.44134633870E+02  0.63850570941E+01  0.44597857296E+02  0.00000000000E+00 0. -1.
          2    1    1    2  501    0  0.16042729468E+02 -0.18899931435E+02  0.13174905244E+03  0.13406114052E+03  0.00000000000E+00 0. -1.
<scales pt_clust_5="13000.00000" pt_clust_6="13000.00000" pt_clust_7="13000.00000" pt_clust_8="13000.00000" pt_clust_9="24.79066"></scales>
<clustering>
<clus scale="   24.791">  1  9  2 -1</clus>
<clus scale="   80.582">  5  6 -1 -1</clus>
<clus scale="   82.134">  1  5  2 -1</clus>
<clus scale="   90.478">  7  8 -1 -1</clus>
<clus scale="   24.791">  1  5  2 -1</clus>
</clustering>
</event>
<event>
 9    1  0.7719620E-005  0.9433342E+02  0.7546771E-02  0.1304572E+00
         -2   -1    0    0    0  501 -0.00000000000E+00  0.00000000000E+00  0.79669842922E+02  0.79669842922E+02  0.00000000000E+00 0.  1.
         21   -1    0    0  501  502  0.00000000000E+00 -0.00000000000E+00 -0.17208370903E+03  0.17208370903E+03  0.00000000000E+00 0.  1.
        -24    2    1    2    0    0 -0.25838485339E+01  0.14912376706E+02 -0.41049692432E+02  0.87039240505E+02  0.75244248197E+02 0.  0.
         23    2    1    2    0    0 -0.23009345192E+02  0.25898477431E+02 -0.58580938420E+02  0.11600477363E+03  0.93942642394E+02 0.  0.
         13    1    3    3    0    0 -0.15720930428E+02 -0.25475670992E+02 -0.31221592329E+01  0.30098261482E+02  0.00000000000E+00 0. -1.
        -14    1    3    3    0    0  0.13137081894E+02  0.40388047698E+02 -0.37927533199E+02  0.56940979023E+02  0.00000000000E+00 0.  1.
        -11    1    4    4    0    0  0.14450618266E+02  0.49230512093E+02 -0.13797440757E+02  0.53130340302E+02  0.00000000000E+00 0. -1.
         11    1    4    4    0    0 -0.37459963458E+02 -0.23332034661E+02 -0.44783497663E+02  0.62874433331E+02  0.00000000000E+00 0.  1.
         -1    1    1    2    0  502  0.25593193726E+02 -0.40810854137E+02  0.72167647465E+01  0.48709537813E+02  0.00000000000E+00 0.  1.
<scales pt_clust_5="13000.00000" pt_clust_6="13000.00000" pt_clust_7="13000.00000" pt_clust_8="13000.00000" pt_clust_9="48.17198"></scales>
<clustering>
<clus scale="   48.172">  2  9  1 -1</clus>
<clus scale="   75.244">  5  6 -1 -1</clus>
<clus scale="   75.732">  1  5  2 -1</clus>
<clus scale="   93.943">  7  8 -1 -1</clus>
<clus scale="   48.172">  2  5  1 -1</clus>
</clustering>
</event>
<event>
 9    1  0.7719620E-005  0.9658155E+02  0.7546771E-02  0.1294663E+00
          1   -1    0    0  502    0 -0.00000000000E+00  0.00000000000E+00  0.56781031886E+03  0.56781031886E+03  0.00000000000E+00 0. -1.
         21   -1    0    0  501  502  0.00000000000E+00 -0.00000000000E+00 -0.38076402590E+02  0.38076402590E+02  0.00000000000E+00 0. -1.
         23    2    1    2    0    0 -0.18428986797E+02  0.64552150079E+01  0.25182473078E+03  0.26911097419E+03  0.92864008313E+02 0.  0.
        -24    2    1    2    0    0  0.10780813942E+02  0.73597650555E+02  0.16847523221E+03  0.20097167530E+03  0.80454150212E+02 0.  0.
         13    1    4    4    0    0 -0.32327234187E+01  0.69121236717E+02  0.60249687766E+02  0.91750862350E+02  0.00000000000E+00 0. -1.
        -14    1    4    4    0    0  0.14013537361E+02  0.44764138374E+01  0.10822554445E+03  0.10922081295E+03  0.00000000000E+00 0.  1.
        -11    1    3    3    0    0 -0.49723306848E+02  0.24214195338E+02  0.11460327015E+03  0.12725032035E+03  0.00000000000E+00 0.  1.
         11    1    3    3    0    0  0.31294320051E+02 -0.17758980330E+02  0.13722146064E+03  0.14186065384E+03  0.00000000000E+00 0. -1.
          2    1    1    2  501    0  0.76481728552E+01 -0.80052865562E+02  0.10943395328E+03  0.13580407197E+03  0.00000000000E+00 0. -1.
<scales pt_clust_5="13000.00000" pt_clust_6="13000.00000" pt_clust_7="13000.00000" pt_clust_8="13000.00000" pt_clust_9="80.41739"></scales>
<clustering>
<clus scale="   80.417">  2  9  1 -1</clus>
<clus scale="   80.454">  5  6 -1 -1</clus>
<clus scale="   84.718">  2  5  1 -1</clus>
<clus scale="   92.864">  7  8 -1 -1</clus>
<clus scale="   80.417">  2  5  1 -1</clus>
</clustering>
</event>
<event>
 9    1  0.7719620E-005  0.1401389E+03  0.7546771E-02  0.1213596E+00
         21   -1    0    0  501  502  0.00000000000E+00  0.00000000000E+00  0.43016834944E+02  0.43016834944E+02  0.00000000000E+00 0. -1.
          1   -1    0    0  502    0 -0.00000000000E+00 -0.00000000000E+00 -0.85643008714E+03  0.85643008714E+03  0.00000000000E+00 0. -1.
         23    2    1    2    0    0  0.10470485073E+03 -0.29357941807E+02 -0.54116859774E+03  0.55920107596E+03  0.89539922168E+02 0.  0.
        -24    2    1    2    0    0 -0.87893570466E+02  0.67310447280E+02 -0.12915883457E+03  0.19126073389E+03  0.87422467003E+02 0.  0.
         13    1    4    4    0    0 -0.41024211590E+02  0.19023420959E+02  0.45124973925E+00  0.45222561934E+02  0.00000000000E+00 0. -1.
        -14    1    4    4    0    0 -0.46869358876E+02  0.48287026321E+02 -0.12961008431E+03  0.14603817195E+03  0.00000000000E+00 0.  1.
        -11    1    3    3    0    0 -0.86677761588E+01 -0.22140741675E+02 -0.54701467633E+02  0.59645564351E+02  0.00000000000E+00 0.  1.
         11    1    3    3    0    0  0.11337262689E+03 -0.72172001322E+01 -0.48646713011E+03  0.49955551161E+03  0.00000000000E+00 0. -1.
          2    1    1    2  501    0 -0.16811280269E+02 -0.37952505473E+02 -0.14308581988E+03  0.14898511223E+03  0.00000000000E+00 0. -1.
<scales pt_clust_5="13000.00000" pt_clust_6="13000.00000" pt_clust_7="13000.00000" pt_clust_8="13000.00000" pt_clust_9="41.50920"></scales>
<clustering>
<clus scale="   41.509">  1  9  2 -1</clus>
<clus scale="   87.422">  5  6 -1 -1</clus>
<clus scale="   89.540">  7  8 -1 -1</clus>
<clus scale="  138.795">  1  5  2 -1</clus>
<clus scale="   41.509">  1  5  2 -1</clus>
</clustering>
</event>
<event>
 9    1  0.7719620E-005  0.1346927E+03  0.7546771E-02  0.1223288E+00
         21   -1    0    0  501  502  0.00000000000E+00  0.00000000000E+00  0.62997197126E+03  0.62997197126E+03  0.00000000000E+00 0.  1.
         -2   -1    0    0    0  501 -0.00000000000E+00 -0.00000000000E+00 -0.20780836801E+03  0.20780836801E+03  0.00000000000E+00 0.  1.
         23    2    1    2    0    0  0.80624485228E+02 -0.61114747112E+02 -0.17407008734E+03  0.22163929067E+03  0.92672865121E+02 0.  0.
        -24    2    1    2    0    0 -0.48815034924E+02  0.25693195109E+02  0.29244567411E+03  0.30864521705E+03  0.81819006277E+02 0.  0.
         11    1    4    4    0    0 -0.92319095373E+01  0.50503621380E+02  0.13575390382E+03  0.14513774949E+03  0.00000000000E+00 0. -1.
        -12    1    4    4    0    0 -0.39583125387E+02 -0.24810426270E+02  0.15669177030E+03  0.16350746755E+03  0.00000000000E+00 0.  1.
        -13    1    3    3    0    0  0.34052188425E+02 -0.43049006770E+02 -0.16086268386E+03  0.16996932540E+03  0.00000000000E+00 0.  1.
         13    1    3    3    0    0  0.46572296803E+02 -0.18065740341E+02 -0.13207403477E+02  0.51669965263E+02  0.00000000000E+00 0. -1.
         -1    1    1    2    0  502 -0.31809450304E+02  0.35421552002E+02  0.30378801647E+03  0.30749583156E+03  0.00000000000E+00 0.  1.
<scales pt_clust_5="13000.00000" pt_clust_6="13000.00000" pt_clust_7="13000.00000" pt_clust_8="13000.00000" pt_clust_9="47.60806"></scales>
<clustering>
<clus scale="   47.608">  1  9  2 -1</clus>
<clus scale="   81.819">  5  6 -1 -1</clus>
<clus scale="   92.673">  7  8 -1 -1</clus>
<clus scale="  127.468">  1  5  2 -1</clus>
<clus scale="   47.608">  1  5  2 -1</clus>
</clustering>
</event>
<event>
 9    1  0.7719620E-005  0.9468383E+02  0.7546771E-02  0.1318614E+00
         21   -1    0    0  501  502  0.00000000000E+00  0.00000000000E+00  0.10261304065E+03  0.10261304065E+03  0.00000000000E+00 0.  1.
          1   -1    0    0  502    0 -0.00000000000E+00 -0.00000000000E+00 -0.90621786091E+02  0.90621786091E+02  0.00000000000E+00 0. -1.
        -24    2    1    2    0    0 -0.20820085111E+02 -0.30776925701E+02 -0.17757829885E+02  0.64841581059E+02  0.50083879766E+02 0.  0.
         23    2    1    2    0    0  0.96054795203E+01  0.10817307404E+02  0.37998536409E+00  0.91154855251E+02  0.89998799273E+02 0.  0.
         13    1    3    3    0    0 -0.19105066973E+02 -0.42930330393E+02 -0.21960865660E+02  0.51868067944E+02  0.00000000000E+00 0. -1.
        -14    1    3    3    0    0 -0.17150181381E+01  0.12153404692E+02  0.42030357750E+01  0.12973513116E+02  0.00000000000E+00 0.  1.
        -11    1    4    4    0    0 -0.38835039382E+02  0.10407136117E+02 -0.10397846580E+02  0.41528110713E+02  0.00000000000E+00 0. -1.
         11    1    4    4    0    0  0.48440518902E+02  0.41017128752E+00  0.10777831944E+02  0.49626744537E+02  0.00000000000E+00 0.  1.
          2    1    1    2  501    0  0.11214605591E+02  0.19959618296E+02  0.29369099075E+02  0.37238390427E+02  0.00000000000E+00 0. -1.
<scales pt_clust_5="13000.00000" pt_clust_6="13000.00000" pt_clust_7="13000.00000" pt_clust_8="13000.00000" pt_clust_9="22.89440"></scales>
<clustering>
<clus scale="   22.894">  1  9  2 -1</clus>
<clus scale="   50.084">  5  6 -1 -1</clus>
<clus scale="   58.083">  2  5  1 -1</clus>
<clus scale="   89.999">  7  8 -1 -1</clus>
<clus scale="   22.894">  1  5  2 -1</clus>
</clustering>
</event>
<event>
 9    1  0.7719620E-005  0.1010264E+03  0.7546771E-02  0.1283347E+00
          1   -1    0    0  502    0 -0.00000000000E+00  0.00000000000E+00  0.37607104397E+03  0.37607104397E+03  0.00000000000E+00 0. -1.
         21   -1    0    0  501  502  0.00000000000E+00 -0.00000000000E+00 -0.44306568478E+02  0.44306568478E+02  0.00000000000E+00 0. -1.
        -24    2    1    2    0    0 -0.50551223395E+02  0.23621017431E+02  0.19453933859E+03  0.21763067323E+03  0.80026102115E+02 0.  0.
         23    2    1    2    0    0  0.33697053802E+02  0.13024721444E+02  0.12862956595E+03  0.16150549101E+03  0.90737663549E+02 0.  0.
         13    1    3    3    0    0 -0.19842542495E+02 -0.21924803106E+02  0.12787851581E+03  0.13125295536E+03  0.00000000000E+00 0. -1.
        -14    1    3    3    0    0 -0.30708680900E+02  0.45545820537E+02  0.66660822776E+02  0.86377717869E+02  0.00000000000E+00 0.  1.
        -13    1    4    4    0    0 -0.23475901638E+02 -0.29563310185E+01  0.47458322917E+01  0.24132566688E+02  0.00000000000E+00 0. -1.
         13    1    4    4    0    0  0.57172955440E+02  0.15981052463E+02  0.12388373366E+03  0.13737292432E+03  0.00000000000E+00 0.  1.
          2    1    1    2  501    0  0.16854169593E+02 -0.36645738875E+02  0.85955709522E+01  0.41241448209E+02  0.00000000000E+00 0. -1.
<scales pt_clust_5="13000.00000" pt_clust_6="13000.00000" pt_clust_7="13000.00000" pt_clust_8="13000.00000" pt_clust_9="40.33576"></scales>
<clustering>
<clus scale="   40.336">  2  9  1 -1</clus>
<clus scale="   80.026">  5  6 -1 -1</clus>
<clus scale="   90.738">  7  8 -1 -1</clus>
<clus scale="   91.527">  1  5  2 -1</clus>
<clus scale="   40.336">  2  5  1 -1</clus>
</clustering>
</event>
<event>
 9    1  0.7719620E-005  0.1065494E+03  0.7546771E-02  0.1272685E+00
         21   -1    0    0  501  502  0.00000000000E+00  0.00000000000E+00  0.54335365579E+02  0.54335365579E+02  0.00000000000E+00 0. -1.
          1   -1    0    0  502    0 -0.00000000000E+00 -0.00000000000E+00 -0.39728481530E+03  0.39728481530E+03  0.00000000000E+00 0. -1.
        -24    2    1    2    0    0  0.10332562698E+00 -0.48759808163E+02 -0.20734375536E+03  0.22745245642E+03  0.79785070516E+02 0.  0.
         23    2    1    2    0    0  0.48772202586E+02  0.54913094972E+02 -0.12818356167E+03  0.17435037557E+03  0.92589698308E+02 0.  0.
         11    1    3    3    0    0  0.10740488305E+02 -0.69111263764E+02 -0.16654827900E+03  0.18063790883E+03  0.00000000000E+00 0. -1.
        -12    1    3    3    0    0 -0.10637162678E+02  0.20351455601E+02 -0.40795476355E+02  0.46814547589E+02  0.00000000000E+00 0.  1.
        -13    1    4    4    0    0 -0.13340204675E+02  0.44474667932E+02 -0.88405602163E+02  0.99857436590E+02  0.00000000000E+00 0.  1.
         13    1    4    4    0    0  0.62112407261E+02  0.10438427040E+02 -0.39777959511E+02  0.74492938979E+02  0.00000000000E+00 0. -1.
          2    1    1    2  501    0 -0.48875528213E+02 -0.61532868092E+01 -0.74221326860E+01  0.49817348888E+02  0.00000000000E+00 0. -1.
<scales pt_clust_5="13000.00000" pt_clust_6="13000.00000" pt_clust_7="13000.00000" pt_clust_8="13000.00000" pt_clust_9="49.26135"></scales>
<clustering>
<clus scale="   49.261">  1  9  2 -1</clus>
<clus scale="   79.785">  5  6 -1 -1</clus>
<clus scale="   92.590">  7  8 -1 -1</clus>
<clus scale="   95.633">  2  5  1 -1</clus>
<clus scale="   49.261">  1  5  2 -1</clus>
</clustering>
</event>
<event>
 9    1  0.7719620E-005  0.1270153E+03  0.7546771E-02  0.1234431E+00
          1   -1    0    0  502    0 -0.00000000000E+00  0.00000000000E+00  0.41976828966E+03  0.41976828966E+03  0.00000000000E+00 0. -1.
         21   -1    0    0  501  502  0.00000000000E+00 -0.00000000000E+00 -0.15169222693E+03  0.15169222693E+03  0.00000000000E+00 0.  1.
        -24    2    1    2    0    0 -0.75971768887E+02  0.47407646138E+02  0.35016888771E+03  0.37054962897E+03  0.81667515163E+02 0.  0.
         23    2    1    2    0    0  0.49165909886E+02 -0.77572967640E+02 -0.25804031885E+02  0.13165102244E+03  0.90726466061E+02 0.  0.
         11    1    3    3    0    0 -0.79640316001E+02  0.52488838003E+02  0.35144125548E+03  0.36415465685E+03  0.00000000000E+00 0. -1.
        -12    1    3    3    0    0  0.36685471140E+01 -0.50811918654E+01 -0.12723677774E+01  0.63949721236E+01  0.00000000000E+00 0.  1.
        -11    1    4    4    0    0  0.18766784026E+02 -0.93063383920E+02 -0.17491051813E+02  0.96534566363E+02  0.00000000000E+00 0.  1.
         11    1    4    4    0    0  0.30399125860E+02  0.15490416280E+02 -0.83129800719E+01  0.35116456075E+02  0.00000000000E+00 0. -1.
          2    1    1    2  501    0  0.26805859001E+02  0.30165321502E+02 -0.56288793092E+02  0.69259865188E+02  0.00000000000E+00 0. -1.
<scales pt_clust_5="13000.00000" pt_clust_6="13000.00000" pt_clust_7="13000.00000" pt_clust_8="13000.00000" pt_clust_9="40.35469"></scales>
<clustering>
<clus scale="   40.355">  2  9  1 -1</clus>
<clus scale="   81.668">  5  6 -1 -1</clus>
<clus scale="   90.726">  7  8 -1 -1</clus>
<clus scale="  120.711">  1  5  2 -1</clus>
<clus scale="   40.355">  2  5  1 -1</clus>
</clustering>
</event>
<event>
 9    1  0.7719620E-005  0.9527674E+02  0.7546771E-02  0.1296598E+00
          3   -1    0    0  502    0 -0.00000000000E+00  0.00000000000E+00  0.18018946659E+03  0.18018946659E+03  0.00000000000E+00 0. -1.
         21   -1    0    0  501  502  0.00000000000E+00 -0.00000000000E+00 -0.10464344466E+03  0.10464344466E+03  0.00000000000E+00 0. -1.
         23    2    1    2    0    0  0.15314688655E+02  0.15447797862E+02  0.53800811355E+02  0.10746976931E+03  0.90454684046E+02 0.  0.
        -24    2    1    2    0    0 -0.25431464071E+02 -0.47126358397E+02 -0.42512225258E+02  0.10501054419E+03  0.79701142234E+02 0.  0.
         13    1    4    4    0    0  0.49630730273E+00 -0.61699131121E+02 -0.43097402839E+02  0.75262309515E+02  0.00000000000E+00 0. -1.
        -14    1    4    4    0    0 -0.25927771373E+02  0.14572772724E+02  0.58517758184E+00  0.29748234671E+02  0.00000000000E+00 0.  1.
        -13    1    3    3    0    0 -0.22509590183E+02  0.56620624950E+01 -0.15502879644E+02  0.27912002422E+02  0.00000000000E+00 0.  1.
         13    1    3    3    0    0  0.37824278839E+02  0.97857353671E+01  0.69303690999E+02  0.79557766890E+02  0.00000000000E+00 0. -1.
          4    1    1    2  501    0  0.10116775415E+02  0.31678560535E+02  0.64257435834E+02  0.72352597758E+02  0.00000000000E+00 0. -1.
<scales pt_clust_5="13000.00000" pt_clust_6="13000.00000" pt_clust_7="13000.00000" pt_clust_8="13000.00000" pt_clust_9="33.25480"></scales>
<clustering>
<clus scale="   33.255">  2  9  1 -1</clus>
<clus scale="   79.701">  5  6 -1 -1</clus>
<clus scale="   85.134">  2  5  1 -1</clus>
<clus scale="   90.455">  7  8 -1 -1</clus>
<clus scale="   33.255">  2  5  1 -1</clus>
</clustering>
</event>
<event>
 9    1  0.7719620E-005  0.9583680E+02  0.7546771E-02  0.1296012E+00
          1   -1    0    0  502    0 -0.00000000000E+00  0.00000000000E+00  0.59826189589E+02  0.59826189589E+02  0.00000000000E+00 0. -1.
         21   -1    0    0  501  502  0.00000000000E+00 -0.00000000000E+00 -0.29213988003E+03  0.29213988003E+03  0.00000000000E+00 0. -1.
         23    2    1    2    0    0 -0.17883547088E+02 -0.30291794593E+02 -0.15530192091E+02  0.98700571901E+02  0.90902155921E+02 0.  0.
        -24    2    1    2    0    0  0.34744504977E+02 -0.81765437264E+01 -0.16701523110E+03  0.18814264935E+03  0.78927388100E+02 0.  0.
         11    1    4    4    0    0  0.50316311972E+02 -0.46269821029E+01 -0.16436076211E+03  0.17195231994E+03  0.00000000000E+00 0. -1.
        -12    1    4    4    0    0 -0.15571806995E+02 -0.35495616236E+01 -0.26544689975E+01  0.16190329411E+02  0.00000000000E+00 0.  1.
        -11    1    3    3    0    0 -0.93827580620E+01  0.32162375235E+02  0.10736464028E+01  0.33520251285E+02  0.00000000000E+00 0.  1.
         11    1    3    3    0    0 -0.85007890261E+01 -0.62454169828E+02 -0.16603838494E+02  0.65180320617E+02  0.00000000000E+00 0. -1.
          2    1    1    2  501    0 -0.16860957889E+02  0.38468338320E+02 -0.49768267245E+02  0.65122848360E+02  0.00000000000E+00 0. -1.
<scales pt_clust_5="13000.00000" pt_clust_6="13000.00000" pt_clust_7="13000.00000" pt_clust_8="13000.00000" pt_clust_9="42.00125"></scales>
<clustering>
<clus scale="   42.001">  2  9  1 -1</clus>
<clus scale="   78.927">  5  6 -1 -1</clus>
<clus scale="   84.564">  2  5  1 -1</clus>
<clus scale="   90.902">  7  8 -1 -1</clus>
<clus scale="   42.001">  2  5  1 -1</clus>
</clustering>
</event>
<event>
 9    1  0.7719620E-005  0.1225002E+03  0.7546771E-02  0.1261266E+00
         21   -1    0    0  501  502  0.00000000000E+00  0.00000000000E+00  0.14779054619E+03  0.14779054619E+03  0.00000000000E+00 0. -1.
          1   -1    0    0  502    0 -0.00000000000E+00 -0.00000000000E+00 -0.14374030060E+03  0.14374030060E+03  0.00000000000E+00 0. -1.
        -24    2    1    2    0    0 -0.20608318428E+02  0.31084866271E+02 -0.27686752559E+02  0.83300235801E+02  0.69147677601E+02 0.  0.
         23    2    1    2    0    0 -0.33943166766E+02  0.45074277134E+02 -0.15917532428E+01  0.10879779282E+03  0.93008585707E+02 0.  0.
         13    1    3    3    0    0 -0.29545273676E+02  0.49647826078E+02 -0.22916085784E+02  0.62152850446E+02  0.00000000000E+00 0. -1.
        -14    1    3    3    0    0  0.89369552479E+01 -0.18562959807E+02 -0.47706667745E+01  0.21147385355E+02  0.00000000000E+00 0.  1.
        -11    1    4    4    0    0 -0.51371530833E+02 -0.61013862336E+01  0.11887386042E+02  0.53080797290E+02  0.00000000000E+00 0. -1.
         11    1    4    4    0    0  0.17428364066E+02  0.51175663368E+02 -0.13479139285E+02  0.55716995531E+02  0.00000000000E+00 0.  1.
          2    1    1    2  501    0  0.54551485194E+02 -0.76159143406E+02  0.33328751391E+02  0.99432818177E+02  0.00000000000E+00 0. -1.
<scales pt_clust_5="13000.00000" pt_clust_6="13000.00000" pt_clust_7="13000.00000" pt_clust_8="13000.00000" pt_clust_9="79.72267"></scales>
<clustering>
<clus scale="   69.148">  5  6 -1 -1</clus>
<clus scale="   78.564">  2  5  1 -1</clus>
<clus scale="   79.723">  1  9  2 -1</clus>
<clus scale="   93.009">  7  8 -1 -1</clus>
<clus scale="   79.723">  1  5  2 -1</clus>
</clustering>
</event>
<event>
 9    1  0.7719620E-005  0.9436117E+02  0.7546771E-02  0.1298657E+00
         21   -1    0    0  501  502  0.00000000000E+00  0.00000000000E+00  0.75644602055E+02  0.75644602055E+02  0.00000000000E+00 0. -1.
          1   -1    0    0  502    0 -0.00000000000E+00 -0.00000000000E+00 -0.38826234180E+03  0.38826234180E+03  0.00000000000E+00 0. -1.
         23    2    1    2    0    0  0.82416749411E+01  0.12479019760E+02 -0.29855115425E+03  0.31300500426E+03  0.92820740392E+02 0.  0.
        -24    2    1    2    0    0  0.32897173888E+02 -0.43153754134E+02 -0.11466583303E+02  0.99519995063E+02  0.82633385136E+02 0.  0.
         11    1    4    4    0    0  0.55122262100E+02 -0.34035964702E+02  0.12059121132E+02  0.65896381347E+02  0.00000000000E+00 0. -1.
        -12    1    4    4    0    0 -0.22225088212E+02 -0.91177894319E+01 -0.23525704434E+02  0.33623613715E+02  0.00000000000E+00 0.  1.
        -13    1    3    3    0    0 -0.33835080295E+01  0.48048448761E+02 -0.10046352819E+03  0.11141374265E+03  0.00000000000E+00 0.  1.
         13    1    3    3    0    0  0.11625182971E+02 -0.35569429001E+02 -0.19808762607E+03  0.20159126162E+03  0.00000000000E+00 0. -1.
          2    1    1    2  501    0 -0.41138848829E+02  0.30674734374E+02 -0.26000021834E+01  0.51381944526E+02  0.00000000000E+00 0. -1.
<scales pt_clust_5="13000.00000" pt_clust_6="13000.00000" pt_clust_7="13000.00000" pt_clust_8="13000.00000" pt_clust_9="51.31612"></scales>
<clustering>
<clus scale="   51.316">  1  9  2 -1</clus>
<clus scale="   82.633">  5  6 -1 -1</clus>
<clus scale="   84.360">  1  5  2 -1</clus>
<clus scale="   92.821">  7  8 -1 -1</clus>
<clus scale="   51.316">  1  5  2 -1</clus>
</clustering>
</event>
<event>
 9    1  0.7719620E-005  0.3818498E+03  0.7546771E-02  0.1050468E+00
         -2   -1    0    0    0  501 -0.00000000000E+00  0.00000000000E+00  0.63870125820E+03  0.63870125820E+03  0.00000000000E+00 0.  1.
         21   -1    0    0  501  502  0.00000000000E+00 -0.00000000000E+00 -0.28535128040E+03  0.28535128040E+03  0.00000000000E+00 0. -1.
         23    2    1    2    0    0  0.28536660610E+03 -0.21939054003E+03  0.21713862930E+03  0.42971627015E+03  0.89109929694E+02 0.  0.
        -24    2    1    2    0    0 -0.30868787210E+03  0.22923914435E+03  0.18917029312E+03  0.43563766309E+03  0.78460091904E+02 0.  0.
         13    1    4    4    0    0 -0.18663904518E+03  0.12161180553E+03  0.68517765384E+02  0.23306275679E+03  0.00000000000E+00 0. -1.
        -14    1    4    4    0    0 -0.12204882692E+03  0.10762733882E+03  0.12065252774E+03  0.20257490630E+03  0.00000000000E+00 0.  1.
        -13    1    3    3    0    0  0.69889249918E+02 -0.48130217008E+02  0.98438082270E+02  0.12996569195E+03  0.00000000000E+00 0. -1.
         13    1    3    3    0    0  0.21547735618E+03 -0.17126032302E+03  0.11870054703E+03  0.29975057820E+03  0.00000000000E+00 0.  1.
         -1    1    1    2    0  502  0.23321266005E+02 -0.98486043207E+01 -0.52958944620E+02  0.58698605353E+02  0.00000000000E+00 0.  1.
<scales pt_clust_5="13000.00000" pt_clust_6="13000.00000" pt_clust_7="13000.00000" pt_clust_8="13000.00000" pt_clust_9="25.31554"></scales>
<clustering>
<clus scale="   25.316">  2  9  1 -1</clus>
<clus scale="   78.460">  5  6 -1 -1</clus>
<clus scale="   89.110">  7  8 -1 -1</clus>
<clus scale="  379.506">  2  5  1 -1</clus>
<clus scale="   25.316">  2  5  1 -1</clus>
</clustering>
</event>
<event>
 9    1  0.7719620E-005  0.1059428E+03  0.7546771E-02  0.1273657E+00
         21   -1    0    0  501  502  0.00000000000E+00  0.00000000000E+00  0.64639477258E+02  0.64639477258E+02  0.00000000000E+00 0.  1.
          1   -1    0    0  502    0 -0.00000000000E+00 -0.00000000000E+00 -0.38602835339E+03  0.38602835339E+03  0.00000000000E+00 0. -1.
         23    2    1    2    0    0  0.26207019371E+02  0.45348003346E+02 -0.19242936955E+03  0.21923561462E+03  0.91060107513E+02 0.  0.
        -24    2    1    2    0    0  0.37273166033E+02 -0.68209515053E+02 -0.12031657717E+03  0.16340955153E+03  0.78643346441E+02 0.  0.
         11    1    4    4    0    0 -0.14334596761E+02 -0.23086959152E+02 -0.78592365344E+02  0.83157971582E+02  0.00000000000E+00 0. -1.
        -12    1    4    4    0    0  0.51607762794E+02 -0.45122555902E+02 -0.41724211822E+02  0.80251579946E+02  0.00000000000E+00 0.  1.
        -11    1    3    3    0    0 -0.11171258512E+02  0.59106494683E+02 -0.14692475067E+03  0.15876163607E+03  0.00000000000E+00 0.  1.
         11    1    3    3    0    0  0.37378277883E+02 -0.13758491337E+02 -0.45504618884E+02  0.60473978545E+02  0.00000000000E+00 0. -1.
          2    1    1    2  501    0 -0.63480185403E+02  0.22861511708E+02 -0.86429294115E+01  0.68022664496E+02  0.00000000000E+00 0. -1.
<scales pt_clust_5="13000.00000" pt_clust_6="13000.00000" pt_clust_7="13000.00000" pt_clust_8="13000.00000" pt_clust_9="67.47135"></scales>
<clustering>
<clus scale="   67.471">  1  9  2 -1</clus>
<clus scale="   78.643">  5  6 -1 -1</clus>
<clus scale="   91.060">  7  8 -1 -1</clus>
<clus scale="   95.481">  1  5  2 -1</clus>
<clus scale="   67.471">  1  5  2 -1</clus>
</clustering>
</event>
<event>
 9    1  0.7719620E-005  0.9492147E+02  0.7546771E-02  0.1296400E+00
         -2   -1    0    0    0  501 -0.00000000000E+00  0.00000000000E+00  0.74694080676E+02  0.74694080676E+02  0.00000000000E+00 0.  1.
         21   -1    0    0  501  502  0.00000000000E+00 -0.00000000000E+00 -0.40455838049E+03  0.40455838049E+03  0.00000000000E+00 0.  1.
         23    2    1    2    0    0  0.35354142689E+02 -0.39890345228E+01  0.18115313460E+02  0.99797377204E+02  0.91463239137E+02 0.  0.
        -24    2    1    2    0    0  0.16501775861E+02 -0.24078699573E+02 -0.15958364636E+03  0.18204719573E+03  0.82596300819E+02 0.  0.
         13    1    4    4    0    0  0.25530660386E+01  0.24370089172E+02 -0.14543838564E+02  0.28494607080E+02  0.00000000000E+00 0. -1.
        -14    1    4    4    0    0  0.13948709822E+02 -0.48448788745E+02 -0.14503980779E+03  0.15355258865E+03  0.00000000000E+00 0.  1.
        -11    1    3    3    0    0  0.41783946727E+02 -0.41784261904E+02  0.51052045145E+01  0.59311768310E+02  0.00000000000E+00 0.  1.
         11    1    3    3    0    0 -0.64298040379E+01  0.37795227381E+02  0.13010108945E+02  0.40485608894E+02  0.00000000000E+00 0. -1.
         -1    1    1    2    0  502 -0.51855918550E+02  0.28067734096E+02 -0.18839596691E+03  0.19740788823E+03  0.00000000000E+00 0.  1.
<scales pt_clust_5="13000.00000" pt_clust_6="13000.00000" pt_clust_7="13000.00000" pt_clust_8="13000.00000" pt_clust_9="58.96468"></scales>
<clustering>
<clus scale="   58.965">  2  9  1 -1</clus>
<clus scale="   82.596">  5  6 -1 -1</clus>
<clus scale="   86.410">  2  5  1 -1</clus>
<clus scale="   91.463">  7  8 -1 -1</clus>
<clus scale="   58.965">  2  5  1 -1</clus>
</clustering>
</event>
<event>
 9    1  0.7719620E-005  0.1477288E+03  0.7546771E-02  0.1205159E+00
         -4   -1    0    0    0  501 -0.00000000000E+00  0.00000000000E+00  0.87815856375E+03  0.87815856375E+03  0.00000000000E+00 0.  1.
         21   -1    0    0  501  502  0.00000000000E+00 -0.00000000000E+00 -0.95844751668E+02  0.95844751668E+02  0.00000000000E+00 0.  1.
         23    2    1    2    0    0  0.10284590981E+03  0.61224278493E+02  0.69403765012E+03  0.71008744501E+03  0.90610299317E+02 0.  0.
        -24    2    1    2    0    0 -0.60371708488E+02 -0.64286499947E+02 -0.42090398233E+02  0.12677041844E+03  0.80756672210E+02 0.  0.
         11    1    4    4    0    0 -0.50543398534E+02 -0.14685867261E+02 -0.53375221488E+02  0.74961484120E+02  0.00000000000E+00 0. -1.
        -12    1    4    4    0    0 -0.98283099542E+01 -0.49600632685E+02  0.11284823255E+02  0.51808934319E+02  0.00000000000E+00 0.  1.
        -11    1    3    3    0    0  0.80577403053E+02  0.77116901101E+02  0.63860105517E+03  0.64826772400E+03  0.00000000000E+00 0.  1.
         11    1    3    3    0    0  0.22268506754E+02 -0.15892622608E+02  0.55436594948E+02  0.61819721010E+02  0.00000000000E+00 0. -1.
         -3    1    1    2    0  502 -0.42474201319E+02  0.30622214538E+01  0.13036656019E+03  0.13714545196E+03  0.00000000000E+00 0.  1.
<scales pt_clust_5="13000.00000" pt_clust_6="13000.00000" pt_clust_7="13000.00000" pt_clust_8="13000.00000" pt_clust_9="42.58447"></scales>
<clustering>
<clus scale="   42.584">  2  9  1 -1</clus>
<clus scale="   80.757">  5  6 -1 -1</clus>
<clus scale="   90.610">  7  8 -1 -1</clus>
<clus scale="  141.899">  2  5  1 -1</clus>
<clus scale="   42.584">  2  5  1 -1</clus>
</clustering>
</event>
<event>
 9    1  0.7719620E-005  0.1056332E+03  0.7546771E-02  0.1273167E+00
         21   -1    0    0  501  502  0.00000000000E+00  0.00000000000E+00  0.51335808537E+03  0.51335808537E+03  0.00000000000E+00 0.  1.
         -2   -1    0    0    0  501 -0.00000000000E+00 -0.00000000000E+00 -0.65622638162E+02  0.65622638162E+02  0.00000000000E+00 0.  1.
         23    2    1    2    0    0  0.52996929653E+02  0.24731434252E+02 -0.21200160699E+01  0.10746025002E+03  0.90127090669E+02 0.  0.
        -24    2    1    2    0    0 -0.21845829124E+02 -0.43897688740E+02  0.22674574643E+03  0.24543269825E+03  0.80120712161E+02 0.  0.
         13    1    4    4    0    0 -0.28614198203E+02 -0.45923481626E+02  0.23095509242E+03  0.23720875452E+03  0.00000000000E+00 0. -1.
        -14    1    4    4    0    0  0.67683690789E+01  0.20257928865E+01 -0.42093459909E+01  0.82239437303E+01  0.00000000000E+00 0.  1.
        -13    1    3    3    0    0  0.33726241438E+02 -0.60467060914E+01 -0.41550511553E+02  0.53855984128E+02  0.00000000000E+00 0.  1.
         13    1    3    3    0    0  0.19270688215E+02  0.30778140344E+02  0.39430495483E+02  0.53604265887E+02  0.00000000000E+00 0. -1.
         -1    1    1    2    0  502 -0.31151100530E+02  0.19166254488E+02  0.22310971684E+03  0.22608777527E+03  0.00000000000E+00 0.  1.
<scales pt_clust_5="13000.00000" pt_clust_6="13000.00000" pt_clust_7="13000.00000" pt_clust_8="13000.00000" pt_clust_9="36.57508"></scales>
<clustering>
<clus scale="   36.575">  1  9  2 -1</clus>
<clus scale="   80.121">  5  6 -1 -1</clus>
<clus scale="   90.127">  7  8 -1 -1</clus>
<clus scale="   97.236">  1  5  2 -1</clus>
<clus scale="   36.575">  1  5  2 -1</clus>
</clustering>
</event>
<event>
 9    1  0.7719620E-005  0.1120157E+03  0.7546771E-02  0.1260983E+00
         -2   -1    0    0    0  501 -0.00000000000E+00  0.00000000000E+00  0.56551166775E+03  0.56551166775E+03  0.00000000000E+00 0.  1.
         21   -1    0    0  501  502  0.00000000000E+00 -0.00000000000E+00 -0.46888469589E+02  0.46888469589E+02  0.00000000000E+00 0.  1.
        -24    2    1    2    0    0  0.35655001004E+02 -0.62595426829E+02  0.36711071255E+03  0.38269160805E+03  0.80579929537E+02 0.  0.
         23    2    1    2    0    0  0.22963503128E+02  0.51577141995E+02  0.68358616671E+02  0.12737526223E+03  0.91455086810E+02 0.  0.
         11    1    3    3    0    0  0.95854579806E+01  0.18228438104E+02  0.43592553473E+02  0.48212733574E+02  0.00000000000E+00 0. -1.
        -12    1    3    3    0    0  0.26069543023E+02 -0.80823864933E+02  0.32351815908E+03  0.33447887447E+03  0.00000000000E+00 0.  1.
        -11    1    4    4    0    0  0.48765230094E+02  0.36338040593E+02  0.98069181764E+01  0.61600945645E+02  0.00000000000E+00 0.  1.
         11    1    4    4    0    0 -0.25801726966E+02  0.15239101402E+02  0.58551698494E+02  0.65774316587E+02  0.00000000000E+00 0. -1.
         -1    1    1    2    0  502 -0.58618504132E+02  0.11018284833E+02  0.83153868937E+02  0.10233326706E+03  0.00000000000E+00 0.  1.
<scales pt_clust_5="13000.00000" pt_clust_6="13000.00000" pt_clust_7="13000.00000" pt_clust_8="13000.00000" pt_clust_9="59.64505"></scales>
<clustering>
<clus scale="   59.645">  2  9  1 -1</clus>
<clus scale="   80.580">  5  6 -1 -1</clus>
<clus scale="   91.455">  7  8 -1 -1</clus>
<clus scale="  103.328">  1  5  2 -1</clus>
<clus scale="   59.645">  2  5  1 -1</clus>
</clustering>
</event>
<event>
 9    1  0.7719620E-005  0.1754024E+03  0.7546771E-02  0.1189741E+00
         21   -1    0    0  501  502  0.00000000000E+00  0.00000000000E+00  0.21497245359E+03  0.21497245359E+03  0.00000000000E+00 0. -1.
          1   -1    0    0  502    0 -0.00000000000E+00 -0.00000000000E+00 -0.38866516351E+03  0.38866516351E+03  0.00000000000E+00 0. -1.
         23    2    1    2    0    0 -0.72452107864E+02  0.15702506863E+02 -0.31599155090E+02  0.12280517841E+03  0.92664602655E+02 0.  0.
        -24    2    1    2    0    0  0.82998293454E+02 -0.16797265526E+03 -0.22787246284E+03  0.30574548548E+03  0.80317575551E+02 0.  0.
         13    1    4    4    0    0  0.70153854824E+02 -0.14504210017E+03 -0.22833805429E+03  0.27945847850E+03  0.00000000000E+00 0. -1.
        -14    1    4    4    0    0  0.12844438630E+02 -0.22930555097E+02  0.46559145648E+00  0.26287006984E+02  0.00000000000E+00 0.  1.
        -13    1    3    3    0    0 -0.19217908391E+01 -0.28220080785E+02  0.98504515476E+01  0.29951588192E+02  0.00000000000E+00 0.  1.
         13    1    3    3    0    0 -0.70530317025E+02  0.43922587647E+02 -0.41449606637E+02  0.92853590214E+02  0.00000000000E+00 0. -1.
          2    1    1    2  501    0 -0.10546185590E+02  0.15227014840E+03  0.85778908015E+02  0.17508695321E+03  0.00000000000E+00 0. -1.
<scales pt_clust_5="13000.00000" pt_clust_6="13000.00000" pt_clust_7="13000.00000" pt_clust_8="13000.00000" pt_clust_9="155.93292"></scales>
<clustering>
<clus scale="   80.318">  5  6 -1 -1</clus>
<clus scale="   92.665">  7  8 -1 -1</clus>
<clus scale="  118.670">  2  7  1 -1</clus>
<clus scale="  155.933">  1  9  2 -1</clus>
<clus scale="  155.933">  1  5  2 -1</clus>
</clustering>
</event>
<event>
 9    1  0.7719620E-005  0.1072126E+03  0.7546771E-02  0.1270608E+00
         21   -1    0    0  501  502  0.00000000000E+00  0.00000000000E+00  0.65803279715E+02  0.65803279715E+02  0.00000000000E+00 0.  1.
          1   -1    0    0  502    0 -0.00000000000E+00 -0.00000000000E+00 -0.25986087983E+03  0.25986087983E+03  0.00000000000E+00 0. -1.
         23    2    1    2    0    0 -0.93615928647E+01 -0.62127213663E+02 -0.16387026842E+03  0.19809109953E+03  0.91865057258E+02 0.  0.
        -24    2    1    2    0    0  0.22927736331E+02  0.33834585653E+02 -0.11546796687E+02  0.91076723296E+02  0.80567864146E+02 0.  0.
         13    1    4    4    0    0  0.49055466006E+02  0.66536333981E+01 -0.18291618558E+02  0.52775874147E+02  0.00000000000E+00 0. -1.
        -14    1    4    4    0    0 -0.26127729675E+02  0.27180952255E+02  0.67448218709E+01  0.38300849149E+02  0.00000000000E+00 0.  1.
        -13    1    3    3    0    0 -0.38415580996E+02 -0.48995025923E+02 -0.50030578099E+02  0.79870696587E+02  0.00000000000E+00 0. -1.
         13    1    3    3    0    0  0.29053988131E+02 -0.13132187740E+02 -0.11383969032E+03  0.11822040295E+03  0.00000000000E+00 0.  1.
          2    1    1    2  501    0 -0.13566143467E+02  0.28292628009E+02 -0.18640535013E+02  0.36496336717E+02  0.00000000000E+00 0. -1.
<scales pt_clust_5="13000.00000" pt_clust_6="13000.00000" pt_clust_7="13000.00000" pt_clust_8="13000.00000" pt_clust_9="31.37695"></scales>
<clustering>
<clus scale="   31.377">  1  9  2 -1</clus>
<clus scale="   80.568">  5  6 -1 -1</clus>
<clus scale="   91.865">  7  8 -1 -1</clus>
<clus scale="   97.706">  1  5  2 -1</clus>
<clus scale="   31.377">  1  5  2 -1</clus>
</clustering>
</event>
<event>
 9    1  0.7719620E-005  0.1026130E+03  0.7546771E-02  0.1280972E+00
         21   -1    0    0  501  502  0.00000000000E+00  0.00000000000E+00  0.22136773710E+03  0.22136773710E+03  0.00000000000E+00 0.  1.
         -2   -1    0    0    0  501 -0.00000000000E+00 -0.00000000000E+00 -0.27333184996E+03  0.27333184996E+03  0.00000000000E+00 0.  1.
        -24    2    1    2    0    0  0.27156829674E+02  0.39474270034E+02 -0.19323897360E+03  0.21391489924E+03  0.78246864531E+02 0.  0.
         23    2    1    2    0    0 -0.51036690536E+02 -0.15795562971E+02 -0.27128351138E+02  0.10905649940E+03  0.91121506990E+02 0.  0.
         11    1    3    3    0    0  0.18329628762E+02  0.62605995310E+02 -0.15712752955E+03  0.17013096861E+03  0.00000000000E+00 0. -1.
        -12    1    3    3    0    0  0.88272009124E+01 -0.23131725276E+02 -0.36111444051E+02  0.43783930632E+02  0.00000000000E+00 0.  1.
        -13    1    4    4    0    0  0.58028080092E+01 -0.40595940038E+02  0.86269155540E+00  0.41017644558E+02  0.00000000000E+00 0.  1.
         13    1    4    4    0    0 -0.56839498546E+02  0.24800377067E+02 -0.27991042693E+02  0.68038854845E+02  0.00000000000E+00 0. -1.
         -1    1    1    2    0  502  0.23879860862E+02 -0.23678707063E+02  0.16840321188E+03  0.17172818840E+03  0.00000000000E+00 0.  1.
<scales pt_clust_5="13000.00000" pt_clust_6="13000.00000" pt_clust_7="13000.00000" pt_clust_8="13000.00000" pt_clust_9="33.62929"></scales>
<clustering>
<clus scale="   33.629">  1  9  2 -1</clus>
<clus scale="   78.247">  5  6 -1 -1</clus>
<clus scale="   91.122">  7  8 -1 -1</clus>
<clus scale="   91.372">  2  5  1 -1</clus>
<clus scale="   33.629">  1  5  2 -1</clus>
</clustering>
</event>
<event>
 9    1  0.7719620E-005  0.1182921E+03  0.7546771E-02  0.1250428E+00
          1   -1    0    0  502    0 -0.00000000000E+00  0.00000000000E+00  0.57475539129E+03  0.57475539129E+03  0.00000000000E+00 0. -1.
         21   -1    0    0  501  502  0.00000000000E+00 -0.00000000000E+00 -0.40245928131E+02  0.40245928131E+02  0.00000000000E+00 0.  1.
         23    2    1    2    0    0 -0.49566254844E+02 -0.74794840574E+02  0.39235910775E+03  0.41296268659E+03  0.92419853305E+02 0.  0.
        -24    2    1    2    0    0  0.15950473686E+02  0.36676268243E+02  0.65750119071E+02  0.11027784376E+03  0.78984545339E+02 0.  0.
         11    1    4    4    0    0  0.20039221063E+02 -0.99376813305E+01  0.58877084479E+02  0.62982846616E+02  0.00000000000E+00 0. -1.
        -12    1    4    4    0    0 -0.40887473769E+01  0.46613949573E+02  0.68730345921E+01  0.47294997140E+02  0.00000000000E+00 0.  1.
        -11    1    3    3    0    0 -0.25095647667E+02 -0.74603754178E+02  0.37446200842E+03  0.38264514556E+03  0.00000000000E+00 0. -1.
         11    1    3    3    0    0 -0.24470607177E+02 -0.19108639672E+00  0.17897099324E+02  0.30317541026E+02  0.00000000000E+00 0.  1.
          2    1    1    2  501    0  0.33615781158E+02  0.38118572332E+02  0.76400236339E+02  0.91760789078E+02  0.00000000000E+00 0. -1.
<scales pt_clust_5="13000.00000" pt_clust_6="13000.00000" pt_clust_7="13000.00000" pt_clust_8="13000.00000" pt_clust_9="50.82368"></scales>
<clustering>
<clus scale="   50.824">  2  9  1 -1</clus>
<clus scale="   78.985">  5  6 -1 -1</clus>
<clus scale="   92.420">  7  8 -1 -1</clus>
<clus scale="  108.121">  2  5  1 -1</clus>
<clus scale="   50.824">  2  5  1 -1</clus>
</clustering>
</event>
<event>
 9    1  0.7719620E-005  0.1002452E+03  0.7546771E-02  0.1284684E+00
         21   -1    0    0  501  502  0.00000000000E+00  0.00000000000E+00  0.70996158701E+02  0.70996158701E+02  0.00000000000E+00 0.  1.
          1   -1    0    0  502    0 -0.00000000000E+00 -0.00000000000E+00 -0.46491463687E+03  0.46491463687E+03  0.00000000000E+00 0. -1.
        -24    2    1    2    0    0  0.19928055955E+02  0.36437863011E+02 -0.37376900052E+03  0.38451535363E+03  0.80149523759E+02 0.  0.
         23    2    1    2    0    0 -0.40815966816E+02 -0.44852065517E+02 -0.45223039225E+02  0.11769400111E+03  0.90161542198E+02 0.  0.
         13    1    3    3    0    0 -0.22584527148E+02  0.40547831665E+02 -0.16393178848E+03  0.17037552287E+03  0.00000000000E+00 0. -1.
        -14    1    3    3    0    0  0.42512583103E+02 -0.41099686543E+01 -0.20983721203E+03  0.21413983076E+03  0.00000000000E+00 0.  1.
        -13    1    4    4    0    0 -0.68080552585E+02 -0.35729147279E+02 -0.44705743655E+02  0.88938951654E+02  0.00000000000E+00 0.  1.
         13    1    4    4    0    0  0.27264585769E+02 -0.91229182374E+01 -0.51729557015E+00  0.28755049453E+02  0.00000000000E+00 0. -1.
          2    1    1    2  501    0  0.20887910861E+02  0.84142025062E+01  0.25073561573E+02  0.33701440828E+02  0.00000000000E+00 0. -1.
<scales pt_clust_5="13000.00000" pt_clust_6="13000.00000" pt_clust_7="13000.00000" pt_clust_8="13000.00000" pt_clust_9="22.51896"></scales>
<clustering>
<clus scale="   22.519">  1  9  2 -1</clus>
<clus scale="   80.150">  5  6 -1 -1</clus>
<clus scale="   90.162">  7  8 -1 -1</clus>
<clus scale="   91.345">  2  5  1 -1</clus>
<clus scale="   22.519">  1  5  2 -1</clus>
</clustering>
</event>
<event>
 9    1  0.7719620E-005  0.1072995E+03  0.7546771E-02  0.1269900E+00
         21   -1    0    0  501  502  0.00000000000E+00  0.00000000000E+00  0.28596272752E+03  0.28596272752E+03  0.00000000000E+00 0. -1.
          3   -1    0    0  502    0 -0.00000000000E+00 -0.00000000000E+00 -0.21849199134E+03  0.21849199134E+03  0.00000000000E+00 0. -1.
         23    2    1    2    0    0  0.13906184742E+02  0.70142209692E+02 -0.15614220413E+03  0.19444614790E+03  0.91189938951E+02 0.  0.
        -24    2    1    2    0    0 -0.47953605990E+02  0.93389868864E+01  0.32160592370E+02  0.99935990558E+02  0.81031682098E+02 0.  0.
         11    1    4    4    0    0 -0.52117127691E+02 -0.14569907470E+02  0.46841441433E+02  0.71572325923E+02  0.00000000000E+00 0. -1.
        -12    1    4    4    0    0  0.41635217012E+01  0.23908894357E+02 -0.14680849063E+02  0.28363664635E+02  0.00000000000E+00 0.  1.
        -13    1    3    3    0    0 -0.37809276140E+02  0.22525537338E+02 -0.45046761632E+02  0.62977392199E+02  0.00000000000E+00 0.  1.
         13    1    3    3    0    0  0.51715460883E+02  0.47616672354E+02 -0.11109544250E+03  0.13146875570E+03  0.00000000000E+00 0. -1.
          4    1    1    2  501    0  0.34047421248E+02 -0.79481196579E+02  0.19145234794E+03  0.21007258040E+03  0.00000000000E+00 0. -1.
<scales pt_clust_5="13000.00000" pt_clust_6="13000.00000" pt_clust_7="13000.00000" pt_clust_8="13000.00000" pt_clust_9="86.46668"></scales>
<clustering>
<clus scale="   81.032">  5  6 -1 -1</clus>
<clus scale="   86.467">  1  9  2 -1</clus>
<clus scale="   91.190">  7  8 -1 -1</clus>
<clus scale="   98.811">  1  5  2 -1</clus>
<clus scale="   86.467">  1  5  2 -1</clus>
</clustering>
</event>
<event>
 9    1  0.7719620E-005  0.1049875E+03  0.7546771E-02  0.1273885E+00
          1   -1    0    0  502    0 -0.00000000000E+00  0.00000000000E+00  0.10270476423E+03  0.10270476423E+03  0.00000000000E+00 0. -1.
         21   -1    0    0  501  502  0.00000000000E+00 -0.00000000000E+00 -0.28566769047E+03  0.28566769047E+03  0.00000000000E+00 0. -1.
         23    2    1    2    0    0  0.58250836322E+02  0.31188300277E+02 -0.18879303526E+02  0.11376921255E+03  0.90670478201E+02 0.  0.
        -24    2    1    2    0    0  0.47197619590E+02 -0.58153589489E+02 -0.74813706414E+02  0.13383527123E+03  0.81886103176E+02 0.  0.
         11    1    4    4    0    0  0.50073447735E+02 -0.39647829985E+02 -0.89558092485E+02  0.10999978418E+03  0.00000000000E+00 0. -1.
        -12    1    4    4    0    0 -0.28758281457E+01 -0.18505759504E+02  0.14744386071E+02  0.23835487051E+02  0.00000000000E+00 0.  1.
        -11    1    3    3    0    0 -0.24485361229E+02  0.67035521596E+01  0.26468083208E+00  0.25387803804E+02  0.00000000000E+00 0.  1.
         11    1    3    3    0    0  0.82736197551E+02  0.24484748118E+02 -0.19143984358E+02  0.88381408750E+02  0.00000000000E+00 0. -1.
          2    1    1    2  501    0 -0.10544845591E+03  0.26965289212E+02 -0.89269916303E+02  0.14076797091E+03  0.00000000000E+00 0. -1.
<scales pt_clust_5="13000.00000" pt_clust_6="13000.00000" pt_clust_7="13000.00000" pt_clust_8="13000.00000" pt_clust_9="108.84164"></scales>
<clustering>
<clus scale="   81.886">  5  6 -1 -1</clus>
<clus scale="   90.670">  7  8 -1 -1</clus>
<clus scale="  108.842">  2  9  1 -1</clus>
<clus scale="  108.842">  2  5  1 -1</clus>
<clus scale="  104.987">  2  5  1 -1</clus>
</clustering>
</event>
<event>
 9    1  0.7719620E-005  0.9773597E+02  0.7546771E-02  0.1286819E+00
          3   -1    0    0  502    0 -0.00000000000E+00  0.00000000000E+00  0.99766167538E+02  0.99766167538E+02  0.00000000000E+00 0. -1.
         21   -1    0    0  501  502  0.00000000000E+00 -0.00000000000E+00 -0.30227013667E+03  0.30227013667E+03  0.00000000000E+00 0. -1.
         23    2    1    2    0    0  0.27831618958E+01  0.85959851421E+01  0.68230995290E+01  0.95132356728E+02  0.94456199684E+02 0.  0.
        -24    2    1    2    0    0 -0.75592025070E+02  0.51918520424E+02 -0.76969001825E+02  0.14417167103E+03  0.80321581591E+02 0.  0.
         11    1    4    4    0    0 -0.32258295800E+02  0.67360167151E+02 -0.57328013877E+02  0.94151425596E+02  0.00000000000E+00 0. -1.
        -12    1    4    4    0    0 -0.43333729270E+02 -0.15441646726E+02 -0.19640987947E+02  0.50020245437E+02  0.00000000000E+00 0.  1.
        -11    1    3    3    0    0  0.42468001052E+02  0.11574055336E+02 -0.18732376175E+02  0.47837138161E+02  0.00000000000E+00 0.  1.
         11    1    3    3    0    0 -0.39684839156E+02 -0.29780701937E+01  0.25555475704E+02  0.47295218568E+02  0.00000000000E+00 0. -1.
          4    1    1    2  501    0  0.72808863175E+02 -0.60514505567E+02 -0.13235806684E+03  0.16273227645E+03  0.00000000000E+00 0. -1.
<scales pt_clust_5="13000.00000" pt_clust_6="13000.00000" pt_clust_7="13000.00000" pt_clust_8="13000.00000" pt_clust_9="94.67384"></scales>
<clustering>
<clus scale="   80.322">  5  6 -1 -1</clus>
<clus scale="   94.456">  7  8 -1 -1</clus>
<clus scale="   94.674">  2  9  1 -1</clus>
<clus scale="   94.674">  2  5  1 -1</clus>
<clus scale="   94.674">  2  5  1 -1</clus>
</clustering>
</event>
<event>
 9    1  0.7719620E-005  0.1519869E+03  0.7546771E-02  0.1199605E+00
         21   -1    0    0  501  502  0.00000000000E+00  0.00000000000E+00  0.61658421239E+02  0.61658421239E+02  0.00000000000E+00 0. -1.
          1   -1    0    0  502    0 -0.00000000000E+00 -0.00000000000E+00 -0.68558080344E+03  0.68558080344E+03  0.00000000000E+00 0. -1.
         23    2    1    2    0    0  0.23703395575E+02  0.11371990006E+03 -0.48064737965E+03  0.50292522333E+03  0.91748624342E+02 0.  0.
        -24    2    1    2    0    0 -0.46911872075E+02 -0.13430320448E+03 -0.10642579169E+03  0.19614585685E+03  0.83118430856E+02 0.  0.
         13    1    4    4    0    0 -0.67053287047E+02 -0.12577076116E+03 -0.87683611341E+02  0.16734050127E+03  0.00000000000E+00 0. -1.
        -14    1    4    4    0    0  0.20141414972E+02 -0.85324433198E+01 -0.18742180349E+02  0.28805355584E+02  0.00000000000E+00 0.  1.
        -13    1    3    3    0    0 -0.20379572468E+02  0.92801117126E+02 -0.25658810914E+03  0.27361438571E+03  0.00000000000E+00 0. -1.
         13    1    3    3    0    0  0.44082968043E+02  0.20918782929E+02 -0.22405927051E+03  0.22931083762E+03  0.00000000000E+00 0.  1.
          2    1    1    2  501    0  0.23208476500E+02  0.20583304430E+02 -0.36849210858E+02  0.48168144489E+02  0.00000000000E+00 0. -1.
<scales pt_clust_5="13000.00000" pt_clust_6="13000.00000" pt_clust_7="13000.00000" pt_clust_8="13000.00000" pt_clust_9="31.02105"></scales>
<clustering>
<clus scale="   31.021">  1  9  2 -1</clus>
<clus scale="   83.118">  5  6 -1 -1</clus>
<clus scale="   91.749">  7  8 -1 -1</clus>
<clus scale="  146.938">  1  5  2 -1</clus>
<clus scale="   31.021">  1  5  2 -1</clus>
</clustering>
</event>
<event>
 9    1  0.7719620E-005  0.1114079E+03  0.7546771E-02  0.1261446E+00
         21   -1    0    0  501  502  0.00000000000E+00  0.00000000000E+00  0.93882903782E+02  0.93882903782E+02  0.00000000000E+00 0.  1.
          3   -1    0    0  502    0 -0.00000000000E+00 -0.00000000000E+00 -0.24431906445E+03  0.24431906445E+03  0.00000000000E+00 0. -1.
        -24    2    1    2    0    0 -0.17012084151E+02 -0.65561621436E+02 -0.18045359625E+03  0.20963385318E+03  0.82432486230E+02 0.  0.
         23    2    1    2    0    0  0.13383125042E+02  0.42758868750E+02  0.25616416759E+02  0.10506271480E+03  0.91512536523E+02 0.  0.
         13    1    3    3    0    0 -0.49119384552E+02 -0.50980421677E+02 -0.10933884419E+03  0.13025628653E+03  0.00000000000E+00 0. -1.
        -14    1    3    3    0    0  0.32107300401E+02 -0.14581199759E+02 -0.71114752064E+02  0.79377566646E+02  0.00000000000E+00 0.  1.
        -13    1    4    4    0    0  0.48999112937E+02  0.97973456994E+01 -0.46270650763E+00  0.49971143159E+02  0.00000000000E+00 0. -1.
         13    1    4    4    0    0 -0.35615987894E+02  0.32961523050E+02  0.26079123267E+02  0.55091571640E+02  0.00000000000E+00 0.  1.
          4    1    1    2  501    0  0.36289591084E+01  0.22802752687E+02  0.44010188268E+01  0.23505400252E+02  0.00000000000E+00 0. -1.
<scales pt_clust_5="13000.00000" pt_clust_6="13000.00000" pt_clust_7="13000.00000" pt_clust_8="13000.00000" pt_clust_9="23.08971"></scales>
<clustering>
<clus scale="   23.090">  1  9  2 -1</clus>
<clus scale="   82.432">  5  6 -1 -1</clus>
<clus scale="   91.513">  7  8 -1 -1</clus>
<clus scale="  104.078">  2  5  1 -1</clus>
<clus scale="   23.090">  1  5  2 -1</clus>
</clustering>
</event>
<event>
 9    1  0.7719620E-005  0.1686629E+03  0.7546771E-02  0.1188246E+00
         21   -1    0    0  501  502  0.00000000000E+00  0.00000000000E+00  0.63870880230E+03  0.63870880230E+03  0.00000000000E+00 0. -1.
          3   -1    0    0  502    0 -0.00000000000E+00 -0.00000000000E+00 -0.66231905812E+02  0.66231905812E+02  0.00000000000E+00 0. -1.
         23    2    1    2    0    0  0.34280654139E+02  0.10321861736E+03  0.87238751748E+02  0.18726879023E+03  0.12501901363E+03 0.  0.
        -24    2    1    2    0    0 -0.21735520456E+02 -0.12411994742E+03  0.35001168539E+03  0.38026579981E+03  0.78839738683E+02 0.  0.
         13    1    4    4    0    0 -0.27159535314E+02 -0.39179132717E+02  0.52937459675E+02  0.71239170656E+02  0.00000000000E+00 0. -1.
        -14    1    4    4    0    0  0.54240148579E+01 -0.84940814699E+02  0.29707422572E+03  0.30902662915E+03  0.00000000000E+00 0.  1.
        -11    1    3    3    0    0 -0.43142928514E+02  0.43192336263E+02  0.86147197933E+01  0.61653090674E+02  0.00000000000E+00 0. -1.
         11    1    3    3    0    0  0.77423582653E+02  0.60026281101E+02  0.78624031954E+02  0.12561569955E+03  0.00000000000E+00 0.  1.
          4    1    1    2  501    0 -0.12545133683E+02  0.20901330052E+02  0.13522645935E+03  0.13740611808E+03  0.00000000000E+00 0. -1.
<scales pt_clust_5="13000.00000" pt_clust_6="13000.00000" pt_clust_7="13000.00000" pt_clust_8="13000.00000" pt_clust_9="24.37716"></scales>
<clustering>
<clus scale="   24.377">  1  9  2 -1</clus>
<clus scale="   78.840">  5  6 -1 -1</clus>
<clus scale="  125.019">  7  8 -1 -1</clus>
<clus scale="  137.961">  1  5  2 -1</clus>
<clus scale="   24.377">  1  5  2 -1</clus>
</clustering>
</event>
<event>
 9    1  0.7719620E-005  0.2764567E+03  0.7546771E-02  0.1098092E+00
          1   -1    0    0  502    0 -0.00000000000E+00  0.00000000000E+00  0.11490354485E+04  0.11490354485E+04  0.00000000000E+00 0. -1.
         21   -1    0    0  501  502  0.00000000000E+00 -0.00000000000E+00 -0.11625411944E+03  0.11625411944E+03  0.00000000000E+00 0. -1.
        -24    2    1    2    0    0  0.99620041542E+02 -0.27741804538E+03  0.70971058417E+03  0.77274695011E+03  0.81017350264E+02 0.  0.
         23    2    1    2    0    0 -0.15383761186E+03  0.15794200403E+03  0.23199634930E+03  0.33282845153E+03  0.91327896053E+02 0.  0.
         11    1    3    3    0    0  0.69531089809E+02 -0.26282069117E+03  0.61908097469E+03  0.67614387624E+03  0.00000000000E+00 0. -1.
        -12    1    3    3    0    0  0.30088951733E+02 -0.14597354209E+02  0.90629609480E+02  0.96603073868E+02  0.00000000000E+00 0.  1.
        -13    1    4    4    0    0 -0.10399294539E+03  0.87125723365E+02  0.78913213217E+02  0.15694814298E+03  0.00000000000E+00 0. -1.
         13    1    4    4    0    0 -0.49844666465E+02  0.70816280666E+02  0.15308313609E+03  0.17588030855E+03  0.00000000000E+00 0.  1.
          2    1    1    2  501    0  0.54217570316E+02  0.11947604135E+03  0.91074395583E+02  0.15971416630E+03  0.00000000000E+00 0. -1.
<scales pt_clust_5="13000.00000" pt_clust_6="13000.00000" pt_clust_7="13000.00000" pt_clust_8="13000.00000" pt_clust_9="131.20240"></scales>
<clustering>
<clus scale="   81.017">  5  6 -1 -1</clus>
<clus scale="   91.328">  7  8 -1 -1</clus>
<clus scale="  131.202">  2  9  1 -1</clus>
<clus scale="  273.224">  1  5  2 -1</clus>
<clus scale="  131.202">  2  5  1 -1</clus>
</clustering>
</event>
<event>
 9    1  0.7719620E-005  0.1157825E+03  0.7546771E-02  0.1255375E+00
         21   -1    0    0  501  502  0.00000000000E+00  0.00000000000E+00  0.30045704265E+02  0.30045704265E+02  0.00000000000E+00 0.  1.
          1   -1    0    0  502    0 -0.00000000000E+00 -0.00000000000E+00 -0.58132267667E+03  0.58132267667E+03  0.00000000000E+00 0. -1.
         23    2    1    2    0    0  0.75124981351E+02 -0.65020246728E+01 -0.38672275785E+03  0.40460109181E+03  0.91986482170E+02 0.  0.
        -24    2    1    2    0    0 -0.62039594095E+02 -0.12535464138E+02 -0.14705377230E+03  0.17778593618E+03  0.77310918110E+02 0.  0.
         11    1    4    4    0    0 -0.25552046444E+02  0.19816783658E+02 -0.11492736550E+03  0.11938974551E+03  0.00000000000E+00 0. -1.
        -12    1    4    4    0    0 -0.36487547651E+02 -0.32352247796E+02 -0.32126406803E+02  0.58396190673E+02  0.00000000000E+00 0.  1.
        -13    1    3    3    0    0 -0.48950499502E+01 -0.30178981926E+02 -0.59376372308E+02  0.66785373044E+02  0.00000000000E+00 0.  1.
         13    1    3    3    0    0  0.80020031301E+02  0.23676957253E+02 -0.32734638554E+03  0.33781571876E+03  0.00000000000E+00 0. -1.
          2    1    1    2  501    0 -0.13085387256E+02  0.19037488811E+02 -0.17500442258E+02  0.28981352955E+02  0.00000000000E+00 0. -1.
<scales pt_clust_5="13000.00000" pt_clust_6="13000.00000" pt_clust_7="13000.00000" pt_clust_8="13000.00000" pt_clust_9="23.10094"></scales>
<clustering>
<clus scale="   23.101">  1  9  2 -1</clus>
<clus scale="   77.311">  5  6 -1 -1</clus>
<clus scale="   91.986">  7  8 -1 -1</clus>
<clus scale="  104.504">  1  5  2 -1</clus>
<clus scale="   23.101">  1  5  2 -1</clus>
</clustering>
</event>
<event>
 9    1  0.7719620E-005  0.1238739E+03  0.7546771E-02  0.1238928E+00
         21   -1    0    0  501  502  0.00000000000E+00  0.00000000000E+00  0.53734303498E+02  0.53734303498E+02  0.00000000000E+00 0. -1.
         -2   -1    0    0    0  501 -0.00000000000E+00 -0.00000000000E+00 -0.40484528234E+03  0.40484528234E+03  0.00000000000E+00 0.  1.
        -24    2    1    2    0    0  0.65325731194E+02 -0.67305529330E+02 -0.25325979348E+03  0.28254240488E+03  0.83019287710E+02 0.  0.
         23    2    1    2    0    0 -0.47912792834E+02  0.42533286527E+02 -0.55053424967E+02  0.12361082564E+03  0.90244337417E+02 0.  0.
         13    1    3    3    0    0 -0.69653425144E+01 -0.35877892492E+02 -0.35485601331E+02  0.50940819269E+02  0.00000000000E+00 0. -1.
        -14    1    3    3    0    0  0.72291073709E+02 -0.31427636839E+02 -0.21777419214E+03  0.23160158561E+03  0.00000000000E+00 0.  1.
        -11    1    4    4    0    0 -0.35856977961E+02  0.70913433448E+02 -0.44153214228E+02  0.90906238722E+02  0.00000000000E+00 0.  1.
         11    1    4    4    0    0 -0.12055814873E+02 -0.28380146922E+02 -0.10900210739E+02  0.32704586922E+02  0.00000000000E+00 0. -1.
         -1    1    1    2    0  502 -0.17412938360E+02  0.24772242804E+02 -0.42797760400E+02  0.52426355310E+02  0.00000000000E+00 0.  1.
<scales pt_clust_5="13000.00000" pt_clust_6="13000.00000" pt_clust_7="13000.00000" pt_clust_8="13000.00000" pt_clust_9="30.27995"></scales>
<clustering>
<clus scale="   30.280">  1  9  2 -1</clus>
<clus scale="   83.019">  5  6 -1 -1</clus>
<clus scale="   90.244">  7  8 -1 -1</clus>
<clus scale="  118.714">  2  5  1 -1</clus>
<clus scale="   30.280">  1  5  2 -1</clus>
</clustering>
</event>
<event>
 9    1  0.7719620E-005  0.1019019E+03  0.7546771E-02  0.1280615E+00
         -2   -1    0    0    0  501 -0.00000000000E+00  0.00000000000E+00  0.10379367180E+03  0.10379367180E+03  0.00000000000E+00 0.  1.
         21   -1    0    0  501  502  0.00000000000E+00 -0.00000000000E+00 -0.24124028974E+03  0.24124028974E+03  0.00000000000E+00 0.  1.
        -24    2    1    2    0    0 -0.26088920435E+02  0.46752770384E+02  0.58675606120E+02  0.11241057489E+03  0.79541544404E+02 0.  0.
         23    2    1    2    0    0  0.22407395625E+02 -0.23981223779E+02 -0.11869553479E+03  0.15183360282E+03  0.88812287972E+02 0.  0.
         11    1    3    3    0    0  0.18775011100E+02 -0.11137892400E+02  0.19900521099E+02  0.29539540093E+02  0.00000000000E+00 0. -1.
        -12    1    3    3    0    0 -0.44863931535E+02  0.57890662784E+02  0.38775085021E+02  0.82871034800E+02  0.00000000000E+00 0.  1.
        -11    1    4    4    0    0 -0.33022505191E+02  0.26349750242E+01 -0.44291887949E+02  0.55310037792E+02  0.00000000000E+00 0.  1.
         11    1    4    4    0    0  0.55429900816E+02 -0.26616198803E+02 -0.74403646841E+02  0.96523565032E+02  0.00000000000E+00 0. -1.
         -1    1    1    2    0  502  0.36815248093E+01 -0.22771546606E+02 -0.77426689272E+02  0.80789783830E+02  0.00000000000E+00 0.  1.
<scales pt_clust_5="13000.00000" pt_clust_6="13000.00000" pt_clust_7="13000.00000" pt_clust_8="13000.00000" pt_clust_9="23.06723"></scales>
<clustering>
<clus scale="   23.067">  2  9  1 -1</clus>
<clus scale="   79.542">  5  6 -1 -1</clus>
<clus scale="   88.812">  7  8 -1 -1</clus>
<clus scale="   93.932">  1  5  2 -1</clus>
<clus scale="   23.067">  2  5  1 -1</clus>
</clustering>
</event>
<event>
 9    1  0.7719620E-005  0.1272329E+03  0.7546771E-02  0.1238715E+00
         21   -1    0    0  501  502  0.00000000000E+00  0.00000000000E+00  0.16627916148E+03  0.16627916148E+03  0.00000000000E+00 0. -1.
          1   -1    0    0  502    0 -0.00000000000E+00 -0.00000000000E+00 -0.40063036294E+03  0.40063036294E+03  0.00000000000E+00 0. -1.
        -24    2    1    2    0    0  0.78079372410E+02  0.57423202262E+02 -0.29420553871E+03  0.32012052829E+03  0.80786391633E+02 0.  0.
         23    2    1    2    0    0 -0.21774457288E+02  0.97355762468E+01 -0.40808066455E+02  0.11332190461E+03  0.10299343349E+03 0.  0.
         13    1    3    3    0    0  0.17930810232E+02  0.62386015173E+02 -0.13319426447E+03  0.14816963566E+03  0.00000000000E+00 0. -1.
        -14    1    3    3    0    0  0.60148562178E+02 -0.49628129109E+01 -0.16101127424E+03  0.17195089263E+03  0.00000000000E+00 0.  1.
        -11    1    4    4    0    0 -0.45032791842E+02 -0.27119305352E+02 -0.45454462290E+02  0.69494727901E+02  0.00000000000E+00 0.  1.
         11    1    4    4    0    0  0.23258334555E+02  0.36854881599E+02  0.46463958347E+01  0.43827176708E+02  0.00000000000E+00 0. -1.
          2    1    1    2  501    0 -0.56304915122E+02 -0.67158778508E+02  0.10066240371E+03  0.13346709152E+03  0.00000000000E+00 0. -1.
<scales pt_clust_5="13000.00000" pt_clust_6="13000.00000" pt_clust_7="13000.00000" pt_clust_8="13000.00000" pt_clust_9="87.63872"></scales>
<clustering>
<clus scale="   80.786">  5  6 -1 -1</clus>
<clus scale="   87.639">  1  9  2 -1</clus>
<clus scale="  102.993">  7  8 -1 -1</clus>
<clus scale="  110.032">  2  5  1 -1</clus>
<clus scale="   87.639">  1  5  2 -1</clus>
</clustering>
</event>
<event>
 9    1  0.7719620E-005  0.1123368E+03  0.7546771E-02  0.1260139E+00
         21   -1    0    0  501  502  0.00000000000E+00  0.00000000000E+00  0.14328172539E+03  0.14328172539E+03  0.00000000000E+00 0. -1.
          3   -1    0    0  502    0 -0.00000000000E+00 -0.00000000000E+00 -0.14308672487E+03  0.14308672487E+03  0.00000000000E+00 0. -1.
        -24    2    1    2    0    0  0.21448477815E+02  0.48942721660E+02 -0.13831873823E+02  0.97903643027E+02  0.80860221249E+02 0.  0.
         23    2    1    2    0    0 -0.60947126881E+02 -0.70896716548E+02  0.39715579714E+02  0.13648374575E+03  0.91156946464E+02 0.  0.
         11    1    3    3    0    0 -0.20519106368E+02  0.49451453020E+02  0.53481372759E+00  0.53542188577E+02  0.00000000000E+00 0. -1.
        -12    1    3    3    0    0  0.41967584183E+02 -0.50873135952E+00 -0.14366687550E+02  0.44361454450E+02  0.00000000000E+00 0.  1.
        -11    1    4    4    0    0 -0.38866972973E+02  0.29455475282E+01  0.44629325129E+02  0.59254489279E+02  0.00000000000E+00 0.  1.
         11    1    4    4    0    0 -0.22080153908E+02 -0.73842264076E+02 -0.49137454141E+01  0.77229256468E+02  0.00000000000E+00 0. -1.
          4    1    1    2  501    0  0.39498649066E+02  0.21953994888E+02 -0.25688705371E+02  0.51981061486E+02  0.00000000000E+00 0. -1.
<scales pt_clust_5="13000.00000" pt_clust_6="13000.00000" pt_clust_7="13000.00000" pt_clust_8="13000.00000" pt_clust_9="45.18986"></scales>
<clustering>
<clus scale="   45.190">  1  9  2 -1</clus>
<clus scale="   80.860">  5  6 -1 -1</clus>
<clus scale="   91.157">  7  8 -1 -1</clus>
<clus scale="  104.155">  2  5  1 -1</clus>
<clus scale="   45.190">  1  5  2 -1</clus>
</clustering>
</event>
<event>
 9    1  0.7719620E-005  0.9798240E+02  0.7546771E-02  0.1290744E+00
          1   -1    0    0  502    0 -0.00000000000E+00  0.00000000000E+00  0.25603384094E+03  0.25603384094E+03  0.00000000000E+00 0. -1.
         21   -1    0    0  501  502  0.00000000000E+00 -0.00000000000E+00 -0.89793003460E+02  0.89793003460E+02  0.00000000000E+00 0. -1.
        -24    2    1    2    0    0 -0.12211172337E+02 -0.41136631760E+02  0.18059236224E+03  0.20202360541E+03  0.79740834216E+02 0.  0.
         23    2    1    2    0    0 -0.51043106514E+00  0.11098491088E+02  0.22379181098E+02  0.94678155374E+02  0.91321893948E+02 0.  0.
         13    1    3    3    0    0 -0.13005163537E+02 -0.60603399371E+02  0.89478101218E+02  0.10884960676E+03  0.00000000000E+00 0. -1.
        -14    1    3    3    0    0  0.79399120039E+00  0.19466767612E+02  0.91114261019E+02  0.93173998650E+02  0.00000000000E+00 0.  1.
        -13    1    4    4    0    0 -0.17073250392E+02 -0.36536018386E+02  0.22931088175E+01  0.40393500300E+02  0.00000000000E+00 0. -1.
         13    1    4    4    0    0  0.16562819327E+02  0.47634509474E+02  0.20086072280E+02  0.54284655074E+02  0.00000000000E+00 0.  1.
          2    1    1    2  501    0  0.12721603402E+02  0.30038140672E+02 -0.36730705853E+02  0.49125083619E+02  0.00000000000E+00 0. -1.
<scales pt_clust_5="13000.00000" pt_clust_6="13000.00000" pt_clust_7="13000.00000" pt_clust_8="13000.00000" pt_clust_9="32.62099"></scales>
<clustering>
<clus scale="   32.621">  2  9  1 -1</clus>
<clus scale="   79.741">  5  6 -1 -1</clus>
<clus scale="   87.290">  1  5  2 -1</clus>
<clus scale="   91.322">  7  8 -1 -1</clus>
<clus scale="   32.621">  2  5  1 -1</clus>
</clustering>
</event>
<event>
 9    1  0.7719620E-005  0.1124303E+03  0.7546771E-02  0.1261073E+00
          1   -1    0    0  502    0 -0.00000000000E+00  0.00000000000E+00  0.88332963802E+03  0.88332963802E+03  0.00000000000E+00 0. -1.
         21   -1    0    0  501  502  0.00000000000E+00 -0.00000000000E+00 -0.27459229747E+02  0.27459229747E+02  0.00000000000E+00 0. -1.
         23    2    1    2    0    0 -0.34908331080E+02  0.17829754161E+02  0.22332039942E+03  0.24419445364E+03  0.90677663594E+02 0.  0.
        -24    2    1    2    0    0  0.10295208368E+03 -0.14433477922E+02  0.29458339040E+03  0.32182938959E+03  0.77377808744E+02 0.  0.
         11    1    4    4    0    0  0.76928164580E+01 -0.31621131139E+02  0.83148110141E+02  0.89289885091E+02  0.00000000000E+00 0. -1.
        -12    1    4    4    0    0  0.95259267224E+02  0.17187653217E+02  0.21143528026E+03  0.23253950450E+03  0.00000000000E+00 0.  1.
        -11    1    3    3    0    0  0.22781238799E+02 -0.19244531634E+02  0.78000871713E+02  0.83507321996E+02  0.00000000000E+00 0.  1.
         11    1    3    3    0    0 -0.57689569879E+02  0.37074285795E+02  0.14531952771E+03  0.16068713164E+03  0.00000000000E+00 0. -1.
          2    1    1    2  501    0 -0.68043752602E+02 -0.33962762392E+01  0.33796661844E+03  0.34476502453E+03  0.00000000000E+00 0. -1.
<scales pt_clust_5="13000.00000" pt_clust_6="13000.00000" pt_clust_7="13000.00000" pt_clust_8="13000.00000" pt_clust_9="68.12849"></scales>
<clustering>
<clus scale="   68.128">  2  9  1 -1</clus>
<clus scale="   77.378">  5  6 -1 -1</clus>
<clus scale="   90.678">  7  8 -1 -1</clus>
<clus scale="  102.007">  2  5  1 -1</clus>
<clus scale="   68.128">  2  5  1 -1</clus>
</clustering>
</event>
<event>
 9    1  0.7719620E-005  0.1732238E+03  0.7546771E-02  0.1176513E+00
          1   -1    0    0  502    0 -0.00000000000E+00  0.00000000000E+00  0.38077726269E+03  0.38077726269E+03  0.00000000000E+00 0. -1.
         21   -1    0    0  501  502  0.00000000000E+00 -0.00000000000E+00 -0.33368215629E+03  0.33368215629E+03  0.00000000000E+00 0. -1.
         23    2    1    2    0    0  0.38781210335E+02  0.15583820328E+03  0.32033503447E+03  0.37108556445E+03  0.96438757549E+02 0.  0.
        -24    2    1    2    0    0  0.12653440438E+01 -0.61616099225E+02 -0.10753891004E+03  0.14859613818E+03  0.81963713493E+02 0.  0.
         11    1    4    4    0    0  0.30666530995E+02 -0.30883563038E+02 -0.13797455498E+02  0.45657424012E+02  0.00000000000E+00 0. -1.
        -12    1    4    4    0    0 -0.29401186951E+02 -0.30732536187E+02 -0.93741454539E+02  0.10293871416E+03  0.00000000000E+00 0.  1.
        -11    1    3    3    0    0  0.27114767114E+02 -0.35083124588E+01  0.40858087727E+02  0.49161999397E+02  0.00000000000E+00 0.  1.
         11    1    3    3    0    0  0.11666443221E+02  0.15934651574E+03  0.27947694674E+03  0.32192356506E+03  0.00000000000E+00 0. -1.
          2    1    1    2  501    0 -0.40046554378E+02 -0.94222104060E+02 -0.16570101803E+03  0.19477771635E+03  0.00000000000E+00 0. -1.
<scales pt_clust_5="13000.00000" pt_clust_6="13000.00000" pt_clust_7="13000.00000" pt_clust_8="13000.00000" pt_clust_9="102.37935"></scales>
<clustering>
<clus scale="   81.964">  5  6 -1 -1</clus>
<clus scale="   96.439">  7  8 -1 -1</clus>
<clus scale="  102.379">  2  9  1 -1</clus>
<clus scale="  165.602">  2  5  1 -1</clus>
<clus scale="  102.379">  2  5  1 -1</clus>
</clustering>
</event>
<event>
 9    1  0.7719620E-005  0.1344803E+03  0.7546771E-02  0.1222540E+00
          3   -1    0    0  502    0 -0.00000000000E+00  0.00000000000E+00  0.16952478569E+03  0.16952478569E+03  0.00000000000E+00 0. -1.
         21   -1    0    0  501  502  0.00000000000E+00 -0.00000000000E+00 -0.20113216455E+03  0.20113216455E+03  0.00000000000E+00 0. -1.
         23    2    1    2    0    0  0.10661744517E+02 -0.10849905588E+03  0.55016954915E+02  0.15024027341E+03  0.87518892272E+02 0.  0.
        -24    2    1    2    0    0  0.35828661572E+01  0.81154230238E+02 -0.12612415679E+03  0.17030795064E+03  0.80614199171E+02 0.  0.
         13    1    4    4    0    0 -0.27001352420E+02  0.76559936641E+02 -0.10556420620E+03  0.13317018646E+03  0.00000000000E+00 0. -1.
        -14    1    4    4    0    0  0.30584218578E+02  0.45942935979E+01 -0.20559950588E+02  0.37137764174E+02  0.00000000000E+00 0.  1.
        -13    1    3    3    0    0 -0.23124838393E+02  0.25487307340E+00  0.21380780283E+02  0.31495410404E+02  0.00000000000E+00 0.  1.
         13    1    3    3    0    0  0.33786582911E+02 -0.10875392895E+03  0.33636174632E+02  0.11874486301E+03  0.00000000000E+00 0. -1.
          4    1    1    2  501    0 -0.14244610675E+02  0.27344825639E+02  0.39499823012E+02  0.50108726191E+02  0.00000000000E+00 0. -1.
<scales pt_clust_5="13000.00000" pt_clust_6="13000.00000" pt_clust_7="13000.00000" pt_clust_8="13000.00000" pt_clust_9="30.83260"></scales>
<clustering>
<clus scale="   30.833">  2  9  1 -1</clus>
<clus scale="   80.614">  5  6 -1 -1</clus>
<clus scale="   87.519">  7  8 -1 -1</clus>
<clus scale="  130.092">  2  5  1 -1</clus>
<clus scale="   30.833">  2  5  1 -1</clus>
</clustering>
</event>
<event>
 9    1  0.7719620E-005  0.1011299E+03  0.7546771E-02  0.1281819E+00
         21   -1    0    0  501  502  0.00000000000E+00  0.00000000000E+00  0.97531443174E+02  0.97531443174E+02  0.00000000000E+00 0. -1.
         -2   -1    0    0    0  501 -0.00000000000E+00 -0.00000000000E+00 -0.18146176302E+03  0.18146176302E+03  0.00000000000E+00 0.  1.
         23    2    1    2    0    0 -0.31153052007E+02 -0.34618604591E+02 -0.97740946187E+02  0.14007859205E+03  0.88880588189E+02 0.  0.
        -24    2    1    2    0    0  0.59533127000E+02  0.11444678427E+02  0.37406821539E+01  0.10091641304E+03  0.80591288881E+02 0.  0.
         13    1    4    4    0    0  0.76243756617E+02 -0.81997844578E+00  0.14418421174E+02  0.77599443663E+02  0.00000000000E+00 0. -1.
        -14    1    4    4    0    0 -0.16710629617E+02  0.12264656872E+02 -0.10677739020E+02  0.23316969378E+02  0.00000000000E+00 0.  1.
        -13    1    3    3    0    0  0.30186742650E+02 -0.16900635227E+02 -0.47868714923E+02  0.59061703085E+02  0.00000000000E+00 0. -1.
         13    1    3    3    0    0 -0.61339794657E+02 -0.17717969364E+02 -0.49872231264E+02  0.81016888969E+02  0.00000000000E+00 0.  1.
         -1    1    1    2    0  502 -0.28380074993E+02  0.23173926164E+02  0.10069944191E+02  0.37998201095E+02  0.00000000000E+00 0.  1.
<scales pt_clust_5="13000.00000" pt_clust_6="13000.00000" pt_clust_7="13000.00000" pt_clust_8="13000.00000" pt_clust_9="36.63959"></scales>
<clustering>
<clus scale="   36.640">  1  9  2 -1</clus>
<clus scale="   80.591">  5  6 -1 -1</clus>
<clus scale="   88.881">  7  8 -1 -1</clus>
<clus scale="   93.928">  1  5  2 -1</clus>
<clus scale="   36.640">  1  5  2 -1</clus>
</clustering>
</event>
<event>
 9    1  0.7719620E-005  0.9225167E+02  0.7546771E-02  0.1302747E+00
          1   -1    0    0  502    0 -0.00000000000E+00  0.00000000000E+00  0.18942152140E+03  0.18942152140E+03  0.00000000000E+00 0. -1.
         21   -1    0    0  501  502  0.00000000000E+00 -0.00000000000E+00 -0.95020904126E+02  0.95020904126E+02  0.00000000000E+00 0. -1.
         23    2    1    2    0    0 -0.35194842002E+01 -0.13298149099E+02  0.76779459483E+02  0.11991455844E+03  0.91077924817E+02 0.  0.
        -24    2    1    2    0    0  0.26548176903E+02 -0.16749982377E+02  0.60776954266E+02  0.10712025730E+03  0.82435088082E+02 0.  0.
         13    1    4    4    0    0  0.55863045535E+02 -0.14337106370E+02  0.48066722200E+02  0.75077574938E+02  0.00000000000E+00 0. -1.
        -14    1    4    4    0    0 -0.29314868633E+02 -0.24128760074E+01  0.12710232066E+02  0.32042682359E+02  0.00000000000E+00 0.  1.
        -11    1    3    3    0    0  0.19617235875E+02  0.32401601454E+02  0.17966024880E+02  0.41922282501E+02  0.00000000000E+00 0.  1.
         11    1    3    3    0    0 -0.23136720075E+02 -0.45699750552E+02  0.58813434603E+02  0.77992275939E+02  0.00000000000E+00 0. -1.
          2    1    1    2  501    0 -0.23028692703E+02  0.30048131476E+02 -0.43155796473E+02  0.57407609791E+02  0.00000000000E+00 0. -1.
<scales pt_clust_5="13000.00000" pt_clust_6="13000.00000" pt_clust_7="13000.00000" pt_clust_8="13000.00000" pt_clust_9="37.85777"></scales>
<clustering>
<clus scale="   37.858">  2  9  1 -1</clus>
<clus scale="   82.435">  5  6 -1 -1</clus>
<clus scale="   83.730">  2  5  1 -1</clus>
<clus scale="   91.078">  7  8 -1 -1</clus>
<clus scale="   37.858">  2  5  1 -1</clus>
</clustering>
</event>
<event>
 9    1  0.7719620E-005  0.1509943E+03  0.7546771E-02  0.1201321E+00
         21   -1    0    0  501  502  0.00000000000E+00  0.00000000000E+00  0.96150307601E+02  0.96150307601E+02  0.00000000000E+00 0. -1.
          1   -1    0    0  502    0 -0.00000000000E+00 -0.00000000000E+00 -0.11212936754E+04  0.11212936754E+04  0.00000000000E+00 0. -1.
        -24    2    1    2    0    0  0.14431309600E+03 -0.11393253269E+02 -0.92042496179E+03  0.93518625660E+03  0.80219376341E+02 0.  0.
         23    2    1    2    0    0 -0.59357185403E+02 -0.15598488981E+02 -0.14687222646E+03  0.18365242491E+03  0.91597892731E+02 0.  0.
         11    1    3    3    0    0  0.12124561181E+03  0.20163044948E+02 -0.60583923662E+03  0.61818138713E+03  0.00000000000E+00 0. -1.
        -12    1    3    3    0    0  0.23067484189E+02 -0.31556298217E+02 -0.31458572517E+03  0.31700486947E+03  0.00000000000E+00 0.  1.
        -11    1    4    4    0    0 -0.16120146587E+01 -0.45246982629E+02 -0.57141021471E+02  0.72903939284E+02  0.00000000000E+00 0. -1.
         11    1    4    4    0    0 -0.57745170745E+02  0.29648493648E+02 -0.89731204993E+02  0.11074848563E+03  0.00000000000E+00 0.  1.
          2    1    1    2  501    0 -0.84955910598E+02  0.26991742249E+02  0.42153820484E+02  0.98605301463E+02  0.00000000000E+00 0. -1.
<scales pt_clust_5="13000.00000" pt_clust_6="13000.00000" pt_clust_7="13000.00000" pt_clust_8="13000.00000" pt_clust_9="89.14068"></scales>
<clustering>
<clus scale="   80.219">  5  6 -1 -1</clus>
<clus scale="   89.141">  1  9  2 -1</clus>
<clus scale="   91.598">  7  8 -1 -1</clus>
<clus scale="  144.375">  2  5  1 -1</clus>
<clus scale="   89.141">  1  5  2 -1</clus>
</clustering>
</event>
<event>
 9    1  0.7719620E-005  0.1661713E+03  0.7546771E-02  0.1183775E+00
         21   -1    0    0  501  502  0.00000000000E+00  0.00000000000E+00  0.79457136357E+02  0.79457136357E+02  0.00000000000E+00 0.  1.
          1   -1    0    0  502    0 -0.00000000000E+00 -0.00000000000E+00 -0.59987493294E+03  0.59987493294E+03  0.00000000000E+00 0. -1.
         23    2    1    2    0    0  0.70963364729E+02  0.12315519036E+03 -0.45762398764E+03  0.48820983655E+03  0.93413759098E+02 0.  0.
        -24    2    1    2    0    0 -0.70250819204E+02 -0.10200100141E+03 -0.75978989547E+02  0.16618518363E+03  0.80655604375E+02 0.  0.
         11    1    4    4    0    0 -0.52777749608E+00 -0.32516529608E+02 -0.57458430331E+02  0.66023287278E+02  0.00000000000E+00 0. -1.
        -12    1    4    4    0    0 -0.69723041708E+02 -0.69484471799E+02 -0.18520559215E+02  0.10016189635E+03  0.00000000000E+00 0.  1.
        -11    1    3    3    0    0  0.27251401007E+02 -0.70139662552E+00 -0.28512929408E+02  0.39447660989E+02  0.00000000000E+00 0.  1.
         11    1    3    3    0    0  0.43711963722E+02  0.12385658699E+03 -0.42911105823E+03  0.44876217556E+03  0.00000000000E+00 0. -1.
          2    1    1    2  501    0 -0.71254552417E+00 -0.21154188955E+02  0.13185180606E+02  0.24937049125E+02  0.00000000000E+00 0. -1.
<scales pt_clust_5="13000.00000" pt_clust_6="13000.00000" pt_clust_7="13000.00000" pt_clust_8="13000.00000" pt_clust_9="21.16619"></scales>
<clustering>
<clus scale="   21.166">  1  9  2 -1</clus>
<clus scale="   80.656">  5  6 -1 -1</clus>
<clus scale="   93.414">  7  8 -1 -1</clus>
<clus scale="  159.349">  1  5  2 -1</clus>
<clus scale="   21.166">  1  5  2 -1</clus>
</clustering>
</event>
<event>
 9    1  0.7719620E-005  0.1126915E+03  0.7546771E-02  0.1258539E+00
          1   -1    0    0  502    0 -0.00000000000E+00  0.00000000000E+00  0.26564558051E+03  0.26564558051E+03  0.00000000000E+00 0. -1.
         21   -1    0    0  501  502  0.00000000000E+00 -0.00000000000E+00 -0.12698332537E+03  0.12698332537E+03  0.00000000000E+00 0. -1.
         23    2    1    2    0    0 -0.12634662449E+02  0.59453809334E+02  0.12457157129E+03  0.16517523549E+03  0.89835360002E+02 0.  0.
        -24    2    1    2    0    0 -0.53863287079E+02 -0.10184916875E+03 -0.17621638029E+02  0.14245358126E+03  0.81902343172E+02 0.  0.
         11    1    4    4    0    0 -0.12970650548E+02 -0.98675173971E+02 -0.19409528053E+02  0.10139900154E+03  0.00000000000E+00 0. -1.
        -12    1    4    4    0    0 -0.40892636531E+02 -0.31739947784E+01  0.17878900235E+01  0.41054579721E+02  0.00000000000E+00 0.  1.
        -13    1    3    3    0    0  0.31039307591E+02  0.28420782266E+02  0.17759121929E+02  0.45678943640E+02  0.00000000000E+00 0.  1.
         13    1    3    3    0    0 -0.43673970040E+02  0.31033027068E+02  0.10681244936E+03  0.11949629185E+03  0.00000000000E+00 0. -1.
          2    1    1    2  501    0  0.66497949528E+02  0.42395359416E+02  0.31712321880E+02  0.85000089120E+02  0.00000000000E+00 0. -1.
<scales pt_clust_5="13000.00000" pt_clust_6="13000.00000" pt_clust_7="13000.00000" pt_clust_8="13000.00000" pt_clust_9="78.86286"></scales>
<clustering>
<clus scale="   78.863">  2  9  1 -1</clus>
<clus scale="   81.902">  5  6 -1 -1</clus>
<clus scale="   89.835">  7  8 -1 -1</clus>
<clus scale="  106.475">  2  5  1 -1</clus>
<clus scale="   78.863">  2  5  1 -1</clus>
</clustering>
</event>
<event>
 9    1  0.7719620E-005  0.9501963E+02  0.7546771E-02  0.1298451E+00
          1   -1    0    0  502    0 -0.00000000000E+00  0.00000000000E+00  0.58389787014E+03  0.58389787014E+03  0.00000000000E+00 0. -1.
         21   -1    0    0  501  502  0.00000000000E+00 -0.00000000000E+00 -0.30532371656E+02  0.30532371656E+02  0.00000000000E+00 0. -1.
        -24    2    1    2    0    0  0.88654559376E+01  0.16538302334E+02  0.31443516523E+03  0.32465447876E+03  0.78606270059E+02 0.  0.
         23    2    1    2    0    0  0.22380357682E+02 -0.51962052304E+02  0.20564061912E+03  0.23198867108E+03  0.91267431128E+02 0.  0.
         13    1    3    3    0    0  0.32560313470E+02  0.34258054105E+02  0.23891707747E+03  0.24354703487E+03  0.00000000000E+00 0. -1.
        -14    1    3    3    0    0 -0.23694857533E+02 -0.17719751771E+02  0.75518087752E+02  0.81107443888E+02  0.00000000000E+00 0.  1.
        -11    1    4    4    0    0  0.28577587792E+02 -0.30943963352E+02  0.20580923292E+03  0.21007533827E+03  0.00000000000E+00 0.  1.
         11    1    4    4    0    0 -0.61972301096E+01 -0.21018088952E+02 -0.16861379829E+00  0.21913332810E+02  0.00000000000E+00 0. -1.
          2    1    1    2  501    0 -0.31245813620E+02  0.35423749970E+02  0.33289714138E+02  0.57787091968E+02  0.00000000000E+00 0. -1.
<scales pt_clust_5="13000.00000" pt_clust_6="13000.00000" pt_clust_7="13000.00000" pt_clust_8="13000.00000" pt_clust_9="47.23498"></scales>
<clustering>
<clus scale="   47.235">  2  9  1 -1</clus>
<clus scale="   78.606">  5  6 -1 -1</clus>
<clus scale="   82.933">  1  5  2 -1</clus>
<clus scale="   91.267">  7  8 -1 -1</clus>
<clus scale="   47.235">  2  5  1 -1</clus>
</clustering>
</event>
<event>
 9    1  0.7719620E-005  0.1704298E+03  0.7546771E-02  0.1179008E+00
         21   -1    0    0  501  502  0.00000000000E+00  0.00000000000E+00  0.12117217711E+03  0.12117217711E+03  0.00000000000E+00 0.  1.
          1   -1    0    0  502    0 -0.00000000000E+00 -0.00000000000E+00 -0.82208495920E+03  0.82208495920E+03  0.00000000000E+00 0. -1.
        -24    2    1    2    0    0 -0.12418604177E+03  0.62382643069E+02 -0.66456188517E+03  0.68362668009E+03  0.79932292435E+02 0.  0.
         23    2    1    2    0    0  0.17144449664E+03 -0.68012081469E+02 -0.45971557746E+02  0.21107523767E+03  0.91763354244E+02 0.  0.
         11    1    3    3    0    0 -0.91177265060E+02  0.40191735779E+02 -0.59674167042E+03  0.60500354587E+03  0.00000000000E+00 0. -1.
        -12    1    3    3    0    0 -0.33008776706E+02  0.22190907291E+02 -0.67820214749E+02  0.78623134220E+02  0.00000000000E+00 0.  1.
        -11    1    4    4    0    0  0.11551030661E+03 -0.63651555816E+02  0.94349382480E+01  0.13222393713E+03  0.00000000000E+00 0.  1.
         11    1    4    4    0    0  0.55934190029E+02 -0.43605256532E+01 -0.55406495994E+02  0.78851300538E+02  0.00000000000E+00 0. -1.
          2    1    1    2  501    0 -0.47258454873E+02  0.56294383998E+01  0.96206608259E+01  0.48555218550E+02  0.00000000000E+00 0. -1.
<scales pt_clust_5="13000.00000" pt_clust_6="13000.00000" pt_clust_7="13000.00000" pt_clust_8="13000.00000" pt_clust_9="47.59256"></scales>
<clustering>
<clus scale="   47.593">  1  9  2 -1</clus>
<clus scale="   79.932">  5  6 -1 -1</clus>
<clus scale="   91.763">  7  8 -1 -1</clus>
<clus scale="  164.362">  2  5  1 -1</clus>
<clus scale="   47.593">  1  5  2 -1</clus>
</clustering>
</event>
<event>
 9    1  0.7719620E-005  0.1097111E+03  0.7546771E-02  0.1265979E+00
         21   -1    0    0  501  502  0.00000000000E+00  0.00000000000E+00  0.11070696500E+03  0.11070696500E+03  0.00000000000E+00 0. -1.
          3   -1    0    0  502    0 -0.00000000000E+00 -0.00000000000E+00 -0.14641025676E+03  0.14641025676E+03  0.00000000000E+00 0. -1.
         23    2    1    2    0    0  0.18961690016E+01 -0.68123117610E+02 -0.30693968755E+02  0.11884005804E+03  0.92393100756E+02 0.  0.
        -24    2    1    2    0    0  0.92159852473E+00  0.46254183861E+02  0.29556781729E+02  0.97277094521E+02  0.80305235842E+02 0.  0.
         11    1    4    4    0    0  0.27571244931E+02  0.51868279034E+02  0.23599528943E+01  0.58788275146E+02  0.00000000000E+00 0. -1.
        -12    1    4    4    0    0 -0.26649646406E+02 -0.56140951728E+01  0.27196828835E+02  0.38488819375E+02  0.00000000000E+00 0.  1.
        -13    1    3    3    0    0  0.22667570174E+02 -0.70810521152E+02 -0.50607984477E+02  0.89939517100E+02  0.00000000000E+00 0. -1.
         13    1    3    3    0    0 -0.20771401172E+02  0.26874035423E+01  0.19914015722E+02  0.28900540940E+02  0.00000000000E+00 0.  1.
          4    1    1    2  501    0 -0.28177675263E+01  0.21868933749E+02 -0.34566104743E+02  0.41000069198E+02  0.00000000000E+00 0. -1.
<scales pt_clust_5="13000.00000" pt_clust_6="13000.00000" pt_clust_7="13000.00000" pt_clust_8="13000.00000" pt_clust_9="22.04973"></scales>
<clustering>
<clus scale="   22.050">  1  9  2 -1</clus>
<clus scale="   80.305">  5  6 -1 -1</clus>
<clus scale="   92.393">  7  8 -1 -1</clus>
<clus scale="   99.744">  1  5  2 -1</clus>
<clus scale="   22.050">  1  5  2 -1</clus>
</clustering>
</event>
<event>
 9    1  0.7719620E-005  0.9567147E+02  0.7546771E-02  0.1296172E+00
         21   -1    0    0  501  502  0.00000000000E+00  0.00000000000E+00  0.46101727969E+02  0.46101727969E+02  0.00000000000E+00 0. -1.
          1   -1    0    0  502    0 -0.00000000000E+00 -0.00000000000E+00 -0.72159298937E+03  0.72159298937E+03  0.00000000000E+00 0. -1.
        -24    2    1    2    0    0  0.63845826321E-01  0.23660480693E+02 -0.56147259612E+03  0.56799990667E+03  0.82538447816E+02 0.  0.
         23    2    1    2    0    0 -0.25701284927E+01  0.41517130518E+00 -0.13720417329E+03  0.16617636420E+03  0.93716705667E+02 0.  0.
         11    1    3    3    0    0 -0.35621723565E+02 -0.62185296646E+00 -0.14569206143E+03  0.14998490142E+03  0.00000000000E+00 0. -1.
        -12    1    3    3    0    0  0.35685569391E+02  0.24282333659E+02 -0.41578053469E+03  0.41801500526E+03  0.00000000000E+00 0.  1.
        -11    1    4    4    0    0 -0.42275872374E+02 -0.14561626561E+02 -0.10077193642E+03  0.11024642181E+03  0.00000000000E+00 0. -1.
         11    1    4    4    0    0  0.39705743881E+02  0.14976797866E+02 -0.36432236877E+02  0.55929942386E+02  0.00000000000E+00 0.  1.
          2    1    1    2  501    0  0.25062826664E+01 -0.24075651998E+02  0.23185508009E+02  0.33518446467E+02  0.00000000000E+00 0. -1.
<scales pt_clust_5="13000.00000" pt_clust_6="13000.00000" pt_clust_7="13000.00000" pt_clust_8="13000.00000" pt_clust_9="24.20575"></scales>
<clustering>
<clus scale="   24.206">  1  9  2 -1</clus>
<clus scale="   82.538">  5  6 -1 -1</clus>
<clus scale="   84.751">  2  5  1 -1</clus>
<clus scale="   93.717">  7  8 -1 -1</clus>
<clus scale="   24.206">  1  5  2 -1</clus>
</clustering>
</event>
<event>
 9    1  0.7719620E-005  0.1208879E+03  0.7546771E-02  0.1244358E+00
         21   -1    0    0  501  502  0.00000000000E+00  0.00000000000E+00  0.15416384637E+03  0.15416384637E+03  0.00000000000E+00 0. -1.
          1   -1    0    0  502    0 -0.00000000000E+00 -0.00000000000E+00 -0.16469521651E+03  0.16469521651E+03  0.00000000000E+00 0. -1.
         23    2    1    2    0    0 -0.35148173337E+02  0.47558768089E+02 -0.28845162983E+02  0.11156216351E+03  0.90093520233E+02 0.  0.
        -24    2    1    2    0    0  0.70304580318E+02 -0.97488191476E+02  0.72897774098E+01  0.14524491158E+03  0.81217374958E+02 0.  0.
         11    1    4    4    0    0  0.59408311066E+02 -0.10435633507E+03  0.25676041872E+02  0.12279597395E+03  0.00000000000E+00 0. -1.
        -12    1    4    4    0    0  0.10896269252E+02  0.68681435896E+01 -0.18386264462E+02  0.22448937633E+02  0.00000000000E+00 0.  1.
        -11    1    3    3    0    0 -0.40355432444E+01 -0.22978212546E+02 -0.25259506984E+02  0.34384975704E+02  0.00000000000E+00 0.  1.
         11    1    3    3    0    0 -0.31112630093E+02  0.70536980635E+02 -0.35856559993E+01  0.77177187804E+02  0.00000000000E+00 0. -1.
          2    1    1    2  501    0 -0.35156406981E+02  0.49929423386E+02  0.11024015435E+02  0.62051987783E+02  0.00000000000E+00 0. -1.
<scales pt_clust_5="13000.00000" pt_clust_6="13000.00000" pt_clust_7="13000.00000" pt_clust_8="13000.00000" pt_clust_9="61.06489"></scales>
<clustering>
<clus scale="   61.065">  1  9  2 -1</clus>
<clus scale="   81.217">  5  6 -1 -1</clus>
<clus scale="   90.094">  7  8 -1 -1</clus>
<clus scale="  114.426">  1  5  2 -1</clus>
<clus scale="   61.065">  1  5  2 -1</clus>
</clustering>
</event>
<event>
 9    1  0.7719620E-005  0.9624084E+02  0.7546771E-02  0.1295227E+00
          1   -1    0    0  502    0 -0.00000000000E+00  0.00000000000E+00  0.19147992182E+03  0.19147992182E+03  0.00000000000E+00 0. -1.
         21   -1    0    0  501  502  0.00000000000E+00 -0.00000000000E+00 -0.21409819549E+03  0.21409819549E+03  0.00000000000E+00 0. -1.
        -24    2    1    2    0    0 -0.91189520709E+01 -0.36949905403E+02  0.12053644837E+03  0.14912936195E+03  0.79133307869E+02 0.  0.
         23    2    1    2    0    0 -0.32025255675E+02  0.93067443448E+01  0.78021587150E+01  0.97562097537E+02  0.91352376564E+02 0.  0.
         11    1    3    3    0    0  0.77950518932E+01 -0.23697372289E+02  0.12476088486E+03  0.12723052574E+03  0.00000000000E+00 0. -1.
        -12    1    3    3    0    0 -0.16914003964E+02 -0.13252533114E+02 -0.42244364897E+01  0.21898836218E+02  0.00000000000E+00 0.  1.
        -13    1    4    4    0    0 -0.20465855512E+02 -0.37095947959E+02 -0.14522561017E+02  0.44786888430E+02  0.00000000000E+00 0. -1.
         13    1    4    4    0    0 -0.11559400164E+02  0.46402692304E+02  0.22324719732E+02  0.52775209107E+02  0.00000000000E+00 0.  1.
          2    1    1    2  501    0  0.41144207746E+02  0.27643161058E+02 -0.15095688076E+03  0.15888665782E+03  0.00000000000E+00 0. -1.
<scales pt_clust_5="13000.00000" pt_clust_6="13000.00000" pt_clust_7="13000.00000" pt_clust_8="13000.00000" pt_clust_9="49.56804"></scales>
<clustering>
<clus scale="   49.568">  2  9  1 -1</clus>
<clus scale="   79.133">  5  6 -1 -1</clus>
<clus scale="   84.730">  1  5  2 -1</clus>
<clus scale="   91.352">  7  8 -1 -1</clus>
<clus scale="   49.568">  2  5  1 -1</clus>
</clustering>
</event>
<event>
 9    1  0.7719620E-005  0.9686945E+02  0.7546771E-02  0.1292716E+00
         21   -1    0    0  501  502  0.00000000000E+00  0.00000000000E+00  0.47760768623E+03  0.47760768623E+03  0.00000000000E+00 0. -1.
          1   -1    0    0  502    0 -0.00000000000E+00 -0.00000000000E+00 -0.66220752319E+02  0.66220752319E+02  0.00000000000E+00 0. -1.
         23    2    1    2    0    0 -0.27841210569E+02 -0.25272379815E+02 -0.24055065379E+01  0.98039371418E+02  0.90510251899E+02 0.  0.
        -24    2    1    2    0    0  0.45817450416E+02 -0.29428890179E+02  0.17291649365E+03  0.19812680540E+03  0.79930087596E+02 0.  0.
         13    1    4    4    0    0  0.33901470419E+02 -0.40940809246E+02  0.46483609042E+02  0.70612927059E+02  0.00000000000E+00 0. -1.
        -14    1    4    4    0    0  0.11915979997E+02  0.11511919068E+02  0.12643288461E+03  0.12751387834E+03  0.00000000000E+00 0.  1.
        -13    1    3    3    0    0 -0.59524667142E+02 -0.12808839036E+02 -0.13240339701E+02  0.62310183366E+02  0.00000000000E+00 0. -1.
         13    1    3    3    0    0  0.31683456573E+02 -0.12463540779E+02  0.10834833163E+02  0.35729188051E+02  0.00000000000E+00 0.  1.
          2    1    1    2  501    0 -0.17976239847E+02  0.54701269994E+02  0.24087594680E+03  0.24766226173E+03  0.00000000000E+00 0. -1.
<scales pt_clust_5="13000.00000" pt_clust_6="13000.00000" pt_clust_7="13000.00000" pt_clust_8="13000.00000" pt_clust_9="57.57929"></scales>
<clustering>
<clus scale="   57.579">  1  9  2 -1</clus>
<clus scale="   79.930">  5  6 -1 -1</clus>
<clus scale="   87.066">  1  5  2 -1</clus>
<clus scale="   90.510">  7  8 -1 -1</clus>
<clus scale="   57.579">  1  5  2 -1</clus>
</clustering>
</event>
<event>
 9    1  0.7719620E-005  0.1658317E+03  0.7546771E-02  0.1207818E+00
          1   -1    0    0  502    0 -0.00000000000E+00  0.00000000000E+00  0.78092509083E+03  0.78092509083E+03  0.00000000000E+00 0. -1.
         21   -1    0    0  501  502  0.00000000000E+00 -0.00000000000E+00 -0.59107943773E+02  0.59107943773E+02  0.00000000000E+00 0.  1.
        -24    2    1    2    0    0  0.41692254379E+02 -0.31019983332E+02  0.18904117809E+03  0.21145640286E+03  0.79226004920E+02 0.  0.
         23    2    1    2    0    0 -0.13084544907E+03 -0.71815961070E+02  0.40723013791E+03  0.44341378644E+03  0.92202695056E+02 0.  0.
         13    1    3    3    0    0 -0.19304143064E+01 -0.26149071071E+02  0.15133866204E+03  0.15359326497E+03  0.00000000000E+00 0. -1.
        -14    1    3    3    0    0  0.43622668686E+02 -0.48709122613E+01  0.37702516051E+02  0.57863137887E+02  0.00000000000E+00 0.  1.
        -13    1    4    4    0    0 -0.52410933770E+02  0.18720542694E+02  0.12924762534E+03  0.14072069270E+03  0.00000000000E+00 0. -1.
         13    1    4    4    0    0 -0.78434515304E+02 -0.90536503763E+02  0.27798251257E+03  0.30269309374E+03  0.00000000000E+00 0.  1.
          2    1    1    2  501    0  0.89153194695E+02  0.10283594440E+03  0.12554583106E+03  0.18516284531E+03  0.00000000000E+00 0. -1.
<scales pt_clust_5="13000.00000" pt_clust_6="13000.00000" pt_clust_7="13000.00000" pt_clust_8="13000.00000" pt_clust_9="137.83621"></scales>
<clustering>
<clus scale="   79.226">  5  6 -1 -1</clus>
<clus scale="   92.203">  7  8 -1 -1</clus>
<clus scale="   94.748">  1  5  2 -1</clus>
<clus scale="  137.836">  2  9  1 -1</clus>
<clus scale="  137.836">  2  5  1 -1</clus>
</clustering>
</event>
<event>
 9    1  0.7719620E-005  0.1009833E+03  0.7546771E-02  0.1291133E+00
          3   -1    0    0  502    0 -0.00000000000E+00  0.00000000000E+00  0.95404101210E+02  0.95404101210E+02  0.00000000000E+00 0. -1.
         21   -1    0    0  501  502  0.00000000000E+00 -0.00000000000E+00 -0.16034162481E+03  0.16034162481E+03  0.00000000000E+00 0.  1.
         23    2    1    2    0    0 -0.40802415190E+01  0.31172529090E+02 -0.26359980386E+02  0.10068258887E+03  0.91944332044E+02 0.  0.
        -24    2    1    2    0    0 -0.79190752782E+01 -0.56960023219E+02 -0.69893914248E+02  0.11275836730E+03  0.67246815163E+02 0.  0.
         11    1    4    4    0    0 -0.26808495603E+02 -0.28626828275E+02 -0.50852201136E+01  0.39548074507E+02  0.00000000000E+00 0. -1.
        -12    1    4    4    0    0  0.18889420325E+02 -0.28333194944E+02 -0.64808694134E+02  0.73210292796E+02  0.00000000000E+00 0.  1.
        -11    1    3    3    0    0 -0.47786181107E+02  0.21488731412E+02 -0.14908812999E+02  0.54475291532E+02  0.00000000000E+00 0.  1.
         11    1    3    3    0    0  0.43705939588E+02  0.96837976781E+01 -0.11451167387E+02  0.46207297338E+02  0.00000000000E+00 0. -1.
          4    1    1    2  501    0  0.11999316797E+02  0.25787494129E+02  0.31316371034E+02  0.42304769847E+02  0.00000000000E+00 0. -1.
<scales pt_clust_5="13000.00000" pt_clust_6="13000.00000" pt_clust_7="13000.00000" pt_clust_8="13000.00000" pt_clust_9="28.44256"></scales>
<clustering>
<clus scale="   28.443">  2  9  1 -1</clus>
<clus scale="   67.247">  5  6 -1 -1</clus>
<clus scale="   79.158">  2  5  1 -1</clus>
<clus scale="   91.944">  7  8 -1 -1</clus>
<clus scale="   28.443">  2  5  1 -1</clus>
</clustering>
</event>
<event>
 9    1  0.7719620E-005  0.1000963E+03  0.7546771E-02  0.1285875E+00
         -4   -1    0    0    0  501 -0.00000000000E+00  0.00000000000E+00  0.25333085776E+03  0.25333085776E+03  0.00000000000E+00 0.  1.
         21   -1    0    0  501  502  0.00000000000E+00 -0.00000000000E+00 -0.14955674164E+03  0.14955674164E+03  0.00000000000E+00 0. -1.
         23    2    1    2    0    0 -0.18672138530E+02 -0.32946815015E+02  0.18653413699E+03  0.21107868981E+03  0.91241918285E+02 0.  0.
        -24    2    1    2    0    0 -0.86189179006E+01  0.64753294236E+02 -0.46515978787E+01  0.10316704802E+03  0.79715290721E+02 0.  0.
         11    1    4    4    0    0 -0.19418648070E+01  0.71975650058E+02 -0.28447953750E+02  0.77418028345E+02  0.00000000000E+00 0. -1.
        -12    1    4    4    0    0 -0.66770530936E+01 -0.72223558224E+01  0.23796355871E+02  0.25749019678E+02  0.00000000000E+00 0.  1.
        -11    1    3    3    0    0 -0.55198455491E+02 -0.27005236024E+02  0.12464365234E+03  0.13896831412E+03  0.00000000000E+00 0.  1.
         11    1    3    3    0    0  0.36526316961E+02 -0.59415789902E+01  0.61890484652E+02  0.72110375689E+02  0.00000000000E+00 0. -1.
         -3    1    1    2    0  502  0.27291056430E+02 -0.31806479221E+02 -0.78108422989E+02  0.88641861574E+02  0.00000000000E+00 0.  1.
<scales pt_clust_5="13000.00000" pt_clust_6="13000.00000" pt_clust_7="13000.00000" pt_clust_8="13000.00000" pt_clust_9="41.91007"></scales>
<clustering>
<clus scale="   41.910">  2  9  1 -1</clus>
<clus scale="   79.715">  5  6 -1 -1</clus>
<clus scale="   89.715">  2  5  1 -1</clus>
<clus scale="   91.242">  7  8 -1 -1</clus>
<clus scale="   41.910">  2  5  1 -1</clus>
</clustering>
</event>
<event>
 9    1  0.7719620E-005  0.9388319E+02  0.7546771E-02  0.1299782E+00
         21   -1    0    0  501  502  0.00000000000E+00  0.00000000000E+00  0.25392824704E+02  0.25392824704E+02  0.00000000000E+00 0. -1.
          1   -1    0    0  502    0 -0.00000000000E+00 -0.00000000000E+00 -0.58164604954E+03  0.58164604954E+03  0.00000000000E+00 0. -1.
         23    2    1    2    0    0 -0.20264677964E+02 -0.39560158498E+02 -0.31926474750E+03  0.33491469498E+03  0.90896702959E+02 0.  0.
        -24    2    1    2    0    0 -0.77799426946E+01 -0.43844283338E+01 -0.13158636005E+03  0.15453492044E+03  0.80537697792E+02 0.  0.
         13    1    4    4    0    0 -0.41066343440E+02 -0.17053962350E+02 -0.61177316205E+02  0.75630326017E+02  0.00000000000E+00 0. -1.
        -14    1    4    4    0    0  0.33286400745E+02  0.12669534016E+02 -0.70409043842E+02  0.78904594426E+02  0.00000000000E+00 0.  1.
        -13    1    3    3    0    0  0.33770235255E+02 -0.28247214063E+02 -0.10982164887E+03  0.11831791264E+03  0.00000000000E+00 0. -1.
         13    1    3    3    0    0 -0.54034913219E+02 -0.11312944435E+02 -0.20944309863E+03  0.21659678235E+03  0.00000000000E+00 0.  1.
          2    1    1    2  501    0  0.28044620658E+02  0.43944586831E+02 -0.10540211729E+03  0.11758925882E+03  0.00000000000E+00 0. -1.
<scales pt_clust_5="13000.00000" pt_clust_6="13000.00000" pt_clust_7="13000.00000" pt_clust_8="13000.00000" pt_clust_9="52.13087"></scales>
<clustering>
<clus scale="   52.131">  1  9  2 -1</clus>
<clus scale="   80.538">  5  6 -1 -1</clus>
<clus scale="   83.894">  1  5  2 -1</clus>
<clus scale="   90.897">  7  8 -1 -1</clus>
<clus scale="   52.131">  1  5  2 -1</clus>
</clustering>
</event>
<event>
 9    1  0.7719620E-005  0.9535146E+02  0.7546771E-02  0.1294246E+00
          1   -1    0    0  502    0 -0.00000000000E+00  0.00000000000E+00  0.39940489668E+03  0.39940489668E+03  0.00000000000E+00 0. -1.
         21   -1    0    0  501  502  0.00000000000E+00 -0.00000000000E+00 -0.67844039139E+02  0.67844039139E+02  0.00000000000E+00 0.  1.
         23    2    1    2    0    0 -0.16905915591E+01 -0.33327182806E+02  0.33461730176E+03  0.34803738691E+03  0.89709112334E+02 0.  0.
        -24    2    1    2    0    0 -0.24768682789E+02  0.24428170594E+02 -0.10636455981E+02  0.90285052477E+02  0.82631914774E+02 0.  0.
         13    1    4    4    0    0  0.15202040101E+02 -0.17797079354E+02  0.13849320987E+02  0.27196355428E+02  0.00000000000E+00 0. -1.
        -14    1    4    4    0    0 -0.39970722890E+02  0.42225249948E+02 -0.24485776969E+02  0.63088697049E+02  0.00000000000E+00 0.  1.
        -11    1    3    3    0    0 -0.39856349452E+02  0.63851058276E+01  0.12872873336E+03  0.13490880239E+03  0.00000000000E+00 0.  1.
         11    1    3    3    0    0  0.38165757893E+02 -0.39712288633E+02  0.20588856840E+03  0.21312858453E+03  0.00000000000E+00 0. -1.
          2    1    1    2  501    0  0.26459274348E+02  0.88990122111E+01  0.75800117575E+01  0.28926496428E+02  0.00000000000E+00 0. -1.
<scales pt_clust_5="13000.00000" pt_clust_6="13000.00000" pt_clust_7="13000.00000" pt_clust_8="13000.00000" pt_clust_9="27.91569"></scales>
<clustering>
<clus scale="   27.916">  2  9  1 -1</clus>
<clus scale="   82.632">  5  6 -1 -1</clus>
<clus scale="   88.725">  2  5  1 -1</clus>
<clus scale="   89.709">  7  8 -1 -1</clus>
<clus scale="   27.916">  2  5  1 -1</clus>
</clustering>
</event>
<event>
 9    1  0.7719620E-005  0.1456269E+03  0.7546771E-02  0.1219632E+00
          3   -1    0    0  502    0 -0.00000000000E+00  0.00000000000E+00  0.36424136021E+03  0.36424136021E+03  0.00000000000E+00 0. -1.
         21   -1    0    0  501  502  0.00000000000E+00 -0.00000000000E+00 -0.16297887414E+03  0.16297887414E+03  0.00000000000E+00 0. -1.
         23    2    1    2    0    0 -0.15879702919E+02 -0.56106397147E+02  0.22359397266E+03  0.24869733393E+03  0.91956546956E+02 0.  0.
        -24    2    1    2    0    0 -0.11190761769E+03  0.28721445023E+02  0.18839387247E+02  0.14150255243E+03  0.79497254871E+02 0.  0.
         13    1    4    4    0    0 -0.12166218365E+03  0.22213664572E+02  0.55763683482E+01  0.12379915067E+03  0.00000000000E+00 0. -1.
        -14    1    4    4    0    0  0.97545659605E+01  0.65077804507E+01  0.13263018899E+02  0.17703401757E+02  0.00000000000E+00 0.  1.
        -11    1    3    3    0    0  0.20175185269E+02 -0.59351168682E+02  0.18698215141E+03  0.19721035538E+03  0.00000000000E+00 0. -1.
         11    1    3    3    0    0 -0.36054888188E+02  0.32447715345E+01  0.36611821248E+02  0.51486978545E+02  0.00000000000E+00 0.  1.
          4    1    1    2  501    0  0.12778732061E+03  0.27384952124E+02 -0.41170873831E+02  0.13702034799E+03  0.00000000000E+00 0. -1.
<scales pt_clust_5="13000.00000" pt_clust_6="13000.00000" pt_clust_7="13000.00000" pt_clust_8="13000.00000" pt_clust_9="122.01385"></scales>
<clustering>
<clus scale="   79.497">  5  6 -1 -1</clus>
<clus scale="   91.957">  7  8 -1 -1</clus>
<clus scale="  108.886">  1  7  2 -1</clus>
<clus scale="  122.014">  2  9  1 -1</clus>
<clus scale="  122.014">  2  5  1 -1</clus>
</clustering>
</event>
<event>
 9    1  0.7719620E-005  0.3132411E+03  0.7546771E-02  0.1118278E+00
          1   -1    0    0  502    0 -0.00000000000E+00  0.00000000000E+00  0.98713972905E+03  0.98713972905E+03  0.00000000000E+00 0. -1.
         21   -1    0    0  501  502  0.00000000000E+00 -0.00000000000E+00 -0.27449590058E+03  0.27449590058E+03  0.00000000000E+00 0. -1.
        -24    2    1    2    0    0 -0.27061130488E+02 -0.73506376945E+02 -0.72320261347E+02  0.13342275342E+03  0.80224177731E+02 0.  0.
         23    2    1    2    0    0  0.19998519440E+03  0.30210195155E+03  0.75181146532E+03  0.83966865930E+03  0.92538159216E+02 0.  0.
         13    1    3    3    0    0  0.15283686024E+02 -0.13903694529E+02  0.10309036062E+02  0.23090690864E+02  0.00000000000E+00 0. -1.
        -14    1    3    3    0    0 -0.42344816512E+02 -0.59602682416E+02 -0.82629297409E+02  0.11033206255E+03  0.00000000000E+00 0.  1.
        -11    1    4    4    0    0 -0.44752611377E+00  0.29595525875E+02  0.28160667357E+02  0.40854848151E+02  0.00000000000E+00 0.  1.
         11    1    4    4    0    0  0.20043272051E+03  0.27250642567E+03  0.72365079796E+03  0.79881381115E+03  0.00000000000E+00 0. -1.
          2    1    1    2  501    0 -0.17292406391E+03 -0.22859557460E+03  0.33152624496E+02  0.28854421692E+03  0.00000000000E+00 0. -1.
<scales pt_clust_5="13000.00000" pt_clust_6="13000.00000" pt_clust_7="13000.00000" pt_clust_8="13000.00000" pt_clust_9="299.26026"></scales>
<clustering>
<clus scale="   80.224">  5  6 -1 -1</clus>
<clus scale="   92.538">  7  8 -1 -1</clus>
<clus scale="  112.122">  1  5  2 -1</clus>
<clus scale="  299.260">  2  9  1 -1</clus>
<clus scale="  299.260">  2  5  1 -1</clus>
</clustering>
</event>
<event>
 9    1  0.7719620E-005  0.1017686E+03  0.7546771E-02  0.1281668E+00
         21   -1    0    0  501  502  0.00000000000E+00  0.00000000000E+00  0.72571734594E+02  0.72571734594E+02  0.00000000000E+00 0.  1.
          3   -1    0    0  502    0 -0.00000000000E+00 -0.00000000000E+00 -0.31229548800E+03  0.31229548800E+03  0.00000000000E+00 0. -1.
         23    2    1    2    0    0  0.27663708314E+02  0.49834057323E+02 -0.22694528464E+03  0.25102164434E+03  0.90878983697E+02 0.  0.
        -24    2    1    2    0    0 -0.21671831561E+02 -0.21590236937E+00 -0.10398384139E+02  0.83810303784E+02  0.80289013761E+02 0.  0.
         11    1    4    4    0    0 -0.31245943833E+02  0.34793197843E+02 -0.37739380149E+01  0.46916076459E+02  0.00000000000E+00 0. -1.
        -12    1    4    4    0    0  0.95741122719E+01 -0.35009100212E+02 -0.66244461236E+01  0.36894227325E+02  0.00000000000E+00 0.  1.
        -13    1    3    3    0    0 -0.22586189026E+02  0.18760025880E+02 -0.19304268470E+02  0.35138714930E+02  0.00000000000E+00 0.  1.
         13    1    3    3    0    0  0.50249897340E+02  0.31074031443E+02 -0.20764101617E+03  0.21588292941E+03  0.00000000000E+00 0. -1.
          4    1    1    2  501    0 -0.59918767528E+01 -0.49618154954E+02 -0.23800846177E+01  0.50035274465E+02  0.00000000000E+00 0. -1.
<scales pt_clust_5="13000.00000" pt_clust_6="13000.00000" pt_clust_7="13000.00000" pt_clust_8="13000.00000" pt_clust_9="49.97863"></scales>
<clustering>
<clus scale="   49.979">  1  9  2 -1</clus>
<clus scale="   80.289">  5  6 -1 -1</clus>
<clus scale="   90.879">  7  8 -1 -1</clus>
<clus scale="   92.435">  1  5  2 -1</clus>
<clus scale="   49.979">  1  5  2 -1</clus>
</clustering>
</event>
<event>
 9    1  0.7719620E-005  0.9466997E+02  0.7546771E-02  0.1293110E+00
          1   -1    0    0  502    0 -0.00000000000E+00  0.00000000000E+00  0.44481811171E+03  0.44481811171E+03  0.00000000000E+00 0. -1.
         21   -1    0    0  501  502  0.00000000000E+00 -0.00000000000E+00 -0.59889084437E+02  0.59889084437E+02  0.00000000000E+00 0. -1.
         23    2    1    2    0    0  0.50726674275E+02  0.19109484020E+01  0.36487683296E+03  0.37777720612E+03  0.83687914425E+02 0.  0.
        -24    2    1    2    0    0 -0.12986728462E+02  0.11527816507E+02  0.24304672547E+02  0.86643671223E+02  0.81331807959E+02 0.  0.
         11    1    4    4    0    0  0.21316940972E+02  0.17190237678E+02  0.40017248419E+02  0.48490168229E+02  0.00000000000E+00 0. -1.
        -12    1    4    4    0    0 -0.34303669434E+02 -0.56624211718E+01 -0.15712575873E+02  0.38153502994E+02  0.00000000000E+00 0.  1.
        -11    1    3    3    0    0 -0.15691081839E+02 -0.18394556306E+02  0.52904315173E+02  0.58167313114E+02  0.00000000000E+00 0. -1.
         11    1    3    3    0    0  0.66417756114E+02  0.20305504708E+02  0.31197251779E+03  0.31960989300E+03  0.00000000000E+00 0.  1.
          2    1    1    2  501    0 -0.37739945813E+02 -0.13438764909E+02 -0.42524782341E+01  0.40286318811E+02  0.00000000000E+00 0. -1.
<scales pt_clust_5="13000.00000" pt_clust_6="13000.00000" pt_clust_7="13000.00000" pt_clust_8="13000.00000" pt_clust_9="40.06125"></scales>
<clustering>
<clus scale="   40.061">  2  9  1 -1</clus>
<clus scale="   81.332">  5  6 -1 -1</clus>
<clus scale="   83.688">  7  8 -1 -1</clus>
<clus scale="   92.594">  2  5  1 -1</clus>
<clus scale="   40.061">  2  5  1 -1</clus>
</clustering>
</event>
<event>
 9    1  0.7719620E-005  0.1352741E+03  0.7546771E-02  0.1236145E+00
         21   -1    0    0  501  502  0.00000000000E+00  0.00000000000E+00  0.12082530405E+04  0.12082530405E+04  0.00000000000E+00 0. -1.
          3   -1    0    0  502    0 -0.00000000000E+00 -0.00000000000E+00 -0.33181783717E+02  0.33181783717E+02  0.00000000000E+00 0. -1.
         23    2    1    2    0    0 -0.25001328087E+02  0.22837278376E+02  0.10723122099E+03  0.14424637349E+03  0.90343089506E+02 0.  0.
        -24    2    1    2    0    0 -0.33320831008E+02  0.83066452435E+02  0.36614583880E+03  0.38515486968E+03  0.79190814286E+02 0.  0.
         13    1    4    4    0    0 -0.22728521154E+02  0.76539831563E+02  0.16177159187E+03  0.18040227112E+03  0.00000000000E+00 0. -1.
        -14    1    4    4    0    0 -0.10592309854E+02  0.65266208728E+01  0.20437424692E+03  0.20475259855E+03  0.00000000000E+00 0.  1.
        -11    1    3    3    0    0  0.28810661889E+02  0.30111816772E+02  0.39333701652E+02  0.57305460764E+02  0.00000000000E+00 0. -1.
         11    1    3    3    0    0 -0.53811989976E+02 -0.72745383959E+01  0.67897519339E+02  0.86940912730E+02  0.00000000000E+00 0.  1.
          4    1    1    2  501    0  0.58322159095E+02 -0.10590373081E+03  0.70169419701E+03  0.71203358106E+03  0.00000000000E+00 0. -1.
<scales pt_clust_5="13000.00000" pt_clust_6="13000.00000" pt_clust_7="13000.00000" pt_clust_8="13000.00000" pt_clust_9="109.67173"></scales>
<clustering>
<clus scale="   79.191">  5  6 -1 -1</clus>
<clus scale="   90.343">  7  8 -1 -1</clus>
<clus scale="   96.480">  2  7  1 -1</clus>
<clus scale="  109.672">  1  9  2 -1</clus>
<clus scale="  109.672">  1  5  2 -1</clus>
</clustering>
</event>
<event>
 9    1  0.7719620E-005  0.9856545E+02  0.7546771E-02  0.1285254E+00
         21   -1    0    0  501  502  0.00000000000E+00  0.00000000000E+00  0.98132444011E+02  0.98132444011E+02  0.00000000000E+00 0.  1.
          3   -1    0    0  502    0 -0.00000000000E+00 -0.00000000000E+00 -0.20384338142E+03  0.20384338142E+03  0.00000000000E+00 0. -1.
        -24    2    1    2    0    0 -0.26586813946E+02  0.33823176131E+02 -0.11380585138E+03  0.15039401566E+03  0.88406573387E+02 0.  0.
         23    2    1    2    0    0  0.34059137684E+02  0.14764522789E+02 -0.84508891126E+01  0.99713093679E+02  0.92158925402E+02 0.  0.
         11    1    3    3    0    0 -0.55906949290E+02  0.27337759001E+02 -0.49841015636E+02  0.79731216507E+02  0.00000000000E+00 0. -1.
        -12    1    3    3    0    0  0.29320135344E+02  0.64854171301E+01 -0.63964835749E+02  0.70662799154E+02  0.00000000000E+00 0.  1.
        -11    1    4    4    0    0  0.57991625037E+02  0.11460393367E+00 -0.29090897372E+02  0.64879288054E+02  0.00000000000E+00 0. -1.
         11    1    4    4    0    0 -0.23932487353E+02  0.14649918855E+02  0.20640008259E+02  0.34833805625E+02  0.00000000000E+00 0.  1.
          4    1    1    2  501    0 -0.74723237380E+01 -0.48587698920E+02  0.16545803093E+02  0.51868716086E+02  0.00000000000E+00 0. -1.
<scales pt_clust_5="13000.00000" pt_clust_6="13000.00000" pt_clust_7="13000.00000" pt_clust_8="13000.00000" pt_clust_9="49.15893"></scales>
<clustering>
<clus scale="   49.159">  1  9  2 -1</clus>
<clus scale="   88.407">  5  6 -1 -1</clus>
<clus scale="   92.159">  7  8 -1 -1</clus>
<clus scale="   95.066">  2  5  1 -1</clus>
<clus scale="   49.159">  1  5  2 -1</clus>
</clustering>
</event>
<event>
 9    1  0.7719620E-005  0.1352075E+03  0.7546771E-02  0.1222346E+00
         21   -1    0    0  501  502  0.00000000000E+00  0.00000000000E+00  0.79267213484E+02  0.79267213484E+02  0.00000000000E+00 0.  1.
         -4   -1    0    0    0  501 -0.00000000000E+00 -0.00000000000E+00 -0.61541664160E+03  0.61541664160E+03  0.00000000000E+00 0.  1.
        -24    2    1    2    0    0  0.18164449192E+02 -0.10431528701E+03 -0.50718852846E+03  0.52448472059E+03  0.81439501508E+02 0.  0.
         23    2    1    2    0    0  0.12125288937E+02  0.71220471541E+02 -0.41123429640E+02  0.12371621093E+03  0.91625248616E+02 0.  0.
         13    1    3    3    0    0  0.19447275210E+02 -0.16008582692E+02 -0.29907782216E+02  0.39101747659E+02  0.00000000000E+00 0. -1.
        -14    1    3    3    0    0 -0.12828260178E+01 -0.88306704322E+02 -0.47728074625E+03  0.48538297293E+03  0.00000000000E+00 0.  1.
        -11    1    4    4    0    0  0.28001182013E+02 -0.12975515947E+02 -0.82360478617E+01  0.31941551193E+02  0.00000000000E+00 0.  1.
         11    1    4    4    0    0 -0.15875893076E+02  0.84195987489E+02 -0.32887381778E+02  0.91774659740E+02  0.00000000000E+00 0. -1.
         -3    1    1    2    0  502 -0.30289738129E+02  0.33094815473E+02  0.12162529990E+02  0.46482923562E+02  0.00000000000E+00 0.  1.
<scales pt_clust_5="13000.00000" pt_clust_6="13000.00000" pt_clust_7="13000.00000" pt_clust_8="13000.00000" pt_clust_9="44.86352"></scales>
<clustering>
<clus scale="   44.864">  1  9  2 -1</clus>
<clus scale="   81.440">  5  6 -1 -1</clus>
<clus scale="   91.625">  7  8 -1 -1</clus>
<clus scale="  128.523">  2  5  1 -1</clus>
<clus scale="   44.864">  1  5  2 -1</clus>
</clustering>
</event>
<event>
 9    1  0.7719620E-005  0.1529448E+03  0.7546771E-02  0.1198720E+00
         21   -1    0    0  501  502  0.00000000000E+00  0.00000000000E+00  0.10075366445E+03  0.10075366445E+03  0.00000000000E+00 0. -1.
          1   -1    0    0  502    0 -0.00000000000E+00 -0.00000000000E+00 -0.64610842842E+03  0.64610842842E+03  0.00000000000E+00 0. -1.
         23    2    1    2    0    0  0.84350057483E+02 -0.91664179686E+02 -0.56678233787E+03  0.58745560951E+03  0.91348894818E+02 0.  0.
        -24    2    1    2    0    0 -0.83888833839E+02  0.70514021443E+02  0.14020543564E+02  0.13699206792E+03  0.80998070146E+02 0.  0.
         11    1    4    4    0    0 -0.77284818828E+02  0.87332151368E+02  0.19217603040E+02  0.11819121858E+03  0.00000000000E+00 0. -1.
        -12    1    4    4    0    0 -0.66040150115E+01 -0.16818129925E+02 -0.51970594768E+01  0.18800849333E+02  0.00000000000E+00 0.  1.
        -11    1    3    3    0    0  0.14906462749E+02 -0.16230969629E+02 -0.16055625132E+02  0.27265914714E+02  0.00000000000E+00 0.  1.
         11    1    3    3    0    0  0.69443594734E+02 -0.75433210057E+02 -0.55072671274E+03  0.56018969480E+03  0.00000000000E+00 0. -1.
          2    1    1    2  501    0 -0.46122364366E+00  0.21150158243E+02  0.74070303457E+01  0.22414415440E+02  0.00000000000E+00 0. -1.
<scales pt_clust_5="13000.00000" pt_clust_6="13000.00000" pt_clust_7="13000.00000" pt_clust_8="13000.00000" pt_clust_9="21.15519"></scales>
<clustering>
<clus scale="   21.155">  1  9  2 -1</clus>
<clus scale="   80.998">  5  6 -1 -1</clus>
<clus scale="   91.349">  7  8 -1 -1</clus>
<clus scale="  146.997">  1  5  2 -1</clus>
<clus scale="   21.155">  1  5  2 -1</clus>
</clustering>
</event>
<event>
 9    1  0.7719620E-005  0.9330289E+02  0.7546771E-02  0.1300804E+00
         21   -1    0    0  501  502  0.00000000000E+00  0.00000000000E+00  0.57384244682E+03  0.57384244682E+03  0.00000000000E+00 0. -1.
         -4   -1    0    0    0  501 -0.00000000000E+00 -0.00000000000E+00 -0.29754432451E+02  0.29754432451E+02  0.00000000000E+00 0.  1.
         23    2    1    2    0    0  0.28901377416E+02 -0.21172259028E+01  0.76907017225E+02  0.12218779690E+03  0.90417897293E+02 0.  0.
        -24    2    1    2    0    0  0.10625919005E+01  0.13049750299E+01  0.39669060049E+03  0.40481015791E+03  0.80653576269E+02 0.  0.
         13    1    4    4    0    0  0.38614047193E+02  0.13280230849E+02  0.18113127985E+03  0.18567700372E+03  0.00000000000E+00 0. -1.
        -14    1    4    4    0    0 -0.37551455293E+02 -0.11975255819E+02  0.21555932064E+03  0.21913315418E+03  0.00000000000E+00 0.  1.
        -13    1    3    3    0    0 -0.18491372005E+02 -0.24909036069E+02  0.58956342130E+02  0.66620126042E+02  0.00000000000E+00 0. -1.
         13    1    3    3    0    0  0.47392749420E+02  0.22791810166E+02  0.17950675095E+02  0.55567670858E+02  0.00000000000E+00 0.  1.
         -3    1    1    2    0  502 -0.29963969316E+02  0.81225087293E+00  0.70490396655E+02  0.76598924466E+02  0.00000000000E+00 0.  1.
<scales pt_clust_5="13000.00000" pt_clust_6="13000.00000" pt_clust_7="13000.00000" pt_clust_8="13000.00000" pt_clust_9="29.97498"></scales>
<clustering>
<clus scale="   29.975">  1  9  2 -1</clus>
<clus scale="   80.654">  5  6 -1 -1</clus>
<clus scale="   83.875">  1  5  2 -1</clus>
<clus scale="   90.418">  7  8 -1 -1</clus>
<clus scale="   29.975">  1  5  2 -1</clus>
</clustering>
</event>
<event>
 9    1  0.7719620E-005  0.1064579E+03  0.7546771E-02  0.1273229E+00
         21   -1    0    0  501  502  0.00000000000E+00  0.00000000000E+00  0.71662409311E+02  0.71662409311E+02  0.00000000000E+00 0.  1.
          1   -1    0    0  502    0 -0.00000000000E+00 -0.00000000000E+00 -0.20177029244E+03  0.20177029244E+03  0.00000000000E+00 0. -1.
         23    2    1    2    0    0  0.27103383003E+02 -0.33751792032E+02 -0.95413038826E+02  0.14055451649E+03  0.93691767476E+02 0.  0.
        -24    2    1    2    0    0 -0.25751770720E+02  0.57564260024E+02 -0.37706880972E+02  0.10883795122E+03  0.80293791956E+02 0.  0.
         13    1    4    4    0    0  0.14830915630E+02  0.48223756853E+02  0.30810816115E+01  0.50546808478E+02  0.00000000000E+00 0. -1.
        -14    1    4    4    0    0 -0.40582686351E+02  0.93405031713E+01 -0.40787962583E+02  0.58291142746E+02  0.00000000000E+00 0.  1.
        -13    1    3    3    0    0  0.52798440380E+02 -0.39663167869E+02 -0.93023952329E+02  0.11408022571E+03  0.00000000000E+00 0. -1.
         13    1    3    3    0    0 -0.25695057377E+02  0.59113758374E+01 -0.23890864963E+01  0.26474290778E+02  0.00000000000E+00 0.  1.
          2    1    1    2  501    0 -0.13516122827E+01 -0.23812467992E+02  0.30120366670E+01  0.24040234036E+02  0.00000000000E+00 0. -1.
<scales pt_clust_5="13000.00000" pt_clust_6="13000.00000" pt_clust_7="13000.00000" pt_clust_8="13000.00000" pt_clust_9="23.85080"></scales>
<clustering>
<clus scale="   23.851">  1  9  2 -1</clus>
<clus scale="   80.294">  5  6 -1 -1</clus>
<clus scale="   93.692">  7  8 -1 -1</clus>
<clus scale="   94.880">  1  5  2 -1</clus>
<clus scale="   23.851">  1  5  2 -1</clus>
</clustering>
</event>
<event>
 9    1  0.7719620E-005  0.1504485E+03  0.7546771E-02  0.1213108E+00
         21   -1    0    0  501  502  0.00000000000E+00  0.00000000000E+00  0.53532186715E+03  0.53532186715E+03  0.00000000000E+00 0.  1.
          3   -1    0    0  502    0 -0.00000000000E+00 -0.00000000000E+00 -0.10193246767E+03  0.10193246767E+03  0.00000000000E+00 0. -1.
         23    2    1    2    0    0 -0.87257979596E+02  0.42192087908E+01  0.65007879084E+02  0.13065978775E+03  0.72209411202E+02 0.  0.
        -24    2    1    2    0    0 -0.23517974034E+01  0.12366058048E+03  0.30344385693E+03  0.33747904578E+03  0.80724605414E+02 0.  0.
         11    1    4    4    0    0  0.20176427468E+02  0.75769110223E+02  0.98966515030E+02  0.12626328598E+03  0.00000000000E+00 0. -1.
        -12    1    4    4    0    0 -0.22528224872E+02  0.47891470257E+02  0.20447734190E+03  0.21121575980E+03  0.00000000000E+00 0.  1.
        -13    1    3    3    0    0 -0.56120525691E+02  0.30361601308E+02  0.13813354446E+02  0.65285136125E+02  0.00000000000E+00 0. -1.
         13    1    3    3    0    0 -0.31137453904E+02 -0.26142392517E+02  0.51194524638E+02  0.65374651625E+02  0.00000000000E+00 0.  1.
          4    1    1    2  501    0  0.89609776999E+02 -0.12787978927E+03  0.64937663467E+02  0.16911550128E+03  0.00000000000E+00 0. -1.
<scales pt_clust_5="13000.00000" pt_clust_6="13000.00000" pt_clust_7="13000.00000" pt_clust_8="13000.00000" pt_clust_9="126.95789"></scales>
<clustering>
<clus scale="   72.209">  7  8 -1 -1</clus>
<clus scale="   80.725">  5  6 -1 -1</clus>
<clus scale="  113.340">  2  7  1 -1</clus>
<clus scale="  126.958">  1  9  2 -1</clus>
<clus scale="  126.958">  1  5  2 -1</clus>
</clustering>
</event>
<event>
 9    1  0.7719620E-005  0.1034600E+03  0.7546771E-02  0.1276573E+00
         21   -1    0    0  501  502  0.00000000000E+00  0.00000000000E+00  0.51389930304E+02  0.51389930304E+02  0.00000000000E+00 0.  1.
         -2   -1    0    0    0  501 -0.00000000000E+00 -0.00000000000E+00 -0.52058807052E+03  0.52058807052E+03  0.00000000000E+00 0.  1.
        -24    2    1    2    0    0  0.52593625426E+02 -0.33318745017E+02 -0.35622465097E+03  0.37050826733E+03  0.80648285778E+02 0.  0.
         23    2    1    2    0    0  0.75232243185E+01  0.50657089422E+02 -0.85227098316E+02  0.13302620919E+03  0.88371796576E+02 0.  0.
         13    1    3    3    0    0 -0.19881815861E+02 -0.75499159731E+01 -0.12577143923E+03  0.12755682168E+03  0.00000000000E+00 0. -1.
        -14    1    3    3    0    0  0.72475441288E+02 -0.25768829043E+02 -0.23045321174E+03  0.24295144565E+03  0.00000000000E+00 0.  1.
        -13    1    4    4    0    0  0.44701975705E+02  0.16247013239E+02 -0.23136728622E+02  0.52891778968E+02  0.00000000000E+00 0.  1.
         13    1    4    4    0    0 -0.37178751386E+02  0.34410076184E+02 -0.62090369694E+02  0.80134430218E+02  0.00000000000E+00 0. -1.
         -1    1    1    2    0  502 -0.60116849745E+02 -0.17338344406E+02 -0.27746390936E+02  0.68443524310E+02  0.00000000000E+00 0.  1.
<scales pt_clust_5="13000.00000" pt_clust_6="13000.00000" pt_clust_7="13000.00000" pt_clust_8="13000.00000" pt_clust_9="62.56719"></scales>
<clustering>
<clus scale="   62.567">  1  9  2 -1</clus>
<clus scale="   80.648">  5  6 -1 -1</clus>
<clus scale="   88.372">  7  8 -1 -1</clus>
<clus scale="   96.946">  2  5  1 -1</clus>
<clus scale="   62.567">  1  5  2 -1</clus>
</clustering>
</event>
<event>
 9    1  0.7719620E-005  0.1231311E+03  0.7546771E-02  0.1240875E+00
          1   -1    0    0  502    0 -0.00000000000E+00  0.00000000000E+00  0.74122690612E+03  0.74122690612E+03  0.00000000000E+00 0. -1.
         21   -1    0    0  501  502  0.00000000000E+00 -0.00000000000E+00 -0.98229570019E+02  0.98229570019E+02  0.00000000000E+00 0. -1.
         23    2    1    2    0    0  0.77082411552E+02  0.33713349078E+02  0.63722670225E+03  0.64916466650E+03  0.90986845745E+02 0.  0.
        -24    2    1    2    0    0 -0.63748393838E+02 -0.16859428341E+02 -0.60285383038E+02  0.12082780428E+03  0.81344531708E+02 0.  0.
         13    1    4    4    0    0 -0.79080976016E+02  0.29644126298E+01 -0.50762238288E+02  0.94018047979E+02  0.00000000000E+00 0. -1.
        -14    1    4    4    0    0  0.15332582178E+02 -0.19823840971E+02 -0.95231447505E+01  0.26809756303E+02  0.00000000000E+00 0.  1.
        -11    1    3    3    0    0 -0.47332580116E+01  0.39306765782E+02  0.15279970751E+03  0.15784541863E+03  0.00000000000E+00 0.  1.
         11    1    3    3    0    0  0.81815669564E+02 -0.55934167042E+01  0.48442699474E+03  0.49131924787E+03  0.00000000000E+00 0. -1.
          2    1    1    2  501    0 -0.13334017715E+02 -0.16853920737E+02  0.66056016889E+02  0.69464005354E+02  0.00000000000E+00 0. -1.
<scales pt_clust_5="13000.00000" pt_clust_6="13000.00000" pt_clust_7="13000.00000" pt_clust_8="13000.00000" pt_clust_9="21.49072"></scales>
<clustering>
<clus scale="   21.491">  2  9  1 -1</clus>
<clus scale="   81.345">  5  6 -1 -1</clus>
<clus scale="   90.987">  7  8 -1 -1</clus>
<clus scale="  116.188">  2  5  1 -1</clus>
<clus scale="   21.491">  2  5  1 -1</clus>
</clustering>
</event>
<event>
 9    1  0.7719620E-005  0.1061434E+03  0.7546771E-02  0.1275194E+00
          1   -1    0    0  502    0 -0.00000000000E+00  0.00000000000E+00  0.56990863619E+03  0.56990863619E+03  0.00000000000E+00 0. -1.
         21   -1    0    0  501  502  0.00000000000E+00 -0.00000000000E+00 -0.45966463148E+02  0.45966463148E+02  0.00000000000E+00 0. -1.
         23    2    1    2    0    0 -0.50383391466E+02 -0.10850439162E+02  0.41011396446E+03  0.42422062064E+03  0.95464406790E+02 0.  0.
        -24    2    1    2    0    0  0.32455860174E+02  0.20833870470E+02  0.13548076108E+03  0.16182331532E+03  0.79651213045E+02 0.  0.
         13    1    4    4    0    0 -0.10118761033E+02 -0.23649912883E+02  0.28533865423E+02  0.38417303135E+02  0.00000000000E+00 0. -1.
        -14    1    4    4    0    0  0.42574621207E+02  0.44483783353E+02  0.10694689566E+03  0.12340601219E+03  0.00000000000E+00 0.  1.
        -13    1    3    3    0    0  0.24004908634E+02  0.16726209716E+01  0.41539987448E+02  0.48006289761E+02  0.00000000000E+00 0.  1.
         13    1    3    3    0    0 -0.74388300100E+02 -0.12523060134E+02  0.36857397701E+03  0.37621433088E+03  0.00000000000E+00 0. -1.
          2    1    1    2  501    0  0.17927531292E+02 -0.99834313074E+01 -0.21652552499E+02  0.29831163380E+02  0.00000000000E+00 0. -1.
<scales pt_clust_5="13000.00000" pt_clust_6="13000.00000" pt_clust_7="13000.00000" pt_clust_8="13000.00000" pt_clust_9="20.51988"></scales>
<clustering>
<clus scale="   20.520">  2  9  1 -1</clus>
<clus scale="   79.651">  5  6 -1 -1</clus>
<clus scale="   92.181">  2  5  1 -1</clus>
<clus scale="   95.464">  7  8 -1 -1</clus>
<clus scale="   20.520">  2  5  1 -1</clus>
</clustering>
</event>
<event>
 9    1  0.7719620E-005  0.9558738E+02  0.7546771E-02  0.1297027E+00
          1   -1    0    0  502    0 -0.00000000000E+00  0.00000000000E+00  0.77117205869E+03  0.77117205869E+03  0.00000000000E+00 0. -1.
         21   -1    0    0  501  502  0.00000000000E+00 -0.00000000000E+00 -0.30088092605E+02  0.30088092605E+02  0.00000000000E+00 0. -1.
        -24    2    1    2    0    0 -0.36323386858E+01  0.61066459899E+02  0.32510910046E+03  0.34014893200E+03  0.79139511802E+02 0.  0.
         23    2    1    2    0    0 -0.35508742573E+02  0.23336425501E+02  0.26689576196E+03  0.28538287652E+03  0.91676490463E+02 0.  0.
         11    1    3    3    0    0  0.27699578538E+02  0.33912471454E+01  0.49425995365E+02  0.56759987898E+02  0.00000000000E+00 0. -1.
        -12    1    3    3    0    0 -0.31331917223E+02  0.57675212753E+02  0.27568310510E+03  0.28338894410E+03  0.00000000000E+00 0.  1.
        -11    1    4    4    0    0 -0.40203324940E+01  0.53272467769E+02  0.10569295104E+03  0.11842769437E+03  0.00000000000E+00 0. -1.
         11    1    4    4    0    0 -0.31488410079E+02 -0.29936042267E+02  0.16120281092E+03  0.16695518215E+03  0.00000000000E+00 0.  1.
          2    1    1    2  501    0  0.39141081259E+02 -0.84402885400E+02  0.14907910366E+03  0.17572834277E+03  0.00000000000E+00 0. -1.
<scales pt_clust_5="13000.00000" pt_clust_6="13000.00000" pt_clust_7="13000.00000" pt_clust_8="13000.00000" pt_clust_9="93.03694"></scales>
<clustering>
<clus scale="   79.140">  5  6 -1 -1</clus>
<clus scale="   91.676">  7  8 -1 -1</clus>
<clus scale="   93.037">  2  9  1 -1</clus>
<clus scale="   83.639">  1  5  2 -1</clus>
<clus scale="   93.037">  2  5  1 -1</clus>
</clustering>
</event>
<event>
 9    1  0.7719620E-005  0.1084014E+03  0.7546771E-02  0.1269816E+00
         21   -1    0    0  501  502  0.00000000000E+00  0.00000000000E+00  0.25699532954E+03  0.25699532954E+03  0.00000000000E+00 0.  1.
          3   -1    0    0  502    0 -0.00000000000E+00 -0.00000000000E+00 -0.81880159126E+02  0.81880159126E+02  0.00000000000E+00 0. -1.
         23    2    1    2    0    0  0.34066458398E+02 -0.48256300056E+02  0.90889119089E+01  0.11121947591E+03  0.93797491543E+02 0.  0.
        -24    2    1    2    0    0 -0.45928155640E+02  0.23931166218E+02  0.47014087515E+02  0.10560557711E+03  0.79120903016E+02 0.  0.
         13    1    4    4    0    0 -0.32443536704E+02  0.68346836390E+01 -0.17517940349E+02  0.37498989432E+02  0.00000000000E+00 0. -1.
        -14    1    4    4    0    0 -0.13484618936E+02  0.17096482579E+02  0.64532027864E+02  0.68106587674E+02  0.00000000000E+00 0.  1.
        -13    1    3    3    0    0  0.63650763296E+02 -0.50104755484E+02  0.96045553877E+01  0.81572995988E+02  0.00000000000E+00 0. -1.
         13    1    3    3    0    0 -0.29584304898E+02  0.18484554273E+01 -0.51564347878E+00  0.29646479926E+02  0.00000000000E+00 0.  1.
          4    1    1    2  501    0  0.11861697243E+02  0.24325133839E+02  0.11901217099E+03  0.12205043564E+03  0.00000000000E+00 0. -1.
<scales pt_clust_5="13000.00000" pt_clust_6="13000.00000" pt_clust_7="13000.00000" pt_clust_8="13000.00000" pt_clust_9="27.06311"></scales>
<clustering>
<clus scale="   27.063">  1  9  2 -1</clus>
<clus scale="   79.121">  5  6 -1 -1</clus>
<clus scale="   93.797">  7  8 -1 -1</clus>
<clus scale="   95.984">  1  5  2 -1</clus>
<clus scale="   27.063">  1  5  2 -1</clus>
</clustering>
</event>
<event>
 9    1  0.7719620E-005  0.9935740E+02  0.7546771E-02  0.1286711E+00
          1   -1    0    0  502    0 -0.00000000000E+00  0.00000000000E+00  0.23373820455E+03  0.23373820455E+03  0.00000000000E+00 0. -1.
         21   -1    0    0  501  502  0.00000000000E+00 -0.00000000000E+00 -0.16075321497E+03  0.16075321497E+03  0.00000000000E+00 0. -1.
        -24    2    1    2    0    0  0.45783746974E+02  0.52943032826E+01  0.15842763166E+03  0.18366352915E+03  0.80677111579E+02 0.  0.
         23    2    1    2    0    0 -0.24927518349E+02 -0.37969327163E+00  0.25799312524E+02  0.97541050321E+02  0.90703509486E+02 0.  0.
         11    1    3    3    0    0  0.65809762854E+02 -0.93758887092E+01  0.98866396229E+02  0.11913604190E+03  0.00000000000E+00 0. -1.
        -12    1    3    3    0    0 -0.20026015880E+02  0.14670191992E+02  0.59561235428E+02  0.64527487250E+02  0.00000000000E+00 0.  1.
        -13    1    4    4    0    0 -0.39300571917E+02 -0.36180987606E+02  0.24936318894E+02  0.58952682866E+02  0.00000000000E+00 0.  1.
         13    1    4    4    0    0  0.14373053568E+02  0.35801294334E+02  0.86299363042E+00  0.38588367455E+02  0.00000000000E+00 0. -1.
          2    1    1    2  501    0 -0.20856228625E+02 -0.49146100109E+01 -0.11124195461E+03  0.11328684005E+03  0.00000000000E+00 0. -1.
<scales pt_clust_5="13000.00000" pt_clust_6="13000.00000" pt_clust_7="13000.00000" pt_clust_8="13000.00000" pt_clust_9="21.42745"></scales>
<clustering>
<clus scale="   21.427">  2  9  1 -1</clus>
<clus scale="   80.677">  5  6 -1 -1</clus>
<clus scale="   90.297">  1  5  2 -1</clus>
<clus scale="   90.704">  7  8 -1 -1</clus>
<clus scale="   21.427">  2  5  1 -1</clus>
</clustering>
</event>
<event>
 9    1  0.7719620E-005  0.1244157E+03  0.7546771E-02  0.1244746E+00
         21   -1    0    0  501  502  0.00000000000E+00  0.00000000000E+00  0.61821533141E+03  0.61821533141E+03  0.00000000000E+00 0.  1.
          3   -1    0    0  502    0 -0.00000000000E+00 -0.00000000000E+00 -0.10562303114E+03  0.10562303114E+03  0.00000000000E+00 0. -1.
         23    2    1    2    0    0 -0.18823664772E+02 -0.53830320690E+02 -0.67840068410E+02  0.12476423990E+03  0.87816894135E+02 0.  0.
        -24    2    1    2    0    0 -0.79510398616E+01  0.43436530308E+02  0.46963846218E+03  0.48461799392E+03  0.11110519192E+03 0.  0.
         11    1    4    4    0    0  0.23606874162E+02 -0.26080750741E+02  0.77405311416E+02  0.85023951345E+02  0.00000000000E+00 0. -1.
        -12    1    4    4    0    0 -0.31557914024E+02  0.69517281048E+02  0.39223315077E+03  0.39959404258E+03  0.00000000000E+00 0.  1.
        -13    1    3    3    0    0  0.15168406039E+02 -0.37428719553E+02  0.69607328768E+01  0.40980988169E+02  0.00000000000E+00 0.  1.
         13    1    3    3    0    0 -0.33992070811E+02 -0.16401601137E+02 -0.74800801286E+02  0.83783251733E+02  0.00000000000E+00 0. -1.
          4    1    1    2  501    0  0.26774704633E+02  0.10393790382E+02  0.11079390650E+03  0.11445612873E+03  0.00000000000E+00 0. -1.
<scales pt_clust_5="13000.00000" pt_clust_6="13000.00000" pt_clust_7="13000.00000" pt_clust_8="13000.00000" pt_clust_9="28.72135"></scales>
<clustering>
<clus scale="   28.721">  1  9  2 -1</clus>
<clus scale="   87.817">  7  8 -1 -1</clus>
<clus scale="  104.148">  2  7  1 -1</clus>
<clus scale="  111.105">  5  6 -1 -1</clus>
<clus scale="   28.721">  1  5  2 -1</clus>
</clustering>
</event>
<event>
 9    1  0.7719620E-005  0.1023247E+03  0.7546771E-02  0.1280768E+00
          1   -1    0    0  502    0 -0.00000000000E+00  0.00000000000E+00  0.19037002992E+03  0.19037002992E+03  0.00000000000E+00 0. -1.
         21   -1    0    0  501  502  0.00000000000E+00 -0.00000000000E+00 -0.30050907686E+03  0.30050907686E+03  0.00000000000E+00 0. -1.
        -24    2    1    2    0    0  0.22945108889E+02  0.43056321601E+02  0.16465684171E+03  0.18923852833E+03  0.79492265217E+02 0.  0.
         23    2    1    2    0    0 -0.17706900754E+02 -0.18571015886E+02 -0.17538381191E+03  0.19912360414E+03  0.90732085174E+02 0.  0.
         13    1    3    3    0    0 -0.23276971965E+02  0.27320019168E+02  0.11115228710E+03  0.11680338950E+03  0.00000000000E+00 0. -1.
        -14    1    3    3    0    0  0.46222080854E+02  0.15736302433E+02  0.53504554615E+02  0.72435138830E+02  0.00000000000E+00 0.  1.
        -13    1    4    4    0    0 -0.39614778168E+02 -0.27345790485E+02 -0.16744119123E+03  0.17422306227E+03  0.00000000000E+00 0.  1.
         13    1    4    4    0    0  0.21907877414E+02  0.87747745990E+01 -0.79426206787E+01  0.24900541867E+02  0.00000000000E+00 0. -1.
          2    1    1    2  501    0 -0.52382081357E+01 -0.24485305715E+02 -0.99412076750E+02  0.10251697432E+03  0.00000000000E+00 0. -1.
<scales pt_clust_5="13000.00000" pt_clust_6="13000.00000" pt_clust_7="13000.00000" pt_clust_8="13000.00000" pt_clust_9="25.03935"></scales>
<clustering>
<clus scale="   25.039">  2  9  1 -1</clus>
<clus scale="   79.492">  5  6 -1 -1</clus>
<clus scale="   90.732">  7  8 -1 -1</clus>
<clus scale="   92.504">  1  5  2 -1</clus>
<clus scale="   25.039">  2  5  1 -1</clus>
</clustering>
</event>
<event>
 9    1  0.7719620E-005  0.9424179E+02  0.7546771E-02  0.1296755E+00
         21   -1    0    0  501  502  0.00000000000E+00  0.00000000000E+00  0.81862914243E+02  0.81862914243E+02  0.00000000000E+00 0.  1.
         -4   -1    0    0    0  501 -0.00000000000E+00 -0.00000000000E+00 -0.34851939155E+03  0.34851939155E+03  0.00000000000E+00 0.  1.
        -24    2    1    2    0    0  0.22299411649E+02  0.22675748217E+02 -0.24711172072E+03  0.26329856090E+03  0.85149728921E+02 0.  0.
         23    2    1    2    0    0  0.34169382540E+02  0.94321598767E+01 -0.25908833212E+02  0.10181396666E+03  0.91860240726E+02 0.  0.
         13    1    3    3    0    0  0.25755006225E+02  0.31615519889E+02 -0.44111991655E+02  0.60072699717E+02  0.00000000000E+00 0. -1.
        -14    1    3    3    0    0 -0.34555945752E+01 -0.89397716720E+01 -0.20299972906E+03  0.20322586118E+03  0.00000000000E+00 0.  1.
        -11    1    4    4    0    0  0.58938983298E+02 -0.16757400683E+02 -0.87694617101E+01  0.61899254345E+02  0.00000000000E+00 0.  1.
         11    1    4    4    0    0 -0.24769600757E+02  0.26189560559E+02 -0.17139371502E+02  0.39914712318E+02  0.00000000000E+00 0. -1.
         -3    1    1    2    0  502 -0.56468794190E+02 -0.32107908093E+02  0.63640766266E+01  0.65269778234E+02  0.00000000000E+00 0.  1.
<scales pt_clust_5="13000.00000" pt_clust_6="13000.00000" pt_clust_7="13000.00000" pt_clust_8="13000.00000" pt_clust_9="64.95878"></scales>
<clustering>
<clus scale="   64.959">  1  9  2 -1</clus>
<clus scale="   85.150">  5  6 -1 -1</clus>
<clus scale="   87.714">  2  5  1 -1</clus>
<clus scale="   91.860">  7  8 -1 -1</clus>
<clus scale="   64.959">  1  5  2 -1</clus>
</clustering>
</event>
<event>
 9    1  0.7719620E-005  0.1507522E+03  0.7546771E-02  0.1201336E+00
         21   -1    0    0  501  502  0.00000000000E+00  0.00000000000E+00  0.65505857648E+03  0.65505857648E+03  0.00000000000E+00 0. -1.
         -2   -1    0    0    0  501 -0.00000000000E+00 -0.00000000000E+00 -0.22273231782E+03  0.22273231782E+03  0.00000000000E+00 0.  1.
        -24    2    1    2    0    0  0.11770513264E+03 -0.24367840453E+02 -0.81651878325E+02  0.16596571403E+03  0.80182910277E+02 0.  0.
         23    2    1    2    0    0 -0.10706943532E+03  0.11265635979E+03  0.57602438022E+03  0.60339217329E+03  0.90126071719E+02 0.  0.
         11    1    3    3    0    0  0.88470878788E+02 -0.41873705671E+02 -0.26956079083E+02  0.10152405537E+03  0.00000000000E+00 0. -1.
        -12    1    3    3    0    0  0.29234253855E+02  0.17505865218E+02 -0.54695799242E+02  0.64441658655E+02  0.00000000000E+00 0.  1.
        -11    1    4    4    0    0 -0.56137461815E+02  0.29423995694E+00  0.19199169535E+03  0.20003077833E+03  0.00000000000E+00 0.  1.
         11    1    4    4    0    0 -0.50931973504E+02  0.11236211983E+03  0.38403268487E+03  0.40336139496E+03  0.00000000000E+00 0. -1.
         -1    1    1    2    0  502 -0.10635697324E+02 -0.88288519333E+02 -0.62046243230E+02  0.10843300698E+03  0.00000000000E+00 0.  1.
<scales pt_clust_5="13000.00000" pt_clust_6="13000.00000" pt_clust_7="13000.00000" pt_clust_8="13000.00000" pt_clust_9="88.92687"></scales>
<clustering>
<clus scale="   80.183">  5  6 -1 -1</clus>
<clus scale="   88.927">  1  9  2 -1</clus>
<clus scale="   90.126">  7  8 -1 -1</clus>
<clus scale="  145.027">  2  5  1 -1</clus>
<clus scale="   88.927">  1  5  2 -1</clus>
</clustering>
</event>
<event>
 9    1  0.7719620E-005  0.9503297E+02  0.7546771E-02  0.1299723E+00
         21   -1    0    0  501  502  0.00000000000E+00  0.00000000000E+00  0.26856163596E+03  0.26856163596E+03  0.00000000000E+00 0. -1.
         -2   -1    0    0    0  501 -0.00000000000E+00 -0.00000000000E+00 -0.38486547478E+02  0.38486547478E+02  0.00000000000E+00 0.  1.
         23    2    1    2    0    0  0.54497889600E+01 -0.14108771366E+02  0.10102969052E+03  0.13844006292E+03  0.93433907252E+02 0.  0.
        -24    2    1    2    0    0  0.19577845232E+02  0.17150103500E+02  0.97042373975E+02  0.12786716179E+03  0.79090901136E+02 0.  0.
         13    1    4    4    0    0 -0.46625091415E+01 -0.29105919345E+02  0.23652184901E+02  0.37793112905E+02  0.00000000000E+00 0. -1.
        -14    1    4    4    0    0  0.24240354374E+02  0.46256022845E+02  0.73390189073E+02  0.90074048881E+02  0.00000000000E+00 0.  1.
        -13    1    3    3    0    0  0.22569554330E+02  0.22854913812E+02  0.29721969984E+01  0.32257802513E+02  0.00000000000E+00 0.  1.
         13    1    3    3    0    0 -0.17119765370E+02 -0.36963685177E+02  0.98057493525E+02  0.10618226040E+03  0.00000000000E+00 0. -1.
         -1    1    1    2    0  502 -0.25027634192E+02 -0.30413321345E+01  0.32003023980E+02  0.40740958730E+02  0.00000000000E+00 0.  1.
<scales pt_clust_5="13000.00000" pt_clust_6="13000.00000" pt_clust_7="13000.00000" pt_clust_8="13000.00000" pt_clust_9="25.21175"></scales>
<clustering>
<clus scale="   25.212">  1  9  2 -1</clus>
<clus scale="   79.091">  5  6 -1 -1</clus>
<clus scale="   80.974">  1  5  2 -1</clus>
<clus scale="   93.434">  7  8 -1 -1</clus>
<clus scale="   25.212">  1  5  2 -1</clus>
</clustering>
</event>
<event>
 9    1  0.7719620E-005  0.9529509E+02  0.7546771E-02  0.1292694E+00
          1   -1    0    0  502    0 -0.00000000000E+00  0.00000000000E+00  0.13703117928E+03  0.13703117928E+03  0.00000000000E+00 0. -1.
         21   -1    0    0  501  502  0.00000000000E+00 -0.00000000000E+00 -0.12142763970E+03  0.12142763970E+03  0.00000000000E+00 0. -1.
         23    2    1    2    0    0 -0.51537169169E+01  0.45185529018E+02  0.18444293889E+02  0.10062887881E+03  0.87850363931E+02 0.  0.
        -24    2    1    2    0    0  0.45835660342E+02 -0.74502374764E+01 -0.23589733621E+02  0.98588967095E+02  0.83707198633E+02 0.  0.
         13    1    4    4    0    0  0.63786004102E+02  0.14072337975E+02 -0.62159270423E+01  0.65614958388E+02  0.00000000000E+00 0. -1.
        -14    1    4    4    0    0 -0.17950343759E+02 -0.21522575451E+02 -0.17373806578E+02  0.32974008706E+02  0.00000000000E+00 0.  1.
        -13    1    3    3    0    0  0.25117785227E+02 -0.11053114386E+02  0.24084429383E+02  0.36512110471E+02  0.00000000000E+00 0.  1.
         13    1    3    3    0    0 -0.30271502143E+02  0.56238643403E+02 -0.56401354935E+01  0.64116768339E+02  0.00000000000E+00 0. -1.
          2    1    1    2  501    0 -0.40681943425E+02 -0.37735291541E+02  0.20748979312E+02  0.59240973077E+02  0.00000000000E+00 0. -1.
<scales pt_clust_5="13000.00000" pt_clust_6="13000.00000" pt_clust_7="13000.00000" pt_clust_8="13000.00000" pt_clust_9="55.48852"></scales>
<clustering>
<clus scale="   55.489">  2  9  1 -1</clus>
<clus scale="   83.707">  5  6 -1 -1</clus>
<clus scale="   87.850">  7  8 -1 -1</clus>
<clus scale="   91.490">  2  5  1 -1</clus>
<clus scale="   55.489">  2  5  1 -1</clus>
</clustering>
</event>
<event>
 9    1  0.7719620E-005  0.1219351E+03  0.7546771E-02  0.1242166E+00
          1   -1    0    0  502    0 -0.00000000000E+00  0.00000000000E+00  0.54062923155E+03  0.54062923155E+03  0.00000000000E+00 0. -1.
         21   -1    0    0  501  502  0.00000000000E+00 -0.00000000000E+00 -0.17346917952E+03  0.17346917952E+03  0.00000000000E+00 0. -1.
         23    2    1    2    0    0 -0.66538279087E+02  0.58934861368E+02  0.40363493602E+03  0.42265318415E+03  0.88396221783E+02 0.  0.
        -24    2    1    2    0    0  0.62202152588E+02 -0.37877498249E+02  0.10330671320E+03  0.15001994824E+03  0.80807767055E+02 0.  0.
         11    1    4    4    0    0  0.76182539992E+02 -0.19045096452E+02  0.53654428237E+02  0.95106744072E+02  0.00000000000E+00 0. -1.
        -12    1    4    4    0    0 -0.13980387404E+02 -0.18832401797E+02  0.49652284968E+02  0.54913204168E+02  0.00000000000E+00 0.  1.
        -11    1    3    3    0    0 -0.52827517431E+02 -0.11110312328E+02  0.17362121135E+03  0.18181999524E+03  0.00000000000E+00 0.  1.
         11    1    3    3    0    0 -0.13710761656E+02  0.70045173696E+02  0.23001372467E+03  0.24083318891E+03  0.00000000000E+00 0. -1.
          2    1    1    2  501    0  0.43361264992E+01 -0.21057363119E+02 -0.13978159720E+03  0.14142527868E+03  0.00000000000E+00 0. -1.
<scales pt_clust_5="13000.00000" pt_clust_6="13000.00000" pt_clust_7="13000.00000" pt_clust_8="13000.00000" pt_clust_9="21.49918"></scales>
<clustering>
<clus scale="   21.499">  2  9  1 -1</clus>
<clus scale="   80.808">  5  6 -1 -1</clus>
<clus scale="   88.396">  7  8 -1 -1</clus>
<clus scale="  116.551">  2  5  1 -1</clus>
<clus scale="   21.499">  2  5  1 -1</clus>
</clustering>
</event>
<event>
 9    1  0.7719620E-005  0.1028813E+03  0.7546771E-02  0.1280255E+00
         21   -1    0    0  501  502  0.00000000000E+00  0.00000000000E+00  0.66812476246E+02  0.66812476246E+02  0.00000000000E+00 0. -1.
          1   -1    0    0  502    0 -0.00000000000E+00 -0.00000000000E+00 -0.72172081443E+03  0.72172081443E+03  0.00000000000E+00 0. -1.
         23    2    1    2    0    0 -0.80283683957E+01  0.24602830237E+02 -0.37666420949E+03  0.38872855430E+03  0.92543007626E+02 0.  0.
        -24    2    1    2    0    0 -0.50042659198E+02 -0.89783772210E+02 -0.28382787082E+03  0.31232915339E+03  0.80161376696E+02 0.  0.
         11    1    4    4    0    0 -0.52700243433E+02 -0.14713593196E+02 -0.13352192191E+03  0.14429798721E+03  0.00000000000E+00 0. -1.
        -12    1    4    4    0    0  0.26575842349E+01 -0.75070179014E+02 -0.15030594891E+03  0.16803116618E+03  0.00000000000E+00 0.  1.
        -13    1    3    3    0    0 -0.69440670439E+01  0.60133560119E+02 -0.24038940560E+03  0.24789379065E+03  0.00000000000E+00 0.  1.
         13    1    3    3    0    0 -0.10843013518E+01 -0.35530729883E+02 -0.13627480390E+03  0.14083476365E+03  0.00000000000E+00 0. -1.
          2    1    1    2  501    0  0.58071027593E+02  0.65180941973E+02  0.55837421258E+01  0.87475582984E+02  0.00000000000E+00 0. -1.
<scales pt_clust_5="13000.00000" pt_clust_6="13000.00000" pt_clust_7="13000.00000" pt_clust_8="13000.00000" pt_clust_9="87.29719"></scales>
<clustering>
<clus scale="   80.161">  5  6 -1 -1</clus>
<clus scale="   87.297">  1  9  2 -1</clus>
<clus scale="   91.903">  1  5  2 -1</clus>
<clus scale="   92.543">  7  8 -1 -1</clus>
<clus scale="   87.297">  1  5  2 -1</clus>
</clustering>
</event>
<event>
 9    1  0.7719620E-005  0.2310691E+03  0.7546771E-02  0.1162930E+00
          1   -1    0    0  502    0 -0.00000000000E+00  0.00000000000E+00  0.66256134205E+03  0.66256134205E+03  0.00000000000E+00 0. -1.
         21   -1    0    0  501  502  0.00000000000E+00 -0.00000000000E+00 -0.31041639216E+03  0.31041639216E+03  0.00000000000E+00 0. -1.
        -24    2    1    2    0    0 -0.10426035857E+02 -0.34315257574E+02  0.46712024806E+03  0.47672363948E+03  0.88192194473E+02 0.  0.
         23    2    1    2    0    0  0.21618002046E+03  0.96441081528E+01 -0.16052426506E+03  0.28407945869E+03  0.90034932704E+02 0.  0.
         13    1    3    3    0    0 -0.38754112600E+02 -0.28652464365E+02  0.13492345438E+03  0.14327310808E+03  0.00000000000E+00 0. -1.
        -14    1    3    3    0    0  0.28328076743E+02 -0.56627932092E+01  0.33219679368E+03  0.33345053140E+03  0.00000000000E+00 0.  1.
        -13    1    4    4    0    0  0.34079675755E+02  0.28605442154E+02 -0.67880995550E+01  0.45008598245E+02  0.00000000000E+00 0.  1.
         13    1    4    4    0    0  0.18210034471E+03 -0.18961334001E+02 -0.15373616550E+03  0.23907086044E+03  0.00000000000E+00 0. -1.
          2    1    1    2  501    0 -0.20575398461E+03  0.24671149421E+02  0.45548966887E+02  0.21217463604E+03  0.00000000000E+00 0. -1.
<scales pt_clust_5="13000.00000" pt_clust_6="13000.00000" pt_clust_7="13000.00000" pt_clust_8="13000.00000" pt_clust_9="212.80664"></scales>
<clustering>
<clus scale="   88.192">  5  6 -1 -1</clus>
<clus scale="   90.035">  7  8 -1 -1</clus>
<clus scale="   95.206">  1  5  2 -1</clus>
<clus scale="  212.807">  2  9  1 -1</clus>
<clus scale="  212.807">  2  5  1 -1</clus>
</clustering>
</event>
<event>
 9    1  0.7719620E-005  0.9262473E+02  0.7546771E-02  0.1299353E+00
          1   -1    0    0  502    0 -0.00000000000E+00  0.00000000000E+00  0.48409659546E+03  0.48409659546E+03  0.00000000000E+00 0. -1.
         21   -1    0    0  501  502  0.00000000000E+00 -0.00000000000E+00 -0.38511412882E+02  0.38511412882E+02  0.00000000000E+00 0.  1.
         23    2    1    2    0    0  0.29070671616E+02  0.26521399317E+01  0.25233542202E+03  0.26797188512E+03  0.85344175050E+02 0.  0.
        -24    2    1    2    0    0 -0.61295554616E+02  0.31951124904E+01  0.60349012604E+02  0.11775938213E+03  0.80361153536E+02 0.  0.
         13    1    4    4    0    0 -0.46351040794E+02 -0.61877202951E+01  0.79177024203E+02  0.91954923886E+02  0.00000000000E+00 0. -1.
        -14    1    4    4    0    0 -0.14944513822E+02  0.93828327855E+01 -0.18828011599E+02  0.25804458243E+02  0.00000000000E+00 0.  1.
        -13    1    3    3    0    0  0.43087770167E+02 -0.29043222111E+02  0.18609189403E+03  0.19321039753E+03  0.00000000000E+00 0.  1.
         13    1    3    3    0    0 -0.14017098552E+02  0.31695362042E+02  0.66243527988E+02  0.74761487593E+02  0.00000000000E+00 0. -1.
          2    1    1    2  501    0  0.32224883001E+02 -0.58472524222E+01  0.13290074795E+03  0.13687674109E+03  0.00000000000E+00 0. -1.
<scales pt_clust_5="13000.00000" pt_clust_6="13000.00000" pt_clust_7="13000.00000" pt_clust_8="13000.00000" pt_clust_9="32.75110"></scales>
<clustering>
<clus scale="   32.751">  2  9  1 -1</clus>
<clus scale="   80.361">  5  6 -1 -1</clus>
<clus scale="   85.344">  7  8 -1 -1</clus>
<clus scale="   88.055">  2  5  1 -1</clus>
<clus scale="   32.751">  2  5  1 -1</clus>
</clustering>
</event>
<event>
 9    1  0.7719620E-005  0.1014865E+03  0.7546771E-02  0.1284903E+00
         21   -1    0    0  501  502  0.00000000000E+00  0.00000000000E+00  0.10163896762E+03  0.10163896762E+03  0.00000000000E+00 0. -1.
          1   -1    0    0  502    0 -0.00000000000E+00 -0.00000000000E+00 -0.64157203362E+03  0.64157203362E+03  0.00000000000E+00 0. -1.
         23    2    1    2    0    0 -0.34049594951E+02 -0.22678365233E+02 -0.57500370721E+03  0.58375269455E+03  0.92001423490E+02 0.  0.
        -24    2    1    2    0    0  0.45560120111E+02  0.40222600443E+02 -0.20704690663E+02  0.99866528521E+02  0.76492203344E+02 0.  0.
         13    1    4    4    0    0  0.48428846306E+02  0.56362442587E+02 -0.30990556429E+02  0.80513928464E+02  0.00000000000E+00 0. -1.
        -14    1    4    4    0    0 -0.28687261956E+01 -0.16139842144E+02  0.10285865766E+02  0.19352600057E+02  0.00000000000E+00 0.  1.
        -13    1    3    3    0    0  0.32019104251E+02 -0.79737708354E+01 -0.19120114336E+03  0.19402752713E+03  0.00000000000E+00 0.  1.
         13    1    3    3    0    0 -0.66068699202E+02 -0.14704594398E+02 -0.38380256385E+03  0.38972516743E+03  0.00000000000E+00 0. -1.
          2    1    1    2  501    0 -0.11510525160E+02 -0.17544235210E+02  0.55775331874E+02  0.59591778159E+02  0.00000000000E+00 0. -1.
<scales pt_clust_5="13000.00000" pt_clust_6="13000.00000" pt_clust_7="13000.00000" pt_clust_8="13000.00000" pt_clust_9="20.98315"></scales>
<clustering>
<clus scale="   20.983">  1  9  2 -1</clus>
<clus scale="   76.492">  5  6 -1 -1</clus>
<clus scale="   87.672">  1  5  2 -1</clus>
<clus scale="   92.001">  7  8 -1 -1</clus>
<clus scale="   20.983">  1  5  2 -1</clus>
</clustering>
</event>
<event>
 9    1  0.7719620E-005  0.1313319E+03  0.7546771E-02  0.1247946E+00
          1   -1    0    0  502    0 -0.00000000000E+00  0.00000000000E+00  0.24132907516E+03  0.24132907516E+03  0.00000000000E+00 0. -1.
         21   -1    0    0  501  502  0.00000000000E+00 -0.00000000000E+00 -0.10267715110E+03  0.10267715110E+03  0.00000000000E+00 0. -1.
        -24    2    1    2    0    0  0.55758344208E+01 -0.21597259730E+02  0.13757131000E+02  0.84162120201E+02  0.79977948624E+02 0.  0.
         23    2    1    2    0    0 -0.13605700289E+02 -0.82584421677E+02  0.71473470308E+02  0.14248934812E+03  0.90495610863E+02 0.  0.
         13    1    3    3    0    0 -0.32892825583E+02 -0.11965742370E+02  0.24918037923E+02  0.42965399792E+02  0.00000000000E+00 0. -1.
        -14    1    3    3    0    0  0.38468660004E+02 -0.96315173601E+01 -0.11160906923E+02  0.41196720410E+02  0.00000000000E+00 0.  1.
        -11    1    4    4    0    0 -0.32033348992E+02 -0.95505842831E+01 -0.65257506796E+01  0.34057811582E+02  0.00000000000E+00 0.  1.
         11    1    4    4    0    0  0.18427648703E+02 -0.73033837394E+02  0.77999220987E+02  0.10843153654E+03  0.00000000000E+00 0. -1.
          2    1    1    2  501    0  0.80298658686E+01  0.10418168141E+03  0.53421322753E+02  0.11735475794E+03  0.00000000000E+00 0. -1.
<scales pt_clust_5="13000.00000" pt_clust_6="13000.00000" pt_clust_7="13000.00000" pt_clust_8="13000.00000" pt_clust_9="95.17674"></scales>
<clustering>
<clus scale="   79.978">  5  6 -1 -1</clus>
<clus scale="   83.030">  1  5  2 -1</clus>
<clus scale="   90.496">  7  8 -1 -1</clus>
<clus scale="   95.177">  2  9  1 -1</clus>
<clus scale="   95.177">  2  5  1 -1</clus>
</clustering>
</event>
<event>
 9    1  0.7719620E-005  0.1008943E+03  0.7546771E-02  0.1283908E+00
         21   -1    0    0  501  502  0.00000000000E+00  0.00000000000E+00  0.20715833321E+03  0.20715833321E+03  0.00000000000E+00 0.  1.
         -2   -1    0    0    0  501 -0.00000000000E+00 -0.00000000000E+00 -0.22082499716E+03  0.22082499716E+03  0.00000000000E+00 0.  1.
        -24    2    1    2    0    0  0.92844136822E+01  0.36089666540E+02 -0.14855539281E+03  0.17317450940E+03  0.80821046777E+02 0.  0.
         23    2    1    2    0    0  0.18099322387E+02 -0.66368095941E+02  0.96333561771E+00  0.11479930970E+03  0.91900184237E+02 0.  0.
         13    1    3    3    0    0 -0.27055504623E+02 -0.43074290741E+01 -0.86285645569E+02  0.90530475017E+02  0.00000000000E+00 0. -1.
        -14    1    3    3    0    0  0.36339918305E+02  0.40397095614E+02 -0.62269747245E+02  0.82644034379E+02  0.00000000000E+00 0.  1.
        -11    1    4    4    0    0  0.53842550914E+02 -0.45357573719E+02 -0.11875757578E+02  0.71395822011E+02  0.00000000000E+00 0.  1.
         11    1    4    4    0    0 -0.35743228527E+02 -0.21010522222E+02  0.12839093196E+02  0.43403487691E+02  0.00000000000E+00 0. -1.
         -1    1    1    2    0  502 -0.27383736069E+02  0.30278429400E+02  0.13392539325E+03  0.14000951127E+03  0.00000000000E+00 0.  1.
<scales pt_clust_5="13000.00000" pt_clust_6="13000.00000" pt_clust_7="13000.00000" pt_clust_8="13000.00000" pt_clust_9="40.82465"></scales>
<clustering>
<clus scale="   40.825">  1  9  2 -1</clus>
<clus scale="   80.821">  5  6 -1 -1</clus>
<clus scale="   90.918">  2  5  1 -1</clus>
<clus scale="   91.900">  7  8 -1 -1</clus>
<clus scale="   40.825">  1  5  2 -1</clus>
</clustering>
</event>
<event>
 9    1  0.7719622E-005  0.9412784E+02  0.7546771E-02  0.1297345E+00
          3   -1    0    0  502    0 -0.00000000000E+00  0.00000000000E+00  0.50454755560E+03  0.50454755560E+03  0.00000000000E+00 0. -1.
         21   -1    0    0  501  502  0.00000000000E+00 -0.00000000000E+00 -0.16094101685E+03  0.16094101685E+03  0.00000000000E+00 0. -1.
        -24    2    1    2    0    0  0.29345193140E+02  0.82423508614E+01  0.44110652213E+03  0.44970875442E+03  0.82060485208E+02 0.  0.
         23    2    1    2    0    0 -0.10138846883E+02 -0.24741971600E+02  0.20041139777E+02  0.95542399335E+02  0.89508331524E+02 0.  0.
         11    1    3    3    0    0  0.46672954854E+01 -0.36281701414E+02  0.17682385988E+03  0.18056805622E+03  0.00000000000E+00 0. -1.
        -12    1    3    3    0    0  0.24677897655E+02  0.44524052275E+02  0.26428266224E+03  0.26914069820E+03  0.00000000000E+00 0.  1.
        -11    1    4    4    0    0  0.73748178757E+01  0.28938244875E+02  0.24881566242E+02  0.38870326649E+02  0.00000000000E+00 0. -1.
         11    1    4    4    0    0 -0.17513664759E+02 -0.53680216475E+02 -0.48404264644E+01  0.56672072685E+02  0.00000000000E+00 0.  1.
          4    1    1    2  501    0 -0.19206346257E+02  0.16499620738E+02 -0.11754112315E+03  0.12023741869E+03  0.00000000000E+00 0. -1.
<scales pt_clust_5="13000.00000" pt_clust_6="13000.00000" pt_clust_7="13000.00000" pt_clust_8="13000.00000" pt_clust_9="25.32037"></scales>
<clustering>
<clus scale="   25.320">  2  9  1 -1</clus>
<clus scale="   82.060">  5  6 -1 -1</clus>
<clus scale="   87.076">  1  5  2 -1</clus>
<clus scale="   89.508">  7  8 -1 -1</clus>
<clus scale="   25.320">  2  5  1 -1</clus>
</clustering>
</event>
<event>
 9    1  0.7719620E-005  0.1309692E+03  0.7546771E-02  0.1229002E+00
         21   -1    0    0  501  502  0.00000000000E+00  0.00000000000E+00  0.37759045820E+02  0.37759045820E+02  0.00000000000E+00 0.  1.
          1   -1    0    0  502    0 -0.00000000000E+00 -0.00000000000E+00 -0.86449595593E+03  0.86449595593E+03  0.00000000000E+00 0. -1.
         23    2    1    2    0    0 -0.52493199921E+02  0.81139984184E+02 -0.44185349387E+03  0.46168076818E+03  0.92603394074E+02 0.  0.
        -24    2    1    2    0    0 -0.19848298877E+02 -0.10210348679E+03 -0.18704290687E+03  0.22888193792E+03  0.81134551895E+02 0.  0.
         13    1    4    4    0    0  0.11847877995E+02 -0.85995239180E+02 -0.16662577721E+03  0.18788215191E+03  0.00000000000E+00 0. -1.
        -14    1    4    4    0    0 -0.31696176872E+02 -0.16108247608E+02 -0.20417129665E+02  0.40999786013E+02  0.00000000000E+00 0.  1.
        -11    1    3    3    0    0 -0.23532196157E+02 -0.14103189541E+02 -0.46529193660E+02  0.54015091168E+02  0.00000000000E+00 0.  1.
         11    1    3    3    0    0 -0.28961003764E+02  0.95243173725E+02 -0.39532430021E+03  0.40766567702E+03  0.00000000000E+00 0. -1.
          2    1    1    2  501    0  0.72341498799E+02  0.20963502604E+02 -0.19784050936E+03  0.21169229564E+03  0.00000000000E+00 0. -1.
<scales pt_clust_5="13000.00000" pt_clust_6="13000.00000" pt_clust_7="13000.00000" pt_clust_8="13000.00000" pt_clust_9="75.31777"></scales>
<clustering>
<clus scale="   75.318">  1  9  2 -1</clus>
<clus scale="   81.135">  5  6 -1 -1</clus>
<clus scale="   92.603">  7  8 -1 -1</clus>
<clus scale="  123.127">  1  5  2 -1</clus>
<clus scale="   75.318">  1  5  2 -1</clus>
</clustering>
</event>
<event>
 9    1  0.7719620E-005  0.1010593E+03  0.7546771E-02  0.1282883E+00
         21   -1    0    0  501  502  0.00000000000E+00  0.00000000000E+00  0.15009771034E+03  0.15009771034E+03  0.00000000000E+00 0. -1.
          1   -1    0    0  502    0 -0.00000000000E+00 -0.00000000000E+00 -0.13160151782E+03  0.13160151782E+03  0.00000000000E+00 0. -1.
         23    2    1    2    0    0  0.26841833741E+02  0.38828037580E+02 -0.73100824143E+02  0.12518388867E+03  0.89995416275E+02 0.  0.
        -24    2    1    2    0    0  0.31899176060E+01 -0.49819262025E+02  0.75106022987E+02  0.12053387238E+03  0.79971027618E+02 0.  0.
         11    1    4    4    0    0  0.54185572628E+01 -0.20566288415E+02  0.86488726453E+02  0.89065328751E+02  0.00000000000E+00 0. -1.
        -12    1    4    4    0    0 -0.22286396568E+01 -0.29252973610E+02 -0.11382703467E+02  0.31468543626E+02  0.00000000000E+00 0.  1.
        -11    1    3    3    0    0 -0.25219878219E+02 -0.25143766489E+01  0.13381286750E+01  0.25380207557E+02  0.00000000000E+00 0.  1.
         11    1    3    3    0    0  0.52061711959E+02  0.41342414229E+02 -0.74438952818E+02  0.99803681110E+02  0.00000000000E+00 0. -1.
          2    1    1    2  501    0 -0.30031751347E+02  0.10991224445E+02  0.16490993675E+02  0.35981467120E+02  0.00000000000E+00 0. -1.
<scales pt_clust_5="13000.00000" pt_clust_6="13000.00000" pt_clust_7="13000.00000" pt_clust_8="13000.00000" pt_clust_9="31.97989"></scales>
<clustering>
<clus scale="   31.980">  1  9  2 -1</clus>
<clus scale="   79.971">  5  6 -1 -1</clus>
<clus scale="   89.995">  7  8 -1 -1</clus>
<clus scale="   92.245">  1  5  2 -1</clus>
<clus scale="   31.980">  1  5  2 -1</clus>
</clustering>
</event>
<event>
 9    1  0.7719620E-005  0.3433414E+03  0.7546771E-02  0.1084049E+00
         21   -1    0    0  501  502  0.00000000000E+00  0.00000000000E+00  0.26199372406E+03  0.26199372406E+03  0.00000000000E+00 0. -1.
          1   -1    0    0  502    0 -0.00000000000E+00 -0.00000000000E+00 -0.86694427540E+03  0.86694427540E+03  0.00000000000E+00 0. -1.
         23    2    1    2    0    0 -0.73578569663E+02 -0.17055038895E+03 -0.10516700645E+03  0.23182220715E+03  0.90444432661E+02 0.  0.
        -24    2    1    2    0    0 -0.11178248508E+03 -0.17635837354E+03 -0.44758261019E+03  0.50034211917E+03  0.80090220309E+02 0.  0.
         13    1    4    4    0    0 -0.10371221366E+03 -0.18475892083E+03 -0.42751503084E+03  0.47713853720E+03  0.00000000000E+00 0. -1.
        -14    1    4    4    0    0 -0.80702714195E+01  0.84005472884E+01 -0.20067579349E+02  0.23203581975E+02  0.00000000000E+00 0.  1.
        -11    1    3    3    0    0 -0.28023903732E+02 -0.14417078894E+03 -0.48963219590E+02  0.15481586623E+03  0.00000000000E+00 0. -1.
         11    1    3    3    0    0 -0.45554665931E+02 -0.26379600007E+02 -0.56203786862E+02  0.77006340923E+02  0.00000000000E+00 0.  1.
          2    1    1    2  501    0  0.18536105474E+03  0.34690876249E+03 -0.52200934700E+02  0.39677367313E+03  0.00000000000E+00 0. -1.
<scales pt_clust_5="13000.00000" pt_clust_6="13000.00000" pt_clust_7="13000.00000" pt_clust_8="13000.00000" pt_clust_9="333.86959"></scales>
<clustering>
<clus scale="   80.090">  5  6 -1 -1</clus>
<clus scale="   90.444">  7  8 -1 -1</clus>
<clus scale="  206.595">  2  7  1 -1</clus>
<clus scale="  333.870">  1  9  2 -1</clus>
<clus scale="  333.870">  1  5  2 -1</clus>
</clustering>
</event>
<event>
 9    1  0.7719620E-005  0.1055664E+03  0.7546771E-02  0.1275056E+00
         21   -1    0    0  501  502  0.00000000000E+00  0.00000000000E+00  0.20365747967E+03  0.20365747967E+03  0.00000000000E+00 0.  1.
          1   -1    0    0  502    0 -0.00000000000E+00 -0.00000000000E+00 -0.13939055108E+03  0.13939055108E+03  0.00000000000E+00 0. -1.
         23    2    1    2    0    0 -0.57714704282E+02  0.17953853259E+02 -0.53806912124E+01  0.11016211414E+03  0.91942436428E+02 0.  0.
        -24    2    1    2    0    0  0.23089010916E+02 -0.18490288239E+02  0.13503939001E+03  0.15889057881E+03  0.78329981465E+02 0.  0.
         13    1    4    4    0    0  0.14511491913E+02 -0.48020561944E+02  0.62786029387E+02  0.80365684550E+02  0.00000000000E+00 0. -1.
        -14    1    4    4    0    0  0.85775190029E+01  0.29530273705E+02  0.72253360626E+02  0.78524894264E+02  0.00000000000E+00 0.  1.
        -13    1    3    3    0    0  0.15771830267E+02  0.29261465435E+02  0.89880890006E+01  0.34435007380E+02  0.00000000000E+00 0.  1.
         13    1    3    3    0    0 -0.73486534549E+02 -0.11307612176E+02 -0.14368780213E+02  0.75727106758E+02  0.00000000000E+00 0. -1.
          2    1    1    2  501    0  0.34625693366E+02  0.53643497940E+00 -0.65391770218E+02  0.73995337798E+02  0.00000000000E+00 0. -1.
<scales pt_clust_5="13000.00000" pt_clust_6="13000.00000" pt_clust_7="13000.00000" pt_clust_8="13000.00000" pt_clust_9="34.62987"></scales>
<clustering>
<clus scale="   34.630">  1  9  2 -1</clus>
<clus scale="   78.330">  5  6 -1 -1</clus>
<clus scale="   91.942">  7  8 -1 -1</clus>
<clus scale="   93.949">  1  5  2 -1</clus>
<clus scale="   34.630">  1  5  2 -1</clus>
</clustering>
</event>
<event>
 9    1  0.7719620E-005  0.1059892E+03  0.7546771E-02  0.1272282E+00
         21   -1    0    0  501  502  0.00000000000E+00  0.00000000000E+00  0.42852394417E+02  0.42852394417E+02  0.00000000000E+00 0. -1.
         -2   -1    0    0    0  501 -0.00000000000E+00 -0.00000000000E+00 -0.58411629502E+03  0.58411629502E+03  0.00000000000E+00 0.  1.
        -24    2    1    2    0    0  0.56687737749E+02 -0.69836107255E+01 -0.17143558944E+03  0.19844734765E+03  0.82029982507E+02 0.  0.
         23    2    1    2    0    0 -0.24953717161E+02 -0.79305372860E+02 -0.23102667369E+03  0.26203190875E+03  0.91517031648E+02 0.  0.
         13    1    3    3    0    0  0.64233604013E+02 -0.14878536414E+02 -0.17496015732E+03  0.18697161116E+03  0.00000000000E+00 0. -1.
        -14    1    3    3    0    0 -0.75458662636E+01  0.78949256884E+01  0.35245678728E+01  0.11475736490E+02  0.00000000000E+00 0.  1.
        -13    1    4    4    0    0 -0.58973496181E+02 -0.40465983151E+02 -0.14550665627E+03  0.16213437656E+03  0.00000000000E+00 0. -1.
         13    1    4    4    0    0  0.34019779020E+02 -0.38839389709E+02 -0.85520017422E+02  0.99897532189E+02  0.00000000000E+00 0.  1.
         -1    1    1    2    0  502 -0.31734020588E+02  0.86288983585E+02 -0.13880163747E+03  0.16648943304E+03  0.00000000000E+00 0.  1.
<scales pt_clust_5="13000.00000" pt_clust_6="13000.00000" pt_clust_7="13000.00000" pt_clust_8="13000.00000" pt_clust_9="91.93931"></scales>
<clustering>
<clus scale="   82.030">  5  6 -1 -1</clus>
<clus scale="   91.517">  7  8 -1 -1</clus>
<clus scale="   91.939">  1  9  2 -1</clus>
<clus scale="   97.915">  2  5  1 -1</clus>
<clus scale="   91.939">  1  5  2 -1</clus>
</clustering>
</event>
<event>
 9    1  0.7719620E-005  0.1511007E+03  0.7546771E-02  0.1215617E+00
         21   -1    0    0  501  502  0.00000000000E+00  0.00000000000E+00  0.14355049956E+03  0.14355049956E+03  0.00000000000E+00 0.  1.
         -2   -1    0    0    0  501 -0.00000000000E+00 -0.00000000000E+00 -0.12529703949E+04  0.12529703949E+04  0.00000000000E+00 0.  1.
         23    2    1    2    0    0 -0.37541309723E+02  0.36772069711E+02  0.96992070812E+02  0.14374060417E+03  0.92154025634E+02 0.  0.
        -24    2    1    2    0    0 -0.72629693229E+02 -0.10367058905E+03 -0.98567999728E+03  0.99717187129E+03  0.82243665298E+02 0.  0.
         13    1    4    4    0    0 -0.29154571981E+02 -0.60122197450E+02 -0.24525245539E+03  0.25419172797E+03  0.00000000000E+00 0. -1.
        -14    1    4    4    0    0 -0.43475121249E+02 -0.43548391598E+02 -0.74042754189E+03  0.74298014332E+03  0.00000000000E+00 0.  1.
        -11    1    3    3    0    0 -0.36184070461E+02 -0.18352577537E+02  0.73186219392E+02  0.83679906586E+02  0.00000000000E+00 0. -1.
         11    1    3    3    0    0 -0.13572392615E+01  0.55124647247E+02  0.23805851420E+02  0.60060697585E+02  0.00000000000E+00 0.  1.
         -1    1    1    2    0  502  0.11017100295E+03  0.66898519338E+02 -0.22073196887E+03  0.25560841899E+03  0.00000000000E+00 0.  1.
<scales pt_clust_5="13000.00000" pt_clust_6="13000.00000" pt_clust_7="13000.00000" pt_clust_8="13000.00000" pt_clust_9="126.75728"></scales>
<clustering>
<clus scale="   82.244">  5  6 -1 -1</clus>
<clus scale="   92.154">  7  8 -1 -1</clus>
<clus scale="  106.084">  2  7  1 -1</clus>
<clus scale="  126.757">  1  9  2 -1</clus>
<clus scale="  126.757">  1  5  2 -1</clus>
</clustering>
</event>
<event>
 9    1  0.7719620E-005  0.8837299E+02  0.7546771E-02  0.1310806E+00
         21   -1    0    0  501  502  0.00000000000E+00  0.00000000000E+00  0.39655222413E+02  0.39655222413E+02  0.00000000000E+00 0. -1.
          3   -1    0    0  502    0 -0.00000000000E+00 -0.00000000000E+00 -0.34954951101E+03  0.34954951101E+03  0.00000000000E+00 0. -1.
        -24    2    1    2    0    0  0.68267886826E+01 -0.17990753936E+02 -0.24501936793E+03  0.25876299968E+03  0.80953857675E+02 0.  0.
         23    2    1    2    0    0 -0.81898930315E+01 -0.69681023799E+01 -0.54458482578E+02  0.10336213359E+03  0.87191602441E+02 0.  0.
         11    1    3    3    0    0  0.26889612995E+02 -0.81194226980E+01 -0.24977283695E+02  0.37587777438E+02  0.00000000000E+00 0. -1.
        -12    1    3    3    0    0 -0.20062824313E+02 -0.98713312378E+01 -0.22004208423E+03  0.22117522224E+03  0.00000000000E+00 0.  1.
        -13    1    4    4    0    0  0.24922843954E+02  0.62189191580E+01 -0.61840952285E+02  0.66963620614E+02  0.00000000000E+00 0.  1.
         13    1    4    4    0    0 -0.33112736985E+02 -0.13187021538E+02  0.73824697061E+01  0.36398512973E+02  0.00000000000E+00 0. -1.
          4    1    1    2  501    0  0.13631043489E+01  0.24958856316E+02 -0.10416438087E+02  0.27079600153E+02  0.00000000000E+00 0. -1.
<scales pt_clust_5="13000.00000" pt_clust_6="13000.00000" pt_clust_7="13000.00000" pt_clust_8="13000.00000" pt_clust_9="24.99605"></scales>
<clustering>
<clus scale="   24.996">  1  9  2 -1</clus>
<clus scale="   80.954">  5  6 -1 -1</clus>
<clus scale="   82.225">  2  5  1 -1</clus>
<clus scale="   87.192">  7  8 -1 -1</clus>
<clus scale="   24.996">  1  5  2 -1</clus>
</clustering>
</event>
<event>
 9    1  0.7719620E-005  0.8977530E+02  0.7546771E-02  0.1307309E+00
         21   -1    0    0  501  502  0.00000000000E+00  0.00000000000E+00  0.23557254644E+02  0.23557254644E+02  0.00000000000E+00 0. -1.
          1   -1    0    0  502    0 -0.00000000000E+00 -0.00000000000E+00 -0.66443834665E+03  0.66443834665E+03  0.00000000000E+00 0. -1.
         23    2    1    2    0    0  0.12573414199E+02 -0.99876973412E+01 -0.33945521163E+03  0.35085473589E+03  0.87243109450E+02 0.  0.
        -24    2    1    2    0    0 -0.39128373139E+02 -0.35583443978E+02 -0.17016348379E+03  0.19567810875E+03  0.80852334275E+02 0.  0.
         11    1    4    4    0    0 -0.33664891887E+02 -0.26018511043E+02 -0.23508562027E+02  0.48610084872E+02  0.00000000000E+00 0. -1.
        -12    1    4    4    0    0 -0.54634812519E+01 -0.95649329343E+01 -0.14665492177E+03  0.14706802388E+03  0.00000000000E+00 0.  1.
        -13    1    3    3    0    0  0.36223304786E+02 -0.37442087008E+02 -0.21581804315E+03  0.22201681342E+03  0.00000000000E+00 0. -1.
         13    1    3    3    0    0 -0.23649890587E+02  0.27454389666E+02 -0.12363716848E+03  0.12883792247E+03  0.00000000000E+00 0.  1.
          2    1    1    2  501    0  0.26554958940E+02  0.45571141319E+02 -0.13126239658E+03  0.14146275666E+03  0.00000000000E+00 0. -1.
<scales pt_clust_5="13000.00000" pt_clust_6="13000.00000" pt_clust_7="13000.00000" pt_clust_8="13000.00000" pt_clust_9="52.74367"></scales>
<clustering>
<clus scale="   52.744">  1  9  2 -1</clus>
<clus scale="   80.852">  5  6 -1 -1</clus>
<clus scale="   83.578">  1  5  2 -1</clus>
<clus scale="   87.243">  7  8 -1 -1</clus>
<clus scale="   52.744">  1  5  2 -1</clus>
</clustering>
</event>
<event>
 9    1  0.7719620E-005  0.1302756E+03  0.7546771E-02  0.1227481E+00
         21   -1    0    0  501  502  0.00000000000E+00  0.00000000000E+00  0.34948189410E+03  0.34948189410E+03  0.00000000000E+00 0. -1.
          1   -1    0    0  502    0 -0.00000000000E+00 -0.00000000000E+00 -0.17553536689E+03  0.17553536689E+03  0.00000000000E+00 0. -1.
         23    2    1    2    0    0  0.77866692803E+02 -0.48782101808E+02 -0.12043678622E+03  0.17593851612E+03  0.89478638076E+02 0.  0.
        -24    2    1    2    0    0 -0.10917726021E+03  0.44754073224E+02  0.19143745465E+03  0.24140132624E+03  0.87770724323E+02 0.  0.
         13    1    4    4    0    0 -0.57273916936E+02  0.10996808416E+02  0.24328529544E+02  0.63191049257E+02  0.00000000000E+00 0. -1.
        -14    1    4    4    0    0 -0.51903343276E+02  0.33757264808E+02  0.16710892511E+03  0.17821027698E+03  0.00000000000E+00 0.  1.
        -13    1    3    3    0    0 -0.74240034125E+00 -0.23668105002E+02  0.64811902943E+01  0.24550685944E+02  0.00000000000E+00 0.  1.
         13    1    3    3    0    0  0.78609093144E+02 -0.25113996806E+02 -0.12691797652E+03  0.15138783017E+03  0.00000000000E+00 0. -1.
          2    1    1    2  501    0  0.31310567409E+02  0.40280285845E+01  0.10294585878E+03  0.10767741864E+03  0.00000000000E+00 0. -1.
<scales pt_clust_5="13000.00000" pt_clust_6="13000.00000" pt_clust_7="13000.00000" pt_clust_8="13000.00000" pt_clust_9="31.56860"></scales>
<clustering>
<clus scale="   31.569">  1  9  2 -1</clus>
<clus scale="   87.771">  5  6 -1 -1</clus>
<clus scale="   89.479">  7  8 -1 -1</clus>
<clus scale="  129.109">  1  5  2 -1</clus>
<clus scale="   31.569">  1  5  2 -1</clus>
</clustering>
</event>
<event>
 9    1  0.7719620E-005  0.4096931E+03  0.7546771E-02  0.1040601E+00
          1   -1    0    0  502    0 -0.00000000000E+00  0.00000000000E+00  0.17548456240E+04  0.17548456240E+04  0.00000000000E+00 0. -1.
         21   -1    0    0  501  502  0.00000000000E+00 -0.00000000000E+00 -0.20369969556E+03  0.20369969556E+03  0.00000000000E+00 0.  1.
         23    2    1    2    0    0 -0.40445471839E+03  0.39894208799E+02  0.13443660853E+04  0.14071827369E+04  0.87566640010E+02 0.  0.
        -24    2    1    2    0    0  0.37545708131E+03 -0.64891533858E+02  0.27253053048E+03  0.47527787916E+03  0.80232420526E+02 0.  0.
         13    1    4    4    0    0  0.45936539250E+02 -0.14158923734E+01  0.68670775936E+02  0.82630780325E+02  0.00000000000E+00 0. -1.
        -14    1    4    4    0    0  0.32952054206E+03 -0.63475641485E+02  0.20385975454E+03  0.39264709883E+03  0.00000000000E+00 0.  1.
        -11    1    3    3    0    0 -0.30444820004E+03 -0.79971946982E+01  0.96110283546E+03  0.10082020244E+04  0.00000000000E+00 0.  1.
         11    1    3    3    0    0 -0.10000651835E+03  0.47891403498E+02  0.38326324989E+03  0.39898071251E+03  0.00000000000E+00 0. -1.
          2    1    1    2  501    0  0.28997637075E+02  0.24997325059E+02 -0.65750687387E+02  0.76084703508E+02  0.00000000000E+00 0. -1.
<scales pt_clust_5="13000.00000" pt_clust_6="13000.00000" pt_clust_7="13000.00000" pt_clust_8="13000.00000" pt_clust_9="38.28484"></scales>
<clustering>
<clus scale="   38.285">  2  9  1 -1</clus>
<clus scale="   80.232">  5  6 -1 -1</clus>
<clus scale="   87.567">  7  8 -1 -1</clus>
<clus scale="  408.188">  2  5  1 -1</clus>
<clus scale="   38.285">  2  5  1 -1</clus>
</clustering>
</event>
<event>
 9    1  0.7719620E-005  0.1290585E+03  0.7546771E-02  0.1244218E+00
         -4   -1    0    0    0  501 -0.00000000000E+00  0.00000000000E+00  0.68113751558E+02  0.68113751558E+02  0.00000000000E+00 0.  1.
         21   -1    0    0  501  502  0.00000000000E+00 -0.00000000000E+00 -0.56279386647E+03  0.56279386647E+03  0.00000000000E+00 0.  1.
         23    2    1    2    0    0 -0.48775203336E+01 -0.15267080064E+02 -0.18236836501E+03  0.20530860255E+03  0.92932920884E+02 0.  0.
        -24    2    1    2    0    0 -0.12988301090E+02  0.11175282873E+03 -0.53247564383E+02  0.14857385509E+03  0.81126423621E+02 0.  0.
         11    1    4    4    0    0 -0.30415052007E+02  0.52597462785E+02 -0.61386124407E+02  0.86370277004E+02  0.00000000000E+00 0. -1.
        -12    1    4    4    0    0  0.17426750916E+02  0.59155365947E+02  0.81385600239E+01  0.62203578089E+02  0.00000000000E+00 0.  1.
        -11    1    3    3    0    0  0.18635048387E+02  0.30195282173E+02 -0.11714283219E+03  0.12239878769E+03  0.00000000000E+00 0.  1.
         11    1    3    3    0    0 -0.23512568721E+02 -0.45462362237E+02 -0.65225532825E+02  0.82909814861E+02  0.00000000000E+00 0. -1.
         -3    1    1    2    0  502  0.17865821424E+02 -0.96485748668E+02 -0.25906418551E+03  0.27702516038E+03  0.00000000000E+00 0.  1.
<scales pt_clust_5="13000.00000" pt_clust_6="13000.00000" pt_clust_7="13000.00000" pt_clust_8="13000.00000" pt_clust_9="100.37231"></scales>
<clustering>
<clus scale="   81.126">  5  6 -1 -1</clus>
<clus scale="   92.933">  7  8 -1 -1</clus>
<clus scale="   94.305">  1  7  2 -1</clus>
<clus scale="  100.372">  2  9  1 -1</clus>
<clus scale="  100.372">  2  5  1 -1</clus>
</clustering>
</event>
<event>
 9    1  0.7719620E-005  0.8847714E+02  0.7546771E-02  0.1314854E+00
         21   -1    0    0  501  502  0.00000000000E+00  0.00000000000E+00  0.13271337795E+03  0.13271337795E+03  0.00000000000E+00 0. -1.
          1   -1    0    0  502    0 -0.00000000000E+00 -0.00000000000E+00 -0.99798049096E+02  0.99798049096E+02  0.00000000000E+00 0. -1.
        -24    2    1    2    0    0  0.12777334771E+02  0.14566024126E+01 -0.12703849829E+02  0.77968401469E+02  0.75843930889E+02 0.  0.
         23    2    1    2    0    0  0.19577755257E+02 -0.16655153789E+02  0.66248679119E+02  0.11327046686E+03  0.88207871134E+02 0.  0.
         13    1    3    3    0    0  0.22272790835E+02  0.33424682689E+02 -0.18326650050E+02  0.44149209806E+02  0.00000000000E+00 0. -1.
        -14    1    3    3    0    0 -0.94954560632E+01 -0.31968080276E+02  0.56228002213E+01  0.33819191663E+02  0.00000000000E+00 0.  1.
        -13    1    4    4    0    0 -0.23494440363E+02 -0.36639376590E+02  0.39475259814E+02  0.58759924968E+02  0.00000000000E+00 0. -1.
         13    1    4    4    0    0  0.43072195620E+02  0.19984222801E+02  0.26773419305E+02  0.54510541895E+02  0.00000000000E+00 0.  1.
          2    1    1    2  501    0 -0.32355090028E+02  0.15198551376E+02 -0.20629500435E+02  0.41272558715E+02  0.00000000000E+00 0. -1.
<scales pt_clust_5="13000.00000" pt_clust_6="13000.00000" pt_clust_7="13000.00000" pt_clust_8="13000.00000" pt_clust_9="35.74702"></scales>
<clustering>
<clus scale="   35.747">  1  9  2 -1</clus>
<clus scale="   75.844">  5  6 -1 -1</clus>
<clus scale="   76.157">  2  5  1 -1</clus>
<clus scale="   88.208">  7  8 -1 -1</clus>
<clus scale="   35.747">  1  5  2 -1</clus>
</clustering>
</event>
<event>
 9    1  0.7719620E-005  0.9847199E+02  0.7546771E-02  0.1288735E+00
         -2   -1    0    0    0  501 -0.00000000000E+00  0.00000000000E+00  0.28475278597E+02  0.28475278597E+02  0.00000000000E+00 0.  1.
         21   -1    0    0  501  502  0.00000000000E+00 -0.00000000000E+00 -0.58106559554E+03  0.58106559554E+03  0.00000000000E+00 0. -1.
        -24    2    1    2    0    0 -0.26744665578E+02  0.36926541055E+02 -0.13391460062E+03  0.16313973646E+03  0.81256426094E+02 0.  0.
         23    2    1    2    0    0  0.39714700524E+02  0.85613889759E+01 -0.21157406179E+03  0.23396651504E+03  0.91247968302E+02 0.  0.
         13    1    3    3    0    0 -0.58467956263E+01 -0.26111759970E+02 -0.37777458737E+02  0.46294118594E+02  0.00000000000E+00 0. -1.
        -14    1    3    3    0    0 -0.20897869952E+02  0.63038301025E+02 -0.96137141884E+02  0.11684561787E+03  0.00000000000E+00 0.  1.
        -11    1    4    4    0    0  0.63540492058E+02  0.22280086223E+02 -0.17954707064E+03  0.19175752123E+03  0.00000000000E+00 0. -1.
         11    1    4    4    0    0 -0.23825791534E+02 -0.13718697247E+02 -0.32026991154E+02  0.42208993814E+02  0.00000000000E+00 0.  1.
         -1    1    1    2    0  502 -0.12970034946E+02 -0.45487930031E+02 -0.20710165453E+03  0.21243462264E+03  0.00000000000E+00 0.  1.
<scales pt_clust_5="13000.00000" pt_clust_6="13000.00000" pt_clust_7="13000.00000" pt_clust_8="13000.00000" pt_clust_9="47.30088"></scales>
<clustering>
<clus scale="   47.301">  2  9  1 -1</clus>
<clus scale="   81.256">  5  6 -1 -1</clus>
<clus scale="   89.292">  1  5  2 -1</clus>
<clus scale="   91.248">  7  8 -1 -1</clus>
<clus scale="   47.301">  2  5  1 -1</clus>
</clustering>
</event>
<event>
 9    1  0.7719620E-005  0.1008813E+03  0.7546771E-02  0.1283670E+00
         -2   -1    0    0    0  501 -0.00000000000E+00  0.00000000000E+00  0.77465065952E+02  0.77465065952E+02  0.00000000000E+00 0.  1.
         21   -1    0    0  501  502  0.00000000000E+00 -0.00000000000E+00 -0.21923878965E+03  0.21923878965E+03  0.00000000000E+00 0. -1.
        -24    2    1    2    0    0 -0.11817279584E+02 -0.46624713505E+02  0.13908349492E+02  0.94000681293E+02  0.79556105308E+02 0.  0.
         23    2    1    2    0    0  0.32118295109E+02  0.26200162131E+02 -0.10618863985E+03  0.14544155126E+03  0.90328202813E+02 0.  0.
         13    1    3    3    0    0  0.32383810242E+02 -0.32733674945E+02  0.16554989475E+01  0.46075430741E+02  0.00000000000E+00 0. -1.
        -14    1    3    3    0    0 -0.44201089825E+02 -0.13891038560E+02  0.12252850545E+02  0.47925250552E+02  0.00000000000E+00 0.  1.
        -13    1    4    4    0    0  0.28541323639E+02  0.59171333381E+02 -0.77431107316E+02  0.10154521274E+03  0.00000000000E+00 0.  1.
         13    1    4    4    0    0  0.35769714699E+01 -0.32971171250E+02 -0.28757532536E+02  0.43896338527E+02  0.00000000000E+00 0. -1.
         -1    1    1    2    0  502 -0.20301015526E+02  0.20424551374E+02 -0.49493433336E+02  0.57261623043E+02  0.00000000000E+00 0.  1.
<scales pt_clust_5="13000.00000" pt_clust_6="13000.00000" pt_clust_7="13000.00000" pt_clust_8="13000.00000" pt_clust_9="28.79746"></scales>
<clustering>
<clus scale="   28.797">  2  9  1 -1</clus>
<clus scale="   79.556">  5  6 -1 -1</clus>
<clus scale="   90.328">  7  8 -1 -1</clus>
<clus scale="   91.362">  1  5  2 -1</clus>
<clus scale="   28.797">  2  5  1 -1</clus>
</clustering>
</event>
<event>
 9    1  0.7719620E-005  0.1107780E+03  0.7546771E-02  0.1273658E+00
         21   -1    0    0  501  502  0.00000000000E+00  0.00000000000E+00  0.54900152126E+02  0.54900152126E+02  0.00000000000E+00 0. -1.
          1   -1    0    0  502    0 -0.00000000000E+00 -0.00000000000E+00 -0.43682429417E+03  0.43682429417E+03  0.00000000000E+00 0. -1.
         23    2    1    2    0    0  0.27094774006E+02 -0.54174041489E+02 -0.32245334749E+03  0.34041799949E+03  0.90770587308E+02 0.  0.
        -24    2    1    2    0    0 -0.11816136915E+02  0.71289216384E+02 -0.79877842960E+02  0.12060117710E+03  0.54243899719E+02 0.  0.
         11    1    4    4    0    0 -0.10372190710E+02  0.50966242916E+02 -0.84947864126E+02  0.99605621712E+02  0.00000000000E+00 0. -1.
        -12    1    4    4    0    0 -0.14439462048E+01  0.20322973468E+02  0.50700211664E+01  0.20995555384E+02  0.00000000000E+00 0.  1.
        -11    1    3    3    0    0  0.59472423322E+02 -0.47313860952E+02 -0.22084227172E+03  0.23355273399E+03  0.00000000000E+00 0. -1.
         11    1    3    3    0    0 -0.32377649316E+02 -0.68601805370E+01 -0.10161107576E+03  0.10686526550E+03  0.00000000000E+00 0.  1.
          2    1    1    2  501    0 -0.15278637091E+02 -0.17115174895E+02  0.20407048409E+02  0.30705269707E+02  0.00000000000E+00 0. -1.
<scales pt_clust_5="13000.00000" pt_clust_6="13000.00000" pt_clust_7="13000.00000" pt_clust_8="13000.00000" pt_clust_9="22.94267"></scales>
<clustering>
<clus scale="   22.943">  1  9  2 -1</clus>
<clus scale="   54.244">  5  6 -1 -1</clus>
<clus scale="   83.516">  1  5  2 -1</clus>
<clus scale="   90.771">  7  8 -1 -1</clus>
<clus scale="   22.943">  1  5  2 -1</clus>
</clustering>
</event>
<event>
 9    1  0.7719620E-005  0.1163140E+03  0.7546771E-02  0.1251961E+00
          1   -1    0    0  502    0 -0.00000000000E+00  0.00000000000E+00  0.61455959030E+03  0.61455959030E+03  0.00000000000E+00 0. -1.
         21   -1    0    0  501  502  0.00000000000E+00 -0.00000000000E+00 -0.84362065714E+02  0.84362065714E+02  0.00000000000E+00 0. -1.
         23    2    1    2    0    0 -0.39304668994E+02  0.73187590636E+02  0.43034419832E+03  0.44704143106E+03  0.88026312129E+02 0.  0.
        -24    2    1    2    0    0 -0.65975578324E+02 -0.68534241604E+02  0.39179106306E+02  0.13027864150E+03  0.79923731469E+02 0.  0.
         11    1    4    4    0    0 -0.67934670386E+02 -0.16843801044E+02  0.94778376107E+01  0.70630464248E+02  0.00000000000E+00 0. -1.
        -12    1    4    4    0    0  0.19590920627E+01 -0.51690440560E+02  0.29701268695E+02  0.59648177249E+02  0.00000000000E+00 0.  1.
        -11    1    3    3    0    0  0.29649924072E+01  0.78359446111E+02  0.28408736380E+03  0.29471108606E+03  0.00000000000E+00 0.  1.
         11    1    3    3    0    0 -0.42269661401E+02 -0.51718554749E+01  0.14625683452E+03  0.15233034500E+03  0.00000000000E+00 0. -1.
          2    1    1    2  501    0  0.10528024732E+03 -0.46533490319E+01  0.60674219963E+02  0.12160158346E+03  0.00000000000E+00 0. -1.
<scales pt_clust_5="13000.00000" pt_clust_6="13000.00000" pt_clust_7="13000.00000" pt_clust_8="13000.00000" pt_clust_9="105.38304"></scales>
<clustering>
<clus scale="   79.924">  5  6 -1 -1</clus>
<clus scale="   88.026">  7  8 -1 -1</clus>
<clus scale="  105.383">  2  9  1 -1</clus>
<clus scale="  110.309">  2  5  1 -1</clus>
<clus scale="  105.383">  2  5  1 -1</clus>
</clustering>
</event>
<event>
 9    1  0.7719620E-005  0.1216550E+03  0.7546771E-02  0.1243647E+00
         21   -1    0    0  501  502  0.00000000000E+00  0.00000000000E+00  0.49019569720E+02  0.49019569720E+02  0.00000000000E+00 0. -1.
          1   -1    0    0  502    0 -0.00000000000E+00 -0.00000000000E+00 -0.57907672466E+03  0.57907672466E+03  0.00000000000E+00 0. -1.
         23    2    1    2    0    0  0.10500041023E+03  0.83910827193E+01 -0.40913117894E+03  0.43192589632E+03  0.89867468596E+02 0.  0.
        -24    2    1    2    0    0 -0.40536041338E+02 -0.83757912740E+01 -0.79772525180E+02  0.11968993255E+03  0.79048716959E+02 0.  0.
         13    1    4    4    0    0 -0.36516623988E+02 -0.25517595274E+02 -0.89208974292E+02  0.99713853552E+02  0.00000000000E+00 0. -1.
        -14    1    4    4    0    0 -0.40194173502E+01  0.17141804000E+02  0.94364491113E+01  0.19976078996E+02  0.00000000000E+00 0.  1.
        -13    1    3    3    0    0  0.66144650842E+02  0.82235638291E+01 -0.37286209884E+03  0.37877286939E+03  0.00000000000E+00 0. -1.
         13    1    3    3    0    0  0.38855759389E+02  0.16751889014E+00 -0.36269080108E+02  0.53153026933E+02  0.00000000000E+00 0.  1.
          2    1    1    2  501    0 -0.64464368892E+02 -0.15291445260E-01 -0.41153450815E+02  0.76480465509E+02  0.00000000000E+00 0. -1.
<scales pt_clust_5="13000.00000" pt_clust_6="13000.00000" pt_clust_7="13000.00000" pt_clust_8="13000.00000" pt_clust_9="64.46437"></scales>
<clustering>
<clus scale="   64.464">  1  9  2 -1</clus>
<clus scale="   79.049">  5  6 -1 -1</clus>
<clus scale="   89.867">  7  8 -1 -1</clus>
<clus scale="  113.897">  1  5  2 -1</clus>
<clus scale="   64.464">  1  5  2 -1</clus>
</clustering>
</event>
<event>
 9    1  0.8812924E-005  0.9151269E+02  0.7546771E-02  0.1307228E+00
         21   -1    0    0  501  502  0.00000000000E+00  0.00000000000E+00  0.40930301577E+03  0.40930301577E+03  0.00000000000E+00 0. -1.
         -2   -1    0    0    0  501 -0.00000000000E+00 -0.00000000000E+00 -0.65592671470E+02  0.65592671470E+02  0.00000000000E+00 0.  1.
        -24    2    1    2    0    0  0.69286157321E+01 -0.19867094718E+02 -0.28601051789E+02  0.84571302037E+02  0.76756614023E+02 0.  0.
         23    2    1    2    0    0 -0.67357027726E+00 -0.14121176371E+01  0.24008929321E+03  0.25625494438E+03  0.89561599100E+02 0.  0.
         13    1    3    3    0    0 -0.97182089512E+01  0.27012692429E+02 -0.37174458266E+01  0.28947340827E+02  0.00000000000E+00 0. -1.
        -14    1    3    3    0    0  0.16646824683E+02 -0.46879787147E+02 -0.24883605963E+02  0.55623961210E+02  0.00000000000E+00 0.  1.
        -13    1    4    4    0    0 -0.14046674708E+02 -0.40480236743E+02  0.78062159186E+02  0.89048634655E+02  0.00000000000E+00 0.  1.
         13    1    4    4    0    0  0.13373104431E+02  0.39068119106E+02  0.16202713403E+03  0.16720630973E+03  0.00000000000E+00 0. -1.
         -1    1    1    2    0  502 -0.62550454548E+01  0.21279212355E+02  0.13222210287E+03  0.13406944081E+03  0.00000000000E+00 0.  1.
<scales pt_clust_5="13000.00000" pt_clust_6="13000.00000" pt_clust_7="13000.00000" pt_clust_8="13000.00000" pt_clust_9="22.17951"></scales>
<clustering>
<clus scale="   22.180">  1  9  2 -1</clus>
<clus scale="   76.757">  5  6 -1 -1</clus>
<clus scale="   79.024">  2  5  1 -1</clus>
<clus scale="   89.562">  7  8 -1 -1</clus>
<clus scale="   22.180">  1  5  2 -1</clus>
</clustering>
</event>
<event>
 9    1  0.7719620E-005  0.1650087E+03  0.7546771E-02  0.1207589E+00
         21   -1    0    0  501  502  0.00000000000E+00  0.00000000000E+00  0.35355502778E+02  0.35355502778E+02  0.00000000000E+00 0. -1.
          1   -1    0    0  502    0 -0.00000000000E+00 -0.00000000000E+00 -0.15121316576E+04  0.15121316576E+04  0.00000000000E+00 0. -1.
        -24    2    1    2    0    0  0.23946974528E+02  0.60370102344E+02 -0.11107954220E+03  0.14723789253E+03  0.71570423054E+02 0.  0.
         23    2    1    2    0    0  0.11802186299E+03 -0.73512811035E+02 -0.74863497535E+03  0.76693027570E+03  0.91621110745E+02 0.  0.
         13    1    3    3    0    0  0.13183346839E+02  0.75319105895E+02 -0.99471888474E+02  0.12546483548E+03  0.00000000000E+00 0. -1.
        -14    1    3    3    0    0  0.10763627690E+02 -0.14949003551E+02 -0.11607653726E+02  0.21773057049E+02  0.00000000000E+00 0.  1.
        -11    1    4    4    0    0  0.20964787128E+02  0.21639946101E+02 -0.15933960916E+03  0.16216325297E+03  0.00000000000E+00 0.  1.
         11    1    4    4    0    0  0.97057075864E+02 -0.95152757136E+02 -0.58929536620E+03  0.60476702273E+03  0.00000000000E+00 0. -1.
          2    1    1    2  501    0 -0.14196883752E+03  0.13142708691E+02 -0.61706163722E+03  0.63331899210E+03  0.00000000000E+00 0. -1.
<scales pt_clust_5="13000.00000" pt_clust_6="13000.00000" pt_clust_7="13000.00000" pt_clust_8="13000.00000" pt_clust_9="137.23504"></scales>
<clustering>
<clus scale="   71.570">  5  6 -1 -1</clus>
<clus scale="   91.621">  7  8 -1 -1</clus>
<clus scale="   96.645">  2  5  1 -1</clus>
<clus scale="  137.235">  1  9  2 -1</clus>
<clus scale="  137.235">  1  5  2 -1</clus>
</clustering>
</event>
<event>
 9    1  0.7719620E-005  0.1101781E+03  0.7546771E-02  0.1264774E+00
         21   -1    0    0  501  502  0.00000000000E+00  0.00000000000E+00  0.75974758369E+02  0.75974758369E+02  0.00000000000E+00 0. -1.
          1   -1    0    0  502    0 -0.00000000000E+00 -0.00000000000E+00 -0.80267125434E+03  0.80267125434E+03  0.00000000000E+00 0. -1.
         23    2    1    2    0    0  0.52651800582E+01 -0.52239346436E+02 -0.54040319672E+03  0.55040367470E+03  0.90287976285E+02 0.  0.
        -24    2    1    2    0    0  0.41395983454E+02  0.11066697913E+03 -0.20670820999E+03  0.25073220304E+03  0.78597365396E+02 0.  0.
         13    1    4    4    0    0  0.57289138191E+02  0.10591019115E+03 -0.19863615988E+03  0.23228288347E+03  0.00000000000E+00 0. -1.
        -14    1    4    4    0    0 -0.15893154737E+02  0.47567879798E+01 -0.80720501146E+01  0.18449319566E+02  0.00000000000E+00 0.  1.
        -11    1    3    3    0    0  0.59616059230E+01  0.25758199163E+02 -0.13902448709E+03  0.14151619547E+03  0.00000000000E+00 0. -1.
         11    1    3    3    0    0 -0.69642586484E+00 -0.77997545599E+02 -0.40137870963E+03  0.40888747924E+03  0.00000000000E+00 0.  1.
          2    1    1    2  501    0 -0.46661163512E+02 -0.58427632696E+02  0.20414910738E+02  0.77510134971E+02  0.00000000000E+00 0. -1.
<scales pt_clust_5="13000.00000" pt_clust_6="13000.00000" pt_clust_7="13000.00000" pt_clust_8="13000.00000" pt_clust_9="74.77334"></scales>
<clustering>
<clus scale="   74.773">  1  9  2 -1</clus>
<clus scale="   78.597">  5  6 -1 -1</clus>
<clus scale="   90.288">  7  8 -1 -1</clus>
<clus scale="  100.821">  1  5  2 -1</clus>
<clus scale="   74.773">  1  5  2 -1</clus>
</clustering>
</event>
<event>
 9    1  0.7719620E-005  0.1307263E+03  0.7546771E-02  0.1228752E+00
          3   -1    0    0  502    0 -0.00000000000E+00  0.00000000000E+00  0.30580176489E+03  0.30580176489E+03  0.00000000000E+00 0. -1.
         21   -1    0    0  501  502  0.00000000000E+00 -0.00000000000E+00 -0.21124687804E+03  0.21124687804E+03  0.00000000000E+00 0. -1.
        -24    2    1    2    0    0 -0.98716549137E+02 -0.28421857913E+01  0.26118819168E+03  0.29062577370E+03  0.80566952127E+02 0.  0.
         23    2    1    2    0    0  0.55965344642E+02  0.18129053957E+02 -0.12461963233E+03  0.16456413904E+03  0.89947321791E+02 0.  0.
         11    1    3    3    0    0 -0.78579897416E+02 -0.37400336165E+02  0.18969258041E+03  0.20870280421E+03  0.00000000000E+00 0. -1.
        -12    1    3    3    0    0 -0.20136651721E+02  0.34558150374E+02  0.71495611270E+02  0.81922969494E+02  0.00000000000E+00 0.  1.
        -13    1    4    4    0    0  0.35752831834E+02  0.26619217029E+02 -0.72442470399E+01  0.45158906259E+02  0.00000000000E+00 0.  1.
         13    1    4    4    0    0  0.20212512808E+02 -0.84901630712E+01 -0.11737538529E+03  0.11940523278E+03  0.00000000000E+00 0. -1.
          4    1    1    2  501    0  0.42751204495E+02 -0.15286868166E+02 -0.42013672497E+02  0.61858730190E+02  0.00000000000E+00 0. -1.
<scales pt_clust_5="13000.00000" pt_clust_6="13000.00000" pt_clust_7="13000.00000" pt_clust_8="13000.00000" pt_clust_9="45.40213"></scales>
<clustering>
<clus scale="   45.402">  2  9  1 -1</clus>
<clus scale="   80.567">  5  6 -1 -1</clus>
<clus scale="   89.947">  7  8 -1 -1</clus>
<clus scale="  124.458">  1  5  2 -1</clus>
<clus scale="   45.402">  2  5  1 -1</clus>
</clustering>
</event>
<event>
 9    1  0.7719620E-005  0.1987851E+03  0.7546771E-02  0.1150768E+00
         21   -1    0    0  501  502  0.00000000000E+00  0.00000000000E+00  0.14584348000E+03  0.14584348000E+03  0.00000000000E+00 0.  1.
          3   -1    0    0  502    0 -0.00000000000E+00 -0.00000000000E+00 -0.17344984850E+03  0.17344984850E+03  0.00000000000E+00 0. -1.
        -24    2    1    2    0    0 -0.62821152508E+02  0.22432055938E+02 -0.31185785926E+02  0.10851340076E+03  0.79705147673E+02 0.  0.
         23    2    1    2    0    0 -0.28331777376E+02  0.34392451575E+01 -0.44911754633E+02  0.10433945322E+03  0.89750419370E+02 0.  0.
         11    1    3    3    0    0 -0.30284139326E+02  0.22888443958E+02 -0.55956608448E+02  0.67617689923E+02  0.00000000000E+00 0. -1.
        -12    1    3    3    0    0 -0.32537013182E+02 -0.45638801968E+00  0.24770822522E+02  0.40895710841E+02  0.00000000000E+00 0.  1.
        -11    1    4    4    0    0 -0.58299003253E+02 -0.81419528398E+01 -0.41518173224E+02  0.72033491406E+02  0.00000000000E+00 0.  1.
         11    1    4    4    0    0  0.29967225877E+02  0.11581197997E+02 -0.33935814093E+01  0.32305961812E+02  0.00000000000E+00 0. -1.
          4    1    1    2  501    0  0.91152929883E+02 -0.25871301096E+02  0.48491172059E+02  0.10644047451E+03  0.00000000000E+00 0. -1.
<scales pt_clust_5="13000.00000" pt_clust_6="13000.00000" pt_clust_7="13000.00000" pt_clust_8="13000.00000" pt_clust_9="94.75326"></scales>
<clustering>
<clus scale="   79.705">  5  6 -1 -1</clus>
<clus scale="   89.750">  7  8 -1 -1</clus>
<clus scale="   92.480">  5  7 -1 -1</clus>
<clus scale="   94.753">  1  9  2 -1</clus>
<clus scale="   94.753">  1  5  2 -1</clus>
</clustering>
</event>
<event>
 9    1  0.7719620E-005  0.1167728E+03  0.7546771E-02  0.1249655E+00
         21   -1    0    0  501  502  0.00000000000E+00  0.00000000000E+00  0.18013229392E+03  0.18013229392E+03  0.00000000000E+00 0. -1.
          3   -1    0    0  502    0 -0.00000000000E+00 -0.00000000000E+00 -0.16240714721E+03  0.16240714721E+03  0.00000000000E+00 0. -1.
        -24    2    1    2    0    0 -0.25197797833E+01 -0.10029375675E+03 -0.30600664416E+02  0.13571472928E+03  0.86121426762E+02 0.  0.
         23    2    1    2    0    0 -0.15859068328E+02  0.25527617246E+02  0.79776953168E+02  0.12365661695E+03  0.89573586331E+02 0.  0.
         11    1    3    3    0    0  0.13835297997E+01 -0.11202287087E+03 -0.11038179453E+02  0.11257388311E+03  0.00000000000E+00 0. -1.
        -12    1    3    3    0    0 -0.39033095830E+01  0.11729114117E+02 -0.19562484963E+02  0.23140846173E+02  0.00000000000E+00 0.  1.
        -11    1    4    4    0    0 -0.43370175680E+02  0.41964450544E+02  0.63896092697E+02  0.87890260609E+02  0.00000000000E+00 0. -1.
         11    1    4    4    0    0  0.27511107352E+02 -0.16436833298E+02  0.15880860471E+02  0.35766356341E+02  0.00000000000E+00 0.  1.
          4    1    1    2  501    0  0.18378848112E+02  0.74766139503E+02 -0.31451142036E+02  0.83168094901E+02  0.00000000000E+00 0. -1.
<scales pt_clust_5="13000.00000" pt_clust_6="13000.00000" pt_clust_7="13000.00000" pt_clust_8="13000.00000" pt_clust_9="76.99197"></scales>
<clustering>
<clus scale="   76.992">  1  9  2 -1</clus>
<clus scale="   86.121">  5  6 -1 -1</clus>
<clus scale="   89.574">  7  8 -1 -1</clus>
<clus scale="  114.146">  2  5  1 -1</clus>
<clus scale="   76.992">  1  5  2 -1</clus>
</clustering>
</event>
<event>
 9    1  0.7719620E-005  0.1015832E+03  0.7546771E-02  0.1281578E+00
         21   -1    0    0  501  502  0.00000000000E+00  0.00000000000E+00  0.12990220346E+03  0.12990220346E+03  0.00000000000E+00 0. -1.
          1   -1    0    0  502    0 -0.00000000000E+00 -0.00000000000E+00 -0.22560295526E+03  0.22560295526E+03  0.00000000000E+00 0. -1.
        -24    2    1    2    0    0 -0.15326697278E+02  0.38626519501E+02 -0.11262822604E+03  0.14615438920E+03  0.83361097185E+02 0.  0.
         23    2    1    2    0    0  0.71217855394E+02  0.95833822174E+00 -0.36489155966E+02  0.12249388206E+03  0.92738294678E+02 0.  0.
         13    1    3    3    0    0 -0.45882276721E+02  0.40764800307E+02 -0.63919366290E+02  0.88615109593E+02  0.00000000000E+00 0. -1.
        -14    1    3    3    0    0  0.30555579443E+02 -0.21382808054E+01 -0.48708859748E+02  0.57539279608E+02  0.00000000000E+00 0.  1.
        -13    1    4    4    0    0  0.66268411027E+01 -0.39380486409E+02 -0.56416817723E+01  0.40330711697E+02  0.00000000000E+00 0.  1.
         13    1    4    4    0    0  0.64591014291E+02  0.40338824631E+02 -0.30847474194E+02  0.82163170362E+02  0.00000000000E+00 0. -1.
          2    1    1    2  501    0 -0.55891158116E+02 -0.39584857723E+02  0.53416630209E+02  0.86856887461E+02  0.00000000000E+00 0. -1.
<scales pt_clust_5="13000.00000" pt_clust_6="13000.00000" pt_clust_7="13000.00000" pt_clust_8="13000.00000" pt_clust_9="68.48929"></scales>
<clustering>
<clus scale="   68.489">  1  9  2 -1</clus>
<clus scale="   83.361">  5  6 -1 -1</clus>
<clus scale="   92.738">  7  8 -1 -1</clus>
<clus scale="   93.101">  2  5  1 -1</clus>
<clus scale="   68.489">  1  5  2 -1</clus>
</clustering>
</event>
<event>
 9    1  0.7719620E-005  0.9971476E+02  0.7546771E-02  0.1285503E+00
         21   -1    0    0  501  502  0.00000000000E+00  0.00000000000E+00  0.86593022386E+02  0.86593022386E+02  0.00000000000E+00 0.  1.
          1   -1    0    0  502    0 -0.00000000000E+00 -0.00000000000E+00 -0.24779805509E+03  0.24779805509E+03  0.00000000000E+00 0. -1.
         23    2    1    2    0    0  0.40273932208E+02  0.25880179454E+02 -0.18760185906E+03  0.21358521763E+03  0.90179900003E+02 0.  0.
        -24    2    1    2    0    0 -0.27657032526E+02  0.19991209235E+01  0.99791328148E+01  0.86078605304E+02  0.80876667011E+02 0.  0.
         11    1    4    4    0    0 -0.49501802682E+02 -0.21051487219E+01 -0.15833478327E+02  0.52014989723E+02  0.00000000000E+00 0. -1.
        -12    1    4    4    0    0  0.21844770156E+02  0.41042696454E+01  0.25812611142E+02  0.34063615581E+02  0.00000000000E+00 0.  1.
        -11    1    3    3    0    0  0.58150475660E+02 -0.16739493812E+01 -0.67676709029E+02  0.89243581680E+02  0.00000000000E+00 0.  1.
         11    1    3    3    0    0 -0.17876543452E+02  0.27554128835E+02 -0.11992515003E+03  0.12434163595E+03  0.00000000000E+00 0. -1.
          2    1    1    2  501    0 -0.12616899682E+02 -0.27879300377E+02  0.16417693536E+02  0.34727254544E+02  0.00000000000E+00 0. -1.
<scales pt_clust_5="13000.00000" pt_clust_6="13000.00000" pt_clust_7="13000.00000" pt_clust_8="13000.00000" pt_clust_9="30.60133"></scales>
<clustering>
<clus scale="   30.601">  1  9  2 -1</clus>
<clus scale="   80.877">  5  6 -1 -1</clus>
<clus scale="   90.180">  7  8 -1 -1</clus>
<clus scale="   91.387">  1  5  2 -1</clus>
<clus scale="   30.601">  1  5  2 -1</clus>
</clustering>
</event>
<event>
 9    1  0.7719620E-005  0.9563476E+02  0.7546771E-02  0.1293805E+00
          1   -1    0    0  502    0 -0.00000000000E+00  0.00000000000E+00  0.50867853487E+03  0.50867853487E+03  0.00000000000E+00 0. -1.
         21   -1    0    0  501  502  0.00000000000E+00 -0.00000000000E+00 -0.35000352745E+02  0.35000352745E+02  0.00000000000E+00 0.  1.
        -24    2    1    2    0    0 -0.20472736237E+01 -0.13526832085E+02  0.12817096104E+03  0.15178090878E+03  0.80140392438E+02 0.  0.
         23    2    1    2    0    0  0.68790022957E+02  0.31056467255E+02  0.20815561689E+03  0.23818608641E+03  0.87791112879E+02 0.  0.
         11    1    3    3    0    0  0.31868327107E+02 -0.26954410994E+02  0.88736460874E+02  0.98062684203E+02  0.00000000000E+00 0. -1.
        -12    1    3    3    0    0 -0.33915600730E+02  0.13427578909E+02  0.39434500170E+02  0.53718224579E+02  0.00000000000E+00 0.  1.
        -13    1    4    4    0    0  0.23614379508E+02  0.52079604548E+02  0.15555101444E+03  0.16572882134E+03  0.00000000000E+00 0.  1.
         13    1    4    4    0    0  0.45175643449E+02 -0.21023137293E+02  0.52604602449E+02  0.72457265070E+02  0.00000000000E+00 0. -1.
          2    1    1    2  501    0 -0.66742749334E+02 -0.17529635170E+02  0.13735160418E+03  0.15371189242E+03  0.00000000000E+00 0. -1.
<scales pt_clust_5="13000.00000" pt_clust_6="13000.00000" pt_clust_7="13000.00000" pt_clust_8="13000.00000" pt_clust_9="69.00643"></scales>
<clustering>
<clus scale="   69.006">  2  9  1 -1</clus>
<clus scale="   80.140">  5  6 -1 -1</clus>
<clus scale="   87.791">  7  8 -1 -1</clus>
<clus scale="   88.663">  1  5  2 -1</clus>
<clus scale="   69.006">  2  5  1 -1</clus>
</clustering>
</event>
<event>
 9    1  0.7719620E-005  0.1370435E+03  0.7546771E-02  0.1230984E+00
         -2   -1    0    0    0  501 -0.00000000000E+00  0.00000000000E+00  0.18540045781E+03  0.18540045781E+03  0.00000000000E+00 0.  1.
         21   -1    0    0  501  502  0.00000000000E+00 -0.00000000000E+00 -0.19933133595E+03  0.19933133595E+03  0.00000000000E+00 0.  1.
         23    2    1    2    0    0  0.25575083080E+02  0.38320760257E+02  0.55605232851E+02  0.11719200112E+03  0.92300908258E+02 0.  0.
        -24    2    1    2    0    0  0.91001413633E+02 -0.42257971403E+02  0.35241063902E+01  0.12990485311E+03  0.82436994761E+02 0.  0.
         13    1    4    4    0    0  0.65219850200E+02 -0.47527220409E+02  0.35780554428E+02  0.88276347994E+02  0.00000000000E+00 0. -1.
        -14    1    4    4    0    0  0.25781563433E+02  0.52692490051E+01 -0.32256448038E+02  0.41628505116E+02  0.00000000000E+00 0.  1.
        -13    1    3    3    0    0 -0.11749438946E+02  0.55537647833E+02  0.13500314174E+02  0.58350133891E+02  0.00000000000E+00 0. -1.
         13    1    3    3    0    0  0.37324522027E+02 -0.17216887576E+02  0.42104918677E+02  0.58841867230E+02  0.00000000000E+00 0.  1.
         -1    1    1    2    0  502 -0.11657649671E+03  0.39372111467E+01 -0.73060217379E+02  0.13763493954E+03  0.00000000000E+00 0.  1.
<scales pt_clust_5="13000.00000" pt_clust_6="13000.00000" pt_clust_7="13000.00000" pt_clust_8="13000.00000" pt_clust_9="109.47635"></scales>
<clustering>
<clus scale="   82.437">  5  6 -1 -1</clus>
<clus scale="   92.301">  7  8 -1 -1</clus>
<clus scale="  103.160">  1  7  2 -1</clus>
<clus scale="  109.476">  2  9  1 -1</clus>
<clus scale="  109.476">  2  5  1 -1</clus>
</clustering>
</event>
<event>
 9    1  0.7719620E-005  0.8678129E+02  0.7546771E-02  0.1312477E+00
         -2   -1    0    0    0  501 -0.00000000000E+00  0.00000000000E+00  0.61064284063E+02  0.61064284063E+02  0.00000000000E+00 0.  1.
         21   -1    0    0  501  502  0.00000000000E+00 -0.00000000000E+00 -0.40250223561E+03  0.40250223561E+03  0.00000000000E+00 0. -1.
         23    2    1    2    0    0  0.63279318100E+01 -0.28457020847E+02 -0.26214059382E+02  0.86631970018E+02  0.77253327199E+02 0.  0.
        -24    2    1    2    0    0 -0.53009333699E+02  0.44285692227E+02 -0.30981062323E+03  0.32734620828E+03  0.80010660610E+02 0.  0.
         11    1    4    4    0    0 -0.43910270037E+02  0.50373109232E+02 -0.30924639482E+03  0.31638409356E+03  0.00000000000E+00 0. -1.
        -12    1    4    4    0    0 -0.90990636627E+01 -0.60874170052E+01 -0.56422840905E+00  0.10962114715E+02  0.00000000000E+00 0.  1.
        -13    1    3    3    0    0  0.41552508404E+02 -0.17548474607E+02 -0.19545650179E+02  0.49158848203E+02  0.00000000000E+00 0. -1.
         13    1    3    3    0    0 -0.35224576594E+02 -0.10908546240E+02 -0.66684092028E+01  0.37473121815E+02  0.00000000000E+00 0.  1.
         -1    1    1    2    0  502  0.46681401889E+02 -0.15828671380E+02 -0.54132689330E+01  0.49588341377E+02  0.00000000000E+00 0.  1.
<scales pt_clust_5="13000.00000" pt_clust_6="13000.00000" pt_clust_7="13000.00000" pt_clust_8="13000.00000" pt_clust_9="49.29201"></scales>
<clustering>
<clus scale="   49.292">  2  9  1 -1</clus>
<clus scale="   77.253">  7  8 -1 -1</clus>
<clus scale="   80.011">  5  6 -1 -1</clus>
<clus scale="   84.246">  1  7  2 -1</clus>
<clus scale="   49.292">  2  5  1 -1</clus>
</clustering>
</event>
<event>
 9    1  0.7719620E-005  0.9847580E+02  0.7546771E-02  0.1290795E+00
          1   -1    0    0  502    0 -0.00000000000E+00  0.00000000000E+00  0.44657296537E+03  0.44657296537E+03  0.00000000000E+00 0. -1.
         21   -1    0    0  501  502  0.00000000000E+00 -0.00000000000E+00 -0.93526218612E+02  0.93526218612E+02  0.00000000000E+00 0. -1.
         23    2    1    2    0    0  0.28909175009E+02  0.14351409942E+02  0.40709294029E+03  0.41888059479E+03  0.93244770834E+02 0.  0.
        -24    2    1    2    0    0 -0.13330609543E+02 -0.28500872847E+02 -0.34515512329E+02  0.92507153989E+02  0.79851412285E+02 0.  0.
         11    1    4    4    0    0  0.25483908637E+02  0.12342366649E+02 -0.45146533299E+01  0.28673083347E+02  0.00000000000E+00 0. -1.
        -12    1    4    4    0    0 -0.38814518180E+02 -0.40843239496E+02 -0.30000858999E+02  0.63834070642E+02  0.00000000000E+00 0.  1.
        -13    1    3    3    0    0  0.46267395390E+02  0.43182684846E+02  0.30086046954E+03  0.30744501667E+03  0.00000000000E+00 0. -1.
         13    1    3    3    0    0 -0.17358220381E+02 -0.28831274904E+02  0.10623247076E+03  0.11143557812E+03  0.00000000000E+00 0.  1.
          2    1    1    2  501    0 -0.15578565466E+02  0.14149462904E+02 -0.19530681213E+02  0.28711435198E+02  0.00000000000E+00 0. -1.
<scales pt_clust_5="13000.00000" pt_clust_6="13000.00000" pt_clust_7="13000.00000" pt_clust_8="13000.00000" pt_clust_9="21.04517"></scales>
<clustering>
<clus scale="   21.045">  2  9  1 -1</clus>
<clus scale="   79.851">  5  6 -1 -1</clus>
<clus scale="   85.902">  2  5  1 -1</clus>
<clus scale="   93.245">  7  8 -1 -1</clus>
<clus scale="   21.045">  2  5  1 -1</clus>
</clustering>
</event>
<event>
 9    1  0.7719620E-005  0.9813393E+02  0.7546771E-02  0.1290215E+00
          1   -1    0    0  502    0 -0.00000000000E+00  0.00000000000E+00  0.27069685671E+02  0.27069685671E+02  0.00000000000E+00 0. -1.
         21   -1    0    0  501  502  0.00000000000E+00 -0.00000000000E+00 -0.56431044848E+03  0.56431044848E+03  0.00000000000E+00 0. -1.
         23    2    1    2    0    0 -0.24463737430E+02  0.23447907975E+02 -0.11169899713E+03  0.14874177767E+03  0.92190951980E+02 0.  0.
        -24    2    1    2    0    0  0.59205683113E+01 -0.37777743049E+02 -0.25076487159E+03  0.26629733459E+03  0.81049605720E+02 0.  0.
         13    1    4    4    0    0 -0.27660032883E+02 -0.47228443338E+02 -0.15317443529E+03  0.16265918636E+03  0.00000000000E+00 0. -1.
        -14    1    4    4    0    0  0.33580601194E+02  0.94507002882E+01 -0.97590436294E+02  0.10363814823E+03  0.00000000000E+00 0.  1.
        -11    1    3    3    0    0 -0.52672931821E+02  0.34799232977E+02 -0.52172961908E+02  0.81898976286E+02  0.00000000000E+00 0. -1.
         11    1    3    3    0    0  0.28209194392E+02 -0.11351325002E+02 -0.59526035224E+02  0.66842801385E+02  0.00000000000E+00 0.  1.
          2    1    1    2  501    0  0.18543169118E+02  0.14329835075E+02 -0.17477689408E+03  0.17634102189E+03  0.00000000000E+00 0. -1.
<scales pt_clust_5="13000.00000" pt_clust_6="13000.00000" pt_clust_7="13000.00000" pt_clust_8="13000.00000" pt_clust_9="23.43487"></scales>
<clustering>
<clus scale="   23.435">  2  9  1 -1</clus>
<clus scale="   81.050">  5  6 -1 -1</clus>
<clus scale="   87.750">  2  5  1 -1</clus>
<clus scale="   92.191">  7  8 -1 -1</clus>
<clus scale="   23.435">  2  5  1 -1</clus>
</clustering>
</event>
<event>
 9    1  0.7719620E-005  0.1183203E+03  0.7546771E-02  0.1247148E+00
          1   -1    0    0  502    0 -0.00000000000E+00  0.00000000000E+00  0.81487660688E+03  0.81487660688E+03  0.00000000000E+00 0. -1.
         21   -1    0    0  501  502  0.00000000000E+00 -0.00000000000E+00 -0.26729021818E+02  0.26729021818E+02  0.00000000000E+00 0.  1.
         23    2    1    2    0    0  0.76667081665E+02  0.59068768018E+01  0.42682847611E+03  0.44325731848E+03  0.91552005791E+02 0.  0.
        -24    2    1    2    0    0 -0.65596196155E+02 -0.39279280656E+02  0.18494688700E+03  0.21850548295E+03  0.87713010592E+02 0.  0.
         11    1    4    4    0    0 -0.36142769961E+02  0.25847272446E+02  0.80373454771E+02  0.91838301079E+02  0.00000000000E+00 0. -1.
        -12    1    4    4    0    0 -0.29453426194E+02 -0.65126553102E+02  0.10457343223E+03  0.12666718187E+03  0.00000000000E+00 0.  1.
        -13    1    3    3    0    0  0.52112686335E+02  0.45009378038E+02  0.19305924723E+03  0.20497182521E+03  0.00000000000E+00 0. -1.
         13    1    3    3    0    0  0.24554395330E+02 -0.39102501237E+02  0.23376922888E+03  0.23828549327E+03  0.00000000000E+00 0.  1.
          2    1    1    2  501    0 -0.11070885510E+02  0.33372403854E+02  0.17637222195E+03  0.17984282727E+03  0.00000000000E+00 0. -1.
<scales pt_clust_5="13000.00000" pt_clust_6="13000.00000" pt_clust_7="13000.00000" pt_clust_8="13000.00000" pt_clust_9="35.16082"></scales>
<clustering>
<clus scale="   35.161">  2  9  1 -1</clus>
<clus scale="   87.713">  5  6 -1 -1</clus>
<clus scale="   91.552">  7  8 -1 -1</clus>
<clus scale="  115.375">  2  5  1 -1</clus>
<clus scale="   35.161">  2  5  1 -1</clus>
</clustering>
</event>
<event>
 9    1  0.7719620E-005  0.1481630E+03  0.7546771E-02  0.1204772E+00
         -2   -1    0    0    0  501 -0.00000000000E+00  0.00000000000E+00  0.11730673326E+03  0.11730673326E+03  0.00000000000E+00 0.  1.
         21   -1    0    0  501  502  0.00000000000E+00 -0.00000000000E+00 -0.61624459393E+03  0.61624459393E+03  0.00000000000E+00 0.  1.
        -24    2    1    2    0    0 -0.96213744135E+02 -0.52690538964E+02  0.19736119800E+02  0.13786904863E+03  0.81147906254E+02 0.  0.
         23    2    1    2    0    0  0.15118610936E+03  0.84265925136E+02 -0.48676719290E+03  0.52471038946E+03  0.91764409896E+02 0.  0.
         11    1    3    3    0    0 -0.93437709581E+00 -0.25459461351E+02 -0.18677569967E+02  0.31589695357E+02  0.00000000000E+00 0. -1.
        -12    1    3    3    0    0 -0.95279367039E+02 -0.27231077613E+02  0.38413689767E+02  0.10627935328E+03  0.00000000000E+00 0.  1.
        -11    1    4    4    0    0  0.73827670759E+02  0.72169681797E+02 -0.36990542054E+03  0.38404297687E+03  0.00000000000E+00 0.  1.
         11    1    4    4    0    0  0.77358438598E+02  0.12096243339E+02 -0.11686177236E+03  0.14066741259E+03  0.00000000000E+00 0. -1.
         -1    1    1    2    0  502 -0.54972365222E+02 -0.31575386172E+02 -0.31906787571E+02  0.70971889104E+02  0.00000000000E+00 0.  1.
<scales pt_clust_5="13000.00000" pt_clust_6="13000.00000" pt_clust_7="13000.00000" pt_clust_8="13000.00000" pt_clust_9="63.39535"></scales>
<clustering>
<clus scale="   63.395">  2  9  1 -1</clus>
<clus scale="   81.148">  5  6 -1 -1</clus>
<clus scale="   91.764">  7  8 -1 -1</clus>
<clus scale="  141.833">  1  5  2 -1</clus>
<clus scale="   63.395">  2  5  1 -1</clus>
</clustering>
</event>
<event>
 9    1  0.7719620E-005  0.4031324E+03  0.7546771E-02  0.1073281E+00
         21   -1    0    0  501  502  0.00000000000E+00  0.00000000000E+00  0.37554754171E+03  0.37554754171E+03  0.00000000000E+00 0.  1.
          1   -1    0    0  502    0 -0.00000000000E+00 -0.00000000000E+00 -0.98915368969E+03  0.98915368969E+03  0.00000000000E+00 0. -1.
         23    2    1    2    0    0 -0.84036249420E+01 -0.14503836731E+03 -0.23029136746E+03  0.28666353799E+03  0.89638837455E+02 0.  0.
        -24    2    1    2    0    0  0.53120967239E+02  0.42212417646E+03  0.16456238759E+03  0.46245213666E+03  0.75964082177E+02 0.  0.
         13    1    4    4    0    0  0.26737410219E+02  0.13753362506E+03  0.91868010735E+02  0.16754139346E+03  0.00000000000E+00 0. -1.
        -14    1    4    4    0    0  0.26383557020E+02  0.28459055140E+03  0.72694376854E+02  0.29491074320E+03  0.00000000000E+00 0.  1.
        -13    1    3    3    0    0 -0.25150704350E+02 -0.68745207163E+02 -0.45877730402E+02  0.86389973863E+02  0.00000000000E+00 0.  1.
         13    1    3    3    0    0  0.16747079408E+02 -0.76293160150E+02 -0.18441363706E+03  0.20027356413E+03  0.00000000000E+00 0. -1.
          2    1    1    2  501    0 -0.44717342297E+02 -0.27708580915E+03 -0.54787716811E+03  0.61558555674E+03  0.00000000000E+00 0. -1.
<scales pt_clust_5="13000.00000" pt_clust_6="13000.00000" pt_clust_7="13000.00000" pt_clust_8="13000.00000" pt_clust_9="395.91077"></scales>
<clustering>
<clus scale="   75.964">  5  6 -1 -1</clus>
<clus scale="   89.639">  7  8 -1 -1</clus>
<clus scale="  170.710">  2  7  1 -1</clus>
<clus scale="  395.911">  1  9  2 -1</clus>
<clus scale="  395.911">  1  5  2 -1</clus>
</clustering>
</event>
<event>
 9    1  0.7719620E-005  0.9543774E+02  0.7546771E-02  0.1298080E+00
         -2   -1    0    0    0  501 -0.00000000000E+00  0.00000000000E+00  0.56525842305E+03  0.56525842305E+03  0.00000000000E+00 0.  1.
         21   -1    0    0  501  502  0.00000000000E+00 -0.00000000000E+00 -0.43913884656E+02  0.43913884656E+02  0.00000000000E+00 0. -1.
         23    2    1    2    0    0  0.90669385054E+01 -0.24723677195E+02  0.29460667901E+03  0.31007153522E+03  0.93047257050E+02 0.  0.
        -24    2    1    2    0    0 -0.61430778561E+01 -0.46386303891E+01  0.10302445617E+02  0.80663178658E+02  0.79631361335E+02 0.  0.
         13    1    4    4    0    0 -0.19084933713E+02 -0.13992867287E+02 -0.29475319667E+02  0.37799861101E+02  0.00000000000E+00 0. -1.
        -14    1    4    4    0    0  0.12941855857E+02  0.93542368982E+01  0.39777765284E+02  0.42863317557E+02  0.00000000000E+00 0.  1.
        -11    1    3    3    0    0 -0.26573289046E+02 -0.35562327242E+02  0.23934010288E+03  0.24342247977E+03  0.00000000000E+00 0. -1.
         11    1    3    3    0    0  0.35640227551E+02  0.10838650047E+02  0.55266576132E+02  0.66649055448E+02  0.00000000000E+00 0.  1.
         -1    1    1    2    0  502 -0.29238606493E+01  0.29362307584E+02  0.21643541376E+03  0.21843759383E+03  0.00000000000E+00 0.  1.
<scales pt_clust_5="13000.00000" pt_clust_6="13000.00000" pt_clust_7="13000.00000" pt_clust_8="13000.00000" pt_clust_9="29.50754"></scales>
<clustering>
<clus scale="   29.508">  2  9  1 -1</clus>
<clus scale="   79.631">  5  6 -1 -1</clus>
<clus scale="   82.412">  2  5  1 -1</clus>
<clus scale="   93.047">  7  8 -1 -1</clus>
<clus scale="   29.508">  2  5  1 -1</clus>
</clustering>
</event>
<event>
 9    1  0.7719620E-005  0.1023015E+03  0.7546771E-02  0.1280160E+00
         21   -1    0    0  501  502  0.00000000000E+00  0.00000000000E+00  0.30041580188E+03  0.30041580188E+03  0.00000000000E+00 0.  1.
         -2   -1    0    0    0  501 -0.00000000000E+00 -0.00000000000E+00 -0.58927185235E+02  0.58927185235E+02  0.00000000000E+00 0.  1.
        -24    2    1    2    0    0  0.41564853600E+02 -0.73748849793E+01  0.25826085615E+02  0.93675637467E+02  0.79536861727E+02 0.  0.
         23    2    1    2    0    0 -0.74391358846E+02  0.83999856467E+01  0.19370361660E+03  0.22616008195E+03  0.89569289120E+02 0.  0.
         13    1    3    3    0    0  0.23792246499E+02 -0.40279880288E+02  0.30708632114E+02  0.55960341634E+02  0.00000000000E+00 0. -1.
        -14    1    3    3    0    0  0.17772607102E+02  0.32904995308E+02 -0.48825464994E+01  0.37715295833E+02  0.00000000000E+00 0.  1.
        -11    1    4    4    0    0 -0.26711066296E+02 -0.12313513097E+02  0.16331910791E+03  0.16594648136E+03  0.00000000000E+00 0.  1.
         11    1    4    4    0    0 -0.47680292550E+02  0.20713498744E+02  0.30384508697E+02  0.60213600595E+02  0.00000000000E+00 0. -1.
         -1    1    1    2    0  502  0.32826505245E+02 -0.10251006674E+01  0.21958914426E+02  0.39507267695E+02  0.00000000000E+00 0.  1.
<scales pt_clust_5="13000.00000" pt_clust_6="13000.00000" pt_clust_7="13000.00000" pt_clust_8="13000.00000" pt_clust_9="32.84252"></scales>
<clustering>
<clus scale="   32.843">  1  9  2 -1</clus>
<clus scale="   79.537">  5  6 -1 -1</clus>
<clus scale="   89.569">  7  8 -1 -1</clus>
<clus scale="   93.643">  2  5  1 -1</clus>
<clus scale="   32.843">  1  5  2 -1</clus>
</clustering>
</event>
<event>
 9    1  0.7719620E-005  0.1210442E+03  0.7546771E-02  0.1243129E+00
          1   -1    0    0  502    0 -0.00000000000E+00  0.00000000000E+00  0.31361351410E+03  0.31361351410E+03  0.00000000000E+00 0. -1.
         21   -1    0    0  501  502  0.00000000000E+00 -0.00000000000E+00 -0.10350533016E+03  0.10350533016E+03  0.00000000000E+00 0. -1.
         23    2    1    2    0    0  0.71584685386E+02  0.10105931935E+02  0.83058673297E+02  0.14437210340E+03  0.93370573455E+02 0.  0.
        -24    2    1    2    0    0 -0.75571363154E+02  0.82611625894E+02  0.46102240444E+02  0.14960089366E+03  0.87859542164E+02 0.  0.
         13    1    4    4    0    0 -0.44241439417E+02  0.73284280706E+02  0.68783641110E+02  0.10981384268E+03  0.00000000000E+00 0. -1.
        -14    1    4    4    0    0 -0.31329923737E+02  0.93273451883E+01 -0.22681400667E+02  0.39787050982E+02  0.00000000000E+00 0.  1.
        -13    1    3    3    0    0  0.53295645688E+01 -0.36554051508E+02  0.23143979465E+02  0.43591819480E+02  0.00000000000E+00 0. -1.
         13    1    3    3    0    0  0.66255120818E+02  0.46659983443E+02  0.59914693832E+02  0.10078028392E+03  0.00000000000E+00 0.  1.
          2    1    1    2  501    0  0.39866777677E+01 -0.92717557829E+02  0.80947270200E+02  0.12314584720E+03  0.00000000000E+00 0. -1.
<scales pt_clust_5="13000.00000" pt_clust_6="13000.00000" pt_clust_7="13000.00000" pt_clust_8="13000.00000" pt_clust_9="92.80327"></scales>
<clustering>
<clus scale="   87.860">  5  6 -1 -1</clus>
<clus scale="   92.803">  2  9  1 -1</clus>
<clus scale="   93.371">  7  8 -1 -1</clus>
<clus scale="  116.846">  2  5  1 -1</clus>
<clus scale="   92.803">  2  5  1 -1</clus>
</clustering>
</event>
<event>
 9    1  0.7719620E-005  0.1280478E+03  0.7546771E-02  0.1233556E+00
         -2   -1    0    0    0  501 -0.00000000000E+00  0.00000000000E+00  0.69610203296E+03  0.69610203296E+03  0.00000000000E+00 0.  1.
         21   -1    0    0  501  502  0.00000000000E+00 -0.00000000000E+00 -0.22210288396E+03  0.22210288396E+03  0.00000000000E+00 0.  1.
         23    2    1    2    0    0 -0.68645910902E+02  0.26651566744E+02  0.42177137542E+03  0.43769039713E+03  0.90880270245E+02 0.  0.
        -24    2    1    2    0    0  0.13640457017E+03 -0.48546336807E+02  0.23342139229E+03  0.28583081650E+03  0.79061720835E+02 0.  0.
         11    1    4    4    0    0  0.10142900443E+03 -0.10067087199E+02  0.10067993125E+03  0.14326771353E+03  0.00000000000E+00 0. -1.
        -12    1    4    4    0    0  0.34975565748E+02 -0.38479249609E+02  0.13274146104E+03  0.14256310297E+03  0.00000000000E+00 0.  1.
        -11    1    3    3    0    0 -0.81210631321E+02  0.46077166747E+02  0.32146839027E+03  0.33475393631E+03  0.00000000000E+00 0.  1.
         11    1    3    3    0    0  0.12564720418E+02 -0.19425600003E+02  0.10030298516E+03  0.10293646082E+03  0.00000000000E+00 0. -1.
         -1    1    1    2    0  502 -0.67758659273E+02  0.21894770063E+02 -0.18119361871E+03  0.19468370328E+03  0.00000000000E+00 0.  1.
<scales pt_clust_5="13000.00000" pt_clust_6="13000.00000" pt_clust_7="13000.00000" pt_clust_8="13000.00000" pt_clust_9="71.20826"></scales>
<clustering>
<clus scale="   71.208">  2  9  1 -1</clus>
<clus scale="   79.062">  5  6 -1 -1</clus>
<clus scale="   90.880">  7  8 -1 -1</clus>
<clus scale="  119.949">  2  5  1 -1</clus>
<clus scale="   71.208">  2  5  1 -1</clus>
</clustering>
</event>
<event>
 9    1  0.7719620E-005  0.1124398E+03  0.7546771E-02  0.1260397E+00
          1   -1    0    0  502    0 -0.00000000000E+00  0.00000000000E+00  0.24576877373E+03  0.24576877373E+03  0.00000000000E+00 0. -1.
         21   -1    0    0  501  502  0.00000000000E+00 -0.00000000000E+00 -0.71608460043E+02  0.71608460043E+02  0.00000000000E+00 0. -1.
        -24    2    1    2    0    0  0.19208791339E+02 -0.66455851103E+02  0.97260366009E+02  0.14389396763E+03  0.80377467695E+02 0.  0.
         23    2    1    2    0    0 -0.50716501139E+02  0.41402135108E+02  0.42329504348E+02  0.12042160377E+03  0.91778403976E+02 0.  0.
         11    1    3    3    0    0 -0.91499387206E+01 -0.67376437018E+02  0.92995047006E+02  0.11520149483E+03  0.00000000000E+00 0. -1.
        -12    1    3    3    0    0  0.28358730059E+02  0.92058591487E+00  0.42653190035E+01  0.28692472797E+02  0.00000000000E+00 0.  1.
        -11    1    4    4    0    0 -0.73344257162E+02  0.28032128342E+02  0.49945681297E+02  0.93057785049E+02  0.00000000000E+00 0.  1.
         11    1    4    4    0    0  0.22627756023E+02  0.13370006766E+02 -0.76161769484E+01  0.27363818719E+02  0.00000000000E+00 0. -1.
          2    1    1    2  501    0  0.31507709800E+02  0.25053715995E+02  0.34570443325E+02  0.53061662373E+02  0.00000000000E+00 0. -1.
<scales pt_clust_5="13000.00000" pt_clust_6="13000.00000" pt_clust_7="13000.00000" pt_clust_8="13000.00000" pt_clust_9="40.25452"></scales>
<clustering>
<clus scale="   40.255">  2  9  1 -1</clus>
<clus scale="   80.377">  5  6 -1 -1</clus>
<clus scale="   91.778">  7  8 -1 -1</clus>
<clus scale="  103.344">  1  5  2 -1</clus>
<clus scale="   40.255">  2  5  1 -1</clus>
</clustering>
</event>
<event>
 9    1  0.7719620E-005  0.9098362E+02  0.7546771E-02  0.1302412E+00
         -2   -1    0    0    0  501 -0.00000000000E+00  0.00000000000E+00  0.28058048138E+03  0.28058048138E+03  0.00000000000E+00 0.  1.
         21   -1    0    0  501  502  0.00000000000E+00 -0.00000000000E+00 -0.59769511573E+02  0.59769511573E+02  0.00000000000E+00 0.  1.
        -24    2    1    2    0    0 -0.36998795867E+02  0.78072832403E+01  0.18189595210E+03  0.20234624403E+03  0.80174812212E+02 0.  0.
         23    2    1    2    0    0  0.30414845972E+02  0.21281060184E+02  0.33084851186E+01  0.91556948368E+02  0.83628836789E+02 0.  0.
         11    1    3    3    0    0 -0.40444001510E+02  0.38355146035E+02  0.13728611781E+03  0.14816987760E+03  0.00000000000E+00 0. -1.
        -12    1    3    3    0    0  0.34452056435E+01 -0.30547862795E+02  0.44609834294E+02  0.54176366424E+02  0.00000000000E+00 0.  1.
        -11    1    4    4    0    0  0.27641644710E+02 -0.15919749507E+02  0.31475696483E+02  0.44813150031E+02  0.00000000000E+00 0. -1.
         11    1    4    4    0    0  0.27732012628E+01  0.37200809691E+02 -0.28167211365E+02  0.46743798337E+02  0.00000000000E+00 0.  1.
         -1    1    1    2    0  502  0.65839498945E+01 -0.29088343424E+02  0.35606532586E+02  0.46446800559E+02  0.00000000000E+00 0.  1.
<scales pt_clust_5="13000.00000" pt_clust_6="13000.00000" pt_clust_7="13000.00000" pt_clust_8="13000.00000" pt_clust_9="29.82417"></scales>
<clustering>
<clus scale="   29.824">  2  9  1 -1</clus>
<clus scale="   80.175">  5  6 -1 -1</clus>
<clus scale="   83.629">  7  8 -1 -1</clus>
<clus scale="   87.819">  1  5  2 -1</clus>
<clus scale="   29.824">  2  5  1 -1</clus>
</clustering>
</event>
<event>
 9    1  0.7719620E-005  0.1879719E+03  0.7546771E-02  0.1190315E+00
         21   -1    0    0  501  502  0.00000000000E+00  0.00000000000E+00  0.79688746431E+03  0.79688746431E+03  0.00000000000E+00 0.  1.
         -2   -1    0    0    0  501 -0.00000000000E+00 -0.00000000000E+00 -0.20342800716E+03  0.20342800716E+03  0.00000000000E+00 0.  1.
        -24    2    1    2    0    0  0.16918692382E+02  0.50158406140E+02  0.18233048549E+02  0.96935444211E+02  0.79132347536E+02 0.  0.
         23    2    1    2    0    0 -0.11263434163E+03  0.85022967006E+02 -0.10809163726E+03  0.20027332059E+03  0.92250751004E+02 0.  0.
         11    1    3    3    0    0  0.28347395937E+02  0.26166998228E+02  0.44961951806E+02  0.59244103191E+02  0.00000000000E+00 0. -1.
        -12    1    3    3    0    0 -0.11428703556E+02  0.23991407912E+02 -0.26728903257E+02  0.37691341020E+02  0.00000000000E+00 0.  1.
        -11    1    4    4    0    0 -0.10549933094E+03  0.43980344811E+02 -0.10991679790E+03  0.15857516205E+03  0.00000000000E+00 0. -1.
         11    1    4    4    0    0 -0.71350106950E+01  0.41042622196E+02  0.18251606410E+01  0.41698158541E+02  0.00000000000E+00 0.  1.
         -1    1    1    2    0  502  0.95715649249E+02 -0.13518137315E+03  0.68331804586E+03  0.70310670667E+03  0.00000000000E+00 0.  1.
<scales pt_clust_5="13000.00000" pt_clust_6="13000.00000" pt_clust_7="13000.00000" pt_clust_8="13000.00000" pt_clust_9="163.77796"></scales>
<clustering>
<clus scale="   79.132">  5  6 -1 -1</clus>
<clus scale="   92.251">  7  8 -1 -1</clus>
<clus scale="   95.205">  2  5  1 -1</clus>
<clus scale="  163.778">  1  9  2 -1</clus>
<clus scale="  163.778">  1  5  2 -1</clus>
</clustering>
</event>
<event>
 9    1  0.7719620E-005  0.1106381E+03  0.7546771E-02  0.1263081E+00
          1   -1    0    0  502    0 -0.00000000000E+00  0.00000000000E+00  0.15480311091E+03  0.15480311091E+03  0.00000000000E+00 0. -1.
         21   -1    0    0  501  502  0.00000000000E+00 -0.00000000000E+00 -0.11960334027E+03  0.11960334027E+03  0.00000000000E+00 0.  1.
         23    2    1    2    0    0  0.63116188538E+02  0.16231964749E+01  0.75017400861E+02  0.13563561795E+03  0.93718314127E+02 0.  0.
        -24    2    1    2    0    0 -0.45766556109E+02 -0.25737508716E+02 -0.44033181650E+02  0.10876615570E+03  0.84463948087E+02 0.  0.
         13    1    4    4    0    0  0.11197223180E+02  0.20943194890E+02 -0.20719748413E+02  0.31516712923E+02  0.00000000000E+00 0. -1.
        -14    1    4    4    0    0 -0.56963779289E+02 -0.46680703606E+02 -0.23313433237E+02  0.77249442777E+02  0.00000000000E+00 0.  1.
        -13    1    3    3    0    0  0.58453737259E+02  0.33802853283E+02  0.77782175611E+02  0.10300261711E+03  0.00000000000E+00 0. -1.
         13    1    3    3    0    0  0.46624512787E+01 -0.32179656808E+02 -0.27647747498E+01  0.32633000837E+02  0.00000000000E+00 0.  1.
          2    1    1    2  501    0 -0.17349632429E+02  0.24114312241E+02  0.42155514302E+01  0.30004677538E+02  0.00000000000E+00 0. -1.
<scales pt_clust_5="13000.00000" pt_clust_6="13000.00000" pt_clust_7="13000.00000" pt_clust_8="13000.00000" pt_clust_9="29.70708"></scales>
<clustering>
<clus scale="   29.707">  2  9  1 -1</clus>
<clus scale="   84.464">  5  6 -1 -1</clus>
<clus scale="   93.718">  7  8 -1 -1</clus>
<clus scale="  102.917">  2  5  1 -1</clus>
<clus scale="   29.707">  2  5  1 -1</clus>
</clustering>
</event>
<event>
 9    1  0.7719620E-005  0.9805268E+02  0.7546771E-02  0.1289774E+00
          3   -1    0    0  502    0 -0.00000000000E+00  0.00000000000E+00  0.94738895997E+02  0.94738895997E+02  0.00000000000E+00 0. -1.
         21   -1    0    0  501  502  0.00000000000E+00 -0.00000000000E+00 -0.17726982084E+03  0.17726982084E+03  0.00000000000E+00 0.  1.
        -24    2    1    2    0    0  0.25340186011E+01  0.46356586716E+02  0.29002677949E+02  0.96289311846E+02  0.79215666792E+02 0.  0.
         23    2    1    2    0    0  0.56002137533E+01 -0.15412187034E+02 -0.11119825836E+03  0.14372199785E+03  0.89565965087E+02 0.  0.
         11    1    3    3    0    0 -0.35764628693E+02  0.38790856998E+02  0.15759365979E+02  0.55065387207E+02  0.00000000000E+00 0. -1.
        -12    1    3    3    0    0  0.38298647294E+02  0.75657297180E+01  0.13243311969E+02  0.41223924639E+02  0.00000000000E+00 0.  1.
        -13    1    4    4    0    0  0.65331372708E+01  0.31257768187E+02 -0.83607617512E+02  0.89498400324E+02  0.00000000000E+00 0.  1.
         13    1    4    4    0    0 -0.93292351746E+00 -0.46669955221E+02 -0.27590640844E+02  0.54223597528E+02  0.00000000000E+00 0. -1.
          4    1    1    2  501    0 -0.81342323544E+01 -0.30944399682E+02 -0.33534443551E+00  0.31997407138E+02  0.00000000000E+00 0. -1.
<scales pt_clust_5="13000.00000" pt_clust_6="13000.00000" pt_clust_7="13000.00000" pt_clust_8="13000.00000" pt_clust_9="31.99567"></scales>
<clustering>
<clus scale="   31.996">  2  9  1 -1</clus>
<clus scale="   79.216">  5  6 -1 -1</clus>
<clus scale="   88.698">  1  5  2 -1</clus>
<clus scale="   89.566">  7  8 -1 -1</clus>
<clus scale="   31.996">  2  5  1 -1</clus>
</clustering>
</event>
<event>
 9    1  0.7719620E-005  0.1082166E+03  0.7546771E-02  0.1266979E+00
          1   -1    0    0  502    0 -0.00000000000E+00  0.00000000000E+00  0.40771181681E+02  0.40771181681E+02  0.00000000000E+00 0. -1.
         21   -1    0    0  501  502  0.00000000000E+00 -0.00000000000E+00 -0.37393346492E+03  0.37393346492E+03  0.00000000000E+00 0.  1.
        -24    2    1    2    0    0  0.63484824633E+02 -0.42397321907E+01 -0.86845349049E+02  0.13526546612E+03  0.81892205891E+02 0.  0.
         23    2    1    2    0    0 -0.51984235280E+02  0.26459067949E+02 -0.19703988671E+03  0.22417445533E+03  0.89593674310E+02 0.  0.
         13    1    3    3    0    0  0.53319037950E+02 -0.33780735535E+02 -0.28870169977E+02  0.69408534170E+02  0.00000000000E+00 0. -1.
        -14    1    3    3    0    0  0.10165786683E+02  0.29541003344E+02 -0.57975179072E+02  0.65856931950E+02  0.00000000000E+00 0.  1.
        -11    1    4    4    0    0 -0.25891002563E+02  0.49431346717E+02 -0.17333873582E+03  0.18209920205E+03  0.00000000000E+00 0.  1.
         11    1    4    4    0    0 -0.26093232717E+02 -0.22972278768E+02 -0.23701150886E+02  0.42075253282E+02  0.00000000000E+00 0. -1.
          2    1    1    2  501    0 -0.11500589353E+02 -0.22219335759E+02 -0.49277047483E+02  0.55264725148E+02  0.00000000000E+00 0. -1.
<scales pt_clust_5="13000.00000" pt_clust_6="13000.00000" pt_clust_7="13000.00000" pt_clust_8="13000.00000" pt_clust_9="25.01924"></scales>
<clustering>
<clus scale="   25.019">  2  9  1 -1</clus>
<clus scale="   81.892">  5  6 -1 -1</clus>
<clus scale="   89.594">  7  8 -1 -1</clus>
<clus scale="  101.932">  1  5  2 -1</clus>
<clus scale="   25.019">  2  5  1 -1</clus>
</clustering>
</event>
<event>
 9    1  0.7719620E-005  0.1901442E+03  0.7546771E-02  0.1160193E+00
         21   -1    0    0  501  502  0.00000000000E+00  0.00000000000E+00  0.55439327184E+03  0.55439327184E+03  0.00000000000E+00 0. -1.
          1   -1    0    0  502    0 -0.00000000000E+00 -0.00000000000E+00 -0.25932822717E+03  0.25932822717E+03  0.00000000000E+00 0. -1.
         23    2    1    2    0    0 -0.14912861502E+03  0.50456356160E+02 -0.91837722245E+02  0.20963406582E+03  0.10357164974E+03 0.  0.
        -24    2    1    2    0    0  0.74215760773E+02 -0.21639845207E+03  0.96923029934E+02  0.26168859736E+03  0.82161907523E+02 0.  0.
         13    1    4    4    0    0  0.60623527838E+02 -0.19217861757E+03  0.50749691987E+02  0.20780607406E+03  0.00000000000E+00 0. -1.
        -14    1    4    4    0    0  0.13592232935E+02 -0.24219834498E+02  0.46173337947E+02  0.53882523293E+02  0.00000000000E+00 0.  1.
        -13    1    3    3    0    0 -0.12212502909E+03  0.69778368981E+02 -0.36853919332E+02  0.14540204565E+03  0.00000000000E+00 0.  1.
         13    1    3    3    0    0 -0.27003585926E+02 -0.19322012821E+02 -0.54983802913E+02  0.64232020170E+02  0.00000000000E+00 0. -1.
          2    1    1    2  501    0  0.74912854248E+02  0.16594209591E+03  0.28997973698E+03  0.34239883584E+03  0.00000000000E+00 0. -1.
<scales pt_clust_5="13000.00000" pt_clust_6="13000.00000" pt_clust_7="13000.00000" pt_clust_8="13000.00000" pt_clust_9="182.06789"></scales>
<clustering>
<clus scale="   82.162">  5  6 -1 -1</clus>
<clus scale="  103.572">  7  8 -1 -1</clus>
<clus scale="  182.068">  1  9  2 -1</clus>
<clus scale="  182.068">  1  5  2 -1</clus>
<clus scale="  182.068">  1  5  2 -1</clus>
</clustering>
</event>
<event>
 9    1  0.7719620E-005  0.1385981E+03  0.7546771E-02  0.1216615E+00
         -2   -1    0    0    0  501 -0.00000000000E+00  0.00000000000E+00  0.14182946153E+03  0.14182946153E+03  0.00000000000E+00 0.  1.
         21   -1    0    0  501  502  0.00000000000E+00 -0.00000000000E+00 -0.54670724805E+03  0.54670724805E+03  0.00000000000E+00 0.  1.
         23    2    1    2    0    0  0.13205709611E+03  0.35841023413E+02 -0.20342654414E+03  0.26011837637E+03  0.86922697091E+02 0.  0.
        -24    2    1    2    0    0 -0.76536365099E+02  0.80309474350E+02 -0.25461727229E+03  0.28913403245E+03  0.80381008454E+02 0.  0.
         13    1    4    4    0    0  0.16125895133E+02  0.18389798627E+02 -0.61197873938E+02  0.65904544319E+02  0.00000000000E+00 0. -1.
        -14    1    4    4    0    0 -0.92662260231E+02  0.61919675722E+02 -0.19341939835E+03  0.22322948813E+03  0.00000000000E+00 0.  1.
        -11    1    3    3    0    0  0.40444668761E+02  0.13956296260E+02 -0.14043023544E+03  0.14680327130E+03  0.00000000000E+00 0.  1.
         11    1    3    3    0    0  0.91612427351E+02  0.21884727153E+02 -0.62996308700E+02  0.11331510507E+03  0.00000000000E+00 0. -1.
         -1    1    1    2    0  502 -0.55520731014E+02 -0.11615049776E+03  0.53166029913E+02  0.13928430076E+03  0.00000000000E+00 0.  1.
<scales pt_clust_5="13000.00000" pt_clust_6="13000.00000" pt_clust_7="13000.00000" pt_clust_8="13000.00000" pt_clust_9="128.73813"></scales>
<clustering>
<clus scale="   80.381">  5  6 -1 -1</clus>
<clus scale="   86.923">  7  8 -1 -1</clus>
<clus scale="  128.738">  2  9  1 -1</clus>
<clus scale="  134.592">  2  5  1 -1</clus>
<clus scale="  128.738">  2  5  1 -1</clus>
</clustering>
</event>
<event>
 9    1  0.7719620E-005  0.1079869E+03  0.7546771E-02  0.1265254E+00
          1   -1    0    0  502    0 -0.00000000000E+00  0.00000000000E+00  0.15667010804E+03  0.15667010804E+03  0.00000000000E+00 0. -1.
         21   -1    0    0  501  502  0.00000000000E+00 -0.00000000000E+00 -0.24061365735E+03  0.24061365735E+03  0.00000000000E+00 0. -1.
         23    2    1    2    0    0  0.54503592806E+02 -0.15124272870E+02  0.99595004436E+02  0.14688616340E+03  0.91961920549E+02 0.  0.
        -24    2    1    2    0    0 -0.27523026660E+02  0.39240237688E+02 -0.59630322127E+02  0.12131320877E+03  0.94147788371E+02 0.  0.
         13    1    4    4    0    0  0.27146168424E+01  0.62245129525E+02 -0.17785682806E+02  0.64793177164E+02  0.00000000000E+00 0. -1.
        -14    1    4    4    0    0 -0.30237643502E+02 -0.23004891837E+02 -0.41844639321E+02  0.56520031607E+02  0.00000000000E+00 0.  1.
        -13    1    3    3    0    0  0.30161146652E+01 -0.46710790956E+02  0.34983320445E+02  0.58436526666E+02  0.00000000000E+00 0.  1.
         13    1    3    3    0    0  0.51487478141E+02  0.31586518087E+02  0.64611683991E+02  0.88449636733E+02  0.00000000000E+00 0. -1.
          2    1    1    2  501    0 -0.26980566146E+02 -0.24115964818E+02 -0.12390823162E+03  0.12908439322E+03  0.00000000000E+00 0. -1.
<scales pt_clust_5="13000.00000" pt_clust_6="13000.00000" pt_clust_7="13000.00000" pt_clust_8="13000.00000" pt_clust_9="36.18744"></scales>
<clustering>
<clus scale="   36.187">  2  9  1 -1</clus>
<clus scale="   91.962">  7  8 -1 -1</clus>
<clus scale="   94.148">  5  6 -1 -1</clus>
<clus scale="  106.087">  1  7  2 -1</clus>
<clus scale="   36.187">  2  5  1 -1</clus>
</clustering>
</event>
<event>
 9    1  0.7719620E-005  0.1091355E+03  0.7546771E-02  0.1265862E+00
         -4   -1    0    0    0  501 -0.00000000000E+00  0.00000000000E+00  0.58406006583E+02  0.58406006583E+02  0.00000000000E+00 0.  1.
         21   -1    0    0  501  502  0.00000000000E+00 -0.00000000000E+00 -0.29655262780E+03  0.29655262780E+03  0.00000000000E+00 0. -1.
         23    2    1    2    0    0  0.69516181874E+02 -0.44704640156E+00 -0.49925436709E+02  0.12437283832E+03  0.90240535733E+02 0.  0.
        -24    2    1    2    0    0 -0.50404529460E+02  0.86478949641E+01 -0.94232886204E+02  0.13432412460E+03  0.80918050696E+02 0.  0.
         13    1    4    4    0    0 -0.22119139529E+02  0.43949758852E+02 -0.60006497742E+02  0.77599081231E+02  0.00000000000E+00 0. -1.
        -14    1    4    4    0    0 -0.28285389931E+02 -0.35301863888E+02 -0.34226388462E+02  0.56725043364E+02  0.00000000000E+00 0.  1.
        -13    1    3    3    0    0  0.99527220141E+01 -0.40483907081E+02 -0.13045739076E+02  0.43682888138E+02  0.00000000000E+00 0.  1.
         13    1    3    3    0    0  0.59563459860E+02  0.40036860679E+02 -0.36879697633E+02  0.80689950186E+02  0.00000000000E+00 0. -1.
         -3    1    1    2    0  502 -0.19111652413E+02 -0.82008485626E+01 -0.93988298308E+02  0.96261671469E+02  0.00000000000E+00 0.  1.
<scales pt_clust_5="13000.00000" pt_clust_6="13000.00000" pt_clust_7="13000.00000" pt_clust_8="13000.00000" pt_clust_9="20.79685"></scales>
<clustering>
<clus scale="   20.797">  2  9  1 -1</clus>
<clus scale="   80.918">  5  6 -1 -1</clus>
<clus scale="   90.241">  7  8 -1 -1</clus>
<clus scale="  101.562">  2  5  1 -1</clus>
<clus scale="   20.797">  2  5  1 -1</clus>
</clustering>
</event>
<event>
 9    1  0.7719620E-005  0.2003196E+03  0.7546771E-02  0.1150177E+00
          3   -1    0    0  502    0 -0.00000000000E+00  0.00000000000E+00  0.39645741182E+02  0.39645741182E+02  0.00000000000E+00 0. -1.
         21   -1    0    0  501  502  0.00000000000E+00 -0.00000000000E+00 -0.17399352127E+04  0.17399352127E+04  0.00000000000E+00 0.  1.
         23    2    1    2    0    0  0.11062252034E+03  0.10993413887E+03 -0.57088796416E+03  0.59868539358E+03  0.90489093119E+02 0.  0.
        -24    2    1    2    0    0 -0.92355506281E+02 -0.20322422491E+03 -0.92994000934E+03  0.95993942631E+03  0.82859254558E+02 0.  0.
         11    1    4    4    0    0 -0.80338563315E+02 -0.14539549134E+03 -0.52331391235E+03  0.54904606775E+03  0.00000000000E+00 0. -1.
        -12    1    4    4    0    0 -0.12016942966E+02 -0.57828733572E+02 -0.40662609700E+03  0.41089335855E+03  0.00000000000E+00 0.  1.
        -13    1    3    3    0    0 -0.86265898789E+01  0.36206669679E+02 -0.16883183049E+03  0.17288588134E+03  0.00000000000E+00 0.  1.
         13    1    3    3    0    0  0.11924911022E+03  0.73727469190E+02 -0.40205613367E+03  0.42579951224E+03  0.00000000000E+00 0. -1.
          4    1    1    2  501    0 -0.18267014057E+02  0.93290086045E+02 -0.19946149797E+03  0.22095613395E+03  0.00000000000E+00 0. -1.
<scales pt_clust_5="13000.00000" pt_clust_6="13000.00000" pt_clust_7="13000.00000" pt_clust_8="13000.00000" pt_clust_9="95.06173"></scales>
<clustering>
<clus scale="   82.859">  5  6 -1 -1</clus>
<clus scale="   90.489">  7  8 -1 -1</clus>
<clus scale="   95.062">  2  9  1 -1</clus>
<clus scale="  196.991">  2  5  1 -1</clus>
<clus scale="   95.062">  2  5  1 -1</clus>
</clustering>
</event>
<event>
 9    1  0.7719620E-005  0.1272801E+03  0.7546771E-02  0.1234267E+00
         21   -1    0    0  501  502  0.00000000000E+00  0.00000000000E+00  0.17113717571E+03  0.17113717571E+03  0.00000000000E+00 0. -1.
         -2   -1    0    0    0  501 -0.00000000000E+00 -0.00000000000E+00 -0.16275997519E+03  0.16275997519E+03  0.00000000000E+00 0.  1.
        -24    2    1    2    0    0  0.86234958039E+02  0.61900756386E+00 -0.87187477148E+02  0.14651295370E+03  0.80171929450E+02 0.  0.
         23    2    1    2    0    0 -0.10410581718E+03 -0.14499093305E+02  0.83465355952E+02  0.16172454069E+03  0.90222594392E+02 0.  0.
         11    1    3    3    0    0  0.22563014144E+02 -0.28309813745E+01  0.14149908769E+02  0.26782904640E+02  0.00000000000E+00 0. -1.
        -12    1    3    3    0    0  0.63671943895E+02  0.34499889383E+01 -0.10133738592E+03  0.11973004906E+03  0.00000000000E+00 0.  1.
        -11    1    4    4    0    0 -0.10217804423E+03  0.13989762737E+02  0.41948337869E+02  0.11133610930E+03  0.00000000000E+00 0.  1.
         11    1    4    4    0    0 -0.19277729510E+01 -0.28488856042E+02  0.41517018083E+02  0.50388431387E+02  0.00000000000E+00 0. -1.
         -1    1    1    2    0  502  0.17870859143E+02  0.13880085742E+02  0.12099321712E+02  0.25659656517E+02  0.00000000000E+00 0.  1.
<scales pt_clust_5="13000.00000" pt_clust_6="13000.00000" pt_clust_7="13000.00000" pt_clust_8="13000.00000" pt_clust_9="22.62796"></scales>
<clustering>
<clus scale="   22.628">  1  9  2 -1</clus>
<clus scale="   80.172">  5  6 -1 -1</clus>
<clus scale="   90.223">  7  8 -1 -1</clus>
<clus scale="  120.365">  2  5  1 -1</clus>
<clus scale="   22.628">  1  5  2 -1</clus>
</clustering>
</event>
<event>
 9    1  0.7719620E-005  0.2153181E+03  0.7546771E-02  0.1138534E+00
          1   -1    0    0  502    0 -0.00000000000E+00  0.00000000000E+00  0.43274337063E+03  0.43274337063E+03  0.00000000000E+00 0. -1.
         21   -1    0    0  501  502  0.00000000000E+00 -0.00000000000E+00 -0.22254596839E+03  0.22254596839E+03  0.00000000000E+00 0. -1.
         23    2    1    2    0    0 -0.47673933297E+02  0.21342469715E+03  0.27197829862E+03  0.36134998885E+03  0.93694793101E+02 0.  0.
        -24    2    1    2    0    0 -0.28510632445E+02 -0.12781762449E+03 -0.87468496009E+02  0.17649782547E+03  0.79690296207E+02 0.  0.
         11    1    4    4    0    0 -0.13749855751E+02 -0.87724639550E+02 -0.98254542131E+02  0.13243347752E+03  0.00000000000E+00 0. -1.
        -12    1    4    4    0    0 -0.14760776694E+02 -0.40092984938E+02  0.10786046121E+02  0.44064347956E+02  0.00000000000E+00 0.  1.
        -13    1    3    3    0    0 -0.69097368885E+02  0.18919810074E+03  0.25458603778E+03  0.32462966337E+03  0.00000000000E+00 0. -1.
         13    1    3    3    0    0  0.21423435587E+02  0.24226596415E+02  0.17392260836E+02  0.36720325478E+02  0.00000000000E+00 0.  1.
          2    1    1    2  501    0  0.76184565743E+02 -0.85607072663E+02  0.25687599635E+02  0.11744152469E+03  0.00000000000E+00 0. -1.
<scales pt_clust_5="13000.00000" pt_clust_6="13000.00000" pt_clust_7="13000.00000" pt_clust_8="13000.00000" pt_clust_9="114.59781"></scales>
<clustering>
<clus scale="   79.690">  5  6 -1 -1</clus>
<clus scale="   93.695">  7  8 -1 -1</clus>
<clus scale="  114.598">  2  9  1 -1</clus>
<clus scale="  209.604">  2  5  1 -1</clus>
<clus scale="  114.598">  2  5  1 -1</clus>
</clustering>
</event>
<event>
 9    1  0.7719620E-005  0.9365666E+02  0.7546771E-02  0.1294385E+00
         21   -1    0    0  501  502  0.00000000000E+00  0.00000000000E+00  0.15785594464E+03  0.15785594464E+03  0.00000000000E+00 0.  1.
          1   -1    0    0  502    0 -0.00000000000E+00 -0.00000000000E+00 -0.11930318271E+03  0.11930318271E+03  0.00000000000E+00 0. -1.
         23    2    1    2    0    0  0.76248266099E+01 -0.21367619660E+02 -0.69517141428E+02  0.11571241823E+03  0.89677297183E+02 0.  0.
        -24    2    1    2    0    0 -0.20322645204E+02  0.37277649306E+02  0.87017412097E+02  0.13216239542E+03  0.89956854709E+02 0.  0.
         11    1    4    4    0    0  0.34605969742E+02  0.40031048150E+01  0.24948104615E+02  0.42848639580E+02  0.00000000000E+00 0. -1.
        -12    1    4    4    0    0 -0.54928614946E+02  0.33274544491E+02  0.62069307481E+02  0.89313755840E+02  0.00000000000E+00 0.  1.
        -13    1    3    3    0    0  0.25639199654E+02  0.12298437557E+02  0.77951493454E+01  0.29485326496E+02  0.00000000000E+00 0.  1.
         13    1    3    3    0    0 -0.18014373044E+02 -0.33666057217E+02 -0.77312290774E+02  0.86227091737E+02  0.00000000000E+00 0. -1.
          2    1    1    2  501    0  0.12697818594E+02 -0.15910029646E+02  0.21052491268E+02  0.29284313702E+02  0.00000000000E+00 0. -1.
<scales pt_clust_5="13000.00000" pt_clust_6="13000.00000" pt_clust_7="13000.00000" pt_clust_8="13000.00000" pt_clust_9="20.35592"></scales>
<clustering>
<clus scale="   20.356">  1  9  2 -1</clus>
<clus scale="   89.677">  7  8 -1 -1</clus>
<clus scale="   89.957">  5  6 -1 -1</clus>
<clus scale="   93.388">  2  7  1 -1</clus>
<clus scale="   20.356">  1  5  2 -1</clus>
</clustering>
</event>
<event>
 9    1  0.7719620E-005  0.1299824E+03  0.7546771E-02  0.1244034E+00
          1   -1    0    0  502    0 -0.00000000000E+00  0.00000000000E+00  0.30160874295E+03  0.30160874295E+03  0.00000000000E+00 0. -1.
         21   -1    0    0  501  502  0.00000000000E+00 -0.00000000000E+00 -0.70904337912E+03  0.70904337912E+03  0.00000000000E+00 0. -1.
        -24    2    1    2    0    0  0.46503582923E+02 -0.10679098488E+02 -0.72913923687E+02  0.11790136929E+03  0.79420817444E+02 0.  0.
         23    2    1    2    0    0  0.20426697845E+02  0.77062633355E+02  0.26231891559E+03  0.28851240758E+03  0.89845959322E+02 0.  0.
         13    1    3    3    0    0  0.64474405106E+02  0.80701720606E+01 -0.41318038640E+02  0.77001668215E+02  0.00000000000E+00 0. -1.
        -14    1    3    3    0    0 -0.17970822183E+02 -0.18749270548E+02 -0.31595885047E+02  0.40899701073E+02  0.00000000000E+00 0.  1.
        -11    1    4    4    0    0  0.44140826224E+02  0.29530697383E+02  0.63809800914E+02  0.83019066005E+02  0.00000000000E+00 0.  1.
         11    1    4    4    0    0 -0.23714128379E+02  0.47531935972E+02  0.19850911467E+03  0.20549334157E+03  0.00000000000E+00 0. -1.
          2    1    1    2  501    0 -0.66930280768E+02 -0.66383534868E+02 -0.59683962807E+03  0.60423834520E+03  0.00000000000E+00 0. -1.
<scales pt_clust_5="13000.00000" pt_clust_6="13000.00000" pt_clust_7="13000.00000" pt_clust_8="13000.00000" pt_clust_9="93.93148"></scales>
<clustering>
<clus scale="   79.421">  5  6 -1 -1</clus>
<clus scale="   89.846">  7  8 -1 -1</clus>
<clus scale="   92.652">  1  5  2 -1</clus>
<clus scale="   93.931">  2  9  1 -1</clus>
<clus scale="   93.931">  2  5  1 -1</clus>
</clustering>
</event>
<event>
 9    1  0.7719620E-005  0.1102819E+03  0.7546771E-02  0.1264827E+00
          1   -1    0    0  502    0 -0.00000000000E+00  0.00000000000E+00  0.13911508632E+03  0.13911508632E+03  0.00000000000E+00 0. -1.
         21   -1    0    0  501  502  0.00000000000E+00 -0.00000000000E+00 -0.19149743960E+03  0.19149743960E+03  0.00000000000E+00 0.  1.
         23    2    1    2    0    0  0.46965518206E+02  0.43563187348E+02  0.91610302538E+02  0.14516597431E+03  0.92613181425E+02 0.  0.
        -24    2    1    2    0    0 -0.29476621004E+02 -0.30401456487E+02 -0.94065083897E+02  0.13093182770E+03  0.80633639101E+02 0.  0.
         11    1    4    4    0    0  0.19478223148E+02 -0.11776963172E+02 -0.69399223274E+02  0.73036636215E+02  0.00000000000E+00 0. -1.
        -12    1    4    4    0    0 -0.48954844152E+02 -0.18624493315E+02 -0.24665860623E+02  0.57895191488E+02  0.00000000000E+00 0.  1.
        -13    1    3    3    0    0  0.36962152554E+01 -0.26417497987E+02  0.79685137655E+01  0.27839601626E+02  0.00000000000E+00 0.  1.
         13    1    3    3    0    0  0.43269302951E+02  0.69980685335E+02  0.83641788773E+02  0.11732637268E+03  0.00000000000E+00 0. -1.
          2    1    1    2  501    0 -0.17488897202E+02 -0.13161730861E+02 -0.49927571924E+02  0.54514723908E+02  0.00000000000E+00 0. -1.
<scales pt_clust_5="13000.00000" pt_clust_6="13000.00000" pt_clust_7="13000.00000" pt_clust_8="13000.00000" pt_clust_9="21.88819"></scales>
<clustering>
<clus scale="   21.888">  2  9  1 -1</clus>
<clus scale="   80.634">  5  6 -1 -1</clus>
<clus scale="   92.613">  7  8 -1 -1</clus>
<clus scale="  100.433">  2  5  1 -1</clus>
<clus scale="   21.888">  2  5  1 -1</clus>
</clustering>
</event>
<event>
 9    1  0.7719620E-005  0.9240675E+02  0.7546771E-02  0.1314086E+00
         21   -1    0    0  501  502  0.00000000000E+00  0.00000000000E+00  0.11454986449E+03  0.11454986449E+03  0.00000000000E+00 0. -1.
          1   -1    0    0  502    0 -0.00000000000E+00 -0.00000000000E+00 -0.25906876455E+03  0.25906876455E+03  0.00000000000E+00 0. -1.
         23    2    1    2    0    0  0.21518571355E+01  0.49905031852E+01 -0.19827603102E+03  0.21851554538E+03  0.91684914157E+02 0.  0.
        -24    2    1    2    0    0 -0.58266188886E+02 -0.71326831874E+01  0.27228263238E+02  0.92996820003E+02  0.66792262089E+02 0.  0.
         11    1    4    4    0    0 -0.50056293841E+02 -0.10827145316E+02 -0.12122752838E+02  0.52629086684E+02  0.00000000000E+00 0. -1.
        -12    1    4    4    0    0 -0.82098950444E+01  0.36944621290E+01  0.39351016076E+02  0.40367733319E+02  0.00000000000E+00 0.  1.
        -13    1    3    3    0    0  0.20349361898E+02 -0.22564681354E+02 -0.18161940223E+02  0.35399398963E+02  0.00000000000E+00 0.  1.
         13    1    3    3    0    0 -0.18197504763E+02  0.27555184539E+02 -0.18011409080E+03  0.18311614642E+03  0.00000000000E+00 0. -1.
          2    1    1    2  501    0  0.56114331750E+02  0.21421800021E+01  0.26528867722E+02  0.62106263658E+02  0.00000000000E+00 0. -1.
<scales pt_clust_5="13000.00000" pt_clust_6="13000.00000" pt_clust_7="13000.00000" pt_clust_8="13000.00000" pt_clust_9="56.15521"></scales>
<clustering>
<clus scale="   56.155">  1  9  2 -1</clus>
<clus scale="   66.792">  5  6 -1 -1</clus>
<clus scale="   67.780">  1  5  2 -1</clus>
<clus scale="   91.685">  7  8 -1 -1</clus>
<clus scale="   56.155">  1  5  2 -1</clus>
</clustering>
</event>
<event>
 9    1  0.7719620E-005  0.9216245E+02  0.7546771E-02  0.1298333E+00
         21   -1    0    0  501  502  0.00000000000E+00  0.00000000000E+00  0.76911640150E+02  0.76911640150E+02  0.00000000000E+00 0.  1.
          1   -1    0    0  502    0 -0.00000000000E+00 -0.00000000000E+00 -0.22250438568E+03  0.22250438568E+03  0.00000000000E+00 0. -1.
        -24    2    1    2    0    0  0.17678486013E+01  0.46658362576E+01 -0.46589750183E+02  0.10104429546E+03  0.89523457850E+02 0.  0.
         23    2    1    2    0    0 -0.26720579830E+02 -0.26673496541E+02 -0.45983296402E+01  0.98275692419E+02  0.90617339847E+02 0.  0.
         13    1    3    3    0    0  0.36873173487E+02  0.23752609252E+02 -0.42164716797E+02  0.60841439100E+02  0.00000000000E+00 0. -1.
        -14    1    3    3    0    0 -0.35105324885E+02 -0.19086772995E+02 -0.44250333863E+01  0.40202856355E+02  0.00000000000E+00 0.  1.
        -11    1    4    4    0    0  0.26792391699E+02  0.39562632456E+01 -0.21231046147E+02  0.34412811457E+02  0.00000000000E+00 0. -1.
         11    1    4    4    0    0 -0.53512971529E+02 -0.30629759787E+02  0.16632716507E+02  0.63862880963E+02  0.00000000000E+00 0.  1.
          2    1    1    2  501    0  0.24952731228E+02  0.22007660284E+02 -0.94404665706E+02  0.10009603795E+03  0.00000000000E+00 0. -1.
<scales pt_clust_5="13000.00000" pt_clust_6="13000.00000" pt_clust_7="13000.00000" pt_clust_8="13000.00000" pt_clust_9="33.27126"></scales>
<clustering>
<clus scale="   33.271">  1  9  2 -1</clus>
<clus scale="   89.523">  5  6 -1 -1</clus>
<clus scale="   90.617">  7  8 -1 -1</clus>
<clus scale="   91.087">  2  5  1 -1</clus>
<clus scale="   33.271">  1  5  2 -1</clus>
</clustering>
</event>
<event>
 9    1  0.7719620E-005  0.9649075E+02  0.7546771E-02  0.1293500E+00
         21   -1    0    0  501  502  0.00000000000E+00  0.00000000000E+00  0.21927411716E+03  0.21927411716E+03  0.00000000000E+00 0.  1.
          3   -1    0    0  502    0 -0.00000000000E+00 -0.00000000000E+00 -0.95289773773E+02  0.95289773773E+02  0.00000000000E+00 0. -1.
        -24    2    1    2    0    0  0.22085369735E+02  0.20221074902E+02 -0.39223932205E+02  0.94793601123E+02  0.80936113878E+02 0.  0.
         23    2    1    2    0    0 -0.81631881608E+01 -0.41629654829E+02  0.68600715079E+02  0.12177669338E+03  0.91235076259E+02 0.  0.
         13    1    3    3    0    0  0.17198169222E+02  0.46296632715E+02 -0.45914184713E+02  0.67433430753E+02  0.00000000000E+00 0. -1.
        -14    1    3    3    0    0  0.48872005133E+01 -0.26075557812E+02  0.66902525076E+01  0.27360170370E+02  0.00000000000E+00 0.  1.
        -13    1    4    4    0    0  0.26671175261E+02  0.17134461515E+02  0.15699545746E+02  0.35375374172E+02  0.00000000000E+00 0.  1.
         13    1    4    4    0    0 -0.34834363422E+02 -0.58764116344E+02  0.52901169333E+02  0.86401319211E+02  0.00000000000E+00 0. -1.
          4    1    1    2  501    0 -0.13922181574E+02  0.21408579927E+02  0.94607560516E+02  0.97993596429E+02  0.00000000000E+00 0. -1.
<scales pt_clust_5="13000.00000" pt_clust_6="13000.00000" pt_clust_7="13000.00000" pt_clust_8="13000.00000" pt_clust_9="25.53731"></scales>
<clustering>
<clus scale="   25.537">  1  9  2 -1</clus>
<clus scale="   80.936">  5  6 -1 -1</clus>
<clus scale="   86.818">  2  5  1 -1</clus>
<clus scale="   91.235">  7  8 -1 -1</clus>
<clus scale="   25.537">  1  5  2 -1</clus>
</clustering>
</event>
<event>
 9    1  0.7719620E-005  0.1379226E+03  0.7546771E-02  0.1217532E+00
          3   -1    0    0  502    0 -0.00000000000E+00  0.00000000000E+00  0.13809359198E+03  0.13809359198E+03  0.00000000000E+00 0. -1.
         21   -1    0    0  501  502  0.00000000000E+00 -0.00000000000E+00 -0.26697088907E+03  0.26697088907E+03  0.00000000000E+00 0.  1.
        -24    2    1    2    0    0  0.75334964028E+02 -0.70877322359E+02  0.26925387819E+02  0.14291800348E+03  0.94876907518E+02 0.  0.
         23    2    1    2    0    0 -0.76736176504E+02  0.46824537690E+02 -0.18510606313E+03  0.22420984854E+03  0.89021477515E+02 0.  0.
         13    1    3    3    0    0  0.16948342558E+02 -0.67857856615E+02  0.43228137636E+02  0.82222909845E+02  0.00000000000E+00 0. -1.
        -14    1    3    3    0    0  0.58386621470E+02 -0.30194657434E+01 -0.16302749816E+02  0.60695093637E+02  0.00000000000E+00 0.  1.
        -11    1    4    4    0    0 -0.56427850087E+02 -0.97879709569E+01 -0.13233601358E+03  0.14419683468E+03  0.00000000000E+00 0.  1.
         11    1    4    4    0    0 -0.20308326417E+02  0.56612508646E+02 -0.52770049549E+02  0.80013013857E+02  0.00000000000E+00 0. -1.
          4    1    1    2  501    0  0.14012124761E+01  0.24052784669E+02  0.29303378227E+02  0.37936629032E+02  0.00000000000E+00 0. -1.
<scales pt_clust_5="13000.00000" pt_clust_6="13000.00000" pt_clust_7="13000.00000" pt_clust_8="13000.00000" pt_clust_9="24.09358"></scales>
<clustering>
<clus scale="   24.094">  2  9  1 -1</clus>
<clus scale="   89.021">  7  8 -1 -1</clus>
<clus scale="   94.877">  5  6 -1 -1</clus>
<clus scale="  133.962">  2  7  1 -1</clus>
<clus scale="   24.094">  2  5  1 -1</clus>
</clustering>
</event>
<event>
 9    1  0.7719620E-005  0.3551155E+03  0.7546771E-02  0.1060535E+00
          1   -1    0    0  502    0 -0.00000000000E+00  0.00000000000E+00  0.19032363376E+04  0.19032363376E+04  0.00000000000E+00 0. -1.
         21   -1    0    0  501  502  0.00000000000E+00 -0.00000000000E+00 -0.59609173262E+02  0.59609173262E+02  0.00000000000E+00 0. -1.
        -24    2    1    2    0    0  0.21439761837E+03  0.16192357051E+02  0.74273487268E+03  0.77733051857E+03  0.79744045629E+02 0.  0.
         23    2    1    2    0    0  0.83449743000E+02 -0.61060577142E+01  0.49431950652E+03  0.50968562937E+03  0.91796093137E+02 0.  0.
         13    1    3    3    0    0  0.21977619172E+03  0.22609451571E+02  0.71699714521E+03  0.75026506515E+03  0.00000000000E+00 0. -1.
        -14    1    3    3    0    0 -0.53785733495E+01 -0.64170945200E+01  0.25737727470E+02  0.27065453417E+02  0.00000000000E+00 0.  1.
        -13    1    4    4    0    0  0.92606067829E+02 -0.30822019062E+02  0.40187945468E+03  0.41356133373E+03  0.00000000000E+00 0.  1.
         13    1    4    4    0    0 -0.91563248294E+01  0.24715961347E+02  0.92440051837E+02  0.96124295646E+02  0.00000000000E+00 0. -1.
          2    1    1    2  501    0 -0.29784736137E+03 -0.10086299337E+02  0.60657278511E+03  0.67582936290E+03  0.00000000000E+00 0. -1.
<scales pt_clust_5="13000.00000" pt_clust_6="13000.00000" pt_clust_7="13000.00000" pt_clust_8="13000.00000" pt_clust_9="298.01809"></scales>
<clustering>
<clus scale="   79.744">  5  6 -1 -1</clus>
<clus scale="   91.796">  7  8 -1 -1</clus>
<clus scale="   97.172">  5  7 -1 -1</clus>
<clus scale="  298.018">  2  9  1 -1</clus>
<clus scale="  298.018">  2  5  1 -1</clus>
</clustering>
</event>
<event>
 9    1  0.7719620E-005  0.1634474E+03  0.7546771E-02  0.1196691E+00
          1   -1    0    0  502    0 -0.00000000000E+00  0.00000000000E+00  0.12391968919E+03  0.12391968919E+03  0.00000000000E+00 0. -1.
         21   -1    0    0  501  502  0.00000000000E+00 -0.00000000000E+00 -0.41900295057E+03  0.41900295057E+03  0.00000000000E+00 0. -1.
        -24    2    1    2    0    0 -0.90247732821E+02  0.27130598579E+02 -0.12674466758E+03  0.17864114120E+03  0.83472893268E+02 0.  0.
         23    2    1    2    0    0  0.24239798750E+01  0.10636552746E+03 -0.10095930015E+02  0.13939270851E+03  0.89492448135E+02 0.  0.
         13    1    3    3    0    0 -0.92068854973E+02 -0.18092869436E+01 -0.11507344503E+03  0.14738332784E+03  0.00000000000E+00 0. -1.
        -14    1    3    3    0    0  0.18211221515E+01  0.28939885523E+02 -0.11671222549E+02  0.31257813356E+02  0.00000000000E+00 0.  1.
        -11    1    4    4    0    0 -0.64493717580E+00  0.72014740146E+02  0.37042167016E+02  0.80985559698E+02  0.00000000000E+00 0. -1.
         11    1    4    4    0    0  0.30689170508E+01  0.34350787315E+02 -0.47138097031E+02  0.58407148816E+02  0.00000000000E+00 0.  1.
          2    1    1    2  501    0  0.87823752946E+02 -0.13349612604E+03 -0.15824266379E+03  0.22488879005E+03  0.00000000000E+00 0. -1.
<scales pt_clust_5="13000.00000" pt_clust_6="13000.00000" pt_clust_7="13000.00000" pt_clust_8="13000.00000" pt_clust_9="136.77048"></scales>
<clustering>
<clus scale="   83.473">  5  6 -1 -1</clus>
<clus scale="   89.492">  7  8 -1 -1</clus>
<clus scale="  125.891">  1  5  2 -1</clus>
<clus scale="  136.770">  2  9  1 -1</clus>
<clus scale="  136.770">  2  5  1 -1</clus>
</clustering>
</event>
<event>
 9    1  0.7719620E-005  0.9503674E+02  0.7546771E-02  0.1298560E+00
          1   -1    0    0  502    0 -0.00000000000E+00  0.00000000000E+00  0.12126528250E+03  0.12126528250E+03  0.00000000000E+00 0. -1.
         21   -1    0    0  501  502  0.00000000000E+00 -0.00000000000E+00 -0.12849635240E+03  0.12849635240E+03  0.00000000000E+00 0.  1.
         23    2    1    2    0    0 -0.65367855786E+01 -0.14184572562E+02  0.60235462252E+02  0.11175749153E+03  0.92830460173E+02 0.  0.
        -24    2    1    2    0    0  0.35062995911E+02  0.14475631788E+02 -0.36541570477E+02  0.95930604822E+02  0.80177534077E+02 0.  0.
         13    1    4    4    0    0  0.24488705373E+02  0.47167511158E+02 -0.14425630104E+02  0.55068771583E+02  0.00000000000E+00 0. -1.
        -14    1    4    4    0    0  0.10574290538E+02 -0.32691879370E+02 -0.22115940373E+02  0.40861833239E+02  0.00000000000E+00 0.  1.
        -13    1    3    3    0    0  0.34553677035E+02  0.15999517982E+02  0.82876104601E+01  0.38969547847E+02  0.00000000000E+00 0.  1.
         13    1    3    3    0    0 -0.41090462613E+02 -0.30184090545E+02  0.51947851792E+02  0.72787943683E+02  0.00000000000E+00 0. -1.
          2    1    1    2  501    0 -0.28526210333E+02 -0.29105922601E+00 -0.30924961677E+02  0.42073538551E+02  0.00000000000E+00 0. -1.
<scales pt_clust_5="13000.00000" pt_clust_6="13000.00000" pt_clust_7="13000.00000" pt_clust_8="13000.00000" pt_clust_9="28.52770"></scales>
<clustering>
<clus scale="   28.528">  2  9  1 -1</clus>
<clus scale="   80.178">  5  6 -1 -1</clus>
<clus scale="   82.722">  2  5  1 -1</clus>
<clus scale="   92.830">  7  8 -1 -1</clus>
<clus scale="   28.528">  2  5  1 -1</clus>
</clustering>
</event>
<event>
 9    1  0.7719620E-005  0.1492604E+03  0.7546771E-02  0.1223969E+00
         21   -1    0    0  501  502  0.00000000000E+00  0.00000000000E+00  0.24249302739E+03  0.24249302739E+03  0.00000000000E+00 0. -1.
          3   -1    0    0  502    0 -0.00000000000E+00 -0.00000000000E+00 -0.17115792120E+03  0.17115792120E+03  0.00000000000E+00 0. -1.
         23    2    1    2    0    0  0.61086243375E+00 -0.13584439048E+02 -0.42994993150E+02  0.10186683665E+03  0.91342064987E+02 0.  0.
        -24    2    1    2    0    0 -0.21244711622E+00 -0.11728790268E+03  0.53918824466E+01  0.14150415522E+03  0.78980100648E+02 0.  0.
         11    1    4    4    0    0  0.13314290179E+02 -0.12107111780E+03 -0.80446900420E+01  0.12206638737E+03  0.00000000000E+00 0. -1.
        -12    1    4    4    0    0 -0.13526737295E+02  0.37832151204E+01  0.13436572489E+02  0.19437767844E+02  0.00000000000E+00 0.  1.
        -11    1    3    3    0    0  0.19499625306E+02  0.33257583434E+02 -0.54549575007E+01  0.38936599804E+02  0.00000000000E+00 0.  1.
         11    1    3    3    0    0 -0.18888762872E+02 -0.46842022482E+02 -0.37540035649E+02  0.62930236847E+02  0.00000000000E+00 0. -1.
          4    1    1    2  501    0 -0.39841531753E+00  0.13087234173E+03  0.10893821689E+03  0.17027995673E+03  0.00000000000E+00 0. -1.
<scales pt_clust_5="13000.00000" pt_clust_6="13000.00000" pt_clust_7="13000.00000" pt_clust_8="13000.00000" pt_clust_9="126.65233"></scales>
<clustering>
<clus scale="   78.980">  5  6 -1 -1</clus>
<clus scale="   91.342">  7  8 -1 -1</clus>
<clus scale="   92.349">  2  7  1 -1</clus>
<clus scale="  126.652">  1  9  2 -1</clus>
<clus scale="  126.652">  1  5  2 -1</clus>
</clustering>
</event>
<event>
 9    1  0.7719620E-005  0.1178718E+03  0.7546771E-02  0.1252695E+00
          3   -1    0    0  502    0 -0.00000000000E+00  0.00000000000E+00  0.41085820079E+03  0.41085820079E+03  0.00000000000E+00 0. -1.
         21   -1    0    0  501  502  0.00000000000E+00 -0.00000000000E+00 -0.46764671033E+02  0.46764671033E+02  0.00000000000E+00 0.  1.
         23    2    1    2    0    0  0.47809021289E+02 -0.46024016027E+02  0.15539311200E+03  0.19629093670E+03  0.99895945903E+02 0.  0.
        -24    2    1    2    0    0 -0.66847401267E+02  0.41126437844E+01  0.11653865572E+03  0.15831342505E+03  0.83644446186E+02 0.  0.
         13    1    4    4    0    0 -0.33612199131E+02 -0.33283082777E+02  0.90015633558E+02  0.10168754995E+03  0.00000000000E+00 0. -1.
        -14    1    4    4    0    0 -0.33235202135E+02  0.37395726561E+02  0.26523022163E+02  0.56625875099E+02  0.00000000000E+00 0.  1.
        -11    1    3    3    0    0  0.21351434056E+02  0.17912982644E+02  0.19154399846E+01  0.27936134195E+02  0.00000000000E+00 0. -1.
         11    1    3    3    0    0  0.26457587234E+02 -0.63936998671E+02  0.15347767201E+03  0.16835480251E+03  0.00000000000E+00 0.  1.
          4    1    1    2  501    0  0.19038379977E+02  0.41911372243E+02  0.92161762043E+02  0.10301851008E+03  0.00000000000E+00 0. -1.
<scales pt_clust_5="13000.00000" pt_clust_6="13000.00000" pt_clust_7="13000.00000" pt_clust_8="13000.00000" pt_clust_9="46.03287"></scales>
<clustering>
<clus scale="   46.033">  2  9  1 -1</clus>
<clus scale="   83.644">  5  6 -1 -1</clus>
<clus scale="   99.896">  7  8 -1 -1</clus>
<clus scale="  104.456">  2  5  1 -1</clus>
<clus scale="   46.033">  2  5  1 -1</clus>
</clustering>
</event>
<event>
 9    1  0.7719620E-005  0.1322448E+03  0.7546771E-02  0.1239010E+00
         21   -1    0    0  501  502  0.00000000000E+00  0.00000000000E+00  0.10324413351E+04  0.10324413351E+04  0.00000000000E+00 0.  1.
          1   -1    0    0  502    0 -0.00000000000E+00 -0.00000000000E+00 -0.37771069026E+02  0.37771069026E+02  0.00000000000E+00 0. -1.
         23    2    1    2    0    0 -0.30929943941E+02 -0.62712348968E+01  0.10222413208E+03  0.14119868406E+03  0.92148279316E+02 0.  0.
        -24    2    1    2    0    0 -0.81502505308E+02  0.48763014408E+02  0.59669202149E+03  0.60976913980E+03  0.82198207971E+02 0.  0.
         13    1    4    4    0    0 -0.52808084370E+02 -0.10668086333E+02  0.18021282813E+03  0.18809350139E+03  0.00000000000E+00 0. -1.
        -14    1    4    4    0    0 -0.28694420939E+02  0.59431100741E+02  0.41647919336E+03  0.42167563841E+03  0.00000000000E+00 0.  1.
        -13    1    3    3    0    0  0.27197738007E+02 -0.22215062501E+02  0.24396344029E+02  0.42759882561E+02  0.00000000000E+00 0.  1.
         13    1    3    3    0    0 -0.58127681947E+02  0.15943827605E+02  0.77827788052E+02  0.98438801498E+02  0.00000000000E+00 0. -1.
          2    1    1    2  501    0  0.11243244925E+03 -0.42491779511E+02  0.29575411253E+03  0.31924458029E+03  0.00000000000E+00 0. -1.
<scales pt_clust_5="13000.00000" pt_clust_6="13000.00000" pt_clust_7="13000.00000" pt_clust_8="13000.00000" pt_clust_9="103.59612"></scales>
<clustering>
<clus scale="   82.198">  5  6 -1 -1</clus>
<clus scale="   92.148">  7  8 -1 -1</clus>
<clus scale="   97.403">  2  7  1 -1</clus>
<clus scale="  103.596">  1  9  2 -1</clus>
<clus scale="  103.596">  1  5  2 -1</clus>
</clustering>
</event>
<event>
 9    1  0.7719620E-005  0.8910279E+02  0.7546771E-02  0.1312704E+00
          1   -1    0    0  502    0 -0.00000000000E+00  0.00000000000E+00  0.45202858872E+03  0.45202858872E+03  0.00000000000E+00 0. -1.
         21   -1    0    0  501  502  0.00000000000E+00 -0.00000000000E+00 -0.29955455344E+02  0.29955455344E+02  0.00000000000E+00 0.  1.
        -24    2    1    2    0    0 -0.17313880241E+02 -0.23734475830E+02  0.19536679010E+03  0.21164752079E+03  0.75917024362E+02 0.  0.
         23    2    1    2    0    0 -0.23601409535E+02  0.55833666858E+01  0.19587328800E+03  0.21598396126E+03  0.87718447614E+02 0.  0.
         11    1    3    3    0    0  0.29433154654E+02 -0.16736642387E+02  0.73052511710E+02  0.80517670473E+02  0.00000000000E+00 0. -1.
        -12    1    3    3    0    0 -0.46747034895E+02 -0.69978334440E+01  0.12231427839E+03  0.13112985031E+03  0.00000000000E+00 0.  1.
        -11    1    4    4    0    0 -0.86632119666E+00  0.43861682583E+02  0.71539784454E+02  0.83919833598E+02  0.00000000000E+00 0. -1.
         11    1    4    4    0    0 -0.22735088338E+02 -0.38278315897E+02  0.12433350355E+03  0.13206412766E+03  0.00000000000E+00 0.  1.
          2    1    1    2  501    0  0.40915289776E+02  0.18151109145E+02  0.30833055267E+02  0.54352562016E+02  0.00000000000E+00 0. -1.
<scales pt_clust_5="13000.00000" pt_clust_6="13000.00000" pt_clust_7="13000.00000" pt_clust_8="13000.00000" pt_clust_9="44.76074"></scales>
<clustering>
<clus scale="   44.761">  2  9  1 -1</clus>
<clus scale="   75.917">  5  6 -1 -1</clus>
<clus scale="   77.512">  1  5  2 -1</clus>
<clus scale="   87.718">  7  8 -1 -1</clus>
<clus scale="   44.761">  2  5  1 -1</clus>
</clustering>
</event>
<event>
 9    1  0.7719620E-005  0.1506965E+03  0.7546771E-02  0.1217516E+00
         -4   -1    0    0    0  501 -0.00000000000E+00  0.00000000000E+00  0.21069619740E+03  0.21069619740E+03  0.00000000000E+00 0.  1.
         21   -1    0    0  501  502  0.00000000000E+00 -0.00000000000E+00 -0.26839735412E+03  0.26839735412E+03  0.00000000000E+00 0.  1.
         23    2    1    2    0    0 -0.46538947240E+02  0.26885919845E+01  0.85187127652E+02  0.13345974561E+03  0.91550832022E+02 0.  0.
        -24    2    1    2    0    0 -0.11088103938E+03 -0.13710509371E+02 -0.12458373008E+03  0.18677036909E+03  0.82942642884E+02 0.  0.
         11    1    4    4    0    0 -0.37671817986E+02  0.73613281320E+01 -0.99368406936E+02  0.10652434144E+03  0.00000000000E+00 0. -1.
        -12    1    4    4    0    0 -0.73209221389E+02 -0.21071837503E+02 -0.25215323146E+02  0.80246027650E+02  0.00000000000E+00 0.  1.
        -11    1    3    3    0    0  0.26957792447E+02  0.77615691625E+01  0.15497654928E+02  0.32049053617E+02  0.00000000000E+00 0. -1.
         11    1    3    3    0    0 -0.73496739688E+02 -0.50729771780E+01  0.69689472723E+02  0.10141069199E+03  0.00000000000E+00 0.  1.
         -3    1    1    2    0  502  0.15741998662E+03  0.11021917387E+02 -0.18304554296E+02  0.15886343682E+03  0.00000000000E+00 0.  1.
<scales pt_clust_5="13000.00000" pt_clust_6="13000.00000" pt_clust_7="13000.00000" pt_clust_8="13000.00000" pt_clust_9="125.81726"></scales>
<clustering>
<clus scale="   82.943">  5  6 -1 -1</clus>
<clus scale="   91.551">  7  8 -1 -1</clus>
<clus scale="  102.736">  1  7  2 -1</clus>
<clus scale="  125.817">  2  9  1 -1</clus>
<clus scale="  125.817">  2  5  1 -1</clus>
</clustering>
</event>
<event>
 9    1  0.7719620E-005  0.1267246E+03  0.7546771E-02  0.1235607E+00
         21   -1    0    0  501  502  0.00000000000E+00  0.00000000000E+00  0.31269238392E+03  0.31269238392E+03  0.00000000000E+00 0.  1.
         -2   -1    0    0    0  501 -0.00000000000E+00 -0.00000000000E+00 -0.10158886760E+03  0.10158886760E+03  0.00000000000E+00 0.  1.
         23    2    1    2    0    0  0.76362532799E+02 -0.45944305870E+02  0.18493640322E+02  0.12924853800E+03  0.91766302013E+02 0.  0.
        -24    2    1    2    0    0 -0.39123386608E+02  0.86510156237E+02  0.19345887263E+03  0.22995946211E+03  0.80251930232E+02 0.  0.
         13    1    4    4    0    0  0.21958810387E+02  0.14292328739E+02  0.67758207299E+02  0.72647330789E+02  0.00000000000E+00 0. -1.
        -14    1    4    4    0    0 -0.61082196994E+02  0.72217827498E+02  0.12570066533E+03  0.15731213132E+03  0.00000000000E+00 0.  1.
        -11    1    3    3    0    0  0.94725540304E+02 -0.21275108498E+02  0.12085670237E+02  0.97834664882E+02  0.00000000000E+00 0. -1.
         11    1    3    3    0    0 -0.18363007505E+02 -0.24669197372E+02  0.64079700857E+01  0.31413873118E+02  0.00000000000E+00 0.  1.
         -1    1    1    2    0  502 -0.37239146191E+02 -0.40565850367E+02 -0.84899662639E+00  0.55073251405E+02  0.00000000000E+00 0.  1.
<scales pt_clust_5="13000.00000" pt_clust_6="13000.00000" pt_clust_7="13000.00000" pt_clust_8="13000.00000" pt_clust_9="55.06673"></scales>
<clustering>
<clus scale="   55.067">  1  9  2 -1</clus>
<clus scale="   80.252">  5  6 -1 -1</clus>
<clus scale="   91.766">  7  8 -1 -1</clus>
<clus scale="  118.653">  1  5  2 -1</clus>
<clus scale="   55.067">  1  5  2 -1</clus>
</clustering>
</event>
<event>
 9    1  0.7719620E-005  0.1526434E+03  0.7546771E-02  0.1225090E+00
          1   -1    0    0  502    0 -0.00000000000E+00  0.00000000000E+00  0.78420676120E+03  0.78420676120E+03  0.00000000000E+00 0. -1.
         21   -1    0    0  501  502  0.00000000000E+00 -0.00000000000E+00 -0.44055980973E+02  0.44055980973E+02  0.00000000000E+00 0. -1.
        -24    2    1    2    0    0 -0.31175146954E+02 -0.33280191350E+01  0.24194207565E+03  0.25622466832E+03  0.78308027600E+02 0.  0.
         23    2    1    2    0    0  0.25514271126E+02 -0.12003674685E+03  0.22456425398E+03  0.27181782747E+03  0.91629845226E+02 0.  0.
         13    1    3    3    0    0 -0.51218050315E+02  0.18692046265E+02  0.15209852965E+03  0.16157550555E+03  0.00000000000E+00 0. -1.
        -14    1    3    3    0    0  0.20042903361E+02 -0.22020065400E+02  0.89843545997E+02  0.94649162768E+02  0.00000000000E+00 0.  1.
        -13    1    4    4    0    0  0.51751037684E+02 -0.11494464610E+03  0.17774999791E+03  0.21791168699E+03  0.00000000000E+00 0. -1.
         13    1    4    4    0    0 -0.26236766557E+02 -0.50921007425E+01  0.46814256069E+02  0.53906140472E+02  0.00000000000E+00 0.  1.
          2    1    1    2  501    0  0.56608758275E+01  0.12336476598E+03  0.27364445059E+03  0.30022024639E+03  0.00000000000E+00 0. -1.
<scales pt_clust_5="13000.00000" pt_clust_6="13000.00000" pt_clust_7="13000.00000" pt_clust_8="13000.00000" pt_clust_9="122.08193"></scales>
<clustering>
<clus scale="   78.308">  5  6 -1 -1</clus>
<clus scale="   84.351">  1  5  2 -1</clus>
<clus scale="   91.630">  7  8 -1 -1</clus>
<clus scale="  122.082">  2  9  1 -1</clus>
<clus scale="  122.082">  2  5  1 -1</clus>
</clustering>
</event>
<event>
 9    1  0.7719620E-005  0.9400961E+02  0.7546771E-02  0.1297919E+00
         -2   -1    0    0    0  501 -0.00000000000E+00  0.00000000000E+00  0.23633326207E+03  0.23633326207E+03  0.00000000000E+00 0.  1.
         21   -1    0    0  501  502  0.00000000000E+00 -0.00000000000E+00 -0.18315944927E+03  0.18315944927E+03  0.00000000000E+00 0.  1.
         23    2    1    2    0    0  0.46453801247E+01  0.29102864013E+02  0.17670476636E+03  0.20051338580E+03  0.90069346509E+02 0.  0.
        -24    2    1    2    0    0  0.45227466034E+02 -0.15138361519E+02 -0.11698027802E+02  0.95736023901E+02  0.82181803001E+02 0.  0.
         13    1    4    4    0    0  0.12302015368E+02 -0.45695437682E+02 -0.17475052266E+02  0.50445912211E+02  0.00000000000E+00 0. -1.
        -14    1    4    4    0    0  0.32925450666E+02  0.30557076163E+02  0.57770244641E+01  0.45290111690E+02  0.00000000000E+00 0.  1.
        -11    1    3    3    0    0  0.11899420450E+02 -0.21451553715E+02  0.10579989238E+02  0.26715192983E+02  0.00000000000E+00 0. -1.
         11    1    3    3    0    0 -0.72540403258E+01  0.50554417728E+02  0.16612477712E+03  0.17379819282E+03  0.00000000000E+00 0.  1.
         -1    1    1    2    0  502 -0.49872846159E+02 -0.13964502494E+02 -0.11183292576E+03  0.12324330164E+03  0.00000000000E+00 0.  1.
<scales pt_clust_5="13000.00000" pt_clust_6="13000.00000" pt_clust_7="13000.00000" pt_clust_8="13000.00000" pt_clust_9="51.79100"></scales>
<clustering>
<clus scale="   51.791">  2  9  1 -1</clus>
<clus scale="   82.182">  5  6 -1 -1</clus>
<clus scale="   86.482">  2  5  1 -1</clus>
<clus scale="   90.069">  7  8 -1 -1</clus>
<clus scale="   51.791">  2  5  1 -1</clus>
</clustering>
</event>
<event>
 9    1  0.7719620E-005  0.1042606E+03  0.7546771E-02  0.1280424E+00
          1   -1    0    0  502    0 -0.00000000000E+00  0.00000000000E+00  0.14864014638E+03  0.14864014638E+03  0.00000000000E+00 0. -1.
         21   -1    0    0  501  502  0.00000000000E+00 -0.00000000000E+00 -0.19222146560E+03  0.19222146560E+03  0.00000000000E+00 0. -1.
         23    2    1    2    0    0 -0.12543045397E+02 -0.39347711202E+02  0.94047908366E+02  0.14076140662E+03  0.96245489047E+02 0.  0.
        -24    2    1    2    0    0  0.53891966328E+02  0.13829734031E+02 -0.82957993477E+02  0.12695757579E+03  0.78361928189E+02 0.  0.
         13    1    4    4    0    0  0.46697719446E+02 -0.26782929563E+02 -0.56029993699E+02  0.77700466609E+02  0.00000000000E+00 0. -1.
        -14    1    4    4    0    0  0.71942468823E+01  0.40612663593E+02 -0.26927999779E+02  0.49257109177E+02  0.00000000000E+00 0.  1.
        -11    1    3    3    0    0  0.23248675011E+02 -0.55334623771E+02  0.77961796382E+02  0.98389344813E+02  0.00000000000E+00 0. -1.
         11    1    3    3    0    0 -0.35791720408E+02  0.15986912569E+02  0.16086111984E+02  0.42372061810E+02  0.00000000000E+00 0.  1.
          2    1    1    2  501    0 -0.41348920932E+02  0.25517977172E+02 -0.54671234111E+02  0.73142629569E+02  0.00000000000E+00 0. -1.
<scales pt_clust_5="13000.00000" pt_clust_6="13000.00000" pt_clust_7="13000.00000" pt_clust_8="13000.00000" pt_clust_9="48.58910"></scales>
<clustering>
<clus scale="   48.589">  2  9  1 -1</clus>
<clus scale="   78.362">  5  6 -1 -1</clus>
<clus scale="   88.021">  2  5  1 -1</clus>
<clus scale="   96.245">  7  8 -1 -1</clus>
<clus scale="   48.589">  2  5  1 -1</clus>
</clustering>
</event>
<event>
 9    1  0.7719620E-005  0.9619524E+02  0.7546771E-02  0.1294653E+00
         21   -1    0    0  501  502  0.00000000000E+00  0.00000000000E+00  0.29683949994E+02  0.29683949994E+02  0.00000000000E+00 0. -1.
          1   -1    0    0  502    0 -0.00000000000E+00 -0.00000000000E+00 -0.51771973540E+03  0.51771973540E+03  0.00000000000E+00 0. -1.
         23    2    1    2    0    0  0.45801853436E+01  0.51751178828E+02 -0.28898745711E+03  0.30756280890E+03  0.91553090849E+02 0.  0.
        -24    2    1    2    0    0  0.49947471713E+01  0.47294705407E+00 -0.11734387674E+03  0.14240035073E+03  0.80517720419E+02 0.  0.
         13    1    4    4    0    0 -0.63993298752E+01  0.39315122325E+02 -0.64945596136E+02  0.76187667793E+02  0.00000000000E+00 0. -1.
        -14    1    4    4    0    0  0.11394077047E+02 -0.38842175271E+02 -0.52398280606E+02  0.66212682939E+02  0.00000000000E+00 0.  1.
        -13    1    3    3    0    0 -0.37006991819E+02  0.23031340196E+02 -0.67265872836E+02  0.80153962616E+02  0.00000000000E+00 0. -1.
         13    1    3    3    0    0  0.41587177162E+02  0.28719838632E+02 -0.22172158428E+03  0.22740884629E+03  0.00000000000E+00 0.  1.
          2    1    1    2  501    0 -0.95749325149E+01 -0.52224125883E+02 -0.81704451556E+02  0.97440525763E+02  0.00000000000E+00 0. -1.
<scales pt_clust_5="13000.00000" pt_clust_6="13000.00000" pt_clust_7="13000.00000" pt_clust_8="13000.00000" pt_clust_9="53.09462"></scales>
<clustering>
<clus scale="   53.095">  1  9  2 -1</clus>
<clus scale="   80.518">  5  6 -1 -1</clus>
<clus scale="   85.759">  1  5  2 -1</clus>
<clus scale="   91.553">  7  8 -1 -1</clus>
<clus scale="   53.095">  1  5  2 -1</clus>
</clustering>
</event>
<event>
 9    1  0.7719620E-005  0.1387564E+03  0.7546771E-02  0.1216499E+00
         21   -1    0    0  501  502  0.00000000000E+00  0.00000000000E+00  0.82616529946E+02  0.82616529946E+02  0.00000000000E+00 0. -1.
          3   -1    0    0  502    0 -0.00000000000E+00 -0.00000000000E+00 -0.65731323414E+03  0.65731323414E+03  0.00000000000E+00 0. -1.
         23    2    1    2    0    0 -0.11631210864E+03  0.37787005576E+02 -0.53237448101E+03  0.55338731946E+03  0.88648592210E+02 0.  0.
        -24    2    1    2    0    0  0.38353457242E+02 -0.47485093636E+02 -0.33972748080E+02  0.10754043215E+03  0.81761697237E+02 0.  0.
         13    1    4    4    0    0  0.28947163028E+02 -0.68565488095E+02 -0.38837678622E+02  0.83949566323E+02  0.00000000000E+00 0. -1.
        -14    1    4    4    0    0  0.94062942139E+01  0.21080394459E+02  0.48649305411E+01  0.23590865829E+02  0.00000000000E+00 0.  1.
        -11    1    3    3    0    0 -0.57442617762E+02 -0.12489848878E+02 -0.11787359706E+03  0.13171877446E+03  0.00000000000E+00 0.  1.
         11    1    3    3    0    0 -0.58869490880E+02  0.50276854454E+02 -0.41450088395E+03  0.42166854500E+03  0.00000000000E+00 0. -1.
          4    1    1    2  501    0  0.77958651400E+02  0.96980880599E+01 -0.83494751009E+01  0.79002012471E+02  0.00000000000E+00 0. -1.
<scales pt_clust_5="13000.00000" pt_clust_6="13000.00000" pt_clust_7="13000.00000" pt_clust_8="13000.00000" pt_clust_9="78.55956"></scales>
<clustering>
<clus scale="   78.560">  1  9  2 -1</clus>
<clus scale="   81.762">  5  6 -1 -1</clus>
<clus scale="   88.649">  7  8 -1 -1</clus>
<clus scale="  134.461">  1  5  2 -1</clus>
<clus scale="   78.560">  1  5  2 -1</clus>
</clustering>
</event>
<event>
 9    1  0.7719620E-005  0.3507828E+03  0.7546771E-02  0.1107541E+00
          1   -1    0    0  502    0 -0.00000000000E+00  0.00000000000E+00  0.44460737213E+04  0.44460737213E+04  0.00000000000E+00 0. -1.
         21   -1    0    0  501  502  0.00000000000E+00 -0.00000000000E+00 -0.55946763204E+02  0.55946763204E+02  0.00000000000E+00 0. -1.
         23    2    1    2    0    0 -0.23938842277E+02 -0.47179837527E+02  0.71051286038E+02  0.12661403547E+03  0.90464487464E+02 0.  0.
        -24    2    1    2    0    0  0.24739914687E+03 -0.22483576783E+03  0.19080922379E+04  0.19388580467E+04  0.81222388707E+02 0.  0.
         11    1    4    4    0    0  0.82839682684E+02 -0.12064724899E+03  0.69637242702E+03  0.71158466034E+03  0.00000000000E+00 0. -1.
        -12    1    4    4    0    0  0.16455946418E+03 -0.10418851883E+03  0.12117198109E+04  0.12272733864E+04  0.00000000000E+00 0.  1.
        -13    1    3    3    0    0  0.34386174073E+02 -0.21897246538E+02  0.22024347364E+02  0.46335410327E+02  0.00000000000E+00 0.  1.
         13    1    3    3    0    0 -0.58325016351E+02 -0.25282590990E+02  0.49026938674E+02  0.80278625145E+02  0.00000000000E+00 0. -1.
          2    1    1    2  501    0 -0.22346030459E+03  0.27201560535E+03  0.24109834341E+04  0.24365484023E+04  0.00000000000E+00 0. -1.
<scales pt_clust_5="13000.00000" pt_clust_6="13000.00000" pt_clust_7="13000.00000" pt_clust_8="13000.00000" pt_clust_9="341.25007"></scales>
<clustering>
<clus scale="   81.222">  5  6 -1 -1</clus>
<clus scale="   90.464">  7  8 -1 -1</clus>
<clus scale="  104.799">  1  7  2 -1</clus>
<clus scale="  341.250">  2  9  1 -1</clus>
<clus scale="  341.250">  2  5  1 -1</clus>
</clustering>
</event>
<event>
 9    1  0.7719620E-005  0.1287576E+03  0.7546771E-02  0.1247239E+00
          1   -1    0    0  502    0 -0.00000000000E+00  0.00000000000E+00  0.35084012732E+03  0.35084012732E+03  0.00000000000E+00 0. -1.
         21   -1    0    0  501  502  0.00000000000E+00 -0.00000000000E+00 -0.13218662759E+03  0.13218662759E+03  0.00000000000E+00 0. -1.
        -24    2    1    2    0    0  0.40048579909E+02 -0.12807951910E+02  0.23366326519E+03  0.25017045544E+03  0.78859386818E+02 0.  0.
         23    2    1    2    0    0  0.18663352471E+02  0.89974272878E+02 -0.35844567060E+02  0.13368059150E+03  0.90232904477E+02 0.  0.
         13    1    3    3    0    0  0.48709916721E+02  0.17709532841E+02  0.98155730246E+02  0.11099923838E+03  0.00000000000E+00 0. -1.
        -14    1    3    3    0    0 -0.86613368123E+01 -0.30517484751E+02  0.13550753495E+03  0.13917121706E+03  0.00000000000E+00 0.  1.
        -11    1    4    4    0    0  0.45849344899E+02  0.48523273236E+02 -0.48504366318E+02  0.82518749537E+02  0.00000000000E+00 0. -1.
         11    1    4    4    0    0 -0.27185992429E+02  0.41450999643E+02  0.12659799258E+02  0.51161841962E+02  0.00000000000E+00 0.  1.
          2    1    1    2  501    0 -0.58711932380E+02 -0.77166320968E+02  0.20834801598E+02  0.99175707979E+02  0.00000000000E+00 0. -1.
<scales pt_clust_5="13000.00000" pt_clust_6="13000.00000" pt_clust_7="13000.00000" pt_clust_8="13000.00000" pt_clust_9="91.85073"></scales>
<clustering>
<clus scale="   78.859">  5  6 -1 -1</clus>
<clus scale="   89.369">  1  5  2 -1</clus>
<clus scale="   90.233">  7  8 -1 -1</clus>
<clus scale="   91.851">  2  9  1 -1</clus>
<clus scale="   91.851">  2  5  1 -1</clus>
</clustering>
</event>
<event>
 9    1  0.7719620E-005  0.9826801E+02  0.7546771E-02  0.1292073E+00
          1   -1    0    0  502    0 -0.00000000000E+00  0.00000000000E+00  0.35987510075E+03  0.35987510075E+03  0.00000000000E+00 0. -1.
         21   -1    0    0  501  502  0.00000000000E+00 -0.00000000000E+00 -0.62177342436E+02  0.62177342436E+02  0.00000000000E+00 0. -1.
        -24    2    1    2    0    0  0.18348074914E+02 -0.58751003588E+02  0.17423148155E+03  0.19953931938E+03  0.75306032569E+02 0.  0.
         23    2    1    2    0    0  0.28653418860E+02  0.11212562701E+02  0.12280021623E+03  0.15565889869E+03  0.90570743947E+02 0.  0.
         13    1    3    3    0    0 -0.14611665816E+02 -0.28415732826E+02  0.13878702685E+03  0.14241767261E+03  0.00000000000E+00 0. -1.
        -14    1    3    3    0    0  0.32959740730E+02 -0.30335270762E+02  0.35444454702E+02  0.57121646775E+02  0.00000000000E+00 0.  1.
        -13    1    4    4    0    0  0.23322271139E+02 -0.38729268378E+02  0.52923204670E+02  0.69604239473E+02  0.00000000000E+00 0. -1.
         13    1    4    4    0    0  0.53311477211E+01  0.49941831078E+02  0.69877011562E+02  0.86054659213E+02  0.00000000000E+00 0.  1.
          2    1    1    2  501    0 -0.47001493774E+02  0.47538440887E+02  0.66606053092E+00  0.66854225114E+02  0.00000000000E+00 0. -1.
<scales pt_clust_5="13000.00000" pt_clust_6="13000.00000" pt_clust_7="13000.00000" pt_clust_8="13000.00000" pt_clust_9="66.85091"></scales>
<clustering>
<clus scale="   66.851">  2  9  1 -1</clus>
<clus scale="   75.306">  5  6 -1 -1</clus>
<clus scale="   84.407">  1  5  2 -1</clus>
<clus scale="   90.571">  7  8 -1 -1</clus>
<clus scale="   66.851">  2  5  1 -1</clus>
</clustering>
</event>
<event>
 9    1  0.7719620E-005  0.8413121E+02  0.7546771E-02  0.1319805E+00
          1   -1    0    0  502    0 -0.00000000000E+00  0.00000000000E+00  0.46483428224E+03  0.46483428224E+03  0.00000000000E+00 0. -1.
         21   -1    0    0  501  502  0.00000000000E+00 -0.00000000000E+00 -0.79534611487E+02  0.79534611487E+02  0.00000000000E+00 0.  1.
        -24    2    1    2    0    0 -0.23065166829E+02  0.15875230682E+02  0.24969860733E+03  0.26401274398E+03  0.81051277683E+02 0.  0.
         23    2    1    2    0    0 -0.18677600496E+02  0.24345783376E+02 -0.41934994888E+02  0.93596302353E+02  0.77846991524E+02 0.  0.
         11    1    3    3    0    0  0.27110019157E+02  0.17515220120E+02  0.64418470370E+02  0.72051893794E+02  0.00000000000E+00 0. -1.
        -12    1    3    3    0    0 -0.50175185986E+02 -0.16399894375E+01  0.18528013696E+03  0.19196085019E+03  0.00000000000E+00 0.  1.
        -13    1    4    4    0    0 -0.49172476717E+02  0.18384129164E+02 -0.28620463446E+02  0.59791634862E+02  0.00000000000E+00 0.  1.
         13    1    4    4    0    0  0.30494876221E+02  0.59616542116E+01 -0.13314531442E+02  0.33804667491E+02  0.00000000000E+00 0. -1.
          2    1    1    2  501    0  0.41742767325E+02 -0.40221014058E+02  0.17753605831E+03  0.18675984739E+03  0.00000000000E+00 0. -1.
<scales pt_clust_5="13000.00000" pt_clust_6="13000.00000" pt_clust_7="13000.00000" pt_clust_8="13000.00000" pt_clust_9="57.96716"></scales>
<clustering>
<clus scale="   57.967">  2  9  1 -1</clus>
<clus scale="   77.847">  7  8 -1 -1</clus>
<clus scale="   81.049">  2  7  1 -1</clus>
<clus scale="   81.051">  5  6 -1 -1</clus>
<clus scale="   57.967">  2  5  1 -1</clus>
</clustering>
</event>
<event>
 9    1  0.7719620E-005  0.1594460E+03  0.7546771E-02  0.1191752E+00
         21   -1    0    0  501  502  0.00000000000E+00  0.00000000000E+00  0.31865370336E+03  0.31865370336E+03  0.00000000000E+00 0.  1.
         -2   -1    0    0    0  501 -0.00000000000E+00 -0.00000000000E+00 -0.97876860291E+02  0.97876860291E+02  0.00000000000E+00 0.  1.
         23    2    1    2    0    0 -0.99105503669E+02 -0.68697284462E+02  0.51818983178E+02  0.16230810841E+03  0.95485586808E+02 0.  0.
        -24    2    1    2    0    0  0.11554976722E+03  0.80849071203E+02  0.16798286922E+03  0.23375222487E+03  0.80830299155E+02 0.  0.
         13    1    4    4    0    0  0.16549118170E+02  0.55720477279E+02  0.42781865324E+02  0.72172937456E+02  0.00000000000E+00 0. -1.
        -14    1    4    4    0    0  0.99000649049E+02  0.25128593925E+02  0.12520100390E+03  0.16157928742E+03  0.00000000000E+00 0.  1.
        -11    1    3    3    0    0 -0.17052420969E+02 -0.12036859000E+02 -0.27759509368E+02  0.34731274032E+02  0.00000000000E+00 0. -1.
         11    1    3    3    0    0 -0.82053082700E+02 -0.56660425462E+02  0.79578492546E+02  0.12757683438E+03  0.00000000000E+00 0.  1.
         -1    1    1    2    0  502 -0.16444263550E+02 -0.12151786741E+02  0.97499067249E+00  0.20470230373E+02  0.00000000000E+00 0.  1.
<scales pt_clust_5="13000.00000" pt_clust_6="13000.00000" pt_clust_7="13000.00000" pt_clust_8="13000.00000" pt_clust_9="20.44701"></scales>
<clustering>
<clus scale="   20.447">  1  9  2 -1</clus>
<clus scale="   80.830">  5  6 -1 -1</clus>
<clus scale="   95.486">  7  8 -1 -1</clus>
<clus scale="  151.126">  1  5  2 -1</clus>
<clus scale="   20.447">  1  5  2 -1</clus>
</clustering>
</event>
<event>
 9    1  0.7719620E-005  0.1508407E+03  0.7546771E-02  0.1220117E+00
         21   -1    0    0  501  502  0.00000000000E+00  0.00000000000E+00  0.55330554532E+02  0.55330554532E+02  0.00000000000E+00 0.  1.
          1   -1    0    0  502    0 -0.00000000000E+00 -0.00000000000E+00 -0.12954108512E+04  0.12954108512E+04  0.00000000000E+00 0. -1.
        -24    2    1    2    0    0  0.52992602786E+02  0.10719357653E+01 -0.44013176069E+02  0.10650694989E+03  0.81223184568E+02 0.  0.
         23    2    1    2    0    0 -0.12581372255E+03  0.88048203759E+02 -0.10088811507E+04  0.10244984731E+04  0.90412202319E+02 0.  0.
         11    1    3    3    0    0 -0.61222824258E+01 -0.27120053247E+02 -0.27189124078E+02  0.38887377109E+02  0.00000000000E+00 0. -1.
        -12    1    3    3    0    0  0.59114885212E+02  0.28191989013E+02 -0.16824051991E+02  0.67619572784E+02  0.00000000000E+00 0.  1.
        -11    1    4    4    0    0 -0.10998049004E+03  0.24769093168E+02 -0.66418728972E+03  0.67368685009E+03  0.00000000000E+00 0.  1.
         11    1    4    4    0    0 -0.15833232510E+02  0.63279110591E+02 -0.34469386094E+03  0.35081162304E+03  0.00000000000E+00 0. -1.
          2    1    1    2  501    0  0.72821119760E+02 -0.89120139524E+02 -0.18718596991E+03  0.21973598268E+03  0.00000000000E+00 0. -1.
<scales pt_clust_5="13000.00000" pt_clust_6="13000.00000" pt_clust_7="13000.00000" pt_clust_8="13000.00000" pt_clust_9="120.74165"></scales>
<clustering>
<clus scale="   81.223">  5  6 -1 -1</clus>
<clus scale="   90.412">  7  8 -1 -1</clus>
<clus scale="   96.988">  2  5  1 -1</clus>
<clus scale="  120.742">  1  9  2 -1</clus>
<clus scale="  120.742">  1  5  2 -1</clus>
</clustering>
</event>
<event>
 9    1  0.7719620E-005  0.1647716E+03  0.7546771E-02  0.1216018E+00
         21   -1    0    0  501  502  0.00000000000E+00  0.00000000000E+00  0.13058919487E+03  0.13058919487E+03  0.00000000000E+00 0.  1.
          1   -1    0    0  502    0 -0.00000000000E+00 -0.00000000000E+00 -0.96333274255E+03  0.96333274255E+03  0.00000000000E+00 0. -1.
        -24    2    1    2    0    0 -0.90365362342E+00  0.10639223798E+02 -0.70067838542E+03  0.70535841255E+03  0.80413187281E+02 0.  0.
         23    2    1    2    0    0  0.10049373219E+03  0.86772078446E+02 -0.18013117599E+03  0.24119498268E+03  0.89996640497E+02 0.  0.
         13    1    3    3    0    0 -0.26753176208E+02  0.31170595978E+02 -0.23924923800E+03  0.24274994618E+03  0.00000000000E+00 0. -1.
        -14    1    3    3    0    0  0.25849522585E+02 -0.20531372181E+02 -0.46142914742E+03  0.46260846636E+03  0.00000000000E+00 0.  1.
        -11    1    4    4    0    0  0.65245300131E+02  0.66023573022E+01 -0.42777372814E+02  0.78297151519E+02  0.00000000000E+00 0. -1.
         11    1    4    4    0    0  0.35248432055E+02  0.80169721144E+02 -0.13735380317E+03  0.16289783116E+03  0.00000000000E+00 0.  1.
          2    1    1    2  501    0 -0.99590078562E+02 -0.97411302244E+02  0.48066013719E+02  0.14736854219E+03  0.00000000000E+00 0. -1.
<scales pt_clust_5="13000.00000" pt_clust_6="13000.00000" pt_clust_7="13000.00000" pt_clust_8="13000.00000" pt_clust_9="138.02273"></scales>
<clustering>
<clus scale="   80.413">  5  6 -1 -1</clus>
<clus scale="   81.119">  2  5  1 -1</clus>
<clus scale="   89.997">  7  8 -1 -1</clus>
<clus scale="  138.023">  1  9  2 -1</clus>
<clus scale="  138.023">  1  5  2 -1</clus>
</clustering>
</event>
<event>
 9    1  0.7719620E-005  0.1105090E+03  0.7546771E-02  0.1263624E+00
         21   -1    0    0  501  502  0.00000000000E+00  0.00000000000E+00  0.15061950258E+03  0.15061950258E+03  0.00000000000E+00 0. -1.
          1   -1    0    0  502    0 -0.00000000000E+00 -0.00000000000E+00 -0.26546623281E+03  0.26546623281E+03  0.00000000000E+00 0. -1.
         23    2    1    2    0    0  0.37937345417E+02 -0.50104455767E+02 -0.19948124256E+03  0.22817015033E+03  0.91209389326E+02 0.  0.
        -24    2    1    2    0    0 -0.35926744393E+01  0.70138327620E+02  0.15643040229E+02  0.10828684861E+03  0.80926167357E+02 0.  0.
         11    1    4    4    0    0 -0.35661409608E+02  0.26028681512E+02  0.28117530600E+02  0.52343327402E+02  0.00000000000E+00 0. -1.
        -12    1    4    4    0    0  0.32068735168E+02  0.44109646108E+02 -0.12474490371E+02  0.55943521207E+02  0.00000000000E+00 0.  1.
        -11    1    3    3    0    0 -0.67036320509E+01 -0.53321082926E+02 -0.54921372100E+02  0.76840312860E+02  0.00000000000E+00 0.  1.
         11    1    3    3    0    0  0.44640977468E+02  0.32166271598E+01 -0.14455987046E+03  0.15132983747E+03  0.00000000000E+00 0. -1.
          2    1    1    2  501    0 -0.34344670978E+02 -0.20033871853E+02  0.68991472103E+02  0.79628736452E+02  0.00000000000E+00 0. -1.
<scales pt_clust_5="13000.00000" pt_clust_6="13000.00000" pt_clust_7="13000.00000" pt_clust_8="13000.00000" pt_clust_9="39.76069"></scales>
<clustering>
<clus scale="   39.761">  1  9  2 -1</clus>
<clus scale="   80.926">  5  6 -1 -1</clus>
<clus scale="   91.209">  7  8 -1 -1</clus>
<clus scale="  102.187">  1  5  2 -1</clus>
<clus scale="   39.761">  1  5  2 -1</clus>
</clustering>
</event>
<event>
 9    1  0.7719620E-005  0.1098154E+03  0.7546771E-02  0.1262570E+00
          1   -1    0    0  502    0 -0.00000000000E+00  0.00000000000E+00  0.22635034444E+03  0.22635034444E+03  0.00000000000E+00 0. -1.
         21   -1    0    0  501  502  0.00000000000E+00 -0.00000000000E+00 -0.14026416400E+03  0.14026416400E+03  0.00000000000E+00 0.  1.
         23    2    1    2    0    0 -0.48491468996E+01 -0.60253144894E+02  0.15710148694E+03  0.19341795423E+03  0.95266322095E+02 0.  0.
        -24    2    1    2    0    0 -0.44381713775E+01  0.20211941545E+02 -0.88291515807E+02  0.12860934018E+03  0.91196220709E+02 0.  0.
         13    1    4    4    0    0 -0.21248664251E+01 -0.27584070512E+02  0.58228790797E+00  0.27671918302E+02  0.00000000000E+00 0. -1.
        -14    1    4    4    0    0 -0.23133049524E+01  0.47796012057E+02 -0.88873803715E+02  0.10093742188E+03  0.00000000000E+00 0.  1.
        -13    1    3    3    0    0 -0.25357553567E+02 -0.71543763865E+02  0.15134020056E+03  0.16930851124E+03  0.00000000000E+00 0. -1.
         13    1    3    3    0    0  0.20508406668E+02  0.11290618970E+02  0.57612863749E+01  0.24109442994E+02  0.00000000000E+00 0.  1.
          2    1    1    2  501    0  0.92873182771E+01  0.40041203349E+02  0.17276209306E+02  0.44587214024E+02  0.00000000000E+00 0. -1.
<scales pt_clust_5="13000.00000" pt_clust_6="13000.00000" pt_clust_7="13000.00000" pt_clust_8="13000.00000" pt_clust_9="41.10418"></scales>
<clustering>
<clus scale="   41.104">  2  9  1 -1</clus>
<clus scale="   91.196">  5  6 -1 -1</clus>
<clus scale="   95.266">  7  8 -1 -1</clus>
<clus scale="  106.304">  2  5  1 -1</clus>
<clus scale="   41.104">  2  5  1 -1</clus>
</clustering>
</event>
<event>
 9    1  0.7719620E-005  0.2573154E+03  0.7546771E-02  0.1149967E+00
          1   -1    0    0  502    0 -0.00000000000E+00  0.00000000000E+00  0.51739520566E+03  0.51739520566E+03  0.00000000000E+00 0. -1.
         21   -1    0    0  501  502  0.00000000000E+00 -0.00000000000E+00 -0.21318478064E+03  0.21318478064E+03  0.00000000000E+00 0. -1.
         23    2    1    2    0    0  0.16419156213E+01 -0.55634748841E+01  0.68380857666E+02  0.11576214105E+03  0.93227053298E+02 0.  0.
        -24    2    1    2    0    0  0.13921781783E+03 -0.19537224614E+03  0.26620293909E+03  0.36755448323E+03  0.81733579371E+02 0.  0.
         11    1    4    4    0    0  0.51382359992E+02 -0.14116092691E+03  0.15720295183E+03  0.21743808836E+03  0.00000000000E+00 0. -1.
        -12    1    4    4    0    0  0.87835457834E+02 -0.54211319232E+02  0.10899998726E+03  0.15011639487E+03  0.00000000000E+00 0.  1.
        -13    1    3    3    0    0 -0.40007444165E+02  0.18481213141E+02  0.23325044653E+02  0.49861894627E+02  0.00000000000E+00 0.  1.
         13    1    3    3    0    0  0.41649359786E+02 -0.24044688025E+02  0.45055813013E+02  0.65900246427E+02  0.00000000000E+00 0. -1.
          2    1    1    2  501    0 -0.14085973345E+03  0.20093572103E+03 -0.30373371735E+02  0.24726336203E+03  0.00000000000E+00 0. -1.
<scales pt_clust_5="13000.00000" pt_clust_6="13000.00000" pt_clust_7="13000.00000" pt_clust_8="13000.00000" pt_clust_9="243.98937"></scales>
<clustering>
<clus scale="   81.734">  5  6 -1 -1</clus>
<clus scale="   93.227">  7  8 -1 -1</clus>
<clus scale="   93.407">  1  7  2 -1</clus>
<clus scale="  243.989">  2  9  1 -1</clus>
<clus scale="  243.989">  2  5  1 -1</clus>
</clustering>
</event>
<event>
 9    1  0.7719620E-005  0.9694833E+02  0.7546771E-02  0.1291664E+00
         21   -1    0    0  501  502  0.00000000000E+00  0.00000000000E+00  0.19582508562E+03  0.19582508562E+03  0.00000000000E+00 0.  1.
          1   -1    0    0  502    0 -0.00000000000E+00 -0.00000000000E+00 -0.55416371122E+03  0.55416371122E+03  0.00000000000E+00 0. -1.
         23    2    1    2    0    0 -0.33442350164E+01 -0.31424299383E+02 -0.52241648525E+03  0.53131845701E+03  0.91551341879E+02 0.  0.
        -24    2    1    2    0    0 -0.23782196280E+02  0.39910421103E+02  0.63369415760E+02  0.11402786181E+03  0.82633140095E+02 0.  0.
         11    1    4    4    0    0  0.22061158584E+02  0.15091083946E+02 -0.58619510622E+01  0.27364173713E+02  0.00000000000E+00 0. -1.
        -12    1    4    4    0    0 -0.45843354863E+02  0.24819337157E+02  0.69231366822E+02  0.86663688094E+02  0.00000000000E+00 0.  1.
        -13    1    3    3    0    0  0.43946563674E+02 -0.10861994657E+02 -0.23950684987E+03  0.24374744003E+03  0.00000000000E+00 0.  1.
         13    1    3    3    0    0 -0.47290798690E+02 -0.20562304726E+02 -0.28290963538E+03  0.28757101698E+03  0.00000000000E+00 0. -1.
          2    1    1    2  501    0  0.27126431296E+02 -0.84861217197E+01  0.10070844389E+03  0.10464247803E+03  0.00000000000E+00 0. -1.
<scales pt_clust_5="13000.00000" pt_clust_6="13000.00000" pt_clust_7="13000.00000" pt_clust_8="13000.00000" pt_clust_9="28.42283"></scales>
<clustering>
<clus scale="   28.423">  1  9  2 -1</clus>
<clus scale="   82.633">  5  6 -1 -1</clus>
<clus scale="   88.575">  1  5  2 -1</clus>
<clus scale="   91.551">  7  8 -1 -1</clus>
<clus scale="   28.423">  1  5  2 -1</clus>
</clustering>
</event>
<event>
 9    1  0.7719620E-005  0.1337619E+03  0.7546771E-02  0.1225006E+00
          1   -1    0    0  502    0 -0.00000000000E+00  0.00000000000E+00  0.59976865550E+03  0.59976865550E+03  0.00000000000E+00 0. -1.
         21   -1    0    0  501  502  0.00000000000E+00 -0.00000000000E+00 -0.52384816804E+02  0.52384816804E+02  0.00000000000E+00 0. -1.
         23    2    1    2    0    0 -0.13825605290E+02  0.93381307329E+02  0.36623093546E+03  0.38910420588E+03  0.91464577992E+02 0.  0.
        -24    2    1    2    0    0 -0.63342809142E+01 -0.11015402909E+03  0.77801882864E+02  0.15642291593E+03  0.78999762099E+02 0.  0.
         13    1    4    4    0    0  0.13769699179E+02 -0.91909033807E+02  0.87450566459E+02  0.12761064487E+03  0.00000000000E+00 0. -1.
        -14    1    4    4    0    0 -0.20103980093E+02 -0.18244995284E+02 -0.96486835947E+01  0.28812271059E+02  0.00000000000E+00 0.  1.
        -13    1    3    3    0    0  0.34894008582E+02  0.51885153141E+02  0.12842681731E+03  0.14283944958E+03  0.00000000000E+00 0. -1.
         13    1    3    3    0    0 -0.48719613872E+02  0.41496154187E+02  0.23780411815E+03  0.24626475631E+03  0.00000000000E+00 0.  1.
          2    1    1    2  501    0  0.20159886204E+02  0.16772721762E+02  0.10335102037E+03  0.10662635049E+03  0.00000000000E+00 0. -1.
<scales pt_clust_5="13000.00000" pt_clust_6="13000.00000" pt_clust_7="13000.00000" pt_clust_8="13000.00000" pt_clust_9="26.22491"></scales>
<clustering>
<clus scale="   26.225">  2  9  1 -1</clus>
<clus scale="   79.000">  5  6 -1 -1</clus>
<clus scale="   91.465">  7  8 -1 -1</clus>
<clus scale="  125.568">  2  5  1 -1</clus>
<clus scale="   26.225">  2  5  1 -1</clus>
</clustering>
</event>
<event>
 9    1  0.7719620E-005  0.1738823E+03  0.7546771E-02  0.1198115E+00
         21   -1    0    0  501  502  0.00000000000E+00  0.00000000000E+00  0.40512119871E+02  0.40512119871E+02  0.00000000000E+00 0. -1.
          3   -1    0    0  502    0 -0.00000000000E+00 -0.00000000000E+00 -0.13182271774E+04  0.13182271774E+04  0.00000000000E+00 0. -1.
        -24    2    1    2    0    0 -0.54915552942E+02 -0.32498704713E+02 -0.17210338804E+03  0.19973359746E+03  0.78753095295E+02 0.  0.
         23    2    1    2    0    0 -0.56064524446E+02  0.13661788739E+03 -0.78699949208E+03  0.80591774849E+03  0.91255349060E+02 0.  0.
         13    1    3    3    0    0 -0.71726686019E+00 -0.41407947920E+02 -0.44385205756E+02  0.60705676116E+02  0.00000000000E+00 0. -1.
        -14    1    3    3    0    0 -0.54198286082E+02  0.89092432068E+01 -0.12771818228E+03  0.13902792135E+03  0.00000000000E+00 0.  1.
        -11    1    4    4    0    0 -0.19758780471E+02  0.95438182173E+01 -0.28385139219E+02  0.35877708962E+02  0.00000000000E+00 0.  1.
         11    1    4    4    0    0 -0.36305743975E+02  0.12707406917E+03 -0.75861435286E+03  0.77004003952E+03  0.00000000000E+00 0. -1.
          4    1    1    2  501    0  0.11098007739E+03 -0.10411918267E+03 -0.31861217745E+03  0.35308795136E+03  0.00000000000E+00 0. -1.
<scales pt_clust_5="13000.00000" pt_clust_6="13000.00000" pt_clust_7="13000.00000" pt_clust_8="13000.00000" pt_clust_9="148.01192"></scales>
<clustering>
<clus scale="   78.753">  5  6 -1 -1</clus>
<clus scale="   91.255">  7  8 -1 -1</clus>
<clus scale="  101.360">  2  5  1 -1</clus>
<clus scale="  148.012">  1  9  2 -1</clus>
<clus scale="  148.012">  1  5  2 -1</clus>
</clustering>
</event>
<event>
 9    1  0.7719620E-005  0.3790476E+03  0.7546771E-02  0.1051676E+00
          1   -1    0    0  502    0 -0.00000000000E+00  0.00000000000E+00  0.64596211862E+03  0.64596211862E+03  0.00000000000E+00 0. -1.
         21   -1    0    0  501  502  0.00000000000E+00 -0.00000000000E+00 -0.28464404587E+03  0.28464404587E+03  0.00000000000E+00 0. -1.
         23    2    1    2    0    0  0.19574943492E+03 -0.29026407559E+03  0.26141999440E+03  0.44628162378E+03  0.90861429660E+02 0.  0.
        -24    2    1    2    0    0 -0.18749466527E+03  0.35538095859E+03  0.81682208285E+02  0.41620576507E+03  0.71451945297E+02 0.  0.
         13    1    4    4    0    0 -0.18983702481E+03  0.34802629609E+03  0.88171804809E+02  0.40612149158E+03  0.00000000000E+00 0. -1.
        -14    1    4    4    0    0  0.23423595342E+01  0.73546624997E+01 -0.64895965240E+01  0.10084273485E+02  0.00000000000E+00 0.  1.
        -11    1    3    3    0    0  0.21338677608E+02 -0.86941802731E+01  0.45221626446E+02  0.50753555846E+02  0.00000000000E+00 0.  1.
         11    1    3    3    0    0  0.17441075731E+03 -0.28156989532E+03  0.21619836795E+03  0.39552806793E+03  0.00000000000E+00 0. -1.
          2    1    1    2  501    0 -0.82547696453E+01 -0.65116883000E+02  0.18215870065E+02  0.68118775648E+02  0.00000000000E+00 0. -1.
<scales pt_clust_5="13000.00000" pt_clust_6="13000.00000" pt_clust_7="13000.00000" pt_clust_8="13000.00000" pt_clust_9="65.63802"></scales>
<clustering>
<clus scale="   65.638">  2  9  1 -1</clus>
<clus scale="   71.452">  5  6 -1 -1</clus>
<clus scale="   90.861">  7  8 -1 -1</clus>
<clus scale="  374.869">  2  5  1 -1</clus>
<clus scale="   65.638">  2  5  1 -1</clus>
</clustering>
</event>
<event>
 9    1  0.7719620E-005  0.2280858E+03  0.7546771E-02  0.1165200E+00
          1   -1    0    0  502    0 -0.00000000000E+00  0.00000000000E+00  0.51245380205E+03  0.51245380205E+03  0.00000000000E+00 0. -1.
         21   -1    0    0  501  502  0.00000000000E+00 -0.00000000000E+00 -0.30098836982E+03  0.30098836982E+03  0.00000000000E+00 0. -1.
         23    2    1    2    0    0  0.18194267947E+02  0.11523095792E+02  0.19856131613E+03  0.21965869700E+03  0.91430486068E+02 0.  0.
        -24    2    1    2    0    0  0.10201295021E+03  0.17001009293E+03  0.21082921369E+03  0.29954136679E+03  0.77239881956E+02 0.  0.
         11    1    4    4    0    0  0.11239386789E+03  0.13871113182E+03  0.16514753815E+03  0.24320129314E+03  0.00000000000E+00 0. -1.
        -12    1    4    4    0    0 -0.10380917676E+02  0.31298961107E+02  0.45681675541E+02  0.56340073646E+02  0.00000000000E+00 0.  1.
        -11    1    3    3    0    0 -0.20372487601E+02 -0.30397685818E+02  0.68243325347E+02  0.77435192313E+02  0.00000000000E+00 0.  1.
         11    1    3    3    0    0  0.38566755548E+02  0.41920781610E+02  0.13031799078E+03  0.14222350469E+03  0.00000000000E+00 0. -1.
          2    1    1    2  501    0 -0.12020721816E+03 -0.18153318872E+03 -0.19792509760E+03  0.29424210807E+03  0.00000000000E+00 0. -1.
<scales pt_clust_5="13000.00000" pt_clust_6="13000.00000" pt_clust_7="13000.00000" pt_clust_8="13000.00000" pt_clust_9="214.60926"></scales>
<clustering>
<clus scale="   77.240">  5  6 -1 -1</clus>
<clus scale="   91.430">  7  8 -1 -1</clus>
<clus scale="   93.933">  1  7  2 -1</clus>
<clus scale="  214.609">  2  9  1 -1</clus>
<clus scale="  214.609">  2  5  1 -1</clus>
</clustering>
</event>
<event>
 9    1  0.7719620E-005  0.1144595E+03  0.7546771E-02  0.1256760E+00
         -2   -1    0    0    0  501 -0.00000000000E+00  0.00000000000E+00  0.47206452113E+02  0.47206452113E+02  0.00000000000E+00 0.  1.
         21   -1    0    0  501  502  0.00000000000E+00 -0.00000000000E+00 -0.45449241495E+03  0.45449241495E+03  0.00000000000E+00 0. -1.
         23    2    1    2    0    0  0.69158464363E+02 -0.38476827121E+02 -0.92551744936E+02  0.15272550007E+03  0.92173171064E+02 0.  0.
        -24    2    1    2    0    0 -0.20262148873E+02  0.50026721118E+02 -0.24106837661E+03  0.25980551464E+03  0.80446974656E+02 0.  0.
         13    1    4    4    0    0 -0.10773084348E+02  0.70769369791E+02 -0.20490495774E+03  0.21704931411E+03  0.00000000000E+00 0. -1.
        -14    1    4    4    0    0 -0.94890645245E+01 -0.20742648673E+02 -0.36163418867E+02  0.42756200529E+02  0.00000000000E+00 0.  1.
        -13    1    3    3    0    0  0.63624417906E+02  0.16853877037E+02 -0.47731917170E+02  0.81304708608E+02  0.00000000000E+00 0. -1.
         13    1    3    3    0    0  0.55340464575E+01 -0.55330704158E+02 -0.44819827766E+02  0.71420791467E+02  0.00000000000E+00 0.  1.
         -1    1    1    2    0  502 -0.48896315490E+02 -0.11549893997E+02 -0.73665841285E+02  0.89167852347E+02  0.00000000000E+00 0.  1.
<scales pt_clust_5="13000.00000" pt_clust_6="13000.00000" pt_clust_7="13000.00000" pt_clust_8="13000.00000" pt_clust_9="50.24191"></scales>
<clustering>
<clus scale="   50.242">  2  9  1 -1</clus>
<clus scale="   80.447">  5  6 -1 -1</clus>
<clus scale="   92.173">  7  8 -1 -1</clus>
<clus scale="  105.246">  2  5  1 -1</clus>
<clus scale="   50.242">  2  5  1 -1</clus>
</clustering>
</event>
<event>
 9    1  0.7719620E-005  0.1024186E+03  0.7546771E-02  0.1281862E+00
          1   -1    0    0  502    0 -0.00000000000E+00  0.00000000000E+00  0.45662275710E+03  0.45662275710E+03  0.00000000000E+00 0. -1.
         21   -1    0    0  501  502  0.00000000000E+00 -0.00000000000E+00 -0.39430732560E+02  0.39430732560E+02  0.00000000000E+00 0.  1.
         23    2    1    2    0    0 -0.50720885881E+02 -0.44772207715E+02  0.29173337390E+03  0.31246584131E+03  0.89159305136E+02 0.  0.
        -24    2    1    2    0    0  0.26221600013E+02  0.15151399822E+02  0.12007826449E+03  0.14477327184E+03  0.74989155306E+02 0.  0.
         13    1    4    4    0    0 -0.21669966603E+02 -0.68385071585E+01  0.63551177171E+02  0.67491516152E+02  0.00000000000E+00 0. -1.
        -14    1    4    4    0    0  0.47891566616E+02  0.21989906981E+02  0.56527087315E+02  0.77281755688E+02  0.00000000000E+00 0.  1.
        -13    1    3    3    0    0 -0.37507496269E+02 -0.72086468912E+02  0.20154006842E+03  0.21730547728E+03  0.00000000000E+00 0. -1.
         13    1    3    3    0    0 -0.13213389612E+02  0.27314261197E+02  0.90193305480E+02  0.95160364035E+02  0.00000000000E+00 0.  1.
          2    1    1    2  501    0  0.24499285868E+02  0.29620807892E+02  0.53803861523E+01  0.38814376504E+02  0.00000000000E+00 0. -1.
<scales pt_clust_5="13000.00000" pt_clust_6="13000.00000" pt_clust_7="13000.00000" pt_clust_8="13000.00000" pt_clust_9="38.43966"></scales>
<clustering>
<clus scale="   38.440">  2  9  1 -1</clus>
<clus scale="   74.989">  5  6 -1 -1</clus>
<clus scale="   89.159">  7  8 -1 -1</clus>
<clus scale="   90.352">  2  5  1 -1</clus>
<clus scale="   38.440">  2  5  1 -1</clus>
</clustering>
</event>
<event>
 9    1  0.1010861E-004  0.9828311E+02  0.7546771E-02  0.1297640E+00
         21   -1    0    0  501  502  0.00000000000E+00  0.00000000000E+00  0.21205687383E+03  0.21205687383E+03  0.00000000000E+00 0.  1.
         -2   -1    0    0    0  501 -0.00000000000E+00 -0.00000000000E+00 -0.42826605952E+03  0.42826605952E+03  0.00000000000E+00 0.  1.
        -24    2    1    2    0    0 -0.11871326931E+02 -0.99566100329E+01 -0.26128952253E+03  0.27241123097E+03  0.75469210199E+02 0.  0.
         23    2    1    2    0    0 -0.56428102483E+02  0.64919388455E+01 -0.13450690726E+03  0.17574408220E+03  0.97814100754E+02 0.  0.
         11    1    3    3    0    0  0.19952717089E+02 -0.28156808193E+02 -0.75136751750E+02  0.82682817020E+02  0.00000000000E+00 0. -1.
        -12    1    3    3    0    0 -0.31824044019E+02  0.18200198160E+02 -0.18615277078E+03  0.18972841395E+03  0.00000000000E+00 0.  1.
        -11    1    4    4    0    0  0.91752515916E+01  0.21520069975E+02  0.20689440662E+01  0.23485722962E+02  0.00000000000E+00 0. -1.
         11    1    4    4    0    0 -0.65603354075E+02 -0.15028131129E+02 -0.13657585133E+03  0.15225835923E+03  0.00000000000E+00 0.  1.
         -1    1    1    2    0  502  0.68299429414E+02  0.34646711874E+01  0.17958724410E+03  0.19216762019E+03  0.00000000000E+00 0.  1.
<scales pt_clust_5="13000.00000" pt_clust_6="13000.00000" pt_clust_7="13000.00000" pt_clust_8="13000.00000" pt_clust_9="68.38725"></scales>
<clustering>
<clus scale="   68.387">  1  9  2 -1</clus>
<clus scale="   75.469">  5  6 -1 -1</clus>
<clus scale="   76.076">  2  5  1 -1</clus>
<clus scale="   97.814">  7  8 -1 -1</clus>
<clus scale="   68.387">  1  5  2 -1</clus>
</clustering>
</event>
<event>
 9    1  0.7719620E-005  0.1635740E+03  0.7546771E-02  0.1187109E+00
          1   -1    0    0  502    0 -0.00000000000E+00  0.00000000000E+00  0.40696161979E+03  0.40696161979E+03  0.00000000000E+00 0. -1.
         21   -1    0    0  501  502  0.00000000000E+00 -0.00000000000E+00 -0.11911801939E+03  0.11911801939E+03  0.00000000000E+00 0.  1.
         23    2    1    2    0    0 -0.42257673027E+02  0.10007206575E+03  0.77964973853E+02  0.16290212446E+03  0.93050715907E+02 0.  0.
        -24    2    1    2    0    0  0.42636099592E+02 -0.14533350434E+03  0.42798457014E+02  0.19007487441E+03  0.10656962742E+03 0.  0.
         11    1    4    4    0    0 -0.20559463337E+02  0.52846663379E+01  0.10045711921E+02  0.23484794209E+02  0.00000000000E+00 0. -1.
        -12    1    4    4    0    0  0.63195562929E+02 -0.15061817067E+03  0.32752745092E+02  0.16659008020E+03  0.00000000000E+00 0.  1.
        -11    1    3    3    0    0 -0.48947613765E+02  0.15771318093E+02  0.54950451868E+02  0.75260584161E+02  0.00000000000E+00 0. -1.
         11    1    3    3    0    0  0.66899407382E+01  0.84300747661E+02  0.23014521985E+02  0.87641540296E+02  0.00000000000E+00 0.  1.
          2    1    1    2  501    0 -0.37842656445E+00  0.45261438582E+02  0.16708016954E+03  0.17310264031E+03  0.00000000000E+00 0. -1.
<scales pt_clust_5="13000.00000" pt_clust_6="13000.00000" pt_clust_7="13000.00000" pt_clust_8="13000.00000" pt_clust_9="45.26304"></scales>
<clustering>
<clus scale="   45.263">  2  9  1 -1</clus>
<clus scale="   93.051">  7  8 -1 -1</clus>
<clus scale="  106.570">  5  6 -1 -1</clus>
<clus scale="  155.106">  1  7  2 -1</clus>
<clus scale="   45.263">  2  5  1 -1</clus>
</clustering>
</event>
<event>
 9    1  0.7719620E-005  0.8840150E+02  0.7546771E-02  0.1310992E+00
         -2   -1    0    0    0  501 -0.00000000000E+00  0.00000000000E+00  0.16616972898E+03  0.16616972898E+03  0.00000000000E+00 0.  1.
         21   -1    0    0  501  502  0.00000000000E+00 -0.00000000000E+00 -0.20389378512E+03  0.20389378512E+03  0.00000000000E+00 0.  1.
         23    2    1    2    0    0  0.10805433958E+02  0.18081672335E+02  0.62700311472E+02  0.10905453177E+03  0.86705579771E+02 0.  0.
        -24    2    1    2    0    0 -0.19724983183E+02  0.42799216783E+02  0.44924459670E+02  0.10317260309E+03  0.80034561493E+02 0.  0.
         13    1    4    4    0    0 -0.19292839884E+02 -0.52937078611E+01  0.50916579754E+02  0.54705896461E+02  0.00000000000E+00 0. -1.
        -14    1    4    4    0    0 -0.43214329891E+00  0.48092924644E+02 -0.59921200838E+01  0.48466706632E+02  0.00000000000E+00 0.  1.
        -13    1    3    3    0    0  0.35535590521E+02  0.13808418572E+02  0.72659554647E+02  0.82054015738E+02  0.00000000000E+00 0.  1.
         13    1    3    3    0    0 -0.24730156563E+02  0.42732537634E+01 -0.99592431757E+01  0.27000516032E+02  0.00000000000E+00 0. -1.
         -1    1    1    2    0  502  0.89195492242E+01 -0.60880889118E+02 -0.14534882728E+03  0.15783637924E+03  0.00000000000E+00 0.  1.
<scales pt_clust_5="13000.00000" pt_clust_6="13000.00000" pt_clust_7="13000.00000" pt_clust_8="13000.00000" pt_clust_9="61.53081"></scales>
<clustering>
<clus scale="   61.531">  2  9  1 -1</clus>
<clus scale="   80.035">  5  6 -1 -1</clus>
<clus scale="   81.869">  2  5  1 -1</clus>
<clus scale="   86.706">  7  8 -1 -1</clus>
<clus scale="   61.531">  2  5  1 -1</clus>
</clustering>
</event>
<event>
 9    1  0.7719620E-005  0.9856091E+02  0.7546771E-02  0.1289546E+00
         21   -1    0    0  501  502  0.00000000000E+00  0.00000000000E+00  0.12886426285E+03  0.12886426285E+03  0.00000000000E+00 0.  1.
          1   -1    0    0  502    0 -0.00000000000E+00 -0.00000000000E+00 -0.29657396123E+03  0.29657396123E+03  0.00000000000E+00 0. -1.
         23    2    1    2    0    0  0.30255936792E+02 -0.95603844156E+01 -0.25394771999E+03  0.27259677929E+03  0.93876178727E+02 0.  0.
        -24    2    1    2    0    0 -0.14447103919E+02 -0.12980899359E+02  0.91661754013E+02  0.12477998467E+03  0.82407189402E+02 0.  0.
         11    1    4    4    0    0 -0.28192988757E+01  0.20389081030E+02 -0.55719581629E+01  0.21323925276E+02  0.00000000000E+00 0. -1.
        -12    1    4    4    0    0 -0.11627805044E+02 -0.33369980390E+02  0.97233712176E+02  0.10345605939E+03  0.00000000000E+00 0.  1.
        -13    1    3    3    0    0 -0.32977775672E+02  0.53405545272E+01 -0.71277662237E+02  0.78718233879E+02  0.00000000000E+00 0.  1.
         13    1    3    3    0    0  0.63233712464E+02 -0.14900938943E+02 -0.18267005775E+03  0.19387854541E+03  0.00000000000E+00 0. -1.
          2    1    1    2  501    0 -0.15808832873E+02  0.22541283775E+02 -0.54237324007E+01  0.28061460122E+02  0.00000000000E+00 0. -1.
<scales pt_clust_5="13000.00000" pt_clust_6="13000.00000" pt_clust_7="13000.00000" pt_clust_8="13000.00000" pt_clust_9="27.53232"></scales>
<clustering>
<clus scale="   27.532">  1  9  2 -1</clus>
<clus scale="   82.407">  5  6 -1 -1</clus>
<clus scale="   87.707">  1  5  2 -1</clus>
<clus scale="   93.876">  7  8 -1 -1</clus>
<clus scale="   27.532">  1  5  2 -1</clus>
</clustering>
</event>
<event>
 9    1  0.7719620E-005  0.1085568E+03  0.7546771E-02  0.1268431E+00
         21   -1    0    0  501  502  0.00000000000E+00  0.00000000000E+00  0.38513391787E+02  0.38513391787E+02  0.00000000000E+00 0.  1.
          1   -1    0    0  502    0 -0.00000000000E+00 -0.00000000000E+00 -0.68323876469E+03  0.68323876469E+03  0.00000000000E+00 0. -1.
         23    2    1    2    0    0 -0.67126868441E+02  0.13961478577E+02 -0.55054468402E+03  0.56207676722E+03  0.90165979171E+02 0.  0.
        -24    2    1    2    0    0  0.24670011919E+02 -0.53687212966E+01 -0.41083756746E+02  0.91150179689E+02  0.77350161813E+02 0.  0.
         13    1    4    4    0    0  0.20277616380E+02  0.14982719551E+01 -0.63828483802E+02  0.66988819137E+02  0.00000000000E+00 0. -1.
        -14    1    4    4    0    0  0.43923955388E+01 -0.68669932518E+01  0.22744727056E+02  0.24161360552E+02  0.00000000000E+00 0.  1.
        -13    1    3    3    0    0 -0.37454431533E+02  0.50523887859E+02 -0.37917550850E+03  0.38435603798E+03  0.00000000000E+00 0.  1.
         13    1    3    3    0    0 -0.29672436908E+02 -0.36562409282E+02 -0.17136917552E+03  0.17772072924E+03  0.00000000000E+00 0. -1.
          2    1    1    2  501    0  0.42456856522E+02 -0.85927572806E+01 -0.53096932136E+02  0.68525209563E+02  0.00000000000E+00 0. -1.
<scales pt_clust_5="13000.00000" pt_clust_6="13000.00000" pt_clust_7="13000.00000" pt_clust_8="13000.00000" pt_clust_9="43.31767"></scales>
<clustering>
<clus scale="   43.318">  1  9  2 -1</clus>
<clus scale="   77.350">  5  6 -1 -1</clus>
<clus scale="   90.166">  7  8 -1 -1</clus>
<clus scale="   98.172">  1  5  2 -1</clus>
<clus scale="   43.318">  1  5  2 -1</clus>
</clustering>
</event>
<event>
 9    1  0.7719620E-005  0.1082052E+03  0.7546771E-02  0.1270645E+00
          1   -1    0    0  502    0 -0.00000000000E+00  0.00000000000E+00  0.96174262843E+03  0.96174262843E+03  0.00000000000E+00 0. -1.
         21   -1    0    0  501  502  0.00000000000E+00 -0.00000000000E+00 -0.19753391214E+02  0.19753391214E+02  0.00000000000E+00 0. -1.
         23    2    1    2    0    0  0.33714572471E+02  0.18202235643E+02  0.28552833861E+03  0.30193635472E+03  0.90394338147E+02 0.  0.
        -24    2    1    2    0    0 -0.69352349336E+02 -0.49657828202E+02  0.31165307416E+03  0.33149079065E+03  0.74046319239E+02 0.  0.
         11    1    4    4    0    0 -0.35956446258E+02  0.71631430408E+01  0.18623432011E+03  0.18980884761E+03  0.00000000000E+00 0. -1.
        -12    1    4    4    0    0 -0.33395903078E+02 -0.56820971243E+02  0.12541875405E+03  0.14168194304E+03  0.00000000000E+00 0.  1.
        -13    1    3    3    0    0 -0.30210761257E+02  0.16067266968E+02  0.99077257877E+02  0.10481960786E+03  0.00000000000E+00 0.  1.
         13    1    3    3    0    0  0.63925333728E+02  0.21349686748E+01  0.18645108074E+03  0.19711674686E+03  0.00000000000E+00 0. -1.
          2    1    1    2  501    0  0.35637776865E+02  0.31455592559E+02  0.34480782445E+03  0.34806887428E+03  0.00000000000E+00 0. -1.
<scales pt_clust_5="13000.00000" pt_clust_6="13000.00000" pt_clust_7="13000.00000" pt_clust_8="13000.00000" pt_clust_9="47.53428"></scales>
<clustering>
<clus scale="   47.534">  2  9  1 -1</clus>
<clus scale="   74.046">  5  6 -1 -1</clus>
<clus scale="   90.394">  7  8 -1 -1</clus>
<clus scale="   94.974">  2  5  1 -1</clus>
<clus scale="   47.534">  2  5  1 -1</clus>
</clustering>
</event>
<event>
 9    1  0.7719620E-005  0.1249513E+03  0.7546771E-02  0.1239227E+00
          1   -1    0    0  502    0 -0.00000000000E+00  0.00000000000E+00  0.17700574060E+03  0.17700574060E+03  0.00000000000E+00 0. -1.
         21   -1    0    0  501  502  0.00000000000E+00 -0.00000000000E+00 -0.11510469912E+03  0.11510469912E+03  0.00000000000E+00 0.  1.
        -24    2    1    2    0    0 -0.14132604592E+02  0.84114049659E+02  0.55012844992E+02  0.12999192819E+03  0.81219359879E+02 0.  0.
         23    2    1    2    0    0  0.41013977881E+02 -0.66392421082E+02 -0.14204178355E+02  0.12362756940E+03  0.94825720529E+02 0.  0.
         11    1    3    3    0    0  0.59160588251E+01  0.90072446328E+02  0.60129098931E+02  0.10845991830E+03  0.00000000000E+00 0. -1.
        -12    1    3    3    0    0 -0.20048663417E+02 -0.59583966692E+01 -0.51162539394E+01  0.21532009894E+02  0.00000000000E+00 0.  1.
        -11    1    4    4    0    0  0.55476217830E+02 -0.34870758478E+02  0.26032558323E+02  0.70507266536E+02  0.00000000000E+00 0. -1.
         11    1    4    4    0    0 -0.14462239949E+02 -0.31521662604E+02 -0.40236736678E+02  0.53120302862E+02  0.00000000000E+00 0.  1.
          2    1    1    2  501    0 -0.26881373289E+02 -0.17721628577E+02  0.21092374844E+02  0.38490942128E+02  0.00000000000E+00 0. -1.
<scales pt_clust_5="13000.00000" pt_clust_6="13000.00000" pt_clust_7="13000.00000" pt_clust_8="13000.00000" pt_clust_9="32.19729"></scales>
<clustering>
<clus scale="   32.197">  2  9  1 -1</clus>
<clus scale="   81.219">  5  6 -1 -1</clus>
<clus scale="   94.826">  7  8 -1 -1</clus>
<clus scale="  114.967">  1  5  2 -1</clus>
<clus scale="   32.197">  2  5  1 -1</clus>
</clustering>
</event>
<event>
 9    1  0.7719620E-005  0.1976215E+03  0.7546771E-02  0.1165713E+00
         21   -1    0    0  501  502  0.00000000000E+00  0.00000000000E+00  0.18768899723E+03  0.18768899723E+03  0.00000000000E+00 0. -1.
          1   -1    0    0  502    0 -0.00000000000E+00 -0.00000000000E+00 -0.49762201805E+03  0.49762201805E+03  0.00000000000E+00 0. -1.
         23    2    1    2    0    0 -0.61740700506E+02  0.94028996681E+02  0.20400860289E+02  0.14416531163E+03  0.87829810784E+02 0.  0.
        -24    2    1    2    0    0 -0.11527666191E+03 -0.15007276056E+03 -0.61590150773E+02  0.21449720347E+03  0.80032252136E+02 0.  0.
         13    1    4    4    0    0 -0.43601061338E+01 -0.61810584274E+02 -0.31817024555E+02  0.69655451368E+02  0.00000000000E+00 0. -1.
        -14    1    4    4    0    0 -0.11091655577E+03 -0.88262176289E+02 -0.29773126219E+02  0.14484175211E+03  0.00000000000E+00 0.  1.
        -11    1    3    3    0    0 -0.22269100924E+02  0.91730822490E+02 -0.91015142819E+01  0.94832980618E+02  0.00000000000E+00 0.  1.
         11    1    3    3    0    0 -0.39471599582E+02  0.22981741910E+01  0.29502374571E+02  0.49332331016E+02  0.00000000000E+00 0. -1.
          2    1    1    2  501    0  0.17701736241E+03  0.56043763881E+02 -0.26874373034E+03  0.32664850017E+03  0.00000000000E+00 0. -1.
<scales pt_clust_5="13000.00000" pt_clust_6="13000.00000" pt_clust_7="13000.00000" pt_clust_8="13000.00000" pt_clust_9="180.69068"></scales>
<clustering>
<clus scale="   80.032">  5  6 -1 -1</clus>
<clus scale="   87.830">  7  8 -1 -1</clus>
<clus scale="  142.715">  2  7  1 -1</clus>
<clus scale="  180.691">  1  9  2 -1</clus>
<clus scale="  180.691">  1  5  2 -1</clus>
</clustering>
</event>
<event>
 9    1  0.7719620E-005  0.9660424E+02  0.7546771E-02  0.1292700E+00
          1   -1    0    0  502    0 -0.00000000000E+00  0.00000000000E+00  0.43137198700E+03  0.43137198700E+03  0.00000000000E+00 0. -1.
         21   -1    0    0  501  502  0.00000000000E+00 -0.00000000000E+00 -0.51324771869E+02  0.51324771869E+02  0.00000000000E+00 0. -1.
        -24    2    1    2    0    0 -0.54575607721E+02 -0.36995377980E+01  0.20449440353E+03  0.22666903657E+03  0.81047563365E+02 0.  0.
         23    2    1    2    0    0 -0.22316058774E+02 -0.26695353195E+01  0.43069662983E+02  0.10271536749E+03  0.90500375419E+02 0.  0.
         11    1    3    3    0    0 -0.74285696736E+02 -0.61134886861E+01  0.18195533615E+03  0.19663032278E+03  0.00000000000E+00 0. -1.
        -12    1    3    3    0    0  0.19710089015E+02  0.24139508881E+01  0.22539067380E+02  0.30038713791E+02  0.00000000000E+00 0.  1.
        -13    1    4    4    0    0 -0.15176734237E+02  0.39092439391E+02 -0.50599688215E+00  0.41938146269E+02  0.00000000000E+00 0. -1.
         13    1    4    4    0    0 -0.71393245376E+01 -0.41761974710E+02  0.43575659865E+02  0.60777221220E+02  0.00000000000E+00 0.  1.
          2    1    1    2  501    0  0.76891666496E+02  0.63690731175E+01  0.13248314863E+03  0.15331235481E+03  0.00000000000E+00 0. -1.
<scales pt_clust_5="13000.00000" pt_clust_6="13000.00000" pt_clust_7="13000.00000" pt_clust_8="13000.00000" pt_clust_9="77.15503"></scales>
<clustering>
<clus scale="   77.155">  2  9  1 -1</clus>
<clus scale="   81.048">  5  6 -1 -1</clus>
<clus scale="   87.811">  1  5  2 -1</clus>
<clus scale="   90.500">  7  8 -1 -1</clus>
<clus scale="   77.155">  2  5  1 -1</clus>
</clustering>
</event>
<event>
 9    1  0.7719620E-005  0.2091353E+03  0.7546771E-02  0.1143166E+00
         21   -1    0    0  501  502  0.00000000000E+00  0.00000000000E+00  0.82458350603E+02  0.82458350603E+02  0.00000000000E+00 0. -1.
          1   -1    0    0  502    0 -0.00000000000E+00 -0.00000000000E+00 -0.83301820829E+03  0.83301820829E+03  0.00000000000E+00 0. -1.
         23    2    1    2    0    0  0.18055338332E+03  0.71412615874E+02 -0.54762924768E+03  0.58817538899E+03  0.91395893565E+02 0.  0.
        -24    2    1    2    0    0 -0.17438285586E+03 -0.21547459035E+02 -0.11189057799E+03  0.22331609066E+03  0.80479199156E+02 0.  0.
         13    1    4    4    0    0 -0.15214273403E+03  0.12395532069E+02 -0.90134709491E+02  0.17727190017E+03  0.00000000000E+00 0. -1.
        -14    1    4    4    0    0 -0.22240121824E+02 -0.33942991104E+02 -0.21755868496E+02  0.46044190489E+02  0.00000000000E+00 0.  1.
        -13    1    3    3    0    0  0.12798238043E+03  0.58246511031E+02 -0.48682133683E+03  0.50672197480E+03  0.00000000000E+00 0. -1.
         13    1    3    3    0    0  0.52571002887E+02  0.13166104843E+02 -0.60807910850E+02  0.81453414190E+02  0.00000000000E+00 0.  1.
          2    1    1    2  501    0 -0.61705274638E+01 -0.49865156839E+02 -0.91040032015E+02  0.10398507924E+03  0.00000000000E+00 0. -1.
<scales pt_clust_5="13000.00000" pt_clust_6="13000.00000" pt_clust_7="13000.00000" pt_clust_8="13000.00000" pt_clust_9="50.24552"></scales>
<clustering>
<clus scale="   50.246">  1  9  2 -1</clus>
<clus scale="   80.479">  5  6 -1 -1</clus>
<clus scale="   91.396">  7  8 -1 -1</clus>
<clus scale="  204.600">  1  5  2 -1</clus>
<clus scale="   50.246">  1  5  2 -1</clus>
</clustering>
</event>
<event>
 9    1  0.7719620E-005  0.9651288E+02  0.7546771E-02  0.1293229E+00
         -2   -1    0    0    0  501 -0.00000000000E+00  0.00000000000E+00  0.75141787339E+02  0.75141787339E+02  0.00000000000E+00 0.  1.
         21   -1    0    0  501  502  0.00000000000E+00 -0.00000000000E+00 -0.17057594496E+03  0.17057594496E+03  0.00000000000E+00 0. -1.
        -24    2    1    2    0    0 -0.35478381194E+02  0.16829883940E+02 -0.50933805222E+01  0.89817803393E+02  0.80618451708E+02 0.  0.
         23    2    1    2    0    0  0.20464572091E+02  0.25861582845E+00 -0.94790837889E+02  0.13272161298E+03  0.90613784880E+02 0.  0.
         11    1    3    3    0    0  0.16384068822E+02 -0.19691043508E+02 -0.62847571275E+01  0.26375615210E+02  0.00000000000E+00 0. -1.
        -12    1    3    3    0    0 -0.51862450015E+02  0.36520927448E+02  0.11913766053E+01  0.63442188183E+02  0.00000000000E+00 0.  1.
        -13    1    4    4    0    0 -0.36157413858E+02  0.22718117815E+01 -0.36032062607E+02  0.51096274242E+02  0.00000000000E+00 0.  1.
         13    1    4    4    0    0  0.56621985950E+02 -0.20131959531E+01 -0.58758775282E+02  0.81625338734E+02  0.00000000000E+00 0. -1.
         -1    1    1    2    0  502  0.15013809102E+02 -0.17088499769E+02  0.44500607927E+01  0.23178315926E+02  0.00000000000E+00 0.  1.
<scales pt_clust_5="13000.00000" pt_clust_6="13000.00000" pt_clust_7="13000.00000" pt_clust_8="13000.00000" pt_clust_9="22.74713"></scales>
<clustering>
<clus scale="   22.747">  2  9  1 -1</clus>
<clus scale="   80.618">  5  6 -1 -1</clus>
<clus scale="   87.196">  1  5  2 -1</clus>
<clus scale="   90.614">  7  8 -1 -1</clus>
<clus scale="   22.747">  2  5  1 -1</clus>
</clustering>
</event>
<event>
 9    1  0.7719620E-005  0.1137140E+03  0.7546771E-02  0.1259096E+00
         21   -1    0    0  501  502  0.00000000000E+00  0.00000000000E+00  0.10536594734E+03  0.10536594734E+03  0.00000000000E+00 0. -1.
          3   -1    0    0  502    0 -0.00000000000E+00 -0.00000000000E+00 -0.24065862999E+03  0.24065862999E+03  0.00000000000E+00 0. -1.
        -24    2    1    2    0    0 -0.52492156548E+02 -0.69543845496E+01 -0.33760152816E+02  0.10722445994E+03  0.86911143859E+02 0.  0.
         23    2    1    2    0    0  0.12279130504E+02  0.82767355483E+02 -0.62616353088E+02  0.14457080753E+03  0.99893435895E+02 0.  0.
         13    1    3    3    0    0 -0.32933573659E+02  0.19263598334E+02 -0.55933836492E+02  0.67707463100E+02  0.00000000000E+00 0. -1.
        -14    1    3    3    0    0 -0.19558582889E+02 -0.26217982884E+02  0.22173683676E+02  0.39516996836E+02  0.00000000000E+00 0.  1.
        -11    1    4    4    0    0  0.31480691723E+02  0.48900158137E+01  0.12933044806E+02  0.34383278697E+02  0.00000000000E+00 0.  1.
         11    1    4    4    0    0 -0.19201561218E+02  0.77877339669E+02 -0.75549397895E+02  0.11018752883E+03  0.00000000000E+00 0. -1.
          4    1    1    2  501    0  0.40213026044E+02 -0.75812970933E+02 -0.38916176754E+02  0.94229309869E+02  0.00000000000E+00 0. -1.
<scales pt_clust_5="13000.00000" pt_clust_6="13000.00000" pt_clust_7="13000.00000" pt_clust_8="13000.00000" pt_clust_9="85.81784"></scales>
<clustering>
<clus scale="   85.818">  1  9  2 -1</clus>
<clus scale="   86.911">  5  6 -1 -1</clus>
<clus scale="   99.893">  7  8 -1 -1</clus>
<clus scale="  102.497">  2  5  1 -1</clus>
<clus scale="   85.818">  1  5  2 -1</clus>
</clustering>
</event>
<event>
 9    1  0.7719620E-005  0.9329985E+02  0.7546771E-02  0.1300845E+00
         -4   -1    0    0    0  501 -0.00000000000E+00  0.00000000000E+00  0.16449811775E+03  0.16449811775E+03  0.00000000000E+00 0.  1.
         21   -1    0    0  501  502  0.00000000000E+00 -0.00000000000E+00 -0.90265183513E+02  0.90265183513E+02  0.00000000000E+00 0.  1.
        -24    2    1    2    0    0  0.36676743683E+02  0.58790315400E+01  0.50627891296E+02  0.10294689933E+03  0.81579005661E+02 0.  0.
         23    2    1    2    0    0  0.28349257809E+01  0.19005104409E+02  0.41109224700E+02  0.10194869069E+03  0.91292586671E+02 0.  0.
         13    1    3    3    0    0 -0.23732549761E+02  0.15414002246E+02  0.13007578586E+02  0.31145183962E+02  0.00000000000E+00 0. -1.
        -14    1    3    3    0    0  0.60409293444E+02 -0.95349707058E+01  0.37620312710E+02  0.71801715364E+02  0.00000000000E+00 0.  1.
        -13    1    4    4    0    0  0.61962657578E+01 -0.33312279990E+02 -0.21900035992E+01  0.33954349106E+02  0.00000000000E+00 0.  1.
         13    1    4    4    0    0 -0.33613399769E+01  0.52317384398E+02  0.43299228299E+02  0.67994341588E+02  0.00000000000E+00 0. -1.
         -3    1    1    2    0  502 -0.39511669464E+02 -0.24884135949E+02 -0.17504181758E+02  0.49867711245E+02  0.00000000000E+00 0.  1.
<scales pt_clust_5="13000.00000" pt_clust_6="13000.00000" pt_clust_7="13000.00000" pt_clust_8="13000.00000" pt_clust_9="46.69467"></scales>
<clustering>
<clus scale="   46.695">  2  9  1 -1</clus>
<clus scale="   81.579">  5  6 -1 -1</clus>
<clus scale="   83.819">  1  5  2 -1</clus>
<clus scale="   91.293">  7  8 -1 -1</clus>
<clus scale="   46.695">  2  5  1 -1</clus>
</clustering>
</event>
<event>
 9    1  0.7719620E-005  0.1197862E+03  0.7546771E-02  0.1248041E+00
         21   -1    0    0  501  502  0.00000000000E+00  0.00000000000E+00  0.15688143479E+03  0.15688143479E+03  0.00000000000E+00 0.  1.
          1   -1    0    0  502    0 -0.00000000000E+00 -0.00000000000E+00 -0.16880049038E+03  0.16880049038E+03  0.00000000000E+00 0. -1.
         23    2    1    2    0    0  0.78350627713E+02  0.15661030066E+02 -0.10896375893E+03  0.16475964512E+03  0.94279113141E+02 0.  0.
        -24    2    1    2    0    0 -0.47974886421E+02 -0.18761083109E+02  0.85782295997E+02  0.12837788257E+03  0.80428293908E+02 0.  0.
         13    1    4    4    0    0  0.15711096795E+02 -0.18518393504E+02  0.38242841636E+01  0.24584438367E+02  0.00000000000E+00 0. -1.
        -14    1    4    4    0    0 -0.63685983217E+02 -0.24268960491E+00  0.81958011834E+02  0.10379344421E+03  0.00000000000E+00 0.  1.
        -11    1    3    3    0    0 -0.18600763636E+02  0.14010421805E+02 -0.76254454851E+01  0.24503627197E+02  0.00000000000E+00 0.  1.
         11    1    3    3    0    0  0.96951391349E+02  0.16506082608E+01 -0.10133831345E+03  0.14025601793E+03  0.00000000000E+00 0. -1.
          2    1    1    2  501    0 -0.30375741292E+02  0.31000530428E+01  0.11262407343E+02  0.32544397476E+02  0.00000000000E+00 0. -1.
<scales pt_clust_5="13000.00000" pt_clust_6="13000.00000" pt_clust_7="13000.00000" pt_clust_8="13000.00000" pt_clust_9="30.53352"></scales>
<clustering>
<clus scale="   30.534">  1  9  2 -1</clus>
<clus scale="   80.428">  5  6 -1 -1</clus>
<clus scale="   94.279">  7  8 -1 -1</clus>
<clus scale="  109.219">  1  5  2 -1</clus>
<clus scale="   30.534">  1  5  2 -1</clus>
</clustering>
</event>
<event>
 9    1  0.7719620E-005  0.1355900E+03  0.7546771E-02  0.1230853E+00
          1   -1    0    0  502    0 -0.00000000000E+00  0.00000000000E+00  0.43954184260E+03  0.43954184260E+03  0.00000000000E+00 0. -1.
         21   -1    0    0  501  502  0.00000000000E+00 -0.00000000000E+00 -0.79646959866E+02  0.79646959866E+02  0.00000000000E+00 0. -1.
        -24    2    1    2    0    0  0.63060264892E+02  0.28926532486E+02  0.73379769080E+02  0.12958103649E+03  0.81199219312E+02 0.  0.
         23    2    1    2    0    0  0.36522955943E+02 -0.72874328157E+02  0.24244752743E+03  0.27217617410E+03  0.93029415631E+02 0.  0.
         11    1    3    3    0    0  0.31690290909E+02 -0.27680248760E+02  0.29642963790E+02  0.51470146800E+02  0.00000000000E+00 0. -1.
        -12    1    3    3    0    0  0.31369973982E+02  0.56606781246E+02  0.43736805289E+02  0.78110889687E+02  0.00000000000E+00 0.  1.
        -13    1    4    4    0    0 -0.43992718327E+01 -0.61736851174E+02  0.65093568253E+02  0.89821851537E+02  0.00000000000E+00 0.  1.
         13    1    4    4    0    0  0.40922227776E+02 -0.11137476983E+02  0.17735395918E+03  0.18235432256E+03  0.00000000000E+00 0. -1.
          2    1    1    2  501    0 -0.99583220835E+02  0.43947795671E+02  0.44067586218E+02  0.11743159188E+03  0.00000000000E+00 0. -1.
<scales pt_clust_5="13000.00000" pt_clust_6="13000.00000" pt_clust_7="13000.00000" pt_clust_8="13000.00000" pt_clust_9="98.64171"></scales>
<clustering>
<clus scale="   81.199">  5  6 -1 -1</clus>
<clus scale="   93.029">  7  8 -1 -1</clus>
<clus scale="  106.802">  1  5  2 -1</clus>
<clus scale="   98.642">  2  9  1 -1</clus>
<clus scale="   98.642">  2  5  1 -1</clus>
</clustering>
</event>
<event>
 9    1  0.7719620E-005  0.9742196E+02  0.7546771E-02  0.1291536E+00
         21   -1    0    0  501  502  0.00000000000E+00  0.00000000000E+00  0.31921510092E+03  0.31921510092E+03  0.00000000000E+00 0.  1.
          1   -1    0    0  502    0 -0.00000000000E+00 -0.00000000000E+00 -0.48246829477E+02  0.48246829477E+02  0.00000000000E+00 0. -1.
         23    2    1    2    0    0  0.11547980085E+02  0.37958865061E+02  0.28975579816E+02  0.10363734243E+03  0.91251757459E+02 0.  0.
        -24    2    1    2    0    0 -0.88726225451E+01 -0.16508391903E+02  0.17810043669E+03  0.19637460221E+03  0.80572752300E+02 0.  0.
         11    1    4    4    0    0  0.25718773450E+02 -0.10113131136E+02  0.19258764612E+02  0.33684280362E+02  0.00000000000E+00 0. -1.
        -12    1    4    4    0    0 -0.34591395995E+02 -0.63952607674E+01  0.15884167207E+03  0.16269032185E+03  0.00000000000E+00 0.  1.
        -11    1    3    3    0    0 -0.18649043867E+02 -0.19728225242E+02  0.27303986388E+02  0.38503212606E+02  0.00000000000E+00 0.  1.
         11    1    3    3    0    0  0.30197023952E+02  0.57687090303E+02  0.16715934284E+01  0.65134129822E+02  0.00000000000E+00 0. -1.
          2    1    1    2  501    0 -0.26753575399E+01 -0.21450473157E+02  0.63892254937E+02  0.67449985749E+02  0.00000000000E+00 0. -1.
<scales pt_clust_5="13000.00000" pt_clust_6="13000.00000" pt_clust_7="13000.00000" pt_clust_8="13000.00000" pt_clust_9="21.61667"></scales>
<clustering>
<clus scale="   21.617">  1  9  2 -1</clus>
<clus scale="   80.573">  5  6 -1 -1</clus>
<clus scale="   87.499">  1  5  2 -1</clus>
<clus scale="   91.252">  7  8 -1 -1</clus>
<clus scale="   21.617">  1  5  2 -1</clus>
</clustering>
</event>
<event>
 9    1  0.7719620E-005  0.1486842E+03  0.7546771E-02  0.1220114E+00
          1   -1    0    0  502    0 -0.00000000000E+00  0.00000000000E+00  0.40496137043E+03  0.40496137043E+03  0.00000000000E+00 0. -1.
         21   -1    0    0  501  502  0.00000000000E+00 -0.00000000000E+00 -0.31275036291E+03  0.31275036291E+03  0.00000000000E+00 0. -1.
         23    2    1    2    0    0 -0.45753944608E+02  0.54839869406E+01  0.32740641002E+03  0.34271213764E+03  0.90184003045E+02 0.  0.
        -24    2    1    2    0    0  0.82506709171E+02  0.11826474575E+03 -0.97934281736E+02  0.18657154626E+03  0.66512488965E+02 0.  0.
         13    1    4    4    0    0  0.31406443393E+02  0.99537862300E+02 -0.63873173265E+02  0.12236802270E+03  0.00000000000E+00 0. -1.
        -14    1    4    4    0    0  0.51100265778E+02  0.18726883450E+02 -0.34061108471E+02  0.64203523553E+02  0.00000000000E+00 0.  1.
        -13    1    3    3    0    0 -0.64607955927E+02 -0.20612547018E+02  0.24582761238E+03  0.25501035287E+03  0.00000000000E+00 0. -1.
         13    1    3    3    0    0  0.18854011319E+02  0.26096533959E+02  0.81578797643E+02  0.87701784773E+02  0.00000000000E+00 0.  1.
          2    1    1    2  501    0 -0.36752764562E+02 -0.12374873269E+03 -0.13726112076E+03  0.18842804945E+03  0.00000000000E+00 0. -1.
<scales pt_clust_5="13000.00000" pt_clust_6="13000.00000" pt_clust_7="13000.00000" pt_clust_8="13000.00000" pt_clust_9="132.97779"></scales>
<clustering>
<clus scale="   66.512">  5  6 -1 -1</clus>
<clus scale="   90.184">  7  8 -1 -1</clus>
<clus scale="  101.275">  1  7  2 -1</clus>
<clus scale="  132.978">  2  9  1 -1</clus>
<clus scale="  132.978">  2  5  1 -1</clus>
</clustering>
</event>
<event>
 9    1  0.7719620E-005  0.1069010E+03  0.7546771E-02  0.1271976E+00
         -2   -1    0    0    0  501 -0.00000000000E+00  0.00000000000E+00  0.11507417473E+03  0.11507417473E+03  0.00000000000E+00 0.  1.
         21   -1    0    0  501  502  0.00000000000E+00 -0.00000000000E+00 -0.11351987278E+03  0.11351987278E+03  0.00000000000E+00 0. -1.
         23    2    1    2    0    0 -0.56419081168E+02 -0.17437358618E+02  0.83509501646E+01  0.11045822954E+03  0.92973694721E+02 0.  0.
        -24    2    1    2    0    0  0.47842142443E+02 -0.34878988628E+01 -0.13803420447E+02  0.94460405920E+02  0.80194749445E+02 0.  0.
         11    1    4    4    0    0  0.29141200511E+02 -0.41717186148E+02 -0.73311644318E+01  0.51412830687E+02  0.00000000000E+00 0. -1.
        -12    1    4    4    0    0  0.18700941932E+02  0.38229287285E+02 -0.64722560153E+01  0.43047575233E+02  0.00000000000E+00 0.  1.
        -11    1    3    3    0    0 -0.21618447720E+02 -0.34442789401E+02  0.42499821488E+02  0.58820896372E+02  0.00000000000E+00 0.  1.
         11    1    3    3    0    0 -0.34800633448E+02  0.17005430783E+02 -0.34148871323E+02  0.51637333172E+02  0.00000000000E+00 0. -1.
         -1    1    1    2    0  502  0.85769387251E+01  0.20925257481E+02  0.70067722303E+01  0.23675412048E+02  0.00000000000E+00 0.  1.
<scales pt_clust_5="13000.00000" pt_clust_6="13000.00000" pt_clust_7="13000.00000" pt_clust_8="13000.00000" pt_clust_9="22.61484"></scales>
<clustering>
<clus scale="   22.615">  2  9  1 -1</clus>
<clus scale="   80.195">  5  6 -1 -1</clus>
<clus scale="   92.974">  7  8 -1 -1</clus>
<clus scale="   95.994">  2  5  1 -1</clus>
<clus scale="   22.615">  2  5  1 -1</clus>
</clustering>
</event>
<event>
 9    1  0.7719620E-005  0.1357404E+03  0.7546771E-02  0.1233531E+00
         21   -1    0    0  501  502  0.00000000000E+00  0.00000000000E+00  0.15836409227E+03  0.15836409227E+03  0.00000000000E+00 0. -1.
          3   -1    0    0  502    0 -0.00000000000E+00 -0.00000000000E+00 -0.22473350184E+03  0.22473350184E+03  0.00000000000E+00 0. -1.
         23    2    1    2    0    0 -0.40503152331E+02  0.72239480590E+01 -0.79155524651E+02  0.12811985505E+03  0.91958737485E+02 0.  0.
        -24    2    1    2    0    0  0.37377557854E+02  0.10473446590E+03  0.33635276374E+02  0.14105169585E+03  0.79986617051E+02 0.  0.
         13    1    4    4    0    0  0.43554291507E+02  0.56619575718E+02  0.52866956228E+02  0.88868823127E+02  0.00000000000E+00 0. -1.
        -14    1    4    4    0    0 -0.61767336529E+01  0.48114890177E+02 -0.19231679854E+02  0.52182872721E+02  0.00000000000E+00 0.  1.
        -13    1    3    3    0    0  0.62797082349E-01 -0.39136500898E+02 -0.31275040339E+02  0.50097882133E+02  0.00000000000E+00 0.  1.
         13    1    3    3    0    0 -0.40565949414E+02  0.46360448957E+02 -0.47880484312E+02  0.78021972913E+02  0.00000000000E+00 0. -1.
          4    1    1    2  501    0  0.31255944771E+01 -0.11195841395E+03 -0.20849161289E+02  0.11392604321E+03  0.00000000000E+00 0. -1.
<scales pt_clust_5="13000.00000" pt_clust_6="13000.00000" pt_clust_7="13000.00000" pt_clust_8="13000.00000" pt_clust_9="109.67044"></scales>
<clustering>
<clus scale="   79.987">  5  6 -1 -1</clus>
<clus scale="   91.959">  7  8 -1 -1</clus>
<clus scale="  100.743">  2  7  1 -1</clus>
<clus scale="  109.670">  1  9  2 -1</clus>
<clus scale="  109.670">  1  5  2 -1</clus>
</clustering>
</event>
<event>
 9    1  0.7719620E-005  0.9051198E+02  0.7546771E-02  0.1306275E+00
          1   -1    0    0  502    0 -0.00000000000E+00  0.00000000000E+00  0.64750978838E+03  0.64750978838E+03  0.00000000000E+00 0. -1.
         21   -1    0    0  501  502  0.00000000000E+00 -0.00000000000E+00 -0.20417902469E+02  0.20417902469E+02  0.00000000000E+00 0. -1.
        -24    2    1    2    0    0 -0.74387156631E+01 -0.53999333663E+01  0.25277847054E+03  0.26601773422E+03  0.82364956014E+02 0.  0.
         23    2    1    2    0    0 -0.35967592152E+02 -0.15777374534E+02  0.24760555971E+03  0.26630956351E+03  0.89831381960E+02 0.  0.
         13    1    3    3    0    0  0.10918834108E+02 -0.36939190414E+02  0.18572244514E+03  0.18967485694E+03  0.00000000000E+00 0. -1.
        -14    1    3    3    0    0 -0.18357549771E+02  0.31539257048E+02  0.67056025409E+02  0.76342877287E+02  0.00000000000E+00 0.  1.
        -13    1    4    4    0    0  0.28854938503E+02 -0.11782126476E+01  0.48925232289E+02  0.56812621975E+02  0.00000000000E+00 0.  1.
         13    1    4    4    0    0 -0.64822530655E+02 -0.14599161886E+02  0.19868032742E+03  0.20949694154E+03  0.00000000000E+00 0. -1.
          2    1    1    2  501    0  0.43406307815E+02  0.21177307900E+02  0.12670785565E+03  0.13560039311E+03  0.00000000000E+00 0. -1.
<scales pt_clust_5="13000.00000" pt_clust_6="13000.00000" pt_clust_7="13000.00000" pt_clust_8="13000.00000" pt_clust_9="48.29685"></scales>
<clustering>
<clus scale="   48.297">  2  9  1 -1</clus>
<clus scale="   82.365">  5  6 -1 -1</clus>
<clus scale="   83.107">  1  5  2 -1</clus>
<clus scale="   89.831">  7  8 -1 -1</clus>
<clus scale="   48.297">  2  5  1 -1</clus>
</clustering>
</event>
<event>
 9    1  0.7719620E-005  0.5661689E+03  0.7546771E-02  0.1018244E+00
         21   -1    0    0  501  502  0.00000000000E+00  0.00000000000E+00  0.47253929188E+03  0.47253929188E+03  0.00000000000E+00 0. -1.
          1   -1    0    0  502    0 -0.00000000000E+00 -0.00000000000E+00 -0.12878745008E+04  0.12878745008E+04  0.00000000000E+00 0. -1.
         23    2    1    2    0    0 -0.21514120512E+03 -0.18859155969E+03 -0.16241239105E+03  0.34160015430E+03  0.91980248539E+02 0.  0.
        -24    2    1    2    0    0  0.60131282966E+03  0.22090456806E+03  0.15746488216E+02  0.64596740852E+03  0.81547493304E+02 0.  0.
         11    1    4    4    0    0  0.47997933338E+03  0.14032038075E+03  0.15541388349E+02  0.50031140750E+03  0.00000000000E+00 0. -1.
        -12    1    4    4    0    0  0.12133349628E+03  0.80584187310E+02  0.20509986657E+00  0.14565600101E+03  0.00000000000E+00 0.  1.
        -13    1    3    3    0    0 -0.48221467205E+02 -0.71685462687E+02 -0.91462248310E+02  0.12581517526E+03  0.00000000000E+00 0.  1.
         13    1    3    3    0    0 -0.16691973792E+03 -0.11690609701E+03 -0.70950142745E+02  0.21578497904E+03  0.00000000000E+00 0. -1.
          2    1    1    2  501    0 -0.38617162454E+03 -0.32313008369E+02 -0.66866930609E+03  0.77284622986E+03  0.00000000000E+00 0. -1.
<scales pt_clust_5="13000.00000" pt_clust_6="13000.00000" pt_clust_7="13000.00000" pt_clust_8="13000.00000" pt_clust_9="560.26557"></scales>
<clustering>
<clus scale="   81.547">  5  6 -1 -1</clus>
<clus scale="   91.980">  7  8 -1 -1</clus>
<clus scale="  300.521">  2  7  1 -1</clus>
<clus scale="  560.266">  1  9  2 -1</clus>
<clus scale="  560.266">  1  5  2 -1</clus>
</clustering>
</event>
<event>
 9    1  0.7719620E-005  0.9560425E+02  0.7546771E-02  0.1297766E+00
          1   -1    0    0  502    0 -0.00000000000E+00  0.00000000000E+00  0.26463212477E+03  0.26463212477E+03  0.00000000000E+00 0. -1.
         21   -1    0    0  501  502  0.00000000000E+00 -0.00000000000E+00 -0.53750529586E+02  0.53750529586E+02  0.00000000000E+00 0. -1.
         23    2    1    2    0    0 -0.29948049685E+02 -0.17493170084E+02  0.12397111786E+03  0.15795695565E+03  0.91535048461E+02 0.  0.
        -24    2    1    2    0    0  0.86736513729E+01  0.10512864919E+02  0.90474454464E+01  0.79407327840E+02  0.77704021059E+02 0.  0.
         11    1    4    4    0    0  0.45234381905E+01  0.41585149556E+02 -0.96193831690E+01  0.42922240030E+02  0.00000000000E+00 0. -1.
        -12    1    4    4    0    0  0.41502131824E+01 -0.31072284637E+02  0.18666828615E+02  0.36485087811E+02  0.00000000000E+00 0.  1.
        -13    1    3    3    0    0 -0.19439502032E+02 -0.52765535377E+02  0.97738811337E+02  0.11276068111E+03  0.00000000000E+00 0. -1.
         13    1    3    3    0    0 -0.10508547653E+02  0.35272365293E+02  0.26232306519E+02  0.45196274542E+02  0.00000000000E+00 0.  1.
          2    1    1    2  501    0  0.21274398312E+02  0.69803051646E+01  0.77863031876E+02  0.81018370859E+02  0.00000000000E+00 0. -1.
<scales pt_clust_5="13000.00000" pt_clust_6="13000.00000" pt_clust_7="13000.00000" pt_clust_8="13000.00000" pt_clust_9="22.39029"></scales>
<clustering>
<clus scale="   22.390">  2  9  1 -1</clus>
<clus scale="   77.704">  5  6 -1 -1</clus>
<clus scale="   82.459">  2  5  1 -1</clus>
<clus scale="   91.535">  7  8 -1 -1</clus>
<clus scale="   22.390">  2  5  1 -1</clus>
</clustering>
</event>
<event>
 9    1  0.7719620E-005  0.1054863E+03  0.7546771E-02  0.1273350E+00
         21   -1    0    0  501  502  0.00000000000E+00  0.00000000000E+00  0.19048672472E+03  0.19048672472E+03  0.00000000000E+00 0.  1.
          1   -1    0    0  502    0 -0.00000000000E+00 -0.00000000000E+00 -0.11798863865E+03  0.11798863865E+03  0.00000000000E+00 0. -1.
         23    2    1    2    0    0  0.77478270280E+01 -0.47411402489E+02 -0.25403169042E+02  0.10496604321E+03  0.89803559620E+02 0.  0.
        -24    2    1    2    0    0 -0.35562933979E+02  0.57807004475E+02  0.39842885842E+01  0.10500985154E+03  0.80030133864E+02 0.  0.
         11    1    4    4    0    0 -0.36896893249E+02  0.45027184681E+02 -0.32260388025E+02  0.66554945175E+02  0.00000000000E+00 0. -1.
        -12    1    4    4    0    0  0.13339592707E+01  0.12779819794E+02  0.36244676610E+02  0.38454906369E+02  0.00000000000E+00 0.  1.
        -11    1    3    3    0    0  0.22503371071E+02  0.19292854443E+02  0.52237175646E+01  0.30098225318E+02  0.00000000000E+00 0.  1.
         11    1    3    3    0    0 -0.14755544043E+02 -0.66704256931E+02 -0.30626886607E+02  0.74867817893E+02  0.00000000000E+00 0. -1.
          2    1    1    2  501    0  0.27815106951E+02 -0.10395601986E+02  0.93916966531E+02  0.98499468616E+02  0.00000000000E+00 0. -1.
<scales pt_clust_5="13000.00000" pt_clust_6="13000.00000" pt_clust_7="13000.00000" pt_clust_8="13000.00000" pt_clust_9="29.69425"></scales>
<clustering>
<clus scale="   29.694">  1  9  2 -1</clus>
<clus scale="   80.030">  5  6 -1 -1</clus>
<clus scale="   89.804">  7  8 -1 -1</clus>
<clus scale="   97.301">  1  5  2 -1</clus>
<clus scale="   29.694">  1  5  2 -1</clus>
</clustering>
</event>
<event>
 9    1  0.7719620E-005  0.1465814E+03  0.7546771E-02  0.1206359E+00
         -4   -1    0    0    0  501 -0.00000000000E+00  0.00000000000E+00  0.93227257688E+03  0.93227257688E+03  0.00000000000E+00 0.  1.
         21   -1    0    0  501  502  0.00000000000E+00 -0.00000000000E+00 -0.53966229010E+02  0.53966229010E+02  0.00000000000E+00 0. -1.
         23    2    1    2    0    0  0.15084975099E+02 -0.75516552360E+02  0.20450726259E+03  0.23617736653E+03  0.89589183802E+02 0.  0.
        -24    2    1    2    0    0 -0.29266347256E+02  0.18608644211E+03  0.32900682365E+03  0.38769627062E+03  0.81106258878E+02 0.  0.
         11    1    4    4    0    0  0.26801977808E+01  0.15244206575E+03  0.20641004295E+03  0.25661424883E+03  0.00000000000E+00 0. -1.
        -12    1    4    4    0    0 -0.31946545037E+02  0.33644376354E+02  0.12259678069E+03  0.13108202179E+03  0.00000000000E+00 0.  1.
        -11    1    3    3    0    0  0.29823115323E+02 -0.90449601697E+02  0.14900554093E+03  0.17684230230E+03  0.00000000000E+00 0. -1.
         11    1    3    3    0    0 -0.14738140225E+02  0.14933049337E+02  0.55501721666E+02  0.59335064234E+02  0.00000000000E+00 0.  1.
         -3    1    1    2    0  502  0.14181372157E+02 -0.11056988975E+03  0.34479226163E+03  0.36236516874E+03  0.00000000000E+00 0.  1.
<scales pt_clust_5="13000.00000" pt_clust_6="13000.00000" pt_clust_7="13000.00000" pt_clust_8="13000.00000" pt_clust_9="111.47567"></scales>
<clustering>
<clus scale="   81.106">  5  6 -1 -1</clus>
<clus scale="   89.589">  7  8 -1 -1</clus>
<clus scale="  111.476">  2  9  1 -1</clus>
<clus scale="  141.556">  2  5  1 -1</clus>
<clus scale="  111.476">  2  5  1 -1</clus>
</clustering>
</event>
<event>
 9    1  0.7719620E-005  0.1047939E+03  0.7546771E-02  0.1275243E+00
         21   -1    0    0  501  502  0.00000000000E+00  0.00000000000E+00  0.10135101674E+03  0.10135101674E+03  0.00000000000E+00 0.  1.
          1   -1    0    0  502    0 -0.00000000000E+00 -0.00000000000E+00 -0.37836007102E+03  0.37836007102E+03  0.00000000000E+00 0. -1.
        -24    2    1    2    0    0 -0.57190014389E+02 -0.19015841908E+02 -0.28361784705E+03  0.30124169291E+03  0.81701740460E+02 0.  0.
         23    2    1    2    0    0 -0.22416457326E+02  0.68572193952E+01  0.18972101843E+02  0.96996246803E+02  0.92189002754E+02 0.  0.
         11    1    3    3    0    0  0.49415580155E+01 -0.29743857322E+02 -0.15612702064E+03  0.15901183169E+03  0.00000000000E+00 0. -1.
        -12    1    3    3    0    0 -0.62131572405E+02  0.10728015414E+02 -0.12749082641E+03  0.14222986122E+03  0.00000000000E+00 0.  1.
        -13    1    4    4    0    0 -0.51402287902E+01  0.43825236791E+02  0.31608674782E+02  0.54278740343E+02  0.00000000000E+00 0.  1.
         13    1    4    4    0    0 -0.17276228536E+02 -0.36968017395E+02 -0.12636572939E+02  0.42717506461E+02  0.00000000000E+00 0. -1.
          2    1    1    2  501    0  0.79606471715E+02  0.12158622513E+02 -0.12363309077E+02  0.81473148041E+02  0.00000000000E+00 0. -1.
<scales pt_clust_5="13000.00000" pt_clust_6="13000.00000" pt_clust_7="13000.00000" pt_clust_8="13000.00000" pt_clust_9="80.52964"></scales>
<clustering>
<clus scale="   80.530">  1  9  2 -1</clus>
<clus scale="   81.702">  5  6 -1 -1</clus>
<clus scale="   92.189">  7  8 -1 -1</clus>
<clus scale="   95.698">  2  5  1 -1</clus>
<clus scale="   80.530">  1  5  2 -1</clus>
</clustering>
</event>
<event>
 9    1  0.7719620E-005  0.1050337E+03  0.7546771E-02  0.1275482E+00
          3   -1    0    0  502    0 -0.00000000000E+00  0.00000000000E+00  0.17787873342E+03  0.17787873342E+03  0.00000000000E+00 0. -1.
         21   -1    0    0  501  502  0.00000000000E+00 -0.00000000000E+00 -0.16332934909E+03  0.16332934909E+03  0.00000000000E+00 0.  1.
         23    2    1    2    0    0  0.38819181527E+02 -0.37629511985E+02  0.55835070698E+02  0.12020961303E+03  0.91705435594E+02 0.  0.
        -24    2    1    2    0    0 -0.71317542441E+02 -0.47749874319E+02  0.78109021568E+01  0.11728608801E+03  0.79553591314E+02 0.  0.
         13    1    4    4    0    0 -0.41053875423E+02  0.33934744916E+01  0.32959986183E+02  0.52756962057E+02  0.00000000000E+00 0. -1.
        -14    1    4    4    0    0 -0.30263667019E+02 -0.51143348810E+02 -0.25149084026E+02  0.64529125953E+02  0.00000000000E+00 0.  1.
        -11    1    3    3    0    0 -0.17578254282E+02 -0.31597710788E+02 -0.56070736284E+01  0.36590294141E+02  0.00000000000E+00 0.  1.
         11    1    3    3    0    0  0.56397435809E+02 -0.60318011968E+01  0.61442144326E+02  0.83619318886E+02  0.00000000000E+00 0. -1.
          4    1    1    2  501    0  0.32498360914E+02  0.85379386304E+02 -0.49096588525E+02  0.10371238148E+03  0.00000000000E+00 0. -1.
<scales pt_clust_5="13000.00000" pt_clust_6="13000.00000" pt_clust_7="13000.00000" pt_clust_8="13000.00000" pt_clust_9="91.35526"></scales>
<clustering>
<clus scale="   79.554">  5  6 -1 -1</clus>
<clus scale="   91.355">  2  9  1 -1</clus>
<clus scale="   91.705">  7  8 -1 -1</clus>
<clus scale="   94.610">  2  5  1 -1</clus>
<clus scale="   91.355">  2  5  1 -1</clus>
</clustering>
</event>
<event>
 9    1  0.7719620E-005  0.1484072E+03  0.7546771E-02  0.1230188E+00
         21   -1    0    0  501  502  0.00000000000E+00  0.00000000000E+00  0.31518627292E+03  0.31518627292E+03  0.00000000000E+00 0.  1.
          3   -1    0    0  502    0 -0.00000000000E+00 -0.00000000000E+00 -0.12751653932E+03  0.12751653932E+03  0.00000000000E+00 0. -1.
        -24    2    1    2    0    0 -0.45430532753E+01 -0.18980848528E+02  0.33163672527E+01  0.82643085891E+02  0.80236957881E+02 0.  0.
         23    2    1    2    0    0 -0.64285116123E+02  0.10612606393E+03  0.19663407531E+03  0.24833496955E+03  0.87235198905E+02 0.  0.
         13    1    3    3    0    0 -0.28553210835E+02 -0.40321438369E+01 -0.28174426968E+02  0.40315535069E+02  0.00000000000E+00 0. -1.
        -14    1    3    3    0    0  0.24010157560E+02 -0.14948704691E+02  0.31490794220E+02  0.42327550822E+02  0.00000000000E+00 0.  1.
        -11    1    4    4    0    0 -0.40104970363E+02  0.73237881928E+02  0.52735288922E+02  0.98758324686E+02  0.00000000000E+00 0. -1.
         11    1    4    4    0    0 -0.24180145761E+02  0.32888181998E+02  0.14389878639E+03  0.14957664486E+03  0.00000000000E+00 0.  1.
          4    1    1    2  501    0  0.68828169399E+02 -0.87145215398E+02 -0.12280708959E+02  0.11172475680E+03  0.00000000000E+00 0. -1.
<scales pt_clust_5="13000.00000" pt_clust_6="13000.00000" pt_clust_7="13000.00000" pt_clust_8="13000.00000" pt_clust_9="120.06142"></scales>
<clustering>
<clus scale="   80.237">  5  6 -1 -1</clus>
<clus scale="   82.577">  2  5  1 -1</clus>
<clus scale="   87.235">  7  8 -1 -1</clus>
<clus scale="  120.061">  1  9  2 -1</clus>
<clus scale="  120.061">  1  5  2 -1</clus>
</clustering>
</event>
<event>
 9    1  0.2262211E-004  0.9160370E+02  0.7546771E-02  0.1302967E+00
         -2   -1    0    0    0  501 -0.00000000000E+00  0.00000000000E+00  0.99616077929E+03  0.99616077929E+03  0.00000000000E+00 0.  1.
         21   -1    0    0  501  502  0.00000000000E+00 -0.00000000000E+00 -0.61445201253E+02  0.61445201253E+02  0.00000000000E+00 0.  1.
        -24    2    1    2    0    0  0.11010239218E+02 -0.46284013188E+01  0.84479098098E+03  0.84909766731E+03  0.84571860640E+02 0.  0.
         23    2    1    2    0    0  0.12584673413E+02  0.16638967631E+02  0.13024395888E+03  0.16027321663E+03  0.91042769595E+02 0.  0.
         13    1    3    3    0    0  0.23741533776E+02  0.15318806027E+02  0.99575138558E+02  0.10350620495E+03  0.00000000000E+00 0. -1.
        -14    1    3    3    0    0 -0.12731294557E+02 -0.19947207346E+02  0.74521584242E+03  0.74559146236E+03  0.00000000000E+00 0.  1.
        -13    1    4    4    0    0  0.24912675348E+02 -0.26035172674E+02  0.10063050451E+03  0.10688765152E+03  0.00000000000E+00 0.  1.
         13    1    4    4    0    0 -0.12328001935E+02  0.42674140305E+02  0.29613454368E+02  0.53385565109E+02  0.00000000000E+00 0. -1.
         -1    1    1    2    0  502 -0.23594912631E+02 -0.12010566312E+02 -0.40319361833E+02  0.48235096598E+02  0.00000000000E+00 0.  1.
<scales pt_clust_5="13000.00000" pt_clust_6="13000.00000" pt_clust_7="13000.00000" pt_clust_8="13000.00000" pt_clust_9="26.47591"></scales>
<clustering>
<clus scale="   26.476">  2  9  1 -1</clus>
<clus scale="   84.572">  5  6 -1 -1</clus>
<clus scale="   85.175">  1  5  2 -1</clus>
<clus scale="   91.043">  7  8 -1 -1</clus>
<clus scale="   26.476">  2  5  1 -1</clus>
</clustering>
</event>
<event>
 9    1  0.7719620E-005  0.1092959E+03  0.7546771E-02  0.1263374E+00
          3   -1    0    0  502    0 -0.00000000000E+00  0.00000000000E+00  0.35573030646E+03  0.35573030646E+03  0.00000000000E+00 0. -1.
         21   -1    0    0  501  502  0.00000000000E+00 -0.00000000000E+00 -0.21193494735E+03  0.21193494735E+03  0.00000000000E+00 0. -1.
         23    2    1    2    0    0  0.17598475448E+02 -0.59300676525E+02  0.29811159582E+03  0.31693249388E+03  0.88030707939E+02 0.  0.
        -24    2    1    2    0    0 -0.64883331943E+02  0.85199867407E+02 -0.76843688235E+02  0.15634726577E+03  0.84087162638E+02 0.  0.
         11    1    4    4    0    0 -0.84339680412E+02  0.67001566598E+02 -0.71188000779E+02  0.12911283079E+03  0.00000000000E+00 0. -1.
        -12    1    4    4    0    0  0.19456348469E+02  0.18198300810E+02 -0.56556874568E+01  0.27234434981E+02  0.00000000000E+00 0.  1.
        -11    1    3    3    0    0 -0.20370876307E+02  0.63338529426E+01  0.22188316328E+02  0.30780053218E+02  0.00000000000E+00 0. -1.
         11    1    3    3    0    0  0.37969351755E+02 -0.65634529468E+02  0.27592327949E+03  0.28615244066E+03  0.00000000000E+00 0.  1.
          4    1    1    2  501    0  0.47284856495E+02 -0.25899190882E+02 -0.77472548476E+02  0.94385494169E+02  0.00000000000E+00 0. -1.
<scales pt_clust_5="13000.00000" pt_clust_6="13000.00000" pt_clust_7="13000.00000" pt_clust_8="13000.00000" pt_clust_9="53.91313"></scales>
<clustering>
<clus scale="   53.913">  2  9  1 -1</clus>
<clus scale="   84.087">  5  6 -1 -1</clus>
<clus scale="   88.031">  7  8 -1 -1</clus>
<clus scale="  106.145">  2  5  1 -1</clus>
<clus scale="   53.913">  2  5  1 -1</clus>
</clustering>
</event>
<event>
 9    1  0.7719620E-005  0.9757689E+02  0.7546771E-02  0.1293448E+00
          1   -1    0    0  502    0 -0.00000000000E+00  0.00000000000E+00  0.35371064663E+03  0.35371064663E+03  0.00000000000E+00 0. -1.
         21   -1    0    0  501  502  0.00000000000E+00 -0.00000000000E+00 -0.18892624450E+03  0.18892624450E+03  0.00000000000E+00 0. -1.
        -24    2    1    2    0    0 -0.15002375985E+01  0.24923095634E+02  0.21423600913E+03  0.23065805504E+03  0.81747534126E+02 0.  0.
         23    2    1    2    0    0 -0.22199407249E+02 -0.42368794999E+01  0.11113585726E+03  0.14833921258E+03  0.95616831104E+02 0.  0.
         13    1    3    3    0    0 -0.39057822131E+01  0.43375625186E+02  0.54132838342E+02  0.69477076665E+02  0.00000000000E+00 0. -1.
        -14    1    3    3    0    0  0.24055446146E+01 -0.18452529552E+02  0.16010317079E+03  0.16118097837E+03  0.00000000000E+00 0.  1.
        -11    1    4    4    0    0 -0.41662019948E+02 -0.21498409141E+02  0.11291818314E+03  0.12226373782E+03  0.00000000000E+00 0. -1.
         11    1    4    4    0    0  0.19462612699E+02  0.17261529641E+02 -0.17823258789E+01  0.26075474764E+02  0.00000000000E+00 0.  1.
          2    1    1    2  501    0  0.23699644847E+02 -0.20686216135E+02 -0.16058746426E+03  0.16363962351E+03  0.00000000000E+00 0. -1.
<scales pt_clust_5="13000.00000" pt_clust_6="13000.00000" pt_clust_7="13000.00000" pt_clust_8="13000.00000" pt_clust_9="31.45779"></scales>
<clustering>
<clus scale="   31.458">  2  9  1 -1</clus>
<clus scale="   81.748">  5  6 -1 -1</clus>
<clus scale="   84.032">  1  5  2 -1</clus>
<clus scale="   95.617">  7  8 -1 -1</clus>
<clus scale="   31.458">  2  5  1 -1</clus>
</clustering>
</event>
<event>
 9    1  0.7719620E-005  0.1922307E+03  0.7546771E-02  0.1157286E+00
         21   -1    0    0  501  502  0.00000000000E+00  0.00000000000E+00  0.48996781320E+02  0.48996781320E+02  0.00000000000E+00 0. -1.
          1   -1    0    0  502    0 -0.00000000000E+00 -0.00000000000E+00 -0.90421548243E+03  0.90421548243E+03  0.00000000000E+00 0. -1.
         23    2    1    2    0    0  0.12600078282E+03 -0.10967266813E+03 -0.46680062644E+03  0.50373031198E+03  0.89090464979E+02 0.  0.
        -24    2    1    2    0    0 -0.14495016329E+03  0.10024802384E+03 -0.29032236502E+03  0.34912921792E+03  0.80894493343E+02 0.  0.
         13    1    4    4    0    0 -0.86475945617E+02  0.12868232598E+02 -0.11152207235E+03  0.14170692715E+03  0.00000000000E+00 0. -1.
        -14    1    4    4    0    0 -0.58474217674E+02  0.87379791247E+02 -0.17880029267E+03  0.20742229077E+03  0.00000000000E+00 0.  1.
        -11    1    3    3    0    0  0.22322440490E+02 -0.18811607015E+02 -0.18143082691E+02  0.34370617647E+02  0.00000000000E+00 0.  1.
         11    1    3    3    0    0  0.10367834233E+03 -0.90861061119E+02 -0.44865754375E+03  0.46935969433E+03  0.00000000000E+00 0. -1.
          2    1    1    2  501    0  0.18949380474E+02  0.94246442895E+01 -0.98095709653E+02  0.10035273386E+03  0.00000000000E+00 0. -1.
<scales pt_clust_5="13000.00000" pt_clust_6="13000.00000" pt_clust_7="13000.00000" pt_clust_8="13000.00000" pt_clust_9="21.16373"></scales>
<clustering>
<clus scale="   21.164">  1  9  2 -1</clus>
<clus scale="   80.894">  5  6 -1 -1</clus>
<clus scale="   89.090">  7  8 -1 -1</clus>
<clus scale="  188.572">  1  5  2 -1</clus>
<clus scale="   21.164">  1  5  2 -1</clus>
</clustering>
</event>
<event>
 9    1  0.7719620E-005  0.3791837E+03  0.7546771E-02  0.1051599E+00
          1   -1    0    0  502    0 -0.00000000000E+00  0.00000000000E+00  0.11661301447E+04  0.11661301447E+04  0.00000000000E+00 0. -1.
         21   -1    0    0  501  502  0.00000000000E+00 -0.00000000000E+00 -0.17584243803E+03  0.17584243803E+03  0.00000000000E+00 0. -1.
         23    2    1    2    0    0  0.17140520835E+03 -0.33728245130E+03  0.68427370116E+03  0.78788274339E+03  0.96899545005E+02 0.  0.
        -24    2    1    2    0    0 -0.13350525468E+03  0.31232885476E+03  0.13021891467E+03  0.37253267910E+03  0.80316030278E+02 0.  0.
         13    1    4    4    0    0 -0.69424062230E+02  0.24952884661E+03  0.10344465976E+03  0.27889988050E+03  0.00000000000E+00 0. -1.
        -14    1    4    4    0    0 -0.64081192446E+02  0.62800008146E+02  0.26774254906E+02  0.93632798603E+02  0.00000000000E+00 0.  1.
        -13    1    3    3    0    0  0.16706777022E+03 -0.27544172765E+03  0.51329904374E+03  0.60601624853E+03  0.00000000000E+00 0. -1.
         13    1    3    3    0    0  0.43374381241E+01 -0.61840723650E+02  0.17097465742E+03  0.18186649486E+03  0.00000000000E+00 0.  1.
          2    1    1    2  501    0 -0.37899953669E+02  0.24953596547E+02  0.17579509081E+03  0.18155716020E+03  0.00000000000E+00 0. -1.
<scales pt_clust_5="13000.00000" pt_clust_6="13000.00000" pt_clust_7="13000.00000" pt_clust_8="13000.00000" pt_clust_9="45.37720"></scales>
<clustering>
<clus scale="   45.377">  2  9  1 -1</clus>
<clus scale="   80.316">  5  6 -1 -1</clus>
<clus scale="   96.900">  7  8 -1 -1</clus>
<clus scale="  375.288">  2  5  1 -1</clus>
<clus scale="   45.377">  2  5  1 -1</clus>
</clustering>
</event>
<event>
 9    1  0.7719620E-005  0.3041410E+03  0.7546771E-02  0.1121559E+00
          1   -1    0    0  502    0 -0.00000000000E+00  0.00000000000E+00  0.18220594212E+04  0.18220594212E+04  0.00000000000E+00 0. -1.
         21   -1    0    0  501  502  0.00000000000E+00 -0.00000000000E+00 -0.91222923626E+02  0.91222923626E+02  0.00000000000E+00 0. -1.
         23    2    1    2    0    0  0.41935500206E+02  0.50995541455E+02  0.20746878688E+03  0.23616901344E+03  0.91506141617E+02 0.  0.
        -24    2    1    2    0    0  0.19579382508E+03 -0.22398295363E+03  0.12050719233E+04  0.12438096444E+04  0.79752778859E+02 0.  0.
         13    1    4    4    0    0  0.14455018209E+03 -0.20001776689E+03  0.10536739662E+04  0.10821879177E+04  0.00000000000E+00 0. -1.
        -14    1    4    4    0    0  0.51243642991E+02 -0.23965186743E+02  0.15139795708E+03  0.16162172667E+03  0.00000000000E+00 0.  1.
        -13    1    3    3    0    0  0.65275124951E+02  0.10790091007E+02  0.11506916667E+03  0.13273349660E+03  0.00000000000E+00 0. -1.
         13    1    3    3    0    0 -0.23339624746E+02  0.40205450448E+02  0.92399620209E+02  0.10343551684E+03  0.00000000000E+00 0.  1.
          2    1    1    2  501    0 -0.23772932529E+03  0.17298741218E+03  0.31829578737E+03  0.43330368696E+03  0.00000000000E+00 0. -1.
<scales pt_clust_5="13000.00000" pt_clust_6="13000.00000" pt_clust_7="13000.00000" pt_clust_8="13000.00000" pt_clust_9="293.49825"></scales>
<clustering>
<clus scale="   79.753">  5  6 -1 -1</clus>
<clus scale="   91.506">  7  8 -1 -1</clus>
<clus scale="  112.838">  1  7  2 -1</clus>
<clus scale="  293.498">  2  9  1 -1</clus>
<clus scale="  293.498">  2  5  1 -1</clus>
</clustering>
</event>
<event>
 9    1  0.7719620E-005  0.1064719E+03  0.7546771E-02  0.1272770E+00
          1   -1    0    0  502    0 -0.00000000000E+00  0.00000000000E+00  0.10722698645E+04  0.10722698645E+04  0.00000000000E+00 0. -1.
         21   -1    0    0  501  502  0.00000000000E+00 -0.00000000000E+00 -0.70876626723E+02  0.70876626723E+02  0.00000000000E+00 0. -1.
        -24    2    1    2    0    0  0.28888670892E+02  0.52698923665E+02  0.90220035392E+03  0.90769120885E+03  0.79536910588E+02 0.  0.
         23    2    1    2    0    0  0.55140860154E+02 -0.16285005970E+02  0.94054398188E+02  0.14373102427E+03  0.92231565325E+02 0.  0.
         13    1    3    3    0    0  0.46013866949E+02  0.22503126273E+02  0.28864216386E+03  0.29315177878E+03  0.00000000000E+00 0. -1.
        -14    1    3    3    0    0 -0.17125196057E+02  0.30195797392E+02  0.61355819005E+03  0.61453943006E+03  0.00000000000E+00 0.  1.
        -13    1    4    4    0    0  0.76509102449E+02 -0.30397130894E+02  0.78592350802E+02  0.11381733580E+03  0.00000000000E+00 0. -1.
         13    1    4    4    0    0 -0.21368242295E+02  0.14112124924E+02  0.15462047386E+02  0.29913688472E+02  0.00000000000E+00 0.  1.
          2    1    1    2  501    0 -0.84029531046E+02 -0.36413917694E+02  0.51384856715E+01  0.91724258104E+02  0.00000000000E+00 0. -1.
<scales pt_clust_5="13000.00000" pt_clust_6="13000.00000" pt_clust_7="13000.00000" pt_clust_8="13000.00000" pt_clust_9="91.58021"></scales>
<clustering>
<clus scale="   79.537">  5  6 -1 -1</clus>
<clus scale="   91.580">  2  9  1 -1</clus>
<clus scale="   92.232">  7  8 -1 -1</clus>
<clus scale="   95.686">  1  5  2 -1</clus>
<clus scale="   91.580">  2  5  1 -1</clus>
</clustering>
</event>
<event>
 9    1  0.7719620E-005  0.9313776E+02  0.7546771E-02  0.1303221E+00
         -2   -1    0    0    0  501 -0.00000000000E+00  0.00000000000E+00  0.29294581106E+03  0.29294581106E+03  0.00000000000E+00 0.  1.
         21   -1    0    0  501  502  0.00000000000E+00 -0.00000000000E+00 -0.35571562505E+03  0.35571562505E+03  0.00000000000E+00 0.  1.
         23    2    1    2    0    0 -0.18782582452E+02 -0.10456361863E+02  0.27506969015E+03  0.29049506379E+03  0.90895141459E+02 0.  0.
        -24    2    1    2    0    0 -0.18459083390E+02 -0.10510142872E+00 -0.23104870332E+03  0.24457605001E+03  0.78058901642E+02 0.  0.
         13    1    4    4    0    0  0.26930222645E+02  0.12906658620E+02 -0.12453741312E+03  0.12806789603E+03  0.00000000000E+00 0. -1.
        -14    1    4    4    0    0 -0.45389306035E+02 -0.13011760049E+02 -0.10651129020E+03  0.11650815397E+03  0.00000000000E+00 0.  1.
        -11    1    3    3    0    0 -0.44915550401E+02 -0.34361549852E+02  0.19286816390E+03  0.20098818727E+03  0.00000000000E+00 0.  1.
         11    1    3    3    0    0  0.26132967950E+02  0.23905187990E+02  0.82201526250E+02  0.89506876521E+02  0.00000000000E+00 0. -1.
         -1    1    1    2    0  502  0.37241665842E+02  0.10561463291E+02 -0.10679080082E+03  0.11359032231E+03  0.00000000000E+00 0.  1.
<scales pt_clust_5="13000.00000" pt_clust_6="13000.00000" pt_clust_7="13000.00000" pt_clust_8="13000.00000" pt_clust_9="38.71029"></scales>
<clustering>
<clus scale="   38.710">  2  9  1 -1</clus>
<clus scale="   78.059">  5  6 -1 -1</clus>
<clus scale="   80.659">  2  5  1 -1</clus>
<clus scale="   90.895">  7  8 -1 -1</clus>
<clus scale="   38.710">  2  5  1 -1</clus>
</clustering>
</event>
<event>
 9    1  0.7719620E-005  0.2394598E+03  0.7546771E-02  0.1137900E+00
          1   -1    0    0  502    0 -0.00000000000E+00  0.00000000000E+00  0.50709615076E+03  0.50709615076E+03  0.00000000000E+00 0. -1.
         21   -1    0    0  501  502  0.00000000000E+00 -0.00000000000E+00 -0.35839359261E+03  0.35839359261E+03  0.00000000000E+00 0. -1.
         23    2    1    2    0    0  0.93706025561E+02  0.82751594653E+02 -0.14189629998E+03  0.20994848810E+03  0.91187510446E+02 0.  0.
        -24    2    1    2    0    0 -0.26459563416E+03 -0.17889520842E+03  0.31358401185E+03  0.45811995427E+03  0.97594133037E+02 0.  0.
         11    1    4    4    0    0 -0.19618589260E+03 -0.12237606815E+03  0.16150011018E+03  0.28204094047E+03  0.00000000000E+00 0. -1.
        -12    1    4    4    0    0 -0.68409741564E+02 -0.56519140274E+02  0.15208390166E+03  0.17607901381E+03  0.00000000000E+00 0.  1.
        -13    1    3    3    0    0  0.67891671323E+02  0.34792069386E+00 -0.54199285264E+02  0.86873255994E+02  0.00000000000E+00 0.  1.
         13    1    3    3    0    0  0.25814354238E+02  0.82403673959E+02 -0.87697014719E+02  0.12307523210E+03  0.00000000000E+00 0. -1.
          2    1    1    2  501    0  0.17088960860E+03  0.96143613768E+02 -0.22985153706E+02  0.19742130100E+03  0.00000000000E+00 0. -1.
<scales pt_clust_5="13000.00000" pt_clust_6="13000.00000" pt_clust_7="13000.00000" pt_clust_8="13000.00000" pt_clust_9="218.66957"></scales>
<clustering>
<clus scale="   91.188">  7  8 -1 -1</clus>
<clus scale="   97.594">  5  6 -1 -1</clus>
<clus scale="  154.738">  1  7  2 -1</clus>
<clus scale="  218.670">  2  9  1 -1</clus>
<clus scale="  218.670">  2  5  1 -1</clus>
</clustering>
</event>
<event>
 9    1  0.7719620E-005  0.2031828E+03  0.7546771E-02  0.1147081E+00
          3   -1    0    0  502    0 -0.00000000000E+00  0.00000000000E+00  0.18694684670E+03  0.18694684670E+03  0.00000000000E+00 0. -1.
         21   -1    0    0  501  502  0.00000000000E+00 -0.00000000000E+00 -0.12082159749E+03  0.12082159749E+03  0.00000000000E+00 0.  1.
        -24    2    1    2    0    0  0.50185081985E+02  0.27358902531E+02  0.17549203051E+02  0.10012025760E+03  0.80305911686E+02 0.  0.
         23    2    1    2    0    0  0.40652400015E+02  0.74583027010E+01  0.31168025787E+02  0.10882144381E+03  0.95720514500E+02 0.  0.
         13    1    3    3    0    0  0.22866597593E+02 -0.24777723239E+02  0.23293282379E+02  0.40980408226E+02  0.00000000000E+00 0. -1.
        -14    1    3    3    0    0  0.27318484391E+02  0.52136625770E+02 -0.57440793275E+01  0.59139849369E+02  0.00000000000E+00 0.  1.
        -13    1    4    4    0    0  0.70465481549E+02  0.76970286148E+01  0.34476826126E+02  0.78824360950E+02  0.00000000000E+00 0.  1.
         13    1    4    4    0    0 -0.29813081534E+02 -0.23872591373E+00 -0.33088003388E+01  0.29997082864E+02  0.00000000000E+00 0. -1.
          4    1    1    2  501    0 -0.90837482000E+02 -0.34817205232E+02  0.17408020369E+02  0.98826742784E+02  0.00000000000E+00 0. -1.
<scales pt_clust_5="13000.00000" pt_clust_6="13000.00000" pt_clust_7="13000.00000" pt_clust_8="13000.00000" pt_clust_9="97.28148"></scales>
<clustering>
<clus scale="   80.306">  5  6 -1 -1</clus>
<clus scale="   95.721">  7  8 -1 -1</clus>
<clus scale="   97.221">  5  7 -1 -1</clus>
<clus scale="   97.281">  2  9  1 -1</clus>
<clus scale="   97.281">  2  5  1 -1</clus>
</clustering>
</event>
<event>
 9    1  0.7719620E-005  0.2050851E+03  0.7546771E-02  0.1161506E+00
         21   -1    0    0  501  502  0.00000000000E+00  0.00000000000E+00  0.40792664742E+03  0.40792664742E+03  0.00000000000E+00 0. -1.
          1   -1    0    0  502    0 -0.00000000000E+00 -0.00000000000E+00 -0.36375059037E+03  0.36375059037E+03  0.00000000000E+00 0. -1.
         23    2    1    2    0    0  0.27296913993E+01 -0.11001558658E+03 -0.18500249930E+03  0.23245334975E+03  0.87736848338E+02 0.  0.
        -24    2    1    2    0    0  0.14534010702E+03 -0.29299529954E+02 -0.65305960003E+02  0.18137685749E+03  0.81550517196E+02 0.  0.
         11    1    4    4    0    0  0.74853312075E+02 -0.45732554039E+02 -0.64698726217E+02  0.10899729355E+03  0.00000000000E+00 0. -1.
        -12    1    4    4    0    0  0.70486794946E+02  0.16433024085E+02 -0.60723378583E+00  0.72379563933E+02  0.00000000000E+00 0.  1.
        -13    1    3    3    0    0 -0.37853553870E+02 -0.34595058668E+02 -0.44458883411E+02  0.67869742441E+02  0.00000000000E+00 0.  1.
         13    1    3    3    0    0  0.40583245269E+02 -0.75420527916E+02 -0.14054361589E+03  0.16458360731E+03  0.00000000000E+00 0. -1.
          2    1    1    2  501    0 -0.14806979842E+03  0.13931511654E+03  0.29448451636E+03  0.35784703055E+03  0.00000000000E+00 0. -1.
<scales pt_clust_5="13000.00000" pt_clust_6="13000.00000" pt_clust_7="13000.00000" pt_clust_8="13000.00000" pt_clust_9="188.17394"></scales>
<clustering>
<clus scale="   81.551">  5  6 -1 -1</clus>
<clus scale="   87.737">  7  8 -1 -1</clus>
<clus scale="  140.743">  2  7  1 -1</clus>
<clus scale="  188.174">  1  9  2 -1</clus>
<clus scale="  188.174">  1  5  2 -1</clus>
</clustering>
</event>
<event>
 9    1  0.7719620E-005  0.1133595E+03  0.7546771E-02  0.1258394E+00
         21   -1    0    0  501  502  0.00000000000E+00  0.00000000000E+00  0.41979191535E+03  0.41979191535E+03  0.00000000000E+00 0. -1.
          3   -1    0    0  502    0 -0.00000000000E+00 -0.00000000000E+00 -0.13120472118E+03  0.13120472118E+03  0.00000000000E+00 0. -1.
        -24    2    1    2    0    0 -0.22928902634E+02  0.64456475370E+02 -0.95105953317E+02  0.14272754746E+03  0.81520786638E+02 0.  0.
         23    2    1    2    0    0  0.31633349313E+02 -0.31078651287E+02  0.24792762760E+03  0.26819010093E+03  0.92148089240E+02 0.  0.
         13    1    3    3    0    0 -0.13028793978E+02  0.48362089719E+02 -0.10854280767E+03  0.11954155048E+03  0.00000000000E+00 0. -1.
        -14    1    3    3    0    0 -0.99001086562E+01  0.16094385651E+02  0.13436854354E+02  0.23185996977E+02  0.00000000000E+00 0.  1.
        -13    1    4    4    0    0  0.62613323820E+02 -0.70667246797E+01  0.15715353637E+03  0.16931509357E+03  0.00000000000E+00 0. -1.
         13    1    4    4    0    0 -0.30979974508E+02 -0.24011926608E+02  0.90774091237E+02  0.98875007357E+02  0.00000000000E+00 0.  1.
          4    1    1    2  501    0 -0.87044466787E+01 -0.33377824083E+02  0.13576551988E+03  0.14007898815E+03  0.00000000000E+00 0. -1.
<scales pt_clust_5="13000.00000" pt_clust_6="13000.00000" pt_clust_7="13000.00000" pt_clust_8="13000.00000" pt_clust_9="34.49415"></scales>
<clustering>
<clus scale="   34.494">  1  9  2 -1</clus>
<clus scale="   81.521">  5  6 -1 -1</clus>
<clus scale="   92.148">  7  8 -1 -1</clus>
<clus scale="  104.903">  2  5  1 -1</clus>
<clus scale="   34.494">  1  5  2 -1</clus>
</clustering>
</event>
<event>
 9    1  0.7719620E-005  0.1266144E+03  0.7546771E-02  0.1236619E+00
         21   -1    0    0  501  502  0.00000000000E+00  0.00000000000E+00  0.11545367740E+03  0.11545367740E+03  0.00000000000E+00 0. -1.
         -2   -1    0    0    0  501 -0.00000000000E+00 -0.00000000000E+00 -0.24812688908E+03  0.24812688908E+03  0.00000000000E+00 0.  1.
         23    2    1    2    0    0  0.79512524298E+02 -0.16634280435E+01 -0.14811447892E+03  0.19156158085E+03  0.91830996277E+02 0.  0.
        -24    2    1    2    0    0 -0.11194719970E+03 -0.80896742085E+01  0.43134970480E+01  0.13636848156E+03  0.77331353003E+02 0.  0.
         13    1    4    4    0    0 -0.87303720453E+02 -0.37798213694E+02 -0.89478406793E+01  0.95554740418E+02  0.00000000000E+00 0. -1.
        -14    1    4    4    0    0 -0.24643479242E+02  0.29708539486E+02  0.13261337727E+02  0.40813741140E+02  0.00000000000E+00 0.  1.
        -13    1    3    3    0    0  0.84912911486E+02  0.24291933746E+02 -0.13658398206E+03  0.16265142095E+03  0.00000000000E+00 0.  1.
         13    1    3    3    0    0 -0.54003871883E+01 -0.25955361789E+02 -0.11530496866E+02  0.28910159899E+02  0.00000000000E+00 0. -1.
         -1    1    1    2    0  502  0.32434675397E+02  0.97531022520E+01  0.11127770197E+02  0.35650504081E+02  0.00000000000E+00 0.  1.
<scales pt_clust_5="13000.00000" pt_clust_6="13000.00000" pt_clust_7="13000.00000" pt_clust_8="13000.00000" pt_clust_9="33.86932"></scales>
<clustering>
<clus scale="   33.869">  1  9  2 -1</clus>
<clus scale="   77.331">  5  6 -1 -1</clus>
<clus scale="   91.831">  7  8 -1 -1</clus>
<clus scale="  116.526">  1  5  2 -1</clus>
<clus scale="   33.869">  1  5  2 -1</clus>
</clustering>
</event>
<event>
 9    1  0.7719620E-005  0.1011223E+03  0.7546771E-02  0.1281169E+00
         -4   -1    0    0    0  501 -0.00000000000E+00  0.00000000000E+00  0.29275809225E+03  0.29275809225E+03  0.00000000000E+00 0.  1.
         21   -1    0    0  501  502  0.00000000000E+00 -0.00000000000E+00 -0.16651171386E+03  0.16651171386E+03  0.00000000000E+00 0.  1.
        -24    2    1    2    0    0  0.49693454171E+02 -0.24330936056E+00  0.16051297421E+03  0.18645289952E+03  0.80813181248E+02 0.  0.
         23    2    1    2    0    0 -0.47893456106E+02  0.28786792179E+02  0.94702940381E+02  0.14071425078E+03  0.87803137263E+02 0.  0.
         13    1    3    3    0    0  0.53689521882E+02 -0.22092821571E+02  0.59905244098E+02  0.83422393848E+02  0.00000000000E+00 0. -1.
        -14    1    3    3    0    0 -0.39960677114E+01  0.21849512211E+02  0.10060773011E+03  0.10303050568E+03  0.00000000000E+00 0.  1.
        -13    1    4    4    0    0 -0.50395399097E+02  0.55474890755E+02  0.55659390929E+02  0.93354847506E+02  0.00000000000E+00 0.  1.
         13    1    4    4    0    0  0.25019429907E+01 -0.26688098576E+02  0.39043549452E+02  0.47359403271E+02  0.00000000000E+00 0. -1.
         -3    1    1    2    0  502 -0.17999980649E+01 -0.28543482819E+02 -0.12896953620E+03  0.13210265581E+03  0.00000000000E+00 0.  1.
<scales pt_clust_5="13000.00000" pt_clust_6="13000.00000" pt_clust_7="13000.00000" pt_clust_8="13000.00000" pt_clust_9="28.60018"></scales>
<clustering>
<clus scale="   28.600">  2  9  1 -1</clus>
<clus scale="   80.813">  5  6 -1 -1</clus>
<clus scale="   87.803">  7  8 -1 -1</clus>
<clus scale="   95.116">  1  5  2 -1</clus>
<clus scale="   28.600">  2  5  1 -1</clus>
</clustering>
</event>
<event>
 9    1  0.7719620E-005  0.1521937E+03  0.7546771E-02  0.1200874E+00
          1   -1    0    0  502    0 -0.00000000000E+00  0.00000000000E+00  0.44144091957E+03  0.44144091957E+03  0.00000000000E+00 0. -1.
         21   -1    0    0  501  502  0.00000000000E+00 -0.00000000000E+00 -0.11719502152E+03  0.11719502152E+03  0.00000000000E+00 0. -1.
        -24    2    1    2    0    0 -0.94769056137E+02  0.83943883990E+02  0.28751393001E+03  0.32385287649E+03  0.78668138437E+02 0.  0.
         23    2    1    2    0    0  0.97257182698E+02 -0.11251094358E+02 -0.25574631050E+02  0.13900966156E+03  0.95310427253E+02 0.  0.
         11    1    3    3    0    0 -0.81966051320E+02  0.99186628581E+02  0.23950478222E+03  0.27188041777E+03  0.00000000000E+00 0. -1.
        -12    1    3    3    0    0 -0.12803004817E+02 -0.15242744592E+02  0.48009147786E+02  0.51972458728E+02  0.00000000000E+00 0.  1.
        -11    1    4    4    0    0  0.36705977972E+02 -0.32539284994E+02 -0.50271427562E+02  0.70237812579E+02  0.00000000000E+00 0. -1.
         11    1    4    4    0    0  0.60551204726E+02  0.21288190636E+02  0.24696796512E+02  0.68771848981E+02  0.00000000000E+00 0.  1.
          2    1    1    2  501    0 -0.24881265611E+01 -0.72692789632E+02  0.62306599098E+02  0.95773403038E+02  0.00000000000E+00 0. -1.
<scales pt_clust_5="13000.00000" pt_clust_6="13000.00000" pt_clust_7="13000.00000" pt_clust_8="13000.00000" pt_clust_9="72.73540"></scales>
<clustering>
<clus scale="   72.735">  2  9  1 -1</clus>
<clus scale="   78.668">  5  6 -1 -1</clus>
<clus scale="   95.310">  7  8 -1 -1</clus>
<clus scale="  142.364">  1  5  2 -1</clus>
<clus scale="   72.735">  2  5  1 -1</clus>
</clustering>
</event>
<event>
 9    1  0.7719620E-005  0.1248701E+03  0.7546771E-02  0.1246120E+00
         21   -1    0    0  501  502  0.00000000000E+00  0.00000000000E+00  0.72396183746E+02  0.72396183746E+02  0.00000000000E+00 0. -1.
         -2   -1    0    0    0  501 -0.00000000000E+00 -0.00000000000E+00 -0.42235789968E+03  0.42235789968E+03  0.00000000000E+00 0.  1.
        -24    2    1    2    0    0  0.34595767681E+02 -0.49664515234E+02 -0.53814166717E+02  0.11374105189E+03  0.79860072191E+02 0.  0.
         23    2    1    2    0    0 -0.28831741393E+02 -0.58521747007E+02 -0.23362636346E+03  0.25592750078E+03  0.81618280837E+02 0.  0.
         13    1    3    3    0    0  0.45930032487E+02 -0.31229617876E+02  0.21204077321E+00  0.55541893002E+02  0.00000000000E+00 0. -1.
        -14    1    3    3    0    0 -0.11334264806E+02 -0.18434897358E+02 -0.54026207491E+02  0.58199158887E+02  0.00000000000E+00 0.  1.
        -13    1    4    4    0    0 -0.11602507575E+02 -0.36675853047E+02 -0.22276218473E+03  0.22605912351E+03  0.00000000000E+00 0. -1.
         13    1    4    4    0    0 -0.17229233818E+02 -0.21845893959E+02 -0.10864178729E+02  0.29868377262E+02  0.00000000000E+00 0.  1.
         -1    1    1    2    0  502 -0.57640262885E+01  0.10818626224E+03 -0.62521185755E+02  0.12508553076E+03  0.00000000000E+00 0.  1.
<scales pt_clust_5="13000.00000" pt_clust_6="13000.00000" pt_clust_7="13000.00000" pt_clust_8="13000.00000" pt_clust_9="94.50402"></scales>
<clustering>
<clus scale="   79.860">  5  6 -1 -1</clus>
<clus scale="   81.618">  7  8 -1 -1</clus>
<clus scale="  100.205">  2  5  1 -1</clus>
<clus scale="   94.504">  1  9  2 -1</clus>
<clus scale="   94.504">  1  5  2 -1</clus>
</clustering>
</event>
<event>
 9    1  0.7719620E-005  0.9129111E+02  0.7546771E-02  0.1304475E+00
         21   -1    0    0  501  502  0.00000000000E+00  0.00000000000E+00  0.49144742310E+03  0.49144742310E+03  0.00000000000E+00 0. -1.
          1   -1    0    0  502    0 -0.00000000000E+00 -0.00000000000E+00 -0.10030623174E+03  0.10030623174E+03  0.00000000000E+00 0. -1.
        -24    2    1    2    0    0  0.27482510130E+02  0.12105644713E+02 -0.58018290189E+02  0.10331731468E+03  0.80040680402E+02 0.  0.
         23    2    1    2    0    0  0.57400320716E+02 -0.15096473767E+02  0.27230891481E+03  0.29224724009E+03  0.87940911501E+02 0.  0.
         13    1    3    3    0    0  0.50881400197E+02  0.36199165938E+01 -0.59512870174E+02  0.78382411283E+02  0.00000000000E+00 0. -1.
        -14    1    3    3    0    0 -0.23398890067E+02  0.84857281193E+01  0.14945799848E+01  0.24934903397E+02  0.00000000000E+00 0.  1.
        -11    1    4    4    0    0  0.79638560080E+02 -0.83262036430E+00  0.20759703089E+03  0.22234999605E+03  0.00000000000E+00 0. -1.
         11    1    4    4    0    0 -0.22238239364E+02 -0.14263853403E+02  0.64711883915E+02  0.69897244036E+02  0.00000000000E+00 0.  1.
          2    1    1    2  501    0 -0.84882830846E+02  0.29908290542E+01  0.17685056674E+03  0.19618910007E+03  0.00000000000E+00 0. -1.
<scales pt_clust_5="13000.00000" pt_clust_6="13000.00000" pt_clust_7="13000.00000" pt_clust_8="13000.00000" pt_clust_9="84.93551"></scales>
<clustering>
<clus scale="   80.041">  5  6 -1 -1</clus>
<clus scale="   84.936">  1  9  2 -1</clus>
<clus scale="   83.708">  2  5  1 -1</clus>
<clus scale="   87.941">  7  8 -1 -1</clus>
<clus scale="   84.936">  1  5  2 -1</clus>
</clustering>
</event>
<event>
 9    1  0.7719620E-005  0.3696282E+03  0.7546771E-02  0.1054989E+00
         21   -1    0    0  501  502  0.00000000000E+00  0.00000000000E+00  0.28590982554E+03  0.28590982554E+03  0.00000000000E+00 0.  1.
         -2   -1    0    0    0  501 -0.00000000000E+00 -0.00000000000E+00 -0.61310610992E+03  0.61310610992E+03  0.00000000000E+00 0.  1.
         23    2    1    2    0    0 -0.35067838670E+03 -0.12345717788E+03 -0.23261549798E+03  0.44724652431E+03  0.87763762086E+02 0.  0.
        -24    2    1    2    0    0  0.32631696098E+03  0.91294635615E+02  0.65332205887E+00  0.34834096437E+03  0.80768379394E+02 0.  0.
         13    1    4    4    0    0  0.11344144120E+03  0.29826215687E+02 -0.38256596387E+02  0.12337800003E+03  0.00000000000E+00 0. -1.
        -14    1    4    4    0    0  0.21287551978E+03  0.61468419928E+02  0.38909918446E+02  0.22496296434E+03  0.00000000000E+00 0.  1.
        -13    1    3    3    0    0 -0.19866291825E+02 -0.17582226907E+02 -0.45606701898E+02  0.52761496491E+02  0.00000000000E+00 0. -1.
         13    1    3    3    0    0 -0.33081209488E+03 -0.10587495098E+03 -0.18700879608E+03  0.39448502782E+03  0.00000000000E+00 0.  1.
         -1    1    1    2    0  502  0.24361425723E+02  0.32162542268E+02 -0.95234108467E+02  0.10342844678E+03  0.00000000000E+00 0.  1.
<scales pt_clust_5="13000.00000" pt_clust_6="13000.00000" pt_clust_7="13000.00000" pt_clust_8="13000.00000" pt_clust_9="40.34736"></scales>
<clustering>
<clus scale="   40.347">  1  9  2 -1</clus>
<clus scale="   80.768">  5  6 -1 -1</clus>
<clus scale="   87.764">  7  8 -1 -1</clus>
<clus scale="  368.030">  1  5  2 -1</clus>
<clus scale="   40.347">  1  5  2 -1</clus>
</clustering>
</event>
<event>
 9    1  0.7719620E-005  0.9872175E+02  0.7546771E-02  0.1288436E+00
         21   -1    0    0  501  502  0.00000000000E+00  0.00000000000E+00  0.11060285918E+03  0.11060285918E+03  0.00000000000E+00 0.  1.
          1   -1    0    0  502    0 -0.00000000000E+00 -0.00000000000E+00 -0.14333872973E+03  0.14333872973E+03  0.00000000000E+00 0. -1.
        -24    2    1    2    0    0 -0.17755918597E+01 -0.37643373579E+02 -0.49529259092E+02  0.10262584008E+03  0.81601098306E+02 0.  0.
         23    2    1    2    0    0  0.44635076841E+02  0.21031654229E+02  0.12854451497E+02  0.10518116422E+03  0.91995759789E+02 0.  0.
         11    1    3    3    0    0 -0.34548763492E+02 -0.10492407023E+02 -0.47967652772E+02  0.60038349215E+02  0.00000000000E+00 0. -1.
        -12    1    3    3    0    0  0.32773171632E+02 -0.27150966557E+02 -0.15616063202E+01  0.42587490864E+02  0.00000000000E+00 0.  1.
        -11    1    4    4    0    0  0.37614547958E+02 -0.30280826099E+02  0.21173685515E+02  0.52726725724E+02  0.00000000000E+00 0.  1.
         11    1    4    4    0    0  0.70205288831E+01  0.51312480328E+02 -0.83192340181E+01  0.52454438496E+02  0.00000000000E+00 0. -1.
          2    1    1    2  501    0 -0.42859484981E+02  0.16611719350E+02  0.39389370423E+01  0.46134584615E+02  0.00000000000E+00 0. -1.
<scales pt_clust_5="13000.00000" pt_clust_6="13000.00000" pt_clust_7="13000.00000" pt_clust_8="13000.00000" pt_clust_9="45.96613"></scales>
<clustering>
<clus scale="   45.966">  1  9  2 -1</clus>
<clus scale="   81.601">  5  6 -1 -1</clus>
<clus scale="   89.115">  2  5  1 -1</clus>
<clus scale="   91.996">  7  8 -1 -1</clus>
<clus scale="   45.966">  1  5  2 -1</clus>
</clustering>
</event>
<event>
 9    1  0.7719620E-005  0.1026903E+03  0.7546771E-02  0.1282947E+00
          1   -1    0    0  502    0 -0.00000000000E+00  0.00000000000E+00  0.17424035313E+03  0.17424035313E+03  0.00000000000E+00 0. -1.
         21   -1    0    0  501  502  0.00000000000E+00 -0.00000000000E+00 -0.32762081172E+03  0.32762081172E+03  0.00000000000E+00 0.  1.
         23    2    1    2    0    0  0.28926218682E+02 -0.25268776923E+02  0.13572294485E+03  0.17111914874E+03  0.96880380324E+02 0.  0.
        -24    2    1    2    0    0  0.38720325065E+02  0.20550027840E+02 -0.18246944772E+03  0.20437302471E+03  0.80942366272E+02 0.  0.
         13    1    4    4    0    0  0.21421456455E+02  0.36979256227E+02 -0.35722874729E+02  0.55699802214E+02  0.00000000000E+00 0. -1.
        -14    1    4    4    0    0  0.17298868609E+02 -0.16429228388E+02 -0.14674657299E+03  0.14867322249E+03  0.00000000000E+00 0.  1.
        -13    1    3    3    0    0  0.84411456951E+01  0.37058065436E+02  0.41137629145E+02  0.56007657388E+02  0.00000000000E+00 0.  1.
         13    1    3    3    0    0  0.20485072987E+02 -0.62326842359E+02  0.94585315708E+02  0.11511149135E+03  0.00000000000E+00 0. -1.
          2    1    1    2  501    0 -0.67646543747E+02  0.47187490833E+01 -0.10663395572E+03  0.12636899140E+03  0.00000000000E+00 0. -1.
<scales pt_clust_5="13000.00000" pt_clust_6="13000.00000" pt_clust_7="13000.00000" pt_clust_8="13000.00000" pt_clust_9="67.81092"></scales>
<clustering>
<clus scale="   67.811">  2  9  1 -1</clus>
<clus scale="   80.942">  5  6 -1 -1</clus>
<clus scale="   87.813">  2  5  1 -1</clus>
<clus scale="   96.880">  7  8 -1 -1</clus>
<clus scale="   67.811">  2  5  1 -1</clus>
</clustering>
</event>
<event>
 9    1  0.7719620E-005  0.1020419E+03  0.7546771E-02  0.1282401E+00
         21   -1    0    0  501  502  0.00000000000E+00  0.00000000000E+00  0.38714859306E+03  0.38714859306E+03  0.00000000000E+00 0. -1.
         -2   -1    0    0    0  501 -0.00000000000E+00 -0.00000000000E+00 -0.10157652624E+03  0.10157652624E+03  0.00000000000E+00 0.  1.
         23    2    1    2    0    0  0.14573631119E+02 -0.34304005695E+02 -0.40354364775E+02  0.10575563260E+03  0.90369372798E+02 0.  0.
        -24    2    1    2    0    0 -0.31657361404E+02  0.88868615426E+02  0.12685635081E+03  0.17585104826E+03  0.77014531711E+02 0.  0.
         13    1    4    4    0    0 -0.25041622660E+02  0.10231984142E+03  0.11900372176E+03  0.15892865886E+03  0.00000000000E+00 0. -1.
        -14    1    4    4    0    0 -0.66157387440E+01 -0.13451225998E+02  0.78526290497E+01  0.16922389399E+02  0.00000000000E+00 0.  1.
        -13    1    3    3    0    0 -0.11394178016E+02 -0.59984872744E+02 -0.28289724443E+02  0.67292798723E+02  0.00000000000E+00 0.  1.
         13    1    3    3    0    0  0.25967809135E+02  0.25680867049E+02 -0.12064640332E+02  0.38462833879E+02  0.00000000000E+00 0. -1.
         -1    1    1    2    0  502  0.17083730285E+02 -0.54564609731E+02  0.19907008078E+03  0.20711843843E+03  0.00000000000E+00 0.  1.
<scales pt_clust_5="13000.00000" pt_clust_6="13000.00000" pt_clust_7="13000.00000" pt_clust_8="13000.00000" pt_clust_9="57.17649"></scales>
<clustering>
<clus scale="   57.176">  1  9  2 -1</clus>
<clus scale="   77.015">  5  6 -1 -1</clus>
<clus scale="   90.369">  7  8 -1 -1</clus>
<clus scale="   90.428">  1  5  2 -1</clus>
<clus scale="   57.176">  1  5  2 -1</clus>
</clustering>
</event>
<event>
 9    1  0.7719620E-005  0.1397362E+03  0.7546771E-02  0.1216339E+00
          1   -1    0    0  502    0 -0.00000000000E+00  0.00000000000E+00  0.59100292974E+03  0.59100292974E+03  0.00000000000E+00 0. -1.
         21   -1    0    0  501  502  0.00000000000E+00 -0.00000000000E+00 -0.84024584589E+02  0.84024584589E+02  0.00000000000E+00 0. -1.
        -24    2    1    2    0    0 -0.44909339928E+02 -0.98207764246E+02  0.39097216271E+03  0.41341249629E+03  0.79931510085E+02 0.  0.
         23    2    1    2    0    0  0.72748300578E+02  0.73107467018E+02  0.15490210046E+03  0.20759719608E+03  0.92004989661E+02 0.  0.
         11    1    3    3    0    0 -0.63306159845E+02 -0.66373386722E+02  0.21684937066E+03  0.23545009216E+03  0.00000000000E+00 0. -1.
        -12    1    3    3    0    0  0.18396819917E+02 -0.31834377524E+02  0.17412279205E+03  0.17796240413E+03  0.00000000000E+00 0.  1.
        -13    1    4    4    0    0  0.32732729646E+02  0.86084709855E+02  0.12790398203E+03  0.15761166670E+03  0.00000000000E+00 0. -1.
         13    1    4    4    0    0  0.40015570932E+02 -0.12977242838E+02  0.26998118436E+02  0.49985529384E+02  0.00000000000E+00 0.  1.
          2    1    1    2  501    0 -0.27838960650E+02  0.25100297229E+02 -0.38895918017E+02  0.54017821961E+02  0.00000000000E+00 0. -1.
<scales pt_clust_5="13000.00000" pt_clust_6="13000.00000" pt_clust_7="13000.00000" pt_clust_8="13000.00000" pt_clust_9="37.48377"></scales>
<clustering>
<clus scale="   37.484">  2  9  1 -1</clus>
<clus scale="   79.932">  5  6 -1 -1</clus>
<clus scale="   92.005">  7  8 -1 -1</clus>
<clus scale="  132.100">  1  5  2 -1</clus>
<clus scale="   37.484">  2  5  1 -1</clus>
</clustering>
</event>
<event>
 9    1  0.7719620E-005  0.1134242E+03  0.7546771E-02  0.1258087E+00
         -2   -1    0    0    0  501 -0.00000000000E+00  0.00000000000E+00  0.21595577299E+03  0.21595577299E+03  0.00000000000E+00 0.  1.
         21   -1    0    0  501  502  0.00000000000E+00 -0.00000000000E+00 -0.14776931091E+03  0.14776931091E+03  0.00000000000E+00 0.  1.
        -24    2    1    2    0    0 -0.60840564644E+02  0.12468112767E+02  0.42690917240E+02  0.10995230075E+03  0.80062262547E+02 0.  0.
         23    2    1    2    0    0  0.65467516725E+02  0.69427915257E+02  0.81298019553E+02  0.15456449581E+03  0.90413407290E+02 0.  0.
         11    1    3    3    0    0 -0.35280235487E+02 -0.53714789162E+01 -0.19296080190E+02  0.40569526894E+02  0.00000000000E+00 0. -1.
        -12    1    3    3    0    0 -0.25560329158E+02  0.17839591683E+02  0.61986997430E+02  0.69382773860E+02  0.00000000000E+00 0.  1.
        -11    1    4    4    0    0 -0.16645837040E+02  0.20516560193E+02 -0.36777403425E+01  0.26674686633E+02  0.00000000000E+00 0. -1.
         11    1    4    4    0    0  0.82113353766E+02  0.48911355064E+02  0.84975759896E+02  0.12788980917E+03  0.00000000000E+00 0.  1.
         -1    1    1    2    0  502 -0.46269520808E+01 -0.81896028024E+02 -0.55802474716E+02  0.99208287336E+02  0.00000000000E+00 0.  1.
<scales pt_clust_5="13000.00000" pt_clust_6="13000.00000" pt_clust_7="13000.00000" pt_clust_8="13000.00000" pt_clust_9="82.02663"></scales>
<clustering>
<clus scale="   80.062">  5  6 -1 -1</clus>
<clus scale="   82.027">  2  9  1 -1</clus>
<clus scale="   90.413">  7  8 -1 -1</clus>
<clus scale="  105.359">  1  5  2 -1</clus>
<clus scale="   82.027">  2  5  1 -1</clus>
</clustering>
</event>
<event>
 9    1  0.7719620E-005  0.1143468E+03  0.7546771E-02  0.1256484E+00
         21   -1    0    0  501  502  0.00000000000E+00  0.00000000000E+00  0.12561990746E+04  0.12561990746E+04  0.00000000000E+00 0. -1.
         -4   -1    0    0    0  501 -0.00000000000E+00 -0.00000000000E+00 -0.19501906000E+02  0.19501906000E+02  0.00000000000E+00 0.  1.
         23    2    1    2    0    0 -0.47814586274E+02 -0.35958310753E+02  0.38682966257E+03  0.40230500224E+03  0.92913358598E+02 0.  0.
        -24    2    1    2    0    0  0.85808236123E+00  0.88652763918E+02  0.39759711888E+03  0.41565137518E+03  0.82598716039E+02 0.  0.
         11    1    4    4    0    0  0.18464047599E+02  0.80240269398E+02  0.38170919725E+03  0.39048858261E+03  0.00000000000E+00 0. -1.
        -12    1    4    4    0    0 -0.17605965238E+02  0.84124945197E+01  0.15887921633E+02  0.25162792568E+02  0.00000000000E+00 0.  1.
        -11    1    3    3    0    0  0.24253493586E+02 -0.28366064010E+02  0.11056125184E+03  0.11669042783E+03  0.00000000000E+00 0.  1.
         11    1    3    3    0    0 -0.72068079860E+02 -0.75922467432E+01  0.27626841073E+03  0.28561457441E+03  0.00000000000E+00 0. -1.
         -3    1    1    2    0  502  0.46956503913E+02 -0.52694453166E+02  0.45227038718E+03  0.45774460322E+03  0.00000000000E+00 0.  1.
<scales pt_clust_5="13000.00000" pt_clust_6="13000.00000" pt_clust_7="13000.00000" pt_clust_8="13000.00000" pt_clust_9="70.58058"></scales>
<clustering>
<clus scale="   70.581">  1  9  2 -1</clus>
<clus scale="   82.599">  5  6 -1 -1</clus>
<clus scale="   92.913">  7  8 -1 -1</clus>
<clus scale="  106.136">  1  5  2 -1</clus>
<clus scale="   70.581">  1  5  2 -1</clus>
</clustering>
</event>
<event>
 9    1  0.7719620E-005  0.9209077E+02  0.7546771E-02  0.1304269E+00
          1   -1    0    0  502    0 -0.00000000000E+00  0.00000000000E+00  0.17554625393E+03  0.17554625393E+03  0.00000000000E+00 0. -1.
         21   -1    0    0  501  502  0.00000000000E+00 -0.00000000000E+00 -0.74981099984E+02  0.74981099984E+02  0.00000000000E+00 0.  1.
        -24    2    1    2    0    0 -0.37807632494E+01 -0.22257735482E+02  0.42297594908E+02  0.93666115780E+02  0.80464611791E+02 0.  0.
         23    2    1    2    0    0 -0.20408331466E+02  0.18194716718E-01  0.37383121408E+01  0.93196897693E+02  0.90858056537E+02 0.  0.
         11    1    3    3    0    0 -0.77952154809E+01 -0.52437281070E+02  0.24508512310E+02  0.58404631717E+02  0.00000000000E+00 0. -1.
        -12    1    3    3    0    0  0.40144522315E+01  0.30179545588E+02  0.17789082598E+02  0.35261484062E+02  0.00000000000E+00 0.  1.
        -13    1    4    4    0    0  0.98226733860E+01  0.40997956233E+02  0.30468082682E+01  0.42268195707E+02  0.00000000000E+00 0.  1.
         13    1    4    4    0    0 -0.30231004853E+02 -0.40979761516E+02  0.69150387266E+00  0.50928701986E+02  0.00000000000E+00 0. -1.
          2    1    1    2  501    0  0.24189094716E+02  0.22239540766E+02  0.54529246899E+02  0.63664340443E+02  0.00000000000E+00 0. -1.
<scales pt_clust_5="13000.00000" pt_clust_6="13000.00000" pt_clust_7="13000.00000" pt_clust_8="13000.00000" pt_clust_9="32.85895"></scales>
<clustering>
<clus scale="   32.859">  2  9  1 -1</clus>
<clus scale="   80.465">  5  6 -1 -1</clus>
<clus scale="   81.854">  1  5  2 -1</clus>
<clus scale="   90.858">  7  8 -1 -1</clus>
<clus scale="   32.859">  2  5  1 -1</clus>
</clustering>
</event>
<event>
 9    1  0.7719620E-005  0.1504852E+03  0.7546771E-02  0.1213422E+00
         21   -1    0    0  501  502  0.00000000000E+00  0.00000000000E+00  0.20874713746E+03  0.20874713746E+03  0.00000000000E+00 0.  1.
          3   -1    0    0  502    0 -0.00000000000E+00 -0.00000000000E+00 -0.31654071871E+03  0.31654071871E+03  0.00000000000E+00 0. -1.
         23    2    1    2    0    0  0.52457084113E+02 -0.25438849741E+02 -0.51106597453E+02  0.12356907914E+03  0.96221371154E+02 0.  0.
        -24    2    1    2    0    0 -0.36115123221E+02 -0.10198359020E+03  0.11409430283E+03  0.18801387360E+03  0.10308613841E+03 0.  0.
         13    1    4    4    0    0 -0.18600753654E+02 -0.78775832697E+02  0.11958981835E+02  0.81820762036E+02  0.00000000000E+00 0. -1.
        -14    1    4    4    0    0 -0.17514369567E+02 -0.23207757503E+02  0.10213532099E+03  0.10619311156E+03  0.00000000000E+00 0.  1.
        -11    1    3    3    0    0  0.19291334100E+01 -0.26553697027E+02 -0.65761979579E+02  0.70946869837E+02  0.00000000000E+00 0. -1.
         11    1    3    3    0    0  0.50527950703E+02  0.11148472859E+01  0.14655382126E+02  0.52622209304E+02  0.00000000000E+00 0.  1.
          4    1    1    2  501    0 -0.16341960892E+02  0.12742243994E+03 -0.17078128662E+03  0.21370490342E+03  0.00000000000E+00 0. -1.
<scales pt_clust_5="13000.00000" pt_clust_6="13000.00000" pt_clust_7="13000.00000" pt_clust_8="13000.00000" pt_clust_9="109.63145"></scales>
<clustering>
<clus scale="   96.221">  7  8 -1 -1</clus>
<clus scale="  103.086">  5  6 -1 -1</clus>
<clus scale="  112.505">  2  7  1 -1</clus>
<clus scale="  109.631">  1  9  2 -1</clus>
<clus scale="  109.631">  1  5  2 -1</clus>
</clustering>
</event>
<event>
 9    1  0.7719620E-005  0.9684517E+02  0.7546771E-02  0.1291755E+00
          1   -1    0    0  502    0 -0.00000000000E+00  0.00000000000E+00  0.41397457220E+03  0.41397457220E+03  0.00000000000E+00 0. -1.
         21   -1    0    0  501  502  0.00000000000E+00 -0.00000000000E+00 -0.14749217406E+03  0.14749217406E+03  0.00000000000E+00 0.  1.
         23    2    1    2    0    0  0.29102216320E+02  0.21672773482E+02  0.38598572359E+03  0.39798541238E+03  0.89948660620E+02 0.  0.
        -24    2    1    2    0    0 -0.11207268023E+02 -0.33277004098E+02 -0.83289680277E+02  0.12145377817E+03  0.81122669661E+02 0.  0.
         11    1    4    4    0    0 -0.26476575352E+02  0.15683160015E+02 -0.54635984929E+02  0.62706151211E+02  0.00000000000E+00 0. -1.
        -12    1    4    4    0    0  0.15269307329E+02 -0.48960164114E+02 -0.28653695347E+02  0.58747626960E+02  0.00000000000E+00 0.  1.
        -11    1    3    3    0    0  0.33103988857E+02  0.54436388545E+02  0.23976711783E+03  0.24808761611E+03  0.00000000000E+00 0. -1.
         11    1    3    3    0    0 -0.40017725369E+01 -0.32763615064E+02  0.14621860576E+03  0.14989779627E+03  0.00000000000E+00 0.  1.
          2    1    1    2  501    0 -0.17894948297E+02  0.11604230617E+02 -0.36213645174E+02  0.42027555717E+02  0.00000000000E+00 0. -1.
<scales pt_clust_5="13000.00000" pt_clust_6="13000.00000" pt_clust_7="13000.00000" pt_clust_8="13000.00000" pt_clust_9="21.32809"></scales>
<clustering>
<clus scale="   21.328">  2  9  1 -1</clus>
<clus scale="   81.123">  5  6 -1 -1</clus>
<clus scale="   88.708">  2  5  1 -1</clus>
<clus scale="   89.949">  7  8 -1 -1</clus>
<clus scale="   21.328">  2  5  1 -1</clus>
</clustering>
</event>
<event>
 9    1  0.7719620E-005  0.1106579E+03  0.7546771E-02  0.1265230E+00
          1   -1    0    0  502    0 -0.00000000000E+00  0.00000000000E+00  0.31052240840E+03  0.31052240840E+03  0.00000000000E+00 0. -1.
         21   -1    0    0  501  502  0.00000000000E+00 -0.00000000000E+00 -0.17997207513E+03  0.17997207513E+03  0.00000000000E+00 0.  1.
         23    2    1    2    0    0  0.42638309094E+02  0.45975555012E+02  0.27607999012E+03  0.29798247510E+03  0.92960300477E+02 0.  0.
        -24    2    1    2    0    0 -0.18920199162E+02 -0.17982784857E+02 -0.12690642797E+03  0.15136630909E+03  0.78263424279E+02 0.  0.
         11    1    4    4    0    0 -0.74173140485E+01 -0.30621017884E+02 -0.97653096130E+01  0.32985217231E+02  0.00000000000E+00 0. -1.
        -12    1    4    4    0    0 -0.11502885113E+02  0.12638233026E+02 -0.11714111835E+03  0.11838109186E+03  0.00000000000E+00 0.  1.
        -11    1    3    3    0    0  0.31190160016E+02 -0.24505410015E+02  0.79724462499E+02  0.89046791759E+02  0.00000000000E+00 0. -1.
         11    1    3    3    0    0  0.11448149078E+02  0.70480965027E+02  0.19635552762E+03  0.20893568335E+03  0.00000000000E+00 0.  1.
          2    1    1    2  501    0 -0.23718109932E+02 -0.27992770155E+02 -0.18623228890E+02  0.41145699338E+02  0.00000000000E+00 0. -1.
<scales pt_clust_5="13000.00000" pt_clust_6="13000.00000" pt_clust_7="13000.00000" pt_clust_8="13000.00000" pt_clust_9="36.68983"></scales>
<clustering>
<clus scale="   36.690">  2  9  1 -1</clus>
<clus scale="   78.263">  5  6 -1 -1</clus>
<clus scale="   92.960">  7  8 -1 -1</clus>
<clus scale="   98.634">  2  5  1 -1</clus>
<clus scale="   36.690">  2  5  1 -1</clus>
</clustering>
</event>
<event>
 9    1  0.7719620E-005  0.1187992E+03  0.7546771E-02  0.1245798E+00
         -4   -1    0    0    0  501 -0.00000000000E+00  0.00000000000E+00  0.44930880062E+03  0.44930880062E+03  0.00000000000E+00 0.  1.
         21   -1    0    0  501  502  0.00000000000E+00 -0.00000000000E+00 -0.24012123555E+03  0.24012123555E+03  0.00000000000E+00 0.  1.
        -24    2    1    2    0    0  0.82878777910E+02 -0.22844292858E+02  0.37410573730E+03  0.39251921585E+03  0.82009015260E+02 0.  0.
         23    2    1    2    0    0 -0.77511254186E+02 -0.26767428055E+02  0.70191592965E+01  0.11787847929E+03  0.84389439810E+02 0.  0.
         11    1    3    3    0    0 -0.14237794008E+02 -0.16048931087E+02  0.66399731170E+02  0.69779705264E+02  0.00000000000E+00 0. -1.
        -12    1    3    3    0    0  0.97116571918E+02 -0.67953617707E+01  0.30770600613E+03  0.32273951059E+03  0.00000000000E+00 0.  1.
        -11    1    4    4    0    0 -0.98576911042E+01  0.25069668086E+02 -0.13619899025E+02  0.30185492895E+02  0.00000000000E+00 0. -1.
         11    1    4    4    0    0 -0.67653563082E+02 -0.51837096140E+02  0.20639058322E+02  0.87692986392E+02  0.00000000000E+00 0.  1.
         -3    1    1    2    0  502 -0.53675237240E+01  0.49611720912E+02 -0.17193733153E+03  0.17903234103E+03  0.00000000000E+00 0.  1.
<scales pt_clust_5="13000.00000" pt_clust_6="13000.00000" pt_clust_7="13000.00000" pt_clust_8="13000.00000" pt_clust_9="49.90123"></scales>
<clustering>
<clus scale="   49.901">  2  9  1 -1</clus>
<clus scale="   82.009">  5  6 -1 -1</clus>
<clus scale="   84.389">  7  8 -1 -1</clus>
<clus scale="  117.120">  1  5  2 -1</clus>
<clus scale="   49.901">  2  5  1 -1</clus>
</clustering>
</event>
<event>
 9    1  0.7719620E-005  0.9105644E+02  0.7546771E-02  0.1306941E+00
         21   -1    0    0  501  502  0.00000000000E+00  0.00000000000E+00  0.16041301916E+03  0.16041301916E+03  0.00000000000E+00 0. -1.
          3   -1    0    0  502    0 -0.00000000000E+00 -0.00000000000E+00 -0.22748561582E+03  0.22748561582E+03  0.00000000000E+00 0. -1.
        -24    2    1    2    0    0 -0.45596445865E+01  0.10662269283E+02 -0.12738023060E+03  0.15066932839E+03  0.79630704033E+02 0.  0.
         23    2    1    2    0    0  0.61547672458E+02  0.11744991204E+02  0.11218379010E+03  0.15697436144E+03  0.90164774642E+02 0.  0.
         13    1    3    3    0    0 -0.71733359048E+01  0.43277744466E+02 -0.94982320968E+02  0.10462342572E+03  0.00000000000E+00 0. -1.
        -14    1    3    3    0    0  0.26136913183E+01 -0.32615475183E+02 -0.32397909633E+02  0.46045902666E+02  0.00000000000E+00 0.  1.
        -13    1    4    4    0    0  0.14957602122E+02 -0.19271179948E+02 -0.69351235368E+01  0.25361470311E+02  0.00000000000E+00 0.  1.
         13    1    4    4    0    0  0.46590070336E+02  0.31016171152E+02  0.11911891363E+03  0.13161289113E+03  0.00000000000E+00 0. -1.
          4    1    1    2  501    0 -0.56988027871E+02 -0.22407260487E+02 -0.51876156151E+02  0.80254945145E+02  0.00000000000E+00 0. -1.
<scales pt_clust_5="13000.00000" pt_clust_6="13000.00000" pt_clust_7="13000.00000" pt_clust_8="13000.00000" pt_clust_9="61.23499"></scales>
<clustering>
<clus scale="   61.235">  1  9  2 -1</clus>
<clus scale="   79.631">  5  6 -1 -1</clus>
<clus scale="   80.639">  2  5  1 -1</clus>
<clus scale="   90.165">  7  8 -1 -1</clus>
<clus scale="   61.235">  1  5  2 -1</clus>
</clustering>
</event>
<event>
 9    1  0.7719620E-005  0.1402979E+03  0.7546771E-02  0.1230300E+00
          1   -1    0    0  502    0 -0.00000000000E+00  0.00000000000E+00  0.18761169946E+03  0.18761169946E+03  0.00000000000E+00 0. -1.
         21   -1    0    0  501  502  0.00000000000E+00 -0.00000000000E+00 -0.18639454081E+03  0.18639454081E+03  0.00000000000E+00 0. -1.
         23    2    1    2    0    0 -0.22998307792E+02  0.20911693423E+02  0.52249562952E+02  0.11063009603E+03  0.92427161791E+02 0.  0.
        -24    2    1    2    0    0  0.96705201068E+02  0.66268615149E+02 -0.43816721100E+02  0.14898567959E+03  0.80829464968E+02 0.  0.
         11    1    4    4    0    0  0.48529174991E+02  0.68795058098E+02 -0.56150474739E+00  0.84191187968E+02  0.00000000000E+00 0. -1.
        -12    1    4    4    0    0  0.48176026078E+02 -0.25264429485E+01 -0.43255216353E+02  0.64794491620E+02  0.00000000000E+00 0.  1.
        -11    1    3    3    0    0  0.21877465237E+01 -0.33091557341E+02  0.35828295965E+02  0.48821144946E+02  0.00000000000E+00 0.  1.
         11    1    3    3    0    0 -0.25186054316E+02  0.54003250765E+02  0.16421266987E+02  0.61808951088E+02  0.00000000000E+00 0. -1.
          2    1    1    2  501    0 -0.73706893276E+02 -0.87180308573E+02 -0.72156831992E+01  0.11439046465E+03  0.00000000000E+00 0. -1.
<scales pt_clust_5="13000.00000" pt_clust_6="13000.00000" pt_clust_7="13000.00000" pt_clust_8="13000.00000" pt_clust_9="114.67390"></scales>
<clustering>
<clus scale="   80.829">  5  6 -1 -1</clus>
<clus scale="   92.427">  7  8 -1 -1</clus>
<clus scale="   97.514">  1  7  2 -1</clus>
<clus scale="  114.674">  2  9  1 -1</clus>
<clus scale="  114.674">  2  5  1 -1</clus>
</clustering>
</event>
<event>
 9    1  0.7719620E-005  0.1310117E+03  0.7546771E-02  0.1240616E+00
         21   -1    0    0  501  502  0.00000000000E+00  0.00000000000E+00  0.61211109516E+02  0.61211109516E+02  0.00000000000E+00 0.  1.
          1   -1    0    0  502    0 -0.00000000000E+00 -0.00000000000E+00 -0.86039658313E+03  0.86039658313E+03  0.00000000000E+00 0. -1.
         23    2    1    2    0    0 -0.31639767389E+02 -0.93852178345E+01 -0.17537093831E+03  0.20039204031E+03  0.91174813518E+02 0.  0.
        -24    2    1    2    0    0 -0.26530100535E+02  0.10019313550E+03 -0.54734441144E+02  0.14200760249E+03  0.80173496120E+02 0.  0.
         13    1    4    4    0    0  0.97412305321E+01  0.61566706900E+02 -0.62715797280E+02  0.88422973255E+02  0.00000000000E+00 0. -1.
        -14    1    4    4    0    0 -0.36271331067E+02  0.38626428605E+02  0.79813561360E+01  0.53584629232E+02  0.00000000000E+00 0.  1.
        -11    1    3    3    0    0 -0.60094129218E+02  0.65382048442E+00 -0.14767259645E+03  0.15943314458E+03  0.00000000000E+00 0. -1.
         11    1    3    3    0    0  0.28454361830E+02 -0.10039038319E+02 -0.27698341862E+02  0.40958895730E+02  0.00000000000E+00 0.  1.
          2    1    1    2  501    0  0.58169867924E+02 -0.90807917670E+02 -0.56908009416E+03  0.57920804985E+03  0.00000000000E+00 0. -1.
<scales pt_clust_5="13000.00000" pt_clust_6="13000.00000" pt_clust_7="13000.00000" pt_clust_8="13000.00000" pt_clust_9="103.61611"></scales>
<clustering>
<clus scale="   80.173">  5  6 -1 -1</clus>
<clus scale="   91.175">  7  8 -1 -1</clus>
<clus scale="   96.964">  2  7  1 -1</clus>
<clus scale="  103.616">  1  9  2 -1</clus>
<clus scale="  103.616">  1  5  2 -1</clus>
</clustering>
</event>
<event>
 9    1  0.7719620E-005  0.1053727E+03  0.7546771E-02  0.1272771E+00
         21   -1    0    0  501  502  0.00000000000E+00  0.00000000000E+00  0.73473323303E+02  0.73473323303E+02  0.00000000000E+00 0.  1.
          1   -1    0    0  502    0 -0.00000000000E+00 -0.00000000000E+00 -0.44846923422E+03  0.44846923422E+03  0.00000000000E+00 0. -1.
        -24    2    1    2    0    0  0.39971530734E+02 -0.41987229288E+02 -0.37462188155E+03  0.38740787788E+03  0.79891545304E+02 0.  0.
         23    2    1    2    0    0 -0.21963674294E+02  0.58340960044E+02 -0.10162195087E+02  0.10831377975E+03  0.87991670445E+02 0.  0.
         11    1    3    3    0    0  0.10194419242E+02 -0.61974274029E+02 -0.23324966639E+03  0.24155774402E+03  0.00000000000E+00 0. -1.
        -12    1    3    3    0    0  0.29777111491E+02  0.19987044741E+02 -0.14137221516E+03  0.14585013386E+03  0.00000000000E+00 0.  1.
        -11    1    4    4    0    0 -0.33190927626E+02  0.41637789777E+02 -0.43911932248E+02  0.69018845310E+02  0.00000000000E+00 0. -1.
         11    1    4    4    0    0  0.11227253332E+02  0.16703170267E+02  0.33749737161E+02  0.39294934442E+02  0.00000000000E+00 0.  1.
          2    1    1    2  501    0 -0.18007856439E+02 -0.16353730756E+02  0.97881657202E+01  0.26220899896E+02  0.00000000000E+00 0. -1.
<scales pt_clust_5="13000.00000" pt_clust_6="13000.00000" pt_clust_7="13000.00000" pt_clust_8="13000.00000" pt_clust_9="24.32545"></scales>
<clustering>
<clus scale="   24.325">  1  9  2 -1</clus>
<clus scale="   79.892">  5  6 -1 -1</clus>
<clus scale="   87.992">  7  8 -1 -1</clus>
<clus scale="   98.709">  2  5  1 -1</clus>
<clus scale="   24.325">  1  5  2 -1</clus>
</clustering>
</event>
<event>
 9    1  0.7719620E-005  0.1509141E+03  0.7546771E-02  0.1224964E+00
         21   -1    0    0  501  502  0.00000000000E+00  0.00000000000E+00  0.18093470794E+03  0.18093470794E+03  0.00000000000E+00 0. -1.
          1   -1    0    0  502    0 -0.00000000000E+00 -0.00000000000E+00 -0.22997682488E+03  0.22997682488E+03  0.00000000000E+00 0. -1.
        -24    2    1    2    0    0  0.49852462455E+01 -0.32278171258E+02  0.72668853735E+02  0.11375059551E+03  0.81189301364E+02 0.  0.
         23    2    1    2    0    0 -0.42662876078E+02  0.12479595909E+03 -0.40648965023E+02  0.16851338149E+03  0.96696788898E+02 0.  0.
         11    1    3    3    0    0 -0.96592372077E+01 -0.56105132726E+02  0.61020880830E+02  0.83454386817E+02  0.00000000000E+00 0. -1.
        -12    1    3    3    0    0  0.14644483453E+02  0.23826961468E+02  0.11647972905E+02  0.30296208694E+02  0.00000000000E+00 0.  1.
        -11    1    4    4    0    0  0.22774412361E+01  0.11786968743E+03 -0.25825421514E+02  0.12068720872E+03  0.00000000000E+00 0. -1.
         11    1    4    4    0    0 -0.44940317314E+02  0.69262716637E+01 -0.14823543509E+02  0.47826172768E+02  0.00000000000E+00 0.  1.
          2    1    1    2  501    0  0.37677629833E+02 -0.92517787835E+02 -0.81062005657E+02  0.12864755581E+03  0.00000000000E+00 0. -1.
<scales pt_clust_5="13000.00000" pt_clust_6="13000.00000" pt_clust_7="13000.00000" pt_clust_8="13000.00000" pt_clust_9="115.86554"></scales>
<clustering>
<clus scale="   81.189">  5  6 -1 -1</clus>
<clus scale="   87.513">  2  5  1 -1</clus>
<clus scale="   96.697">  7  8 -1 -1</clus>
<clus scale="  115.866">  1  9  2 -1</clus>
<clus scale="  115.866">  1  5  2 -1</clus>
</clustering>
</event>
<event>
 9    1  0.7719620E-005  0.1379531E+03  0.7546771E-02  0.1225883E+00
         21   -1    0    0  501  502  0.00000000000E+00  0.00000000000E+00  0.26379239427E+03  0.26379239427E+03  0.00000000000E+00 0.  1.
          1   -1    0    0  502    0 -0.00000000000E+00 -0.00000000000E+00 -0.19379114285E+03  0.19379114285E+03  0.00000000000E+00 0. -1.
         23    2    1    2    0    0 -0.47098189352E+02 -0.44330520460E+02 -0.70986645107E+02  0.13293754340E+03  0.91923077500E+02 0.  0.
        -24    2    1    2    0    0 -0.62703024032E+01 -0.99364906054E+02  0.11275293562E+03  0.16878135845E+03  0.76558612973E+02 0.  0.
         11    1    4    4    0    0 -0.19369207890E+02 -0.67734013468E+02  0.25280273851E+02  0.74847545321E+02  0.00000000000E+00 0. -1.
        -12    1    4    4    0    0  0.13098905486E+02 -0.31630892586E+02  0.87472661774E+02  0.93933813127E+02  0.00000000000E+00 0.  1.
        -11    1    3    3    0    0  0.13826948937E+02  0.19634079434E+02 -0.13610957176E+02  0.27603256101E+02  0.00000000000E+00 0.  1.
         11    1    3    3    0    0 -0.60925138289E+02 -0.63964599894E+02 -0.57375687931E+02  0.10533428730E+03  0.00000000000E+00 0. -1.
          2    1    1    2  501    0  0.53368491755E+02  0.14369542651E+03  0.28234960903E+02  0.15586463528E+03  0.00000000000E+00 0. -1.
<scales pt_clust_5="13000.00000" pt_clust_6="13000.00000" pt_clust_7="13000.00000" pt_clust_8="13000.00000" pt_clust_9="114.75991"></scales>
<clustering>
<clus scale="   76.559">  5  6 -1 -1</clus>
<clus scale="   91.923">  7  8 -1 -1</clus>
<clus scale="  112.398">  2  7  1 -1</clus>
<clus scale="  114.760">  1  9  2 -1</clus>
<clus scale="  114.760">  1  5  2 -1</clus>
</clustering>
</event>
<event>
 9    1  0.7719620E-005  0.1092260E+03  0.7546771E-02  0.1262938E+00
         21   -1    0    0  501  502  0.00000000000E+00  0.00000000000E+00  0.17357834494E+03  0.17357834494E+03  0.00000000000E+00 0. -1.
          1   -1    0    0  502    0 -0.00000000000E+00 -0.00000000000E+00 -0.22519224385E+03  0.22519224385E+03  0.00000000000E+00 0. -1.
         23    2    1    2    0    0  0.67149787083E+02 -0.20127188232E+02 -0.11448928825E+03  0.16257635348E+03  0.91701014038E+02 0.  0.
        -24    2    1    2    0    0 -0.25884460032E+02 -0.82079518240E+02  0.32576340813E+02  0.12188294800E+03  0.79919850141E+02 0.  0.
         13    1    4    4    0    0 -0.18499170698E+02 -0.89292880551E+02  0.48209751991E+02  0.10314852408E+03  0.00000000000E+00 0. -1.
        -14    1    4    4    0    0 -0.73852893339E+01  0.72133623114E+01 -0.15633411178E+02  0.18734423915E+02  0.00000000000E+00 0.  1.
        -13    1    3    3    0    0  0.21117726908E+02 -0.22836513090E+02  0.76427702974E+01  0.32029309354E+02  0.00000000000E+00 0.  1.
         13    1    3    3    0    0  0.46032060175E+02  0.27093248573E+01 -0.12213205855E+03  0.13054704413E+03  0.00000000000E+00 0. -1.
          2    1    1    2  501    0 -0.41265327051E+02  0.10220670647E+03  0.30299048521E+02  0.11431128731E+03  0.00000000000E+00 0. -1.
<scales pt_clust_5="13000.00000" pt_clust_6="13000.00000" pt_clust_7="13000.00000" pt_clust_8="13000.00000" pt_clust_9="110.22267"></scales>
<clustering>
<clus scale="   79.920">  5  6 -1 -1</clus>
<clus scale="   91.701">  7  8 -1 -1</clus>
<clus scale="  110.223">  1  9  2 -1</clus>
<clus scale="  110.223">  1  5  2 -1</clus>
<clus scale="  109.226">  1  5  2 -1</clus>
</clustering>
</event>
<event>
 9    1  0.7719620E-005  0.1961203E+03  0.7546771E-02  0.1179558E+00
         21   -1    0    0  501  502  0.00000000000E+00  0.00000000000E+00  0.42616114107E+02  0.42616114107E+02  0.00000000000E+00 0. -1.
          1   -1    0    0  502    0 -0.00000000000E+00 -0.00000000000E+00 -0.14356116444E+04  0.14356116444E+04  0.00000000000E+00 0. -1.
         23    2    1    2    0    0 -0.42914118166E+02  0.23159084548E+02 -0.19012687815E+03  0.21794035378E+03  0.94719603433E+02 0.  0.
        -24    2    1    2    0    0 -0.38021076863E+02 -0.17703947678E+03 -0.68956181828E+03  0.71833391356E+03  0.87860864478E+02 0.  0.
         13    1    4    4    0    0 -0.44396196514E+02 -0.14455353836E+03 -0.64687163239E+03  0.66431141531E+03  0.00000000000E+00 0. -1.
        -14    1    4    4    0    0  0.63751196514E+01 -0.32485938416E+02 -0.42690185893E+02  0.54022498248E+02  0.00000000000E+00 0.  1.
        -11    1    3    3    0    0 -0.15960466722E+02  0.39736722465E+02 -0.24536599988E+02  0.49353706540E+02  0.00000000000E+00 0. -1.
         11    1    3    3    0    0 -0.26953651444E+02 -0.16577637917E+02 -0.16559027816E+03  0.16858664724E+03  0.00000000000E+00 0.  1.
          2    1    1    2  501    0  0.80935195029E+02  0.15388039223E+03 -0.51330683384E+03  0.54195349115E+03  0.00000000000E+00 0. -1.
<scales pt_clust_5="13000.00000" pt_clust_6="13000.00000" pt_clust_7="13000.00000" pt_clust_8="13000.00000" pt_clust_9="175.33868"></scales>
<clustering>
<clus scale="   87.861">  5  6 -1 -1</clus>
<clus scale="   94.720">  7  8 -1 -1</clus>
<clus scale="  106.535">  2  7  1 -1</clus>
<clus scale="  175.339">  1  9  2 -1</clus>
<clus scale="  175.339">  1  5  2 -1</clus>
</clustering>
</event>
<event>
 9    1  0.7719620E-005  0.1402135E+03  0.7546771E-02  0.1214923E+00
         21   -1    0    0  501  502  0.00000000000E+00  0.00000000000E+00  0.16614955129E+03  0.16614955129E+03  0.00000000000E+00 0. -1.
          1   -1    0    0  502    0 -0.00000000000E+00 -0.00000000000E+00 -0.27725085801E+03  0.27725085801E+03  0.00000000000E+00 0. -1.
        -24    2    1    2    0    0 -0.42171287554E+02  0.88916505703E+02 -0.16477181929E+03  0.20918920342E+03  0.83221439034E+02 0.  0.
         23    2    1    2    0    0  0.59470974270E+02 -0.11694873805E+03 -0.12149445626E+02  0.16060854215E+03  0.91835127647E+02 0.  0.
         13    1    3    3    0    0 -0.41586836856E+02  0.99078729158E+02 -0.16717549621E+03  0.19873023450E+03  0.00000000000E+00 0. -1.
        -14    1    3    3    0    0 -0.58445069777E+00 -0.10162223456E+02  0.24036769178E+01  0.10458968922E+02  0.00000000000E+00 0.  1.
        -11    1    4    4    0    0  0.53755959329E+02 -0.62764341447E+02 -0.47828389674E+02  0.95480995907E+02  0.00000000000E+00 0. -1.
         11    1    4    4    0    0  0.57150149409E+01 -0.54184396607E+02  0.35678944048E+02  0.65127546244E+02  0.00000000000E+00 0.  1.
          2    1    1    2  501    0 -0.17299686716E+02  0.28032232351E+02  0.65819958197E+02  0.73602663729E+02  0.00000000000E+00 0. -1.
<scales pt_clust_5="13000.00000" pt_clust_6="13000.00000" pt_clust_7="13000.00000" pt_clust_8="13000.00000" pt_clust_9="32.94063"></scales>
<clustering>
<clus scale="   32.941">  1  9  2 -1</clus>
<clus scale="   83.221">  5  6 -1 -1</clus>
<clus scale="   91.835">  7  8 -1 -1</clus>
<clus scale="  134.729">  2  5  1 -1</clus>
<clus scale="   32.941">  1  5  2 -1</clus>
</clustering>
</event>
<event>
 9    1  0.7719620E-005  0.3239725E+03  0.7546771E-02  0.1073850E+00
          1   -1    0    0  502    0 -0.00000000000E+00  0.00000000000E+00  0.11635475068E+04  0.11635475068E+04  0.00000000000E+00 0. -1.
         21   -1    0    0  501  502  0.00000000000E+00 -0.00000000000E+00 -0.38869241710E+03  0.38869241710E+03  0.00000000000E+00 0. -1.
         23    2    1    2    0    0  0.21425222128E+03 -0.22123129369E+03  0.50437442515E+03  0.59776440661E+03  0.89896748733E+02 0.  0.
        -24    2    1    2    0    0 -0.35089193150E+03  0.51148320652E+02  0.51179401345E+03  0.62915911667E+03  0.90370258343E+02 0.  0.
         11    1    4    4    0    0 -0.27414832255E+03  0.42764550580E+02  0.32678609850E+03  0.42869017217E+03  0.00000000000E+00 0. -1.
        -12    1    4    4    0    0 -0.76743608943E+02  0.83837700719E+01  0.18500791495E+03  0.20046894450E+03  0.00000000000E+00 0.  1.
        -13    1    3    3    0    0  0.74954513236E+02 -0.25794443567E+02  0.10099974042E+03  0.12839189981E+03  0.00000000000E+00 0.  1.
         13    1    3    3    0    0  0.13929770804E+03 -0.19543685013E+03  0.40337468474E+03  0.46937250680E+03  0.00000000000E+00 0. -1.
          2    1    1    2  501    0  0.13663971022E+03  0.17008297304E+03 -0.24131334892E+03  0.32531640060E+03  0.00000000000E+00 0. -1.
<scales pt_clust_5="13000.00000" pt_clust_6="13000.00000" pt_clust_7="13000.00000" pt_clust_8="13000.00000" pt_clust_9="218.17110"></scales>
<clustering>
<clus scale="   89.897">  7  8 -1 -1</clus>
<clus scale="   90.370">  5  6 -1 -1</clus>
<clus scale="  218.171">  2  9  1 -1</clus>
<clus scale="  323.841">  1  7  2 -1</clus>
<clus scale="  218.171">  2  5  1 -1</clus>
</clustering>
</event>
<event>
 9    1  0.7719620E-005  0.2186787E+03  0.7546771E-02  0.1135774E+00
         21   -1    0    0  501  502  0.00000000000E+00  0.00000000000E+00  0.20799292501E+03  0.20799292501E+03  0.00000000000E+00 0. -1.
          1   -1    0    0  502    0 -0.00000000000E+00 -0.00000000000E+00 -0.61326540413E+03  0.61326540413E+03  0.00000000000E+00 0. -1.
        -24    2    1    2    0    0 -0.57468009800E+02 -0.17977547918E+03 -0.25386808840E+03  0.32654552932E+03  0.81001119395E+02 0.  0.
         23    2    1    2    0    0  0.58363061887E+02  0.19998172175E+03 -0.28193099714E+03  0.36262840127E+03  0.92818824787E+02 0.  0.
         13    1    3    3    0    0 -0.48178888841E+02 -0.93559371282E+02 -0.19547532085E+03  0.22200261788E+03  0.00000000000E+00 0. -1.
        -14    1    3    3    0    0 -0.92891209594E+01 -0.86216107896E+02 -0.58392767552E+02  0.10454291144E+03  0.00000000000E+00 0.  1.
        -13    1    4    4    0    0  0.49689277666E+02  0.35991595829E+02 -0.54223151319E+02  0.81881435162E+02  0.00000000000E+00 0.  1.
         13    1    4    4    0    0  0.86737842214E+01  0.16399012592E+03 -0.22770784582E+03  0.28074696611E+03  0.00000000000E+00 0. -1.
          2    1    1    2  501    0 -0.89505208690E+00 -0.20206242568E+02  0.13052660642E+03  0.13208439855E+03  0.00000000000E+00 0. -1.
<scales pt_clust_5="13000.00000" pt_clust_6="13000.00000" pt_clust_7="13000.00000" pt_clust_8="13000.00000" pt_clust_9="20.22606"></scales>
<clustering>
<clus scale="   20.226">  1  9  2 -1</clus>
<clus scale="   81.001">  5  6 -1 -1</clus>
<clus scale="   92.819">  7  8 -1 -1</clus>
<clus scale="  213.930">  2  5  1 -1</clus>
<clus scale="   20.226">  1  5  2 -1</clus>
</clustering>
</event>
<event>
 9    1  0.9190746E-005  0.1038749E+03  0.7546771E-02  0.1276874E+00
         21   -1    0    0  501  502  0.00000000000E+00  0.00000000000E+00  0.77283774841E+02  0.77283774841E+02  0.00000000000E+00 0. -1.
          3   -1    0    0  502    0 -0.00000000000E+00 -0.00000000000E+00 -0.46492972470E+03  0.46492972470E+03  0.00000000000E+00 0. -1.
        -24    2    1    2    0    0  0.49059841261E+02  0.33352279667E+02 -0.29189699253E+03  0.30858980603E+03  0.80650924093E+02 0.  0.
         23    2    1    2    0    0 -0.10541061625E+02  0.33119281316E+02  0.15580067126E+02  0.98359816250E+02  0.90685799253E+02 0.  0.
         11    1    3    3    0    0  0.46832209845E+02  0.52288603680E+02 -0.27248004740E+03  0.28137649189E+03  0.00000000000E+00 0. -1.
        -12    1    3    3    0    0  0.22276314160E+01 -0.18936324012E+02 -0.19416945124E+02  0.27213314145E+02  0.00000000000E+00 0.  1.
        -11    1    4    4    0    0 -0.99235908224E+01 -0.29959472621E+02  0.15763049885E+02  0.35277774820E+02  0.00000000000E+00 0.  1.
         11    1    4    4    0    0 -0.61747080277E+00  0.63078753937E+02 -0.18298275899E+00  0.63082041431E+02  0.00000000000E+00 0. -1.
          4    1    1    2  501    0 -0.38518779636E+02 -0.66471560983E+02 -0.11132902445E+03  0.13526387725E+03  0.00000000000E+00 0. -1.
<scales pt_clust_5="13000.00000" pt_clust_6="13000.00000" pt_clust_7="13000.00000" pt_clust_8="13000.00000" pt_clust_9="76.82559"></scales>
<clustering>
<clus scale="   76.826">  1  9  2 -1</clus>
<clus scale="   80.651">  5  6 -1 -1</clus>
<clus scale="   90.686">  7  8 -1 -1</clus>
<clus scale="   95.240">  2  5  1 -1</clus>
<clus scale="   76.826">  1  5  2 -1</clus>
</clustering>
</event>
<event>
 9    1  0.7719620E-005  0.1030545E+03  0.7546771E-02  0.1279427E+00
         21   -1    0    0  501  502  0.00000000000E+00  0.00000000000E+00  0.19260440339E+03  0.19260440339E+03  0.00000000000E+00 0.  1.
         -2   -1    0    0    0  501 -0.00000000000E+00 -0.00000000000E+00 -0.20802534561E+03  0.20802534561E+03  0.00000000000E+00 0.  1.
        -24    2    1    2    0    0  0.46251309319E+02  0.34324458142E+02 -0.14828058014E+03  0.17862575813E+03  0.81256870356E+02 0.  0.
         23    2    1    2    0    0  0.61503638922E+01 -0.14208848897E+01  0.22689414526E+02  0.95647120825E+02  0.92702299328E+02 0.  0.
         13    1    3    3    0    0 -0.19033827933E+02  0.27123735302E+02 -0.60664387316E+02  0.69124174577E+02  0.00000000000E+00 0. -1.
        -14    1    3    3    0    0  0.65285137252E+02  0.72007228396E+01 -0.87616192823E+02  0.10950158355E+03  0.00000000000E+00 0.  1.
        -13    1    4    4    0    0  0.42570525032E+02  0.20919702228E+02  0.23452442473E+02  0.52914086978E+02  0.00000000000E+00 0.  1.
         13    1    4    4    0    0 -0.36420161139E+02 -0.22340587117E+02 -0.76302794664E+00  0.42733033847E+02  0.00000000000E+00 0. -1.
         -1    1    1    2    0  502 -0.52401673211E+02 -0.32903573252E+02  0.11017022339E+03  0.12635687005E+03  0.00000000000E+00 0.  1.
<scales pt_clust_5="13000.00000" pt_clust_6="13000.00000" pt_clust_7="13000.00000" pt_clust_8="13000.00000" pt_clust_9="61.87552"></scales>
<clustering>
<clus scale="   61.876">  1  9  2 -1</clus>
<clus scale="   81.257">  5  6 -1 -1</clus>
<clus scale="   92.702">  7  8 -1 -1</clus>
<clus scale="   92.893">  2  5  1 -1</clus>
<clus scale="   61.876">  1  5  2 -1</clus>
</clustering>
</event>
<event>
 9    1  0.7719620E-005  0.1427489E+03  0.7546771E-02  0.1220989E+00
         21   -1    0    0  501  502  0.00000000000E+00  0.00000000000E+00  0.11900429091E+03  0.11900429091E+03  0.00000000000E+00 0. -1.
          1   -1    0    0  502    0 -0.00000000000E+00 -0.00000000000E+00 -0.62785225243E+03  0.62785225243E+03  0.00000000000E+00 0. -1.
         23    2    1    2    0    0  0.67194755112E+02 -0.21645448054E+02 -0.17128097422E+03  0.20484636982E+03  0.87413972342E+02 0.  0.
        -24    2    1    2    0    0 -0.61432692581E+01  0.11885128561E+03 -0.38922976337E+03  0.41613205306E+03  0.86618179639E+02 0.  0.
         11    1    4    4    0    0  0.88678239474E+01  0.12718249136E+03 -0.31251735237E+03  0.33752202883E+03  0.00000000000E+00 0. -1.
        -12    1    4    4    0    0 -0.15011093205E+02 -0.83312057585E+01 -0.76712410991E+02  0.78610024225E+02  0.00000000000E+00 0.  1.
        -13    1    3    3    0    0  0.18959079744E+02  0.24565953698E+02 -0.14148395362E+02  0.34104396742E+02  0.00000000000E+00 0.  1.
         13    1    3    3    0    0  0.48235675368E+02 -0.46211401752E+02 -0.15713257886E+03  0.17074197308E+03  0.00000000000E+00 0. -1.
          2    1    1    2  501    0 -0.61051485854E+02 -0.97205837552E+02  0.51662776067E+02  0.12587812046E+03  0.00000000000E+00 0. -1.
<scales pt_clust_5="13000.00000" pt_clust_6="13000.00000" pt_clust_7="13000.00000" pt_clust_8="13000.00000" pt_clust_9="113.46597"></scales>
<clustering>
<clus scale="   86.618">  5  6 -1 -1</clus>
<clus scale="   87.414">  7  8 -1 -1</clus>
<clus scale="  112.360">  2  7  1 -1</clus>
<clus scale="  113.466">  1  9  2 -1</clus>
<clus scale="  113.466">  1  5  2 -1</clus>
</clustering>
</event>
<event>
 9    1  0.7719620E-005  0.9706673E+02  0.7546771E-02  0.1292744E+00
          1   -1    0    0  502    0 -0.00000000000E+00  0.00000000000E+00  0.23224737702E+03  0.23224737702E+03  0.00000000000E+00 0. -1.
         21   -1    0    0  501  502  0.00000000000E+00 -0.00000000000E+00 -0.12477006175E+03  0.12477006175E+03  0.00000000000E+00 0.  1.
         23    2    1    2    0    0 -0.30367974099E+02 -0.31790904917E+02  0.15117589684E+03  0.18145246952E+03  0.90210705695E+02 0.  0.
        -24    2    1    2    0    0  0.63772056274E+01  0.22936592856E+02  0.37535209796E+02  0.90401099732E+02  0.78719189622E+02 0.  0.
         13    1    4    4    0    0  0.42514833608E+02  0.15976836514E+02  0.21745484994E+02  0.50355104005E+02  0.00000000000E+00 0. -1.
        -14    1    4    4    0    0 -0.36137627981E+02  0.69597563421E+01  0.15789724801E+02  0.40045995726E+02  0.00000000000E+00 0.  1.
        -11    1    3    3    0    0  0.19458767869E+02  0.12966209329E+02  0.81572544520E+02  0.84857800177E+02  0.00000000000E+00 0.  1.
         11    1    3    3    0    0 -0.49826741968E+02 -0.44757114245E+02  0.69603352319E+02  0.96594669339E+02  0.00000000000E+00 0. -1.
          2    1    1    2  501    0  0.23990768471E+02  0.88543120600E+01 -0.81233791364E+02  0.85163869530E+02  0.00000000000E+00 0. -1.
<scales pt_clust_5="13000.00000" pt_clust_6="13000.00000" pt_clust_7="13000.00000" pt_clust_8="13000.00000" pt_clust_9="25.57256"></scales>
<clustering>
<clus scale="   25.573">  2  9  1 -1</clus>
<clus scale="   78.719">  5  6 -1 -1</clus>
<clus scale="   86.491">  2  5  1 -1</clus>
<clus scale="   90.211">  7  8 -1 -1</clus>
<clus scale="   25.573">  2  5  1 -1</clus>
</clustering>
</event>
<event>
 9    1  0.7719620E-005  0.1628650E+03  0.7546771E-02  0.1187330E+00
          1   -1    0    0  502    0 -0.00000000000E+00  0.00000000000E+00  0.28857070421E+03  0.28857070421E+03  0.00000000000E+00 0. -1.
         21   -1    0    0  501  502  0.00000000000E+00 -0.00000000000E+00 -0.15356842000E+03  0.15356842000E+03  0.00000000000E+00 0. -1.
        -24    2    1    2    0    0  0.12927844652E+03 -0.51810677185E+02  0.12991325614E+03  0.20636314007E+03  0.79441981698E+02 0.  0.
         23    2    1    2    0    0 -0.13377142404E+03 -0.16458667701E+01  0.45766553183E+02  0.16845251135E+03  0.91565104826E+02 0.  0.
         11    1    3    3    0    0  0.10238436915E+03 -0.17519837078E+02  0.12497316924E+03  0.16250475922E+03  0.00000000000E+00 0. -1.
        -12    1    3    3    0    0  0.26894077365E+02 -0.34290840107E+02  0.49400868923E+01  0.43858380853E+02  0.00000000000E+00 0.  1.
        -11    1    4    4    0    0 -0.11738272557E+03 -0.25357204819E+02  0.62231997503E+02  0.13525721279E+03  0.00000000000E+00 0.  1.
         11    1    4    4    0    0 -0.16388698470E+02  0.23711338049E+02 -0.16465444321E+02  0.33195298557E+02  0.00000000000E+00 0. -1.
          2    1    1    2  501    0  0.44929775226E+01  0.53456543955E+02 -0.40677525110E+02  0.67323472784E+02  0.00000000000E+00 0. -1.
<scales pt_clust_5="13000.00000" pt_clust_6="13000.00000" pt_clust_7="13000.00000" pt_clust_8="13000.00000" pt_clust_9="53.64503"></scales>
<clustering>
<clus scale="   53.645">  2  9  1 -1</clus>
<clus scale="   79.442">  5  6 -1 -1</clus>
<clus scale="   91.565">  7  8 -1 -1</clus>
<clus scale="  156.371">  1  5  2 -1</clus>
<clus scale="   53.645">  2  5  1 -1</clus>
</clustering>
</event>
<event>
 9    1  0.7719620E-005  0.9299662E+02  0.7546771E-02  0.1300916E+00
          1   -1    0    0  502    0 -0.00000000000E+00  0.00000000000E+00  0.26246339965E+03  0.26246339965E+03  0.00000000000E+00 0. -1.
         21   -1    0    0  501  502  0.00000000000E+00 -0.00000000000E+00 -0.13272223008E+03  0.13272223008E+03  0.00000000000E+00 0. -1.
         23    2    1    2    0    0 -0.61444717442E+00  0.24777822698E+02  0.22124892756E+03  0.24012679532E+03  0.89974840041E+02 0.  0.
        -24    2    1    2    0    0 -0.33250783768E+02 -0.10424125310E+02 -0.62833845301E+02  0.10842112689E+03  0.81195884318E+02 0.  0.
         11    1    4    4    0    0 -0.26829896992E+00  0.27084210136E+02 -0.49978591724E+02  0.56846161293E+02  0.00000000000E+00 0. -1.
        -12    1    4    4    0    0 -0.32982484798E+02 -0.37508335446E+02 -0.12855253577E+02  0.51574965593E+02  0.00000000000E+00 0.  1.
        -13    1    3    3    0    0  0.29795615934E+02  0.53504721713E+01  0.21464967456E+02  0.37109986651E+02  0.00000000000E+00 0. -1.
         13    1    3    3    0    0 -0.30410063108E+02  0.19427350527E+02  0.19978396010E+03  0.20301680866E+03  0.00000000000E+00 0.  1.
          2    1    1    2  501    0  0.33865230942E+02 -0.14353697388E+02 -0.28673912679E+02  0.46637707532E+02  0.00000000000E+00 0. -1.
<scales pt_clust_5="13000.00000" pt_clust_6="13000.00000" pt_clust_7="13000.00000" pt_clust_8="13000.00000" pt_clust_9="36.78155"></scales>
<clustering>
<clus scale="   36.782">  2  9  1 -1</clus>
<clus scale="   81.196">  5  6 -1 -1</clus>
<clus scale="   84.532">  2  5  1 -1</clus>
<clus scale="   89.975">  7  8 -1 -1</clus>
<clus scale="   36.782">  2  5  1 -1</clus>
</clustering>
</event>
<event>
 9    1  0.7719620E-005  0.1558360E+03  0.7546771E-02  0.1195269E+00
         21   -1    0    0  501  502  0.00000000000E+00  0.00000000000E+00  0.36902864554E+03  0.36902864554E+03  0.00000000000E+00 0. -1.
         -2   -1    0    0    0  501 -0.00000000000E+00 -0.00000000000E+00 -0.21196770471E+03  0.21196770471E+03  0.00000000000E+00 0.  1.
         23    2    1    2    0    0 -0.11034331794E+03 -0.55671769987E+02 -0.12168802561E+03  0.19610743964E+03  0.91515892152E+02 0.  0.
        -24    2    1    2    0    0  0.96785582401E+02  0.10383060971E+03  0.83778918611E+02  0.18360203676E+03  0.80886069415E+02 0.  0.
         13    1    4    4    0    0 -0.12718370395E+01  0.33182992272E+02  0.46474001658E+02  0.57118835560E+02  0.00000000000E+00 0. -1.
        -14    1    4    4    0    0  0.98057419441E+02  0.70647617441E+02  0.37304916953E+02  0.12648320120E+03  0.00000000000E+00 0.  1.
        -11    1    3    3    0    0 -0.85919260345E+02 -0.66349517497E+02 -0.12887187045E+03  0.16850025746E+03  0.00000000000E+00 0.  1.
         11    1    3    3    0    0 -0.24424057597E+02  0.10677747510E+02  0.71838448360E+01  0.27607182182E+02  0.00000000000E+00 0. -1.
         -1    1    1    2    0  502  0.13557735541E+02 -0.48158839725E+02  0.19497004783E+03  0.20128687386E+03  0.00000000000E+00 0.  1.
<scales pt_clust_5="13000.00000" pt_clust_6="13000.00000" pt_clust_7="13000.00000" pt_clust_8="13000.00000" pt_clust_9="50.03085"></scales>
<clustering>
<clus scale="   50.031">  1  9  2 -1</clus>
<clus scale="   80.886">  5  6 -1 -1</clus>
<clus scale="   91.516">  7  8 -1 -1</clus>
<clus scale="  149.841">  1  5  2 -1</clus>
<clus scale="   50.031">  1  5  2 -1</clus>
</clustering>
</event>
<event>
 9    1  0.7719620E-005  0.2491709E+03  0.7546771E-02  0.1150192E+00
          1   -1    0    0  502    0 -0.00000000000E+00  0.00000000000E+00  0.23538921375E+03  0.23538921375E+03  0.00000000000E+00 0. -1.
         21   -1    0    0  501  502  0.00000000000E+00 -0.00000000000E+00 -0.38477753729E+03  0.38477753729E+03  0.00000000000E+00 0. -1.
         23    2    1    2    0    0 -0.38319359981E+02 -0.10884374176E+02 -0.55977631114E+02  0.11663334283E+03  0.94249660605E+02 0.  0.
        -24    2    1    2    0    0  0.21155849446E+03  0.13842284074E+03 -0.11264562935E+03  0.28755229569E+03  0.77970542695E+02 0.  0.
         13    1    4    4    0    0  0.19336104906E+03  0.10087796055E+03 -0.11341920568E+03  0.24582264834E+03  0.00000000000E+00 0. -1.
        -14    1    4    4    0    0  0.18197445400E+02  0.37544880191E+02  0.77357633708E+00  0.41729647350E+02  0.00000000000E+00 0.  1.
        -11    1    3    3    0    0  0.38771222670E+00 -0.48134935870E+02 -0.32017796070E+02  0.57812296591E+02  0.00000000000E+00 0.  1.
         11    1    3    3    0    0 -0.38707072208E+02  0.37250561694E+02 -0.23959835044E+02  0.58821046240E+02  0.00000000000E+00 0. -1.
          2    1    1    2  501    0 -0.17323913448E+03 -0.12753846656E+03  0.19234936914E+02  0.21598111252E+03  0.00000000000E+00 0. -1.
<scales pt_clust_5="13000.00000" pt_clust_6="13000.00000" pt_clust_7="13000.00000" pt_clust_8="13000.00000" pt_clust_9="236.65754"></scales>
<clustering>
<clus scale="   77.971">  5  6 -1 -1</clus>
<clus scale="   94.250">  7  8 -1 -1</clus>
<clus scale="  102.322">  1  7  2 -1</clus>
<clus scale="  236.658">  2  9  1 -1</clus>
<clus scale="  236.658">  2  5  1 -1</clus>
</clustering>
</event>
<event>
 9    1  0.2636535E-004  0.2693661E+03  0.7546771E-02  0.1102125E+00
          1   -1    0    0  502    0 -0.00000000000E+00  0.00000000000E+00  0.11383762059E+04  0.11383762059E+04  0.00000000000E+00 0. -1.
         21   -1    0    0  501  502  0.00000000000E+00 -0.00000000000E+00 -0.44477156532E+03  0.44477156532E+03  0.00000000000E+00 0.  1.
        -24    2    1    2    0    0  0.24544628296E+03  0.48272558505E+02  0.36064268525E+03  0.44618438482E+03  0.80269801975E+02 0.  0.
         23    2    1    2    0    0 -0.22712855011E+03 -0.27043975015E+03 -0.29600951522E+03  0.46965617742E+03  0.90720753707E+02 0.  0.
         11    1    3    3    0    0  0.19208874930E+03  0.11886064356E+02  0.30647368431E+03  0.36189153805E+03  0.00000000000E+00 0. -1.
        -12    1    3    3    0    0  0.53357533652E+02  0.36386494148E+02  0.54169000937E+02  0.84292846768E+02  0.00000000000E+00 0.  1.
        -13    1    4    4    0    0 -0.12097752512E+03 -0.16639043781E+03 -0.11586999714E+03  0.23610844038E+03  0.00000000000E+00 0.  1.
         13    1    4    4    0    0 -0.10615102499E+03 -0.10404931233E+03 -0.18013951808E+03  0.23354773704E+03  0.00000000000E+00 0. -1.
          2    1    1    2  501    0 -0.18317732847E+02  0.22216719164E+03  0.62897147057E+03  0.66730720899E+03  0.00000000000E+00 0. -1.
<scales pt_clust_5="13000.00000" pt_clust_6="13000.00000" pt_clust_7="13000.00000" pt_clust_8="13000.00000" pt_clust_9="222.92117"></scales>
<clustering>
<clus scale="   80.270">  5  6 -1 -1</clus>
<clus scale="   90.721">  7  8 -1 -1</clus>
<clus scale="  222.921">  2  9  1 -1</clus>
<clus scale="  266.028">  1  5  2 -1</clus>
<clus scale="  222.921">  2  5  1 -1</clus>
</clustering>
</event>
<event>
 9    1  0.7719620E-005  0.9381289E+02  0.7546771E-02  0.1298172E+00
          1   -1    0    0  502    0 -0.00000000000E+00  0.00000000000E+00  0.40830534504E+03  0.40830534504E+03  0.00000000000E+00 0. -1.
         21   -1    0    0  501  502  0.00000000000E+00 -0.00000000000E+00 -0.48830103186E+02  0.48830103186E+02  0.00000000000E+00 0. -1.
         23    2    1    2    0    0 -0.18263857354E+01 -0.21653229294E+01  0.13420953045E+03  0.16037145620E+03  0.87742701068E+02 0.  0.
        -24    2    1    2    0    0 -0.47156666528E+02  0.63783677310E+02  0.15221676114E+03  0.18937539794E+03  0.80006189037E+02 0.  0.
         13    1    4    4    0    0 -0.15663367909E+02  0.64540479899E+02  0.52075263606E+02  0.84395780223E+02  0.00000000000E+00 0. -1.
        -14    1    4    4    0    0 -0.31493298618E+02 -0.75680258838E+00  0.10014149753E+03  0.10497961772E+03  0.00000000000E+00 0.  1.
        -13    1    3    3    0    0 -0.26532013337E+02 -0.36518001615E+02  0.62254648997E+02  0.76897031772E+02  0.00000000000E+00 0.  1.
         13    1    3    3    0    0  0.24705627601E+02  0.34352678685E+02  0.71954881452E+02  0.83474424423E+02  0.00000000000E+00 0. -1.
          2    1    1    2  501    0  0.48983052263E+02 -0.61618354381E+02  0.73048950268E+02  0.10738859409E+03  0.00000000000E+00 0. -1.
<scales pt_clust_5="13000.00000" pt_clust_6="13000.00000" pt_clust_7="13000.00000" pt_clust_8="13000.00000" pt_clust_9="78.71570"></scales>
<clustering>
<clus scale="   78.716">  2  9  1 -1</clus>
<clus scale="   80.006">  5  6 -1 -1</clus>
<clus scale="   86.620">  2  5  1 -1</clus>
<clus scale="   87.743">  7  8 -1 -1</clus>
<clus scale="   78.716">  2  5  1 -1</clus>
</clustering>
</event>
<event>
 9    1  0.7719620E-005  0.9653675E+02  0.7546771E-02  0.1294297E+00
          1   -1    0    0  502    0 -0.00000000000E+00  0.00000000000E+00  0.36218230534E+03  0.36218230534E+03  0.00000000000E+00 0. -1.
         21   -1    0    0  501  502  0.00000000000E+00 -0.00000000000E+00 -0.13672771122E+03  0.13672771122E+03  0.00000000000E+00 0. -1.
         23    2    1    2    0    0  0.19891536205E+02  0.19986805935E+02  0.32139429859E+03  0.33539530801E+03  0.91654633517E+02 0.  0.
        -24    2    1    2    0    0 -0.49837392784E+02 -0.32105683727E+02 -0.65208595761E+02  0.11892746186E+03  0.79856368416E+02 0.  0.
         13    1    4    4    0    0 -0.64466876861E+02 -0.13792806051E+01 -0.34713385713E+02  0.73231822146E+02  0.00000000000E+00 0. -1.
        -14    1    4    4    0    0  0.14629484076E+02 -0.30726403122E+02 -0.30495210048E+02  0.45695639716E+02  0.00000000000E+00 0.  1.
        -13    1    3    3    0    0  0.53978573644E+02  0.12883734600E+02  0.13828294027E+03  0.14900284763E+03  0.00000000000E+00 0.  1.
         13    1    3    3    0    0 -0.34087037439E+02  0.71030713348E+01  0.18311135831E+03  0.18639246038E+03  0.00000000000E+00 0. -1.
          2    1    1    2  501    0  0.29945856579E+02  0.12118877793E+02 -0.30731108700E+02  0.44587246688E+02  0.00000000000E+00 0. -1.
<scales pt_clust_5="13000.00000" pt_clust_6="13000.00000" pt_clust_7="13000.00000" pt_clust_8="13000.00000" pt_clust_9="32.30513"></scales>
<clustering>
<clus scale="   32.305">  2  9  1 -1</clus>
<clus scale="   79.856">  5  6 -1 -1</clus>
<clus scale="   85.416">  2  5  1 -1</clus>
<clus scale="   91.655">  7  8 -1 -1</clus>
<clus scale="   32.305">  2  5  1 -1</clus>
</clustering>
</event>
<event>
 9    1  0.7719620E-005  0.6920909E+03  0.7546771E-02  0.9732122E-01
          1   -1    0    0  502    0 -0.00000000000E+00  0.00000000000E+00  0.15798346188E+04  0.15798346188E+04  0.00000000000E+00 0. -1.
         21   -1    0    0  501  502  0.00000000000E+00 -0.00000000000E+00 -0.80644885834E+03  0.80644885834E+03  0.00000000000E+00 0. -1.
         23    2    1    2    0    0 -0.31282296193E+03 -0.61288278766E+03  0.13181216092E+04  0.14904417807E+04  0.10241390633E+03 0.  0.
        -24    2    1    2    0    0  0.30922926154E+03  0.57727025198E+03 -0.55087246527E+03  0.85952606009E+03  0.80379692483E+02 0.  0.
         13    1    4    4    0    0  0.19921417745E+03  0.36876294561E+03 -0.40167777255E+03  0.58053202454E+03  0.00000000000E+00 0. -1.
        -14    1    4    4    0    0  0.11001508409E+03  0.20850730638E+03 -0.14919469272E+03  0.27899403556E+03  0.00000000000E+00 0.  1.
        -11    1    3    3    0    0 -0.26293130101E+03 -0.51937591621E+03  0.11851230578E+04  0.13203790643E+04  0.00000000000E+00 0. -1.
         11    1    3    3    0    0 -0.49891660917E+02 -0.93506871451E+02  0.13299855139E+03  0.17006271640E+03  0.00000000000E+00 0.  1.
          2    1    1    2  501    0  0.35937003893E+01  0.35612535673E+02  0.61366165587E+01  0.36315636334E+02  0.00000000000E+00 0. -1.
<scales pt_clust_5="13000.00000" pt_clust_6="13000.00000" pt_clust_7="13000.00000" pt_clust_8="13000.00000" pt_clust_9="35.79340"></scales>
<clustering>
<clus scale="   35.793">  2  9  1 -1</clus>
<clus scale="   80.380">  5  6 -1 -1</clus>
<clus scale="  102.414">  7  8 -1 -1</clus>
<clus scale="  689.175">  2  5  1 -1</clus>
<clus scale="   35.793">  2  5  1 -1</clus>
</clustering>
</event>
<event>
 9    1  0.7719620E-005  0.1350988E+03  0.7546771E-02  0.1222200E+00
          1   -1    0    0  502    0 -0.00000000000E+00  0.00000000000E+00  0.54817800612E+02  0.54817800612E+02  0.00000000000E+00 0. -1.
         21   -1    0    0  501  502  0.00000000000E+00 -0.00000000000E+00 -0.64427422246E+03  0.64427422246E+03  0.00000000000E+00 0. -1.
         23    2    1    2    0    0 -0.28081281456E+02  0.89604403350E+02 -0.16383768828E+03  0.21137457888E+03  0.94967978960E+02 0.  0.
        -24    2    1    2    0    0 -0.43768851420E+02 -0.10203648320E+03 -0.16376601984E+03  0.21590162072E+03  0.86412061172E+02 0.  0.
         11    1    4    4    0    0 -0.16690363871E+02 -0.93152399021E+02 -0.16166294337E+03  0.18732550534E+03  0.00000000000E+00 0. -1.
        -12    1    4    4    0    0 -0.27078487548E+02 -0.88840841799E+01 -0.21030764649E+01  0.28576115381E+02  0.00000000000E+00 0.  1.
        -11    1    3    3    0    0 -0.52786724495E+02  0.65595127814E+02 -0.15405541569E+03  0.17556261043E+03  0.00000000000E+00 0. -1.
         11    1    3    3    0    0  0.24705443039E+02  0.24009275536E+02 -0.97822725881E+01  0.35811968453E+02  0.00000000000E+00 0.  1.
          2    1    1    2  501    0  0.71850132876E+02  0.12432079851E+02 -0.26185271374E+03  0.27181582348E+03  0.00000000000E+00 0. -1.
<scales pt_clust_5="13000.00000" pt_clust_6="13000.00000" pt_clust_7="13000.00000" pt_clust_8="13000.00000" pt_clust_9="72.91775"></scales>
<clustering>
<clus scale="   72.918">  2  9  1 -1</clus>
<clus scale="   86.412">  5  6 -1 -1</clus>
<clus scale="   94.968">  7  8 -1 -1</clus>
<clus scale="  129.228">  2  5  1 -1</clus>
<clus scale="   72.918">  2  5  1 -1</clus>
</clustering>
</event>
<event>
 9    1  0.7719620E-005  0.9487595E+02  0.7546771E-02  0.1297048E+00
         -4   -1    0    0    0  501 -0.00000000000E+00  0.00000000000E+00  0.11988377453E+03  0.11988377453E+03  0.00000000000E+00 0.  1.
         21   -1    0    0  501  502  0.00000000000E+00 -0.00000000000E+00 -0.11764547951E+03  0.11764547951E+03  0.00000000000E+00 0.  1.
         23    2    1    2    0    0  0.27202093367E+02 -0.10263794112E+01 -0.16092389315E+01  0.95986917232E+02  0.92032012319E+02 0.  0.
        -24    2    1    2    0    0 -0.26179926334E+01 -0.37058478884E+02 -0.16555653050E+02  0.91831930648E+02  0.82333644982E+02 0.  0.
         11    1    4    4    0    0  0.23271905235E+02  0.18017490574E+02 -0.66504441509E+01  0.30173497431E+02  0.00000000000E+00 0. -1.
        -12    1    4    4    0    0 -0.25889897868E+02 -0.55075969458E+02 -0.99052088988E+01  0.61658433216E+02  0.00000000000E+00 0.  1.
        -11    1    3    3    0    0  0.47889675159E+02 -0.24195121254E+02 -0.22892155793E+02  0.58334172456E+02  0.00000000000E+00 0.  1.
         11    1    3    3    0    0 -0.20687581792E+02  0.23168741843E+02  0.21282916862E+02  0.37652744775E+02  0.00000000000E+00 0. -1.
         -3    1    1    2    0  502 -0.24584100733E+02  0.38084858295E+02  0.20403186999E+02  0.49710406153E+02  0.00000000000E+00 0.  1.
<scales pt_clust_5="13000.00000" pt_clust_6="13000.00000" pt_clust_7="13000.00000" pt_clust_8="13000.00000" pt_clust_9="45.33030"></scales>
<clustering>
<clus scale="   45.330">  2  9  1 -1</clus>
<clus scale="   82.334">  5  6 -1 -1</clus>
<clus scale="   85.501">  2  5  1 -1</clus>
<clus scale="   92.032">  7  8 -1 -1</clus>
<clus scale="   45.330">  2  5  1 -1</clus>
</clustering>
</event>
<event>
 9    1  0.7719620E-005  0.1365375E+03  0.7546771E-02  0.1237266E+00
         21   -1    0    0  501  502  0.00000000000E+00  0.00000000000E+00  0.61135371413E+03  0.61135371413E+03  0.00000000000E+00 0.  1.
          1   -1    0    0  502    0 -0.00000000000E+00 -0.00000000000E+00 -0.48953393568E+02  0.48953393568E+02  0.00000000000E+00 0. -1.
         23    2    1    2    0    0  0.20395443448E+02  0.62043561990E+01  0.14972852218E+03  0.17557986959E+03  0.89191883616E+02 0.  0.
        -24    2    1    2    0    0 -0.11577923682E+03  0.36744236567E+02  0.19808464515E+03  0.24600083405E+03  0.80770744166E+02 0.  0.
         13    1    4    4    0    0 -0.73478487743E+02  0.46564421078E+02  0.72899032081E+02  0.11349714688E+03  0.00000000000E+00 0. -1.
        -14    1    4    4    0    0 -0.42300749073E+02 -0.98201845111E+01  0.12518561307E+03  0.13250368717E+03  0.00000000000E+00 0.  1.
        -13    1    3    3    0    0 -0.26501310978E+02  0.28115856385E+02  0.78901460726E+02  0.87853636057E+02  0.00000000000E+00 0.  1.
         13    1    3    3    0    0  0.46896754427E+02 -0.21911500186E+02  0.70827061451E+02  0.87726233533E+02  0.00000000000E+00 0. -1.
          2    1    1    2  501    0  0.95383793368E+02 -0.42948592766E+02  0.21458715324E+03  0.23872640406E+03  0.00000000000E+00 0. -1.
<scales pt_clust_5="13000.00000" pt_clust_6="13000.00000" pt_clust_7="13000.00000" pt_clust_8="13000.00000" pt_clust_9="110.08437"></scales>
<clustering>
<clus scale="   80.771">  5  6 -1 -1</clus>
<clus scale="   89.192">  7  8 -1 -1</clus>
<clus scale="   91.704">  2  7  1 -1</clus>
<clus scale="  110.084">  1  9  2 -1</clus>
<clus scale="  110.084">  1  5  2 -1</clus>
</clustering>
</event>
<event>
 9    1  0.7719620E-005  0.9555462E+02  0.7546771E-02  0.1296850E+00
          1   -1    0    0  502    0 -0.00000000000E+00  0.00000000000E+00  0.41544683493E+03  0.41544683493E+03  0.00000000000E+00 0. -1.
         21   -1    0    0  501  502  0.00000000000E+00 -0.00000000000E+00 -0.39662526998E+02  0.39662526998E+02  0.00000000000E+00 0. -1.
        -24    2    1    2    0    0 -0.18427050866E+02 -0.12575963601E+02  0.19289877878E+03  0.21028301475E+03  0.80692604190E+02 0.  0.
         23    2    1    2    0    0 -0.23668210907E+02  0.47500192268E+02  0.10591195071E+03  0.15039836092E+03  0.92659987001E+02 0.  0.
         11    1    3    3    0    0 -0.38736722224E+02 -0.28234634963E+01  0.18036909330E+03  0.18450342927E+03  0.00000000000E+00 0. -1.
        -12    1    3    3    0    0  0.20309671357E+02 -0.97525001046E+01  0.12529685479E+02  0.25779585473E+02  0.00000000000E+00 0.  1.
        -13    1    4    4    0    0 -0.49186569929E+02  0.33754638256E+02  0.10574691377E+03  0.12141294839E+03  0.00000000000E+00 0. -1.
         13    1    4    4    0    0  0.25518359021E+02  0.13745554012E+02  0.16503693995E+00  0.28985412528E+02  0.00000000000E+00 0.  1.
          2    1    1    2  501    0  0.42095261773E+02 -0.34924228667E+02  0.76973578436E+02  0.94427986260E+02  0.00000000000E+00 0. -1.
<scales pt_clust_5="13000.00000" pt_clust_6="13000.00000" pt_clust_7="13000.00000" pt_clust_8="13000.00000" pt_clust_9="54.69655"></scales>
<clustering>
<clus scale="   54.697">  2  9  1 -1</clus>
<clus scale="   80.693">  5  6 -1 -1</clus>
<clus scale="   84.001">  1  5  2 -1</clus>
<clus scale="   92.660">  7  8 -1 -1</clus>
<clus scale="   54.697">  2  5  1 -1</clus>
</clustering>
</event>
<event>
 9    1  0.7719620E-005  0.9318693E+02  0.7546771E-02  0.1302321E+00
          3   -1    0    0  502    0 -0.00000000000E+00  0.00000000000E+00  0.10893104843E+03  0.10893104843E+03  0.00000000000E+00 0. -1.
         21   -1    0    0  501  502  0.00000000000E+00 -0.00000000000E+00 -0.21252846516E+03  0.21252846516E+03  0.00000000000E+00 0.  1.
         23    2    1    2    0    0  0.76331876560E+01  0.37590853315E+02  0.34472577775E+02  0.10516347309E+03  0.91649657106E+02 0.  0.
        -24    2    1    2    0    0 -0.70306020483E+01  0.17229549145E+02 -0.17849232881E+02  0.84164775601E+02  0.80117586138E+02 0.  0.
         11    1    4    4    0    0  0.21832286466E+02 -0.23143870379E+02 -0.12788655086E+01  0.31842157047E+02  0.00000000000E+00 0. -1.
        -12    1    4    4    0    0 -0.28862888514E+02  0.40373419524E+02 -0.16570367372E+02  0.52322618554E+02  0.00000000000E+00 0.  1.
        -13    1    3    3    0    0  0.19646075912E+01 -0.29488856085E+02  0.49742391343E-01  0.29554268567E+02  0.00000000000E+00 0.  1.
         13    1    3    3    0    0  0.56685800648E+01  0.67079709400E+02  0.34422835384E+02  0.75609204526E+02  0.00000000000E+00 0. -1.
          4    1    1    2  501    0 -0.60258560776E+00 -0.54820402460E+02 -0.12022076163E+03  0.13213126489E+03  0.00000000000E+00 0. -1.
<scales pt_clust_5="13000.00000" pt_clust_6="13000.00000" pt_clust_7="13000.00000" pt_clust_8="13000.00000" pt_clust_9="54.82371"></scales>
<clustering>
<clus scale="   54.824">  2  9  1 -1</clus>
<clus scale="   80.118">  5  6 -1 -1</clus>
<clus scale="   81.872">  2  5  1 -1</clus>
<clus scale="   91.650">  7  8 -1 -1</clus>
<clus scale="   54.824">  2  5  1 -1</clus>
</clustering>
</event>
<event>
 9    1  0.7719620E-005  0.1055307E+03  0.7546771E-02  0.1273582E+00
         21   -1    0    0  501  502  0.00000000000E+00  0.00000000000E+00  0.52402302793E+03  0.52402302793E+03  0.00000000000E+00 0. -1.
         -2   -1    0    0    0  501 -0.00000000000E+00 -0.00000000000E+00 -0.47926016733E+02  0.47926016733E+02  0.00000000000E+00 0.  1.
         23    2    1    2    0    0 -0.49645870299E+02 -0.30297243714E+02  0.15171871329E+03  0.18592964874E+03  0.90380478556E+02 0.  0.
        -24    2    1    2    0    0  0.61096190271E+02 -0.29251864233E+02  0.30478173382E+03  0.32229160443E+03  0.79947213775E+02 0.  0.
         11    1    4    4    0    0  0.80372756188E+02 -0.19366065528E+02  0.22862626787E+03  0.24311477699E+03  0.00000000000E+00 0. -1.
        -12    1    4    4    0    0 -0.19276565917E+02 -0.98857987049E+01  0.76155465944E+02  0.79176827435E+02  0.00000000000E+00 0.  1.
        -11    1    3    3    0    0 -0.34946853062E+02 -0.60887331337E+02  0.79031322373E+02  0.10570950559E+03  0.00000000000E+00 0. -1.
         11    1    3    3    0    0 -0.14699017237E+02  0.30590087624E+02  0.72687390917E+02  0.80220143149E+02  0.00000000000E+00 0.  1.
         -1    1    1    2    0  502 -0.11450319972E+02  0.59549107947E+02  0.19596564091E+02  0.63727791495E+02  0.00000000000E+00 0.  1.
<scales pt_clust_5="13000.00000" pt_clust_6="13000.00000" pt_clust_7="13000.00000" pt_clust_8="13000.00000" pt_clust_9="60.64000"></scales>
<clustering>
<clus scale="   60.640">  1  9  2 -1</clus>
<clus scale="   79.947">  5  6 -1 -1</clus>
<clus scale="   90.380">  7  8 -1 -1</clus>
<clus scale="   96.745">  1  5  2 -1</clus>
<clus scale="   60.640">  1  5  2 -1</clus>
</clustering>
</event>
<event>
 9    1  0.7719620E-005  0.1149807E+03  0.7546771E-02  0.1256362E+00
         21   -1    0    0  501  502  0.00000000000E+00  0.00000000000E+00  0.80746689532E+02  0.80746689532E+02  0.00000000000E+00 0.  1.
          1   -1    0    0  502    0 -0.00000000000E+00 -0.00000000000E+00 -0.43303219406E+03  0.43303219406E+03  0.00000000000E+00 0. -1.
         23    2    1    2    0    0  0.63357656279E+02 -0.66914980150E+02 -0.28365556906E+03  0.31267802818E+03  0.93889617478E+02 0.  0.
        -24    2    1    2    0    0 -0.22037722074E+02  0.29847924644E+02 -0.10275619114E+03  0.13594024698E+03  0.80897194831E+02 0.  0.
         11    1    4    4    0    0 -0.14615732987E+02  0.18730654739E+02 -0.11523196917E+03  0.11765570023E+03  0.00000000000E+00 0. -1.
        -12    1    4    4    0    0 -0.74219890871E+01  0.11117269906E+02  0.12475778034E+02  0.18284546746E+02  0.00000000000E+00 0.  1.
        -11    1    3    3    0    0  0.26755762372E+02  0.21995101328E+02 -0.60961336712E+02  0.70113763815E+02  0.00000000000E+00 0.  1.
         11    1    3    3    0    0  0.36601893907E+02 -0.88910081479E+02 -0.22269423234E+03  0.24256426436E+03  0.00000000000E+00 0. -1.
          2    1    1    2  501    0 -0.41319934205E+02  0.37067055506E+02  0.34126255665E+02  0.65160608440E+02  0.00000000000E+00 0. -1.
<scales pt_clust_5="13000.00000" pt_clust_6="13000.00000" pt_clust_7="13000.00000" pt_clust_8="13000.00000" pt_clust_9="55.50949"></scales>
<clustering>
<clus scale="   55.509">  1  9  2 -1</clus>
<clus scale="   80.897">  5  6 -1 -1</clus>
<clus scale="   93.890">  7  8 -1 -1</clus>
<clus scale="  104.641">  1  5  2 -1</clus>
<clus scale="   55.509">  1  5  2 -1</clus>
</clustering>
</event>
<event>
 9    1  0.7719620E-005  0.2510372E+03  0.7546771E-02  0.1113238E+00
          1   -1    0    0  502    0 -0.00000000000E+00  0.00000000000E+00  0.79077482164E+03  0.79077482164E+03  0.00000000000E+00 0. -1.
         21   -1    0    0  501  502  0.00000000000E+00 -0.00000000000E+00 -0.18830405392E+03  0.18830405392E+03  0.00000000000E+00 0. -1.
        -24    2    1    2    0    0 -0.23846323888E+03  0.15059311253E+01  0.49390322363E+03  0.55440568648E+03  0.80983249952E+02 0.  0.
         23    2    1    2    0    0  0.22445566574E+03 -0.21464429129E+02  0.20930820526E+03  0.32102361329E+03  0.91679702771E+02 0.  0.
         11    1    3    3    0    0 -0.80899284604E+02  0.88166978486E+01  0.25879206429E+03  0.27128538654E+03  0.00000000000E+00 0. -1.
        -12    1    3    3    0    0 -0.15756395427E+03 -0.73107667233E+01  0.23511115934E+03  0.28312029995E+03  0.00000000000E+00 0.  1.
        -13    1    4    4    0    0  0.86795751186E+02  0.28866725447E+02  0.11412275833E+03  0.14625592033E+03  0.00000000000E+00 0. -1.
         13    1    4    4    0    0  0.13765991456E+03 -0.50331154576E+02  0.95185446927E+02  0.17476769296E+03  0.00000000000E+00 0.  1.
          2    1    1    2  501    0  0.14007573131E+02  0.19958498004E+02 -0.10074066116E+03  0.10364957578E+03  0.00000000000E+00 0. -1.
<scales pt_clust_5="13000.00000" pt_clust_6="13000.00000" pt_clust_7="13000.00000" pt_clust_8="13000.00000" pt_clust_9="24.38347"></scales>
<clustering>
<clus scale="   24.383">  2  9  1 -1</clus>
<clus scale="   80.983">  5  6 -1 -1</clus>
<clus scale="   91.680">  7  8 -1 -1</clus>
<clus scale="  247.331">  1  5  2 -1</clus>
<clus scale="   24.383">  2  5  1 -1</clus>
</clustering>
</event>
<event>
 9    1  0.7719620E-005  0.1275715E+03  0.7546771E-02  0.1250317E+00
         21   -1    0    0  501  502  0.00000000000E+00  0.00000000000E+00  0.20757544231E+03  0.20757544231E+03  0.00000000000E+00 0. -1.
          1   -1    0    0  502    0 -0.00000000000E+00 -0.00000000000E+00 -0.71787381077E+02  0.71787381077E+02  0.00000000000E+00 0. -1.
         23    2    1    2    0    0 -0.69703475644E+01  0.36720087733E+02  0.70883964329E+02  0.14912958674E+03  0.12577021370E+03 0.  0.
        -24    2    1    2    0    0  0.75363054715E+01 -0.85746743436E+01  0.52513360314E+02  0.99475880511E+02  0.83710673464E+02 0.  0.
         11    1    4    4    0    0  0.37171814234E+02 -0.25446228534E+02  0.46694179892E+02  0.64881436142E+02  0.00000000000E+00 0. -1.
        -12    1    4    4    0    0 -0.29635508763E+02  0.16871554191E+02  0.58191804212E+01  0.34594444369E+02  0.00000000000E+00 0.  1.
        -11    1    3    3    0    0  0.48816111164E+02 -0.13684560142E+02  0.84409165539E+01  0.51395806908E+02  0.00000000000E+00 0.  1.
         11    1    3    3    0    0 -0.55786458729E+02  0.50404647875E+02  0.62443047776E+02  0.97733779833E+02  0.00000000000E+00 0. -1.
          2    1    1    2  501    0 -0.56595790716E+00 -0.28145413389E+02  0.12390736593E+02  0.30757356137E+02  0.00000000000E+00 0. -1.
<scales pt_clust_5="13000.00000" pt_clust_6="13000.00000" pt_clust_7="13000.00000" pt_clust_8="13000.00000" pt_clust_9="28.15112"></scales>
<clustering>
<clus scale="   28.151">  1  9  2 -1</clus>
<clus scale="   83.711">  5  6 -1 -1</clus>
<clus scale="   86.393">  1  5  2 -1</clus>
<clus scale="  125.770">  7  8 -1 -1</clus>
<clus scale="   28.151">  1  5  2 -1</clus>
</clustering>
</event>
<event>
 9    1  0.7719620E-005  0.1451756E+03  0.7546771E-02  0.1209143E+00
         21   -1    0    0  501  502  0.00000000000E+00  0.00000000000E+00  0.27590271618E+03  0.27590271618E+03  0.00000000000E+00 0.  1.
          1   -1    0    0  502    0 -0.00000000000E+00 -0.00000000000E+00 -0.20882401865E+03  0.20882401865E+03  0.00000000000E+00 0. -1.
         23    2    1    2    0    0  0.10919096214E+03 -0.51780667055E+01 -0.13188300602E+03  0.19472862012E+03  0.92610094645E+02 0.  0.
        -24    2    1    2    0    0 -0.12013563646E+03  0.56767190432E+02  0.12445146149E+03  0.19871284889E+03  0.79646374628E+02 0.  0.
         13    1    4    4    0    0 -0.43753879899E+02 -0.18340148745E+02  0.32148249222E+02  0.57308576934E+02  0.00000000000E+00 0. -1.
        -14    1    4    4    0    0 -0.76381756562E+02  0.75107339176E+02  0.92303212267E+02  0.14140427196E+03  0.00000000000E+00 0.  1.
        -13    1    3    3    0    0  0.35020361072E+02  0.36118095956E+02 -0.82181694883E+02  0.96357529644E+02  0.00000000000E+00 0. -1.
         13    1    3    3    0    0  0.74170601068E+02 -0.41296162662E+02 -0.49701311138E+02  0.98371090480E+02  0.00000000000E+00 0.  1.
          2    1    1    2  501    0  0.10944674321E+02 -0.51589123726E+02  0.74510242064E+02  0.91285265817E+02  0.00000000000E+00 0. -1.
<scales pt_clust_5="13000.00000" pt_clust_6="13000.00000" pt_clust_7="13000.00000" pt_clust_8="13000.00000" pt_clust_9="52.73731"></scales>
<clustering>
<clus scale="   52.737">  1  9  2 -1</clus>
<clus scale="   79.646">  5  6 -1 -1</clus>
<clus scale="   92.610">  7  8 -1 -1</clus>
<clus scale="  137.269">  1  5  2 -1</clus>
<clus scale="   52.737">  1  5  2 -1</clus>
</clustering>
</event>
<event>
 9    1  0.7719620E-005  0.1467107E+03  0.7546771E-02  0.1206581E+00
         -2   -1    0    0    0  501 -0.00000000000E+00  0.00000000000E+00  0.34972088047E+03  0.34972088047E+03  0.00000000000E+00 0.  1.
         21   -1    0    0  501  502  0.00000000000E+00 -0.00000000000E+00 -0.33728977429E+03  0.33728977429E+03  0.00000000000E+00 0.  1.
         23    2    1    2    0    0  0.10443179874E+03  0.48733236532E+02  0.27899259178E+03  0.31524913757E+03  0.90907774909E+02 0.  0.
        -24    2    1    2    0    0 -0.12175838909E+03 -0.70743916588E+01 -0.56140408960E+02  0.15655766132E+03  0.80519584372E+02 0.  0.
         13    1    4    4    0    0 -0.73419895437E+02 -0.22173803292E+02 -0.70229917758E+02  0.10399230715E+03  0.00000000000E+00 0. -1.
        -14    1    4    4    0    0 -0.48338493654E+02  0.15099411634E+02  0.14089508797E+02  0.52565354166E+02  0.00000000000E+00 0.  1.
        -13    1    3    3    0    0  0.70350698536E+02 -0.17304424749E+02  0.13502439866E+03  0.15323267319E+03  0.00000000000E+00 0.  1.
         13    1    3    3    0    0  0.34081100205E+02  0.66037661281E+02  0.14396819312E+03  0.16201646438E+03  0.00000000000E+00 0. -1.
         -1    1    1    2    0  502  0.17326590350E+02 -0.41658844873E+02 -0.21042107664E+03  0.21520385587E+03  0.00000000000E+00 0.  1.
<scales pt_clust_5="13000.00000" pt_clust_6="13000.00000" pt_clust_7="13000.00000" pt_clust_8="13000.00000" pt_clust_9="45.11840"></scales>
<clustering>
<clus scale="   45.118">  2  9  1 -1</clus>
<clus scale="   80.520">  5  6 -1 -1</clus>
<clus scale="   90.908">  7  8 -1 -1</clus>
<clus scale="  140.511">  2  5  1 -1</clus>
<clus scale="   45.118">  2  5  1 -1</clus>
</clustering>
</event>
<event>
 9    1  0.7719620E-005  0.1400265E+03  0.7546771E-02  0.1230613E+00
          1   -1    0    0  502    0 -0.00000000000E+00  0.00000000000E+00  0.38543012154E+03  0.38543012154E+03  0.00000000000E+00 0. -1.
         21   -1    0    0  501  502  0.00000000000E+00 -0.00000000000E+00 -0.36756058658E+03  0.36756058658E+03  0.00000000000E+00 0.  1.
         23    2    1    2    0    0 -0.94907310416E+01  0.11265822054E+02  0.33280994218E+03  0.34678357411E+03  0.96329626473E+02 0.  0.
        -24    2    1    2    0    0 -0.95884128830E+02 -0.59600832636E+02 -0.14670953874E+03  0.20189913256E+03  0.80582538794E+02 0.  0.
         11    1    4    4    0    0 -0.51603034587E+02  0.22511744901E+01 -0.22705432582E+02  0.56422315035E+02  0.00000000000E+00 0. -1.
        -12    1    4    4    0    0 -0.44281094243E+02 -0.61852007126E+02 -0.12400410616E+03  0.14547681753E+03  0.00000000000E+00 0.  1.
        -13    1    3    3    0    0 -0.12789038954E+01  0.50210623606E+02  0.24884034253E+03  0.25385873707E+03  0.00000000000E+00 0. -1.
         13    1    3    3    0    0 -0.82118271462E+01 -0.38944801552E+02  0.83969599658E+02  0.92924837044E+02  0.00000000000E+00 0.  1.
          2    1    1    2  501    0  0.10537485987E+03  0.48335010582E+02 -0.16823086848E+03  0.20430800144E+03  0.00000000000E+00 0. -1.
<scales pt_clust_5="13000.00000" pt_clust_6="13000.00000" pt_clust_7="13000.00000" pt_clust_8="13000.00000" pt_clust_9="114.51589"></scales>
<clustering>
<clus scale="   80.583">  5  6 -1 -1</clus>
<clus scale="   96.330">  7  8 -1 -1</clus>
<clus scale="   97.449">  1  7  2 -1</clus>
<clus scale="  114.516">  2  9  1 -1</clus>
<clus scale="  114.516">  2  5  1 -1</clus>
</clustering>
</event>
<event>
 9    1  0.7719620E-005  0.9338141E+02  0.7546771E-02  0.1302006E+00
         21   -1    0    0  501  502  0.00000000000E+00  0.00000000000E+00  0.34165320521E+02  0.34165320521E+02  0.00000000000E+00 0. -1.
          1   -1    0    0  502    0 -0.00000000000E+00 -0.00000000000E+00 -0.37019409120E+03  0.37019409120E+03  0.00000000000E+00 0. -1.
         23    2    1    2    0    0  0.30346687968E+02  0.79816313311E+01 -0.22928743805E+03  0.24849960981E+03  0.90524576324E+02 0.  0.
        -24    2    1    2    0    0 -0.31254006184E+01 -0.41030709641E+01 -0.51276863962E+02  0.93953832894E+02  0.78558275295E+02 0.  0.
         13    1    4    4    0    0  0.15087099773E+02 -0.23501912159E+02 -0.59811262451E+02  0.66010208079E+02  0.00000000000E+00 0. -1.
        -14    1    4    4    0    0 -0.18212500392E+02  0.19398841195E+02  0.85343984887E+01  0.27943624815E+02  0.00000000000E+00 0.  1.
        -11    1    3    3    0    0 -0.21504317478E+02 -0.67451625641E+01 -0.13920493029E+02  0.26489866258E+02  0.00000000000E+00 0.  1.
         11    1    3    3    0    0  0.51851005446E+02  0.14726793895E+02 -0.21536694502E+03  0.22200974355E+03  0.00000000000E+00 0. -1.
          2    1    1    2  501    0 -0.27221287350E+02 -0.38785603670E+01 -0.55464468663E+02  0.61905969014E+02  0.00000000000E+00 0. -1.
<scales pt_clust_5="13000.00000" pt_clust_6="13000.00000" pt_clust_7="13000.00000" pt_clust_8="13000.00000" pt_clust_9="27.49623"></scales>
<clustering>
<clus scale="   27.496">  1  9  2 -1</clus>
<clus scale="   78.558">  5  6 -1 -1</clus>
<clus scale="   81.834">  1  5  2 -1</clus>
<clus scale="   90.525">  7  8 -1 -1</clus>
<clus scale="   27.496">  1  5  2 -1</clus>
</clustering>
</event>
<event>
 9    1  0.7719620E-005  0.2105712E+03  0.7546771E-02  0.1141114E+00
         21   -1    0    0  501  502  0.00000000000E+00  0.00000000000E+00  0.29379168495E+03  0.29379168495E+03  0.00000000000E+00 0. -1.
          1   -1    0    0  502    0 -0.00000000000E+00 -0.00000000000E+00 -0.26213078939E+03  0.26213078939E+03  0.00000000000E+00 0. -1.
        -24    2    1    2    0    0  0.62537487274E+02 -0.29885607848E+02 -0.11877003810E+03  0.16011084388E+03  0.82006545498E+02 0.  0.
         23    2    1    2    0    0  0.48736287641E+02 -0.65095261066E+01 -0.84978451565E+02  0.13289712456E+03  0.89569575322E+02 0.  0.
         11    1    3    3    0    0  0.64478506739E+02 -0.53047260306E+02 -0.85312051105E+02  0.11937183806E+03  0.00000000000E+00 0. -1.
        -12    1    3    3    0    0 -0.19410194647E+01  0.23161652458E+02 -0.33457986999E+02  0.40739005820E+02  0.00000000000E+00 0.  1.
        -13    1    4    4    0    0  0.25319702707E+02 -0.41866539814E+02 -0.15185077190E+02  0.51229689345E+02  0.00000000000E+00 0.  1.
         13    1    4    4    0    0  0.23416584934E+02  0.35357013707E+02 -0.69793374375E+02  0.81667435217E+02  0.00000000000E+00 0. -1.
          2    1    1    2  501    0 -0.11127377492E+03  0.36395133955E+02  0.23540938523E+03  0.26291450590E+03  0.00000000000E+00 0. -1.
<scales pt_clust_5="13000.00000" pt_clust_6="13000.00000" pt_clust_7="13000.00000" pt_clust_8="13000.00000" pt_clust_9="117.07459"></scales>
<clustering>
<clus scale="   82.007">  5  6 -1 -1</clus>
<clus scale="   89.570">  7  8 -1 -1</clus>
<clus scale="   90.876">  5  7 -1 -1</clus>
<clus scale="  117.075">  1  9  2 -1</clus>
<clus scale="  117.075">  1  5  2 -1</clus>
</clustering>
</event>
<event>
 9    1  0.7719620E-005  0.9861376E+02  0.7546771E-02  0.1284068E+00
         -2   -1    0    0    0  501 -0.00000000000E+00  0.00000000000E+00  0.48667522452E+03  0.48667522452E+03  0.00000000000E+00 0.  1.
         21   -1    0    0  501  502  0.00000000000E+00 -0.00000000000E+00 -0.70373035666E+02  0.70373035666E+02  0.00000000000E+00 0. -1.
         23    2    1    2    0    0  0.13310124601E+02  0.31213388246E+02  0.13550198181E+03  0.16674671389E+03  0.91061761977E+02 0.  0.
        -24    2    1    2    0    0 -0.93178765098E+02  0.23968672435E+02  0.39945861341E+02  0.13061928776E+03  0.78796871600E+02 0.  0.
         13    1    4    4    0    0 -0.10595120382E+03  0.13010851801E+02  0.39385382660E+02  0.11378114177E+03  0.00000000000E+00 0. -1.
        -14    1    4    4    0    0  0.12772438724E+02  0.10957820634E+02  0.56047868090E+00  0.16838145989E+02  0.00000000000E+00 0.  1.
        -13    1    3    3    0    0 -0.25424138433E+02  0.46913573165E+02  0.92451042203E+02  0.10674486108E+03  0.00000000000E+00 0.  1.
         13    1    3    3    0    0  0.38734263034E+02 -0.15700184919E+02  0.43050939611E+02  0.60001852810E+02  0.00000000000E+00 0. -1.
         -1    1    1    2    0  502  0.79868640497E+02 -0.55182060680E+02  0.24085434570E+03  0.25968225854E+03  0.00000000000E+00 0.  1.
<scales pt_clust_5="13000.00000" pt_clust_6="13000.00000" pt_clust_7="13000.00000" pt_clust_8="13000.00000" pt_clust_9="97.07764"></scales>
<clustering>
<clus scale="   78.797">  5  6 -1 -1</clus>
<clus scale="   91.062">  7  8 -1 -1</clus>
<clus scale="   97.078">  2  9  1 -1</clus>
<clus scale="   97.078">  2  5  1 -1</clus>
<clus scale="   97.078">  2  5  1 -1</clus>
</clustering>
</event>
<event>
 9    1  0.7719620E-005  0.1047092E+03  0.7546771E-02  0.1273941E+00
          1   -1    0    0  502    0 -0.00000000000E+00  0.00000000000E+00  0.24182678626E+03  0.24182678626E+03  0.00000000000E+00 0. -1.
         21   -1    0    0  501  502  0.00000000000E+00 -0.00000000000E+00 -0.20154196600E+03  0.20154196600E+03  0.00000000000E+00 0. -1.
         23    2    1    2    0    0 -0.39765970884E+02  0.66292888722E+01  0.11756306800E+03  0.15207115899E+03  0.87631515601E+02 0.  0.
        -24    2    1    2    0    0  0.95572938920E+02  0.16735336775E-01  0.63407605398E+02  0.13980139994E+03  0.79935724604E+02 0.  0.
         11    1    4    4    0    0  0.94114947262E+02 -0.16100722897E+02  0.25871350813E+02  0.98925140226E+02  0.00000000000E+00 0. -1.
        -12    1    4    4    0    0  0.14579916580E+01  0.16117458234E+02  0.37536254585E+02  0.40876259710E+02  0.00000000000E+00 0.  1.
        -13    1    3    3    0    0 -0.35504930873E+01  0.42647483806E+02  0.36439730793E+02  0.56207364788E+02  0.00000000000E+00 0.  1.
         13    1    3    3    0    0 -0.36215477796E+02 -0.36018194934E+02  0.81123337209E+02  0.95863794200E+02  0.00000000000E+00 0. -1.
          2    1    1    2  501    0 -0.55806968036E+02 -0.66460242090E+01 -0.14068585314E+03  0.15149619333E+03  0.00000000000E+00 0. -1.
<scales pt_clust_5="13000.00000" pt_clust_6="13000.00000" pt_clust_7="13000.00000" pt_clust_8="13000.00000" pt_clust_9="56.20131"></scales>
<clustering>
<clus scale="   56.201">  2  9  1 -1</clus>
<clus scale="   79.936">  5  6 -1 -1</clus>
<clus scale="   87.632">  7  8 -1 -1</clus>
<clus scale="   98.359">  2  5  1 -1</clus>
<clus scale="   56.201">  2  5  1 -1</clus>
</clustering>
</event>
<event>
 9    1  0.7719620E-005  0.2017298E+03  0.7546771E-02  0.1148911E+00
          1   -1    0    0  502    0 -0.00000000000E+00  0.00000000000E+00  0.33799174811E+03  0.33799174811E+03  0.00000000000E+00 0. -1.
         21   -1    0    0  501  502  0.00000000000E+00 -0.00000000000E+00 -0.26697392991E+03  0.26697392991E+03  0.00000000000E+00 0.  1.
         23    2    1    2    0    0 -0.12169065737E+03  0.14407693682E+03  0.19320693555E+03  0.28474181983E+03  0.90455537137E+02 0.  0.
        -24    2    1    2    0    0  0.16262141269E+03 -0.63623667780E+02 -0.39077182102E+02  0.19752239523E+03  0.83632383027E+02 0.  0.
         11    1    4    4    0    0  0.53008733711E+01 -0.28345297553E+02  0.73207947289E+01  0.29751456894E+02  0.00000000000E+00 0. -1.
        -12    1    4    4    0    0  0.15732053932E+03 -0.35278370227E+02 -0.46397976831E+02  0.16777093834E+03  0.00000000000E+00 0.  1.
        -13    1    3    3    0    0 -0.19074973514E+02 -0.11643282822E+02  0.15999074935E+02  0.27484378258E+02  0.00000000000E+00 0.  1.
         13    1    3    3    0    0 -0.10261568386E+03  0.15572021964E+03  0.17720786062E+03  0.25725744157E+03  0.00000000000E+00 0. -1.
          2    1    1    2  501    0 -0.40930755316E+02 -0.80453269042E+02 -0.83111935257E+02  0.12270146296E+03  0.00000000000E+00 0. -1.
<scales pt_clust_5="13000.00000" pt_clust_6="13000.00000" pt_clust_7="13000.00000" pt_clust_8="13000.00000" pt_clust_9="90.26658"></scales>
<clustering>
<clus scale="   83.632">  5  6 -1 -1</clus>
<clus scale="   90.267">  2  9  1 -1</clus>
<clus scale="   90.456">  7  8 -1 -1</clus>
<clus scale="  198.764">  2  5  1 -1</clus>
<clus scale="   90.267">  2  5  1 -1</clus>
</clustering>
</event>
<event>
 9    1  0.7719620E-005  0.1007883E+03  0.7546771E-02  0.1285712E+00
         21   -1    0    0  501  502  0.00000000000E+00  0.00000000000E+00  0.25603466563E+03  0.25603466563E+03  0.00000000000E+00 0. -1.
          1   -1    0    0  502    0 -0.00000000000E+00 -0.00000000000E+00 -0.54820161495E+03  0.54820161495E+03  0.00000000000E+00 0. -1.
        -24    2    1    2    0    0 -0.31435541226E+02 -0.16081570963E+02 -0.47842866805E+03  0.48640215433E+03  0.80288574198E+02 0.  0.
         23    2    1    2    0    0  0.65731457408E+02 -0.21175301014E+02 -0.81682623396E+01  0.11691796982E+03  0.93989750986E+02 0.  0.
         11    1    3    3    0    0 -0.45268895988E+02 -0.29228414853E+02 -0.19430552986E+03  0.20163881599E+03  0.00000000000E+00 0. -1.
        -12    1    3    3    0    0  0.13833354762E+02  0.13146843890E+02 -0.28412313818E+03  0.28476333834E+03  0.00000000000E+00 0.  1.
        -11    1    4    4    0    0  0.48493305653E+02 -0.55926815599E+02  0.88632664582E+01  0.74551773208E+02  0.00000000000E+00 0. -1.
         11    1    4    4    0    0  0.17238151756E+02  0.34751514585E+02 -0.17031528798E+02  0.42366196609E+02  0.00000000000E+00 0.  1.
          2    1    1    2  501    0 -0.34295916182E+02  0.37256871977E+02  0.19442998107E+03  0.20091615643E+03  0.00000000000E+00 0. -1.
<scales pt_clust_5="13000.00000" pt_clust_6="13000.00000" pt_clust_7="13000.00000" pt_clust_8="13000.00000" pt_clust_9="50.63876"></scales>
<clustering>
<clus scale="   50.639">  1  9  2 -1</clus>
<clus scale="   80.289">  5  6 -1 -1</clus>
<clus scale="   88.150">  2  5  1 -1</clus>
<clus scale="   93.990">  7  8 -1 -1</clus>
<clus scale="   50.639">  1  5  2 -1</clus>
</clustering>
</event>
<event>
 9    1  0.7719620E-005  0.1007244E+03  0.7546771E-02  0.1284506E+00
          1   -1    0    0  502    0 -0.00000000000E+00  0.00000000000E+00  0.75915933147E+02  0.75915933147E+02  0.00000000000E+00 0. -1.
         21   -1    0    0  501  502  0.00000000000E+00 -0.00000000000E+00 -0.33297032564E+03  0.33297032564E+03  0.00000000000E+00 0.  1.
        -24    2    1    2    0    0 -0.30469750044E+02 -0.58408749448E+02 -0.61128453589E+02  0.12055661278E+03  0.80356837704E+02 0.  0.
         23    2    1    2    0    0 -0.58149174817E+02  0.13461167955E+02 -0.12519997346E+03  0.16636341661E+03  0.91865246198E+02 0.  0.
         11    1    3    3    0    0  0.27168713622E+02 -0.11248500575E+02 -0.18638871237E+02  0.34814871622E+02  0.00000000000E+00 0. -1.
        -12    1    3    3    0    0 -0.57638463666E+02 -0.47160248873E+02 -0.42489582351E+02  0.85741741153E+02  0.00000000000E+00 0.  1.
        -13    1    4    4    0    0  0.20970532520E+02  0.20125237110E+02 -0.23739652420E+02  0.37528116126E+02  0.00000000000E+00 0.  1.
         13    1    4    4    0    0 -0.79119707338E+02 -0.66640691546E+01 -0.10146032104E+03  0.12883530049E+03  0.00000000000E+00 0. -1.
          2    1    1    2  501    0  0.88618924861E+02  0.44947581492E+02 -0.70725965452E+02  0.12196622940E+03  0.00000000000E+00 0. -1.
<scales pt_clust_5="13000.00000" pt_clust_6="13000.00000" pt_clust_7="13000.00000" pt_clust_8="13000.00000" pt_clust_9="99.36603"></scales>
<clustering>
<clus scale="   80.357">  5  6 -1 -1</clus>
<clus scale="   91.865">  7  8 -1 -1</clus>
<clus scale="   99.366">  2  9  1 -1</clus>
<clus scale="   90.352">  1  5  2 -1</clus>
<clus scale="   99.366">  2  5  1 -1</clus>
</clustering>
</event>
<event>
 9    1  0.7719620E-005  0.2320818E+03  0.7546771E-02  0.1155165E+00
         21   -1    0    0  501  502  0.00000000000E+00  0.00000000000E+00  0.14979799027E+03  0.14979799027E+03  0.00000000000E+00 0.  1.
          3   -1    0    0  502    0 -0.00000000000E+00 -0.00000000000E+00 -0.86748593849E+03  0.86748593849E+03  0.00000000000E+00 0. -1.
         23    2    1    2    0    0 -0.64282523730E+02 -0.11838176431E+02 -0.41203499429E+03  0.42714777588E+03  0.91706055664E+02 0.  0.
        -24    2    1    2    0    0 -0.16614296382E+03 -0.11054818625E+03 -0.42787164132E+02  0.21976775448E+03  0.81502997377E+02 0.  0.
         13    1    4    4    0    0 -0.10750183912E+02 -0.26766217899E+02 -0.31731206287E+02  0.42882004701E+02  0.00000000000E+00 0. -1.
        -14    1    4    4    0    0 -0.15539277991E+03 -0.83781968353E+02 -0.11055957845E+02  0.17688574978E+03  0.00000000000E+00 0.  1.
        -13    1    3    3    0    0 -0.14644846866E+02  0.36785814442E+02 -0.20425432192E+03  0.20805647239E+03  0.00000000000E+00 0.  1.
         13    1    3    3    0    0 -0.49637676864E+02 -0.48623990873E+02 -0.20778067237E+03  0.21909130349E+03  0.00000000000E+00 0. -1.
          4    1    1    2  501    0  0.23042548755E+03  0.12238636268E+03 -0.26286578979E+03  0.37036839839E+03  0.00000000000E+00 0. -1.
<scales pt_clust_5="13000.00000" pt_clust_6="13000.00000" pt_clust_7="13000.00000" pt_clust_8="13000.00000" pt_clust_9="217.29993"></scales>
<clustering>
<clus scale="   81.503">  5  6 -1 -1</clus>
<clus scale="   91.706">  7  8 -1 -1</clus>
<clus scale="  112.616">  2  7  1 -1</clus>
<clus scale="  217.300">  1  9  2 -1</clus>
<clus scale="  217.300">  1  5  2 -1</clus>
</clustering>
</event>
<event>
 9    1  0.7719620E-005  0.1344289E+03  0.7546771E-02  0.1240102E+00
         -2   -1    0    0    0  501 -0.00000000000E+00  0.00000000000E+00  0.49761830164E+03  0.49761830164E+03  0.00000000000E+00 0.  1.
         21   -1    0    0  501  502  0.00000000000E+00 -0.00000000000E+00 -0.61581080633E+02  0.61581080633E+02  0.00000000000E+00 0. -1.
        -24    2    1    2    0    0  0.13611095723E+02  0.36326055547E+02  0.57879110460E+02  0.10759127590E+03  0.81981991832E+02 0.  0.
         23    2    1    2    0    0 -0.10814577133E+03 -0.49960839464E+02  0.26547162368E+03  0.30388892499E+03  0.87645321686E+02 0.  0.
         13    1    3    3    0    0  0.37046377074E+02  0.39745370296E+02  0.11532291646E+02  0.55543876935E+02  0.00000000000E+00 0. -1.
        -14    1    3    3    0    0 -0.23435281351E+02 -0.34193147488E+01  0.46346818814E+02  0.52047398970E+02  0.00000000000E+00 0.  1.
        -11    1    4    4    0    0 -0.24375936650E+02  0.96346774379E+01  0.13631381186E+03  0.13881090952E+03  0.00000000000E+00 0.  1.
         11    1    4    4    0    0 -0.83769834684E+02 -0.59595516902E+02  0.12915781182E+03  0.16507801547E+03  0.00000000000E+00 0. -1.
         -1    1    1    2    0  502  0.94534675610E+02  0.13634783916E+02  0.11268648686E+03  0.14771918138E+03  0.00000000000E+00 0.  1.
<scales pt_clust_5="13000.00000" pt_clust_6="13000.00000" pt_clust_7="13000.00000" pt_clust_8="13000.00000" pt_clust_9="101.92853"></scales>
<clustering>
<clus scale="   81.982">  5  6 -1 -1</clus>
<clus scale="   87.645">  7  8 -1 -1</clus>
<clus scale="   90.697">  1  5  2 -1</clus>
<clus scale="  101.929">  2  9  1 -1</clus>
<clus scale="  101.929">  2  5  1 -1</clus>
</clustering>
</event>
<event>
 9    1  0.7719620E-005  0.1131673E+03  0.7546771E-02  0.1262690E+00
         21   -1    0    0  501  502  0.00000000000E+00  0.00000000000E+00  0.49373345758E+03  0.49373345758E+03  0.00000000000E+00 0.  1.
          1   -1    0    0  502    0 -0.00000000000E+00 -0.00000000000E+00 -0.47070296297E+02  0.47070296297E+02  0.00000000000E+00 0. -1.
         23    2    1    2    0    0  0.50205735959E+02 -0.41076538410E+02  0.88046907013E+02  0.14576690563E+03  0.96373414440E+02 0.  0.
        -24    2    1    2    0    0 -0.58949362023E+02  0.38397097113E+01  0.12379622876E+03  0.15712199628E+03  0.76629268594E+02 0.  0.
         11    1    4    4    0    0 -0.31700231217E+02  0.33870539062E+02  0.30841912250E+02  0.55707644240E+02  0.00000000000E+00 0. -1.
        -12    1    4    4    0    0 -0.27249130806E+02 -0.30030829351E+02  0.92954316509E+02  0.10141435204E+03  0.00000000000E+00 0.  1.
        -11    1    3    3    0    0  0.73308271576E+02 -0.14361561127E+02  0.36142768476E+02  0.82985883332E+02  0.00000000000E+00 0. -1.
         11    1    3    3    0    0 -0.23102535616E+02 -0.26714977283E+02  0.51904138537E+02  0.62781022295E+02  0.00000000000E+00 0.  1.
          2    1    1    2  501    0  0.87436260634E+01  0.37236828698E+02  0.23482002551E+03  0.23791485197E+03  0.00000000000E+00 0. -1.
<scales pt_clust_5="13000.00000" pt_clust_6="13000.00000" pt_clust_7="13000.00000" pt_clust_8="13000.00000" pt_clust_9="38.24961"></scales>
<clustering>
<clus scale="   38.250">  1  9  2 -1</clus>
<clus scale="   76.629">  5  6 -1 -1</clus>
<clus scale="   96.373">  7  8 -1 -1</clus>
<clus scale="   96.907">  1  5  2 -1</clus>
<clus scale="   38.250">  1  5  2 -1</clus>
</clustering>
</event>
<event>
 9    1  0.7719620E-005  0.2398483E+03  0.7546771E-02  0.1120571E+00
          1   -1    0    0  502    0 -0.00000000000E+00  0.00000000000E+00  0.69510245201E+03  0.69510245201E+03  0.00000000000E+00 0. -1.
         21   -1    0    0  501  502  0.00000000000E+00 -0.00000000000E+00 -0.18810889155E+03  0.18810889155E+03  0.00000000000E+00 0.  1.
         23    2    1    2    0    0 -0.17343996198E+03 -0.14856525352E+03  0.44124959115E+03  0.50539444152E+03  0.92570431919E+02 0.  0.
        -24    2    1    2    0    0  0.16825505428E+03  0.12393975179E+03  0.16303700583E+03  0.27732195908E+03  0.81581728050E+02 0.  0.
         11    1    4    4    0    0  0.34643975774E+02  0.17261420792E+01  0.59127645289E+02  0.68551171115E+02  0.00000000000E+00 0. -1.
        -12    1    4    4    0    0  0.13361107851E+03  0.12221360971E+03  0.10390936055E+03  0.20877078796E+03  0.00000000000E+00 0.  1.
        -11    1    3    3    0    0 -0.72627001681E+02 -0.35678860219E+02  0.80304336165E+02  0.11400196861E+03  0.00000000000E+00 0.  1.
         11    1    3    3    0    0 -0.10081296030E+03 -0.11288639331E+03  0.36094525498E+03  0.39139247291E+03  0.00000000000E+00 0. -1.
          2    1    1    2  501    0  0.51849076972E+01  0.24625501734E+02 -0.97293036529E+02  0.10049494296E+03  0.00000000000E+00 0. -1.
<scales pt_clust_5="13000.00000" pt_clust_6="13000.00000" pt_clust_7="13000.00000" pt_clust_8="13000.00000" pt_clust_9="25.16542"></scales>
<clustering>
<clus scale="   25.165">  2  9  1 -1</clus>
<clus scale="   81.582">  5  6 -1 -1</clus>
<clus scale="   92.570">  7  8 -1 -1</clus>
<clus scale="  235.825">  2  5  1 -1</clus>
<clus scale="   25.165">  2  5  1 -1</clus>
</clustering>
</event>
<event>
 9    1  0.7719620E-005  0.3187990E+03  0.7546771E-02  0.1076889E+00
          1   -1    0    0  502    0 -0.00000000000E+00  0.00000000000E+00  0.15283732391E+04  0.15283732391E+04  0.00000000000E+00 0. -1.
         21   -1    0    0  501  502  0.00000000000E+00 -0.00000000000E+00 -0.20317214356E+03  0.20317214356E+03  0.00000000000E+00 0.  1.
        -24    2    1    2    0    0 -0.29277932702E+03  0.75358569883E+02  0.14555606623E+03  0.34512500160E+03  0.80783970725E+02 0.  0.
         23    2    1    2    0    0  0.10617322883E+03 -0.34196681716E+03  0.83073455337E+03  0.90930371438E+03  0.92191584581E+02 0.  0.
         13    1    3    3    0    0 -0.60995581796E+02  0.26466039290E-01  0.63286668613E+02  0.87895757140E+02  0.00000000000E+00 0. -1.
        -14    1    3    3    0    0 -0.23178374523E+03  0.75332103843E+02  0.82269397615E+02  0.25722924446E+03  0.00000000000E+00 0.  1.
        -11    1    4    4    0    0  0.28664349502E+02 -0.23560730858E+03  0.56249925272E+03  0.61052261064E+03  0.00000000000E+00 0.  1.
         11    1    4    4    0    0  0.77508879330E+02 -0.10635950858E+03  0.26823530064E+03  0.29878110374E+03  0.00000000000E+00 0. -1.
          2    1    1    2  501    0  0.18660609819E+03  0.26660824727E+03  0.34891047594E+03  0.47711666667E+03  0.00000000000E+00 0. -1.
<scales pt_clust_5="13000.00000" pt_clust_6="13000.00000" pt_clust_7="13000.00000" pt_clust_8="13000.00000" pt_clust_9="305.17788"></scales>
<clustering>
<clus scale="   80.784">  5  6 -1 -1</clus>
<clus scale="   92.192">  7  8 -1 -1</clus>
<clus scale="  312.929">  1  5  2 -1</clus>
<clus scale="  305.178">  2  9  1 -1</clus>
<clus scale="  305.178">  2  5  1 -1</clus>
</clustering>
</event>
<event>
 9    1  0.7719620E-005  0.9289243E+02  0.7546771E-02  0.1296774E+00
         -2   -1    0    0    0  501 -0.00000000000E+00  0.00000000000E+00  0.90282439742E+03  0.90282439742E+03  0.00000000000E+00 0.  1.
         21   -1    0    0  501  502  0.00000000000E+00 -0.00000000000E+00 -0.14532296065E+02  0.14532296065E+02  0.00000000000E+00 0. -1.
        -24    2    1    2    0    0 -0.36625197257E+02 -0.23087228081E+00  0.39480588973E+03  0.40619761494E+03  0.88223315779E+02 0.  0.
         23    2    1    2    0    0  0.49488501549E+01 -0.24058286081E+02  0.32596670002E+03  0.33894949417E+03  0.89605679668E+02 0.  0.
         13    1    3    3    0    0 -0.16606246006E+02 -0.33908529448E+02  0.74666589018E+02  0.83669918676E+02  0.00000000000E+00 0. -1.
        -14    1    3    3    0    0 -0.20018951251E+02  0.33677657167E+02  0.32013930071E+03  0.32252769627E+03  0.00000000000E+00 0.  1.
        -11    1    4    4    0    0  0.47007366651E+02 -0.11780725651E+02  0.19085196866E+03  0.19690848625E+03  0.00000000000E+00 0.  1.
         11    1    4    4    0    0 -0.42058516496E+02 -0.12277560430E+02  0.13511473137E+03  0.14204100792E+03  0.00000000000E+00 0. -1.
         -1    1    1    2    0  502  0.31676347102E+02  0.24289158362E+02  0.16751951161E+03  0.17220958437E+03  0.00000000000E+00 0.  1.
<scales pt_clust_5="13000.00000" pt_clust_6="13000.00000" pt_clust_7="13000.00000" pt_clust_8="13000.00000" pt_clust_9="39.91686"></scales>
<clustering>
<clus scale="   39.917">  2  9  1 -1</clus>
<clus scale="   88.223">  5  6 -1 -1</clus>
<clus scale="   89.606">  7  8 -1 -1</clus>
<clus scale="   91.560">  1  5  2 -1</clus>
<clus scale="   39.917">  2  5  1 -1</clus>
</clustering>
</event>
<event>
 9    1  0.7719620E-005  0.1164654E+03  0.7546771E-02  0.1256948E+00
         21   -1    0    0  501  502  0.00000000000E+00  0.00000000000E+00  0.83822522411E+02  0.83822522411E+02  0.00000000000E+00 0.  1.
         -2   -1    0    0    0  501 -0.00000000000E+00 -0.00000000000E+00 -0.27463099565E+03  0.27463099565E+03  0.00000000000E+00 0.  1.
        -24    2    1    2    0    0 -0.38873046444E+01 -0.45876706099E+02 -0.12207951064E+03  0.15424669319E+03  0.82273034112E+02 0.  0.
         23    2    1    2    0    0 -0.36501316416E+02  0.80793874530E+02 -0.66689463218E+02  0.15077828455E+03  0.10211077478E+03 0.  0.
         13    1    3    3    0    0 -0.33031697541E+02 -0.53651942715E+02 -0.70986653897E+02  0.94914324689E+02  0.00000000000E+00 0. -1.
        -14    1    3    3    0    0  0.29144392897E+02  0.77752366169E+01 -0.51092856745E+02  0.59332368503E+02  0.00000000000E+00 0.  1.
        -11    1    4    4    0    0  0.25512925652E+02 -0.42155819099E+01 -0.29368702306E+02  0.39130565818E+02  0.00000000000E+00 0. -1.
         11    1    4    4    0    0 -0.62014242067E+02  0.85009456440E+02 -0.37320760912E+02  0.11164771873E+03  0.00000000000E+00 0.  1.
         -1    1    1    2    0  502  0.40388621060E+02 -0.34917168432E+02 -0.20394993763E+01  0.53428540314E+02  0.00000000000E+00 0.  1.
<scales pt_clust_5="13000.00000" pt_clust_6="13000.00000" pt_clust_7="13000.00000" pt_clust_8="13000.00000" pt_clust_9="53.38960"></scales>
<clustering>
<clus scale="   53.390">  1  9  2 -1</clus>
<clus scale="   82.273">  5  6 -1 -1</clus>
<clus scale="   99.531">  2  5  1 -1</clus>
<clus scale="  102.111">  7  8 -1 -1</clus>
<clus scale="   53.390">  1  5  2 -1</clus>
</clustering>
</event>
<event>
 9    1  0.7719620E-005  0.1218077E+03  0.7546771E-02  0.1258925E+00
          1   -1    0    0  502    0 -0.00000000000E+00  0.00000000000E+00  0.54507763782E+03  0.54507763782E+03  0.00000000000E+00 0. -1.
         21   -1    0    0  501  502  0.00000000000E+00 -0.00000000000E+00 -0.38142600301E+02  0.38142600301E+02  0.00000000000E+00 0. -1.
        -24    2    1    2    0    0  0.15984134547E+02  0.17041744223E+02  0.17578061836E+03  0.19468003021E+03  0.80346591499E+02 0.  0.
         23    2    1    2    0    0  0.13236294690E+02  0.66699780286E+02  0.19165482984E+03  0.22323258005E+03  0.92071444037E+02 0.  0.
         11    1    3    3    0    0 -0.28059812281E+02  0.26511102973E+02  0.78919806552E+02  0.87855150744E+02  0.00000000000E+00 0. -1.
        -12    1    3    3    0    0  0.44043946828E+02 -0.94693587500E+01  0.96860811810E+02  0.10682487946E+03  0.00000000000E+00 0.  1.
        -11    1    4    4    0    0  0.16607088642E+02  0.89300265036E+02  0.16281122809E+03  0.18643451590E+03  0.00000000000E+00 0. -1.
         11    1    4    4    0    0 -0.33707939521E+01 -0.22600484750E+02  0.28843601750E+02  0.36798064144E+02  0.00000000000E+00 0.  1.
          2    1    1    2  501    0 -0.29220429237E+02 -0.83741524509E+02  0.13949958932E+03  0.16530762787E+03  0.00000000000E+00 0. -1.
<scales pt_clust_5="13000.00000" pt_clust_6="13000.00000" pt_clust_7="13000.00000" pt_clust_8="13000.00000" pt_clust_9="79.74935"></scales>
<clustering>
<clus scale="   80.347">  5  6 -1 -1</clus>
<clus scale="   83.675">  1  5  2 -1</clus>
<clus scale="   79.749">  2  9  1 -1</clus>
<clus scale="   92.071">  7  8 -1 -1</clus>
<clus scale="   79.749">  2  5  1 -1</clus>
</clustering>
</event>
<event>
 9    1  0.7719620E-005  0.9947745E+02  0.7546771E-02  0.1287080E+00
          3   -1    0    0  502    0 -0.00000000000E+00  0.00000000000E+00  0.74948682588E+02  0.74948682588E+02  0.00000000000E+00 0. -1.
         21   -1    0    0  501  502  0.00000000000E+00 -0.00000000000E+00 -0.31837411152E+03  0.31837411152E+03  0.00000000000E+00 0. -1.
         23    2    1    2    0    0  0.29707867623E+02  0.25946721344E+02 -0.12771020545E+03  0.16237922248E+03  0.92202633206E+02 0.  0.
        -24    2    1    2    0    0  0.37428939087E+02 -0.47993396343E+02 -0.12352665074E+03  0.15984909161E+03  0.81170235129E+02 0.  0.
         11    1    4    4    0    0  0.39776061075E+02 -0.68257602964E+02 -0.83659298708E+02  0.11506569279E+03  0.00000000000E+00 0. -1.
        -12    1    4    4    0    0 -0.23471219884E+01  0.20264206620E+02 -0.39867352029E+02  0.44783398815E+02  0.00000000000E+00 0.  1.
        -13    1    3    3    0    0  0.59833977685E+02  0.19558482395E+01 -0.92592482302E+02  0.11026013789E+03  0.00000000000E+00 0. -1.
         13    1    3    3    0    0 -0.30126110062E+02  0.23990873104E+02 -0.35117723145E+02  0.52119084592E+02  0.00000000000E+00 0.  1.
          4    1    1    2  501    0 -0.67136806710E+02  0.22046675000E+02  0.78114272547E+01  0.71094480022E+02  0.00000000000E+00 0. -1.
<scales pt_clust_5="13000.00000" pt_clust_6="13000.00000" pt_clust_7="13000.00000" pt_clust_8="13000.00000" pt_clust_9="70.66408"></scales>
<clustering>
<clus scale="   70.664">  2  9  1 -1</clus>
<clus scale="   81.170">  5  6 -1 -1</clus>
<clus scale="   89.348">  2  5  1 -1</clus>
<clus scale="   92.203">  7  8 -1 -1</clus>
<clus scale="   70.664">  2  5  1 -1</clus>
</clustering>
</event>
<event>
 9    1  0.7719620E-005  0.1962976E+03  0.7546771E-02  0.1171464E+00
          3   -1    0    0  502    0 -0.00000000000E+00  0.00000000000E+00  0.63259156560E+03  0.63259156560E+03  0.00000000000E+00 0. -1.
         21   -1    0    0  501  502  0.00000000000E+00 -0.00000000000E+00 -0.19805096699E+03  0.19805096699E+03  0.00000000000E+00 0. -1.
        -24    2    1    2    0    0 -0.56165496039E+02  0.84437377856E+02  0.24343708437E+03  0.27486584386E+03  0.77494414960E+02 0.  0.
         23    2    1    2    0    0 -0.10756964189E+03  0.11184992027E+03 -0.66048562123E+02  0.19319554033E+03  0.94236254820E+02 0.  0.
         13    1    3    3    0    0 -0.45625057968E+02  0.35098471457E+02  0.20055278724E+03  0.20865035126E+03  0.00000000000E+00 0. -1.
        -14    1    3    3    0    0 -0.10540438071E+02  0.49338906399E+02  0.42884297130E+02  0.66215492596E+02  0.00000000000E+00 0.  1.
        -11    1    4    4    0    0 -0.59988766919E+01  0.34166598451E+02 -0.54764115730E+02  0.64826316747E+02  0.00000000000E+00 0.  1.
         11    1    4    4    0    0 -0.10157076520E+03  0.77683321822E+02 -0.11284446393E+02  0.12836922358E+03  0.00000000000E+00 0. -1.
          4    1    1    2  501    0  0.16373513793E+03 -0.19628729813E+03  0.25715207636E+03  0.36258114840E+03  0.00000000000E+00 0. -1.
<scales pt_clust_5="13000.00000" pt_clust_6="13000.00000" pt_clust_7="13000.00000" pt_clust_8="13000.00000" pt_clust_9="172.19845"></scales>
<clustering>
<clus scale="   77.494">  5  6 -1 -1</clus>
<clus scale="   94.236">  7  8 -1 -1</clus>
<clus scale="  127.631">  1  5  2 -1</clus>
<clus scale="  172.198">  2  9  1 -1</clus>
<clus scale="  172.198">  2  5  1 -1</clus>
</clustering>
</event>
<event>
 9    1  0.7719620E-005  0.1855395E+03  0.7546771E-02  0.1163603E+00
         21   -1    0    0  501  502  0.00000000000E+00  0.00000000000E+00  0.10925286443E+03  0.10925286443E+03  0.00000000000E+00 0. -1.
          3   -1    0    0  502    0 -0.00000000000E+00 -0.00000000000E+00 -0.74161513536E+03  0.74161513536E+03  0.00000000000E+00 0. -1.
         23    2    1    2    0    0  0.11730304583E+00 -0.16652644581E+03 -0.51889057125E+03  0.55257692684E+03  0.91448150523E+02 0.  0.
        -24    2    1    2    0    0 -0.32847732629E+02  0.14903022625E+03 -0.16201403947E+03  0.23718659297E+03  0.81975295200E+02 0.  0.
         11    1    4    4    0    0 -0.26018873856E+02  0.68107759466E+01 -0.94606744819E+01  0.28510924702E+02  0.00000000000E+00 0. -1.
        -12    1    4    4    0    0 -0.68288587734E+01  0.14221945030E+03 -0.15255336499E+03  0.20867566827E+03  0.00000000000E+00 0.  1.
        -13    1    3    3    0    0 -0.38580150891E+02 -0.32389012698E+02 -0.13885950620E+03  0.14771404351E+03  0.00000000000E+00 0.  1.
         13    1    3    3    0    0  0.38697453937E+02 -0.13413743311E+03 -0.38003106505E+03  0.40486288334E+03  0.00000000000E+00 0. -1.
          4    1    1    2  501    0  0.32730429583E+02  0.17496219556E+02  0.48542339804E+02  0.61104479975E+02  0.00000000000E+00 0. -1.
<scales pt_clust_5="13000.00000" pt_clust_6="13000.00000" pt_clust_7="13000.00000" pt_clust_8="13000.00000" pt_clust_9="37.11332"></scales>
<clustering>
<clus scale="   37.113">  1  9  2 -1</clus>
<clus scale="   81.975">  5  6 -1 -1</clus>
<clus scale="   91.448">  7  8 -1 -1</clus>
<clus scale="  181.058">  1  5  2 -1</clus>
<clus scale="   37.113">  1  5  2 -1</clus>
</clustering>
</event>
<event>
 9    1  0.7719620E-005  0.2150918E+03  0.7546771E-02  0.1137596E+00
         21   -1    0    0  501  502  0.00000000000E+00  0.00000000000E+00  0.17105941144E+03  0.17105941144E+03  0.00000000000E+00 0.  1.
          1   -1    0    0  502    0 -0.00000000000E+00 -0.00000000000E+00 -0.15039571837E+03  0.15039571837E+03  0.00000000000E+00 0. -1.
        -24    2    1    2    0    0  0.48526492970E+02 -0.14450893292E+02 -0.89709037409E+01  0.10741883405E+03  0.94311610942E+02 0.  0.
         23    2    1    2    0    0  0.50204729103E+02 -0.22669086704E+02  0.17239090041E+02  0.10783179625E+03  0.91082971739E+02 0.  0.
         11    1    3    3    0    0  0.37288669651E+02 -0.30057746778E+02 -0.45547404764E+02  0.66094471073E+02  0.00000000000E+00 0. -1.
        -12    1    3    3    0    0  0.11237823319E+02  0.15606853486E+02  0.36576501023E+02  0.41324362981E+02  0.00000000000E+00 0.  1.
        -11    1    4    4    0    0  0.74265504370E+02 -0.30103622118E+02  0.19723304033E+02  0.82526371093E+02  0.00000000000E+00 0.  1.
         11    1    4    4    0    0 -0.24060775266E+02  0.74345354136E+01 -0.24842139923E+01  0.25305425157E+02  0.00000000000E+00 0. -1.
          2    1    1    2  501    0 -0.98731222073E+02  0.37119979996E+02  0.12395506774E+02  0.10620449951E+03  0.00000000000E+00 0. -1.
<scales pt_clust_5="13000.00000" pt_clust_6="13000.00000" pt_clust_7="13000.00000" pt_clust_8="13000.00000" pt_clust_9="105.47866"></scales>
<clustering>
<clus scale="   91.083">  7  8 -1 -1</clus>
<clus scale="   94.312">  5  6 -1 -1</clus>
<clus scale="   97.898">  5  7 -1 -1</clus>
<clus scale="  105.479">  1  9  2 -1</clus>
<clus scale="  105.479">  1  5  2 -1</clus>
</clustering>
</event>
<event>
 9    1  0.7719620E-005  0.1013481E+03  0.7546771E-02  0.1281644E+00
          1   -1    0    0  502    0 -0.00000000000E+00  0.00000000000E+00  0.11257944379E+03  0.11257944379E+03  0.00000000000E+00 0. -1.
         21   -1    0    0  501  502  0.00000000000E+00 -0.00000000000E+00 -0.18947468596E+03  0.18947468596E+03  0.00000000000E+00 0. -1.
         23    2    1    2    0    0 -0.19099193199E+02 -0.55750436023E+02  0.20653533528E+02  0.10961838886E+03  0.90092910000E+02 0.  0.
        -24    2    1    2    0    0  0.21335048473E+02  0.28223671803E+02  0.24294382943E+01  0.88713202008E+02  0.81316481089E+02 0.  0.
         13    1    4    4    0    0  0.16520293927E+02  0.25297102173E+02  0.40332195075E+02  0.50393942585E+02  0.00000000000E+00 0. -1.
        -14    1    4    4    0    0  0.48147545467E+01  0.29265696307E+01 -0.37902756780E+02  0.38319259423E+02  0.00000000000E+00 0.  1.
        -13    1    3    3    0    0 -0.53965442985E+02 -0.19744994294E+02  0.90509298265E+01  0.58172615267E+02  0.00000000000E+00 0. -1.
         13    1    3    3    0    0  0.34866249787E+02 -0.36005441730E+02  0.11602603702E+02  0.51445773597E+02  0.00000000000E+00 0.  1.
          2    1    1    2  501    0 -0.22358552749E+01  0.27526764220E+02 -0.99978213999E+02  0.10372253888E+03  0.00000000000E+00 0. -1.
<scales pt_clust_5="13000.00000" pt_clust_6="13000.00000" pt_clust_7="13000.00000" pt_clust_8="13000.00000" pt_clust_9="27.61742"></scales>
<clustering>
<clus scale="   27.617">  2  9  1 -1</clus>
<clus scale="   81.316">  5  6 -1 -1</clus>
<clus scale="   90.093">  7  8 -1 -1</clus>
<clus scale="   93.633">  2  5  1 -1</clus>
<clus scale="   27.617">  2  5  1 -1</clus>
</clustering>
</event>
<event>
 9    1  0.7719620E-005  0.1158560E+03  0.7546771E-02  0.1254121E+00
         21   -1    0    0  501  502  0.00000000000E+00  0.00000000000E+00  0.15198324187E+03  0.15198324187E+03  0.00000000000E+00 0.  1.
         -4   -1    0    0    0  501 -0.00000000000E+00 -0.00000000000E+00 -0.14137807078E+03  0.14137807078E+03  0.00000000000E+00 0.  1.
        -24    2    1    2    0    0  0.33259551948E+02 -0.48666828814E+02 -0.34901908318E+02  0.10486672932E+03  0.79399179419E+02 0.  0.
         23    2    1    2    0    0 -0.60419360877E+02  0.84363161684E+02  0.34937952035E+02  0.14241215875E+03  0.91065472318E+02 0.  0.
         13    1    3    3    0    0  0.50850387888E+02 -0.61618450241E+01 -0.87898381195E+01  0.51971064417E+02  0.00000000000E+00 0. -1.
        -14    1    3    3    0    0 -0.17590835939E+02 -0.42504983790E+02 -0.26112070199E+02  0.52895664908E+02  0.00000000000E+00 0.  1.
        -13    1    4    4    0    0  0.92227512039E+01  0.29757410613E+02 -0.21134469268E+02  0.37646094318E+02  0.00000000000E+00 0. -1.
         13    1    4    4    0    0 -0.69642112081E+02  0.54605751070E+02  0.56072421303E+02  0.10476606443E+03  0.00000000000E+00 0.  1.
         -3    1    1    2    0  502  0.27159808929E+02 -0.35696332870E+02  0.10569127382E+02  0.46082424578E+02  0.00000000000E+00 0.  1.
<scales pt_clust_5="13000.00000" pt_clust_6="13000.00000" pt_clust_7="13000.00000" pt_clust_8="13000.00000" pt_clust_9="44.85402"></scales>
<clustering>
<clus scale="   44.854">  1  9  2 -1</clus>
<clus scale="   79.399">  5  6 -1 -1</clus>
<clus scale="   91.065">  7  8 -1 -1</clus>
<clus scale="  106.929">  2  5  1 -1</clus>
<clus scale="   44.854">  1  5  2 -1</clus>
</clustering>
</event>
<event>
 9    1  0.7719620E-005  0.1306961E+03  0.7546771E-02  0.1242594E+00
         21   -1    0    0  501  502  0.00000000000E+00  0.00000000000E+00  0.36315410092E+02  0.36315410092E+02  0.00000000000E+00 0.  1.
          1   -1    0    0  502    0 -0.00000000000E+00 -0.00000000000E+00 -0.10406521267E+04  0.10406521267E+04  0.00000000000E+00 0. -1.
         23    2    1    2    0    0  0.18046569812E+02  0.95184538302E+01 -0.56200238975E+03  0.56978171208E+03  0.91587300912E+02 0.  0.
        -24    2    1    2    0    0 -0.74855114522E+02  0.73439806498E+02 -0.16108592838E+03  0.20850548496E+03  0.80803264709E+02 0.  0.
         11    1    4    4    0    0 -0.37045517533E+02 -0.68465626385E+01 -0.22317695209E+02  0.43787273365E+02  0.00000000000E+00 0. -1.
        -12    1    4    4    0    0 -0.37809596988E+02  0.80286369136E+02 -0.13876823317E+03  0.16471821160E+03  0.00000000000E+00 0.  1.
        -11    1    3    3    0    0 -0.13867254079E+02 -0.35807100922E+02 -0.22961084955E+03  0.23279946616E+03  0.00000000000E+00 0.  1.
         11    1    3    3    0    0  0.31913823891E+02  0.45325554752E+02 -0.33239154019E+03  0.33698224592E+03  0.00000000000E+00 0. -1.
          2    1    1    2  501    0  0.56808544709E+02 -0.82958260328E+02 -0.28124839845E+03  0.29868033973E+03  0.00000000000E+00 0. -1.
<scales pt_clust_5="13000.00000" pt_clust_6="13000.00000" pt_clust_7="13000.00000" pt_clust_8="13000.00000" pt_clust_9="102.72451"></scales>
<clustering>
<clus scale="   80.803">  5  6 -1 -1</clus>
<clus scale="   91.587">  7  8 -1 -1</clus>
<clus scale="   93.832">  2  7  1 -1</clus>
<clus scale="  102.725">  1  9  2 -1</clus>
<clus scale="  102.725">  1  5  2 -1</clus>
</clustering>
</event>
<event>
 9    1  0.7719620E-005  0.9991202E+02  0.7546771E-02  0.1288085E+00
         21   -1    0    0  501  502  0.00000000000E+00  0.00000000000E+00  0.13604048001E+03  0.13604048001E+03  0.00000000000E+00 0. -1.
          3   -1    0    0  502    0 -0.00000000000E+00 -0.00000000000E+00 -0.21851709683E+03  0.21851709683E+03  0.00000000000E+00 0. -1.
         23    2    1    2    0    0 -0.18599119020E+02 -0.20412985322E+02 -0.10264618162E+03  0.14079326910E+03  0.92324909018E+02 0.  0.
        -24    2    1    2    0    0  0.38621298256E+02  0.33116550459E+02 -0.72700807558E+02  0.11791455921E+03  0.77653881174E+02 0.  0.
         13    1    4    4    0    0  0.29680282640E+02  0.50654377414E+02 -0.77907804958E+02  0.97552094812E+02  0.00000000000E+00 0. -1.
        -14    1    4    4    0    0  0.89410156156E+01 -0.17537826955E+02  0.52069973996E+01  0.20362464401E+02  0.00000000000E+00 0.  1.
        -11    1    3    3    0    0 -0.46464230785E+02  0.16977495827E+02 -0.58055253178E+02  0.76273013108E+02  0.00000000000E+00 0. -1.
         11    1    3    3    0    0  0.27865111765E+02 -0.37390481149E+02 -0.44590928445E+02  0.64520255997E+02  0.00000000000E+00 0.  1.
          4    1    1    2  501    0 -0.20022179236E+02 -0.12703565137E+02  0.92870372363E+02  0.95849748520E+02  0.00000000000E+00 0. -1.
<scales pt_clust_5="13000.00000" pt_clust_6="13000.00000" pt_clust_7="13000.00000" pt_clust_8="13000.00000" pt_clust_9="23.71220"></scales>
<clustering>
<clus scale="   23.712">  1  9  2 -1</clus>
<clus scale="   77.654">  5  6 -1 -1</clus>
<clus scale="   86.537">  1  5  2 -1</clus>
<clus scale="   92.325">  7  8 -1 -1</clus>
<clus scale="   23.712">  1  5  2 -1</clus>
</clustering>
</event>
<event>
 9    1  0.7719620E-005  0.1147145E+03  0.7546771E-02  0.1261134E+00
         21   -1    0    0  501  502  0.00000000000E+00  0.00000000000E+00  0.43357228191E+03  0.43357228191E+03  0.00000000000E+00 0. -1.
          1   -1    0    0  502    0 -0.00000000000E+00 -0.00000000000E+00 -0.56407824276E+02  0.56407824276E+02  0.00000000000E+00 0. -1.
        -24    2    1    2    0    0 -0.33959665507E+02 -0.31936728921E+00  0.51754265013E+02  0.12614482671E+03  0.10991202155E+03 0.  0.
         23    2    1    2    0    0  0.16687218230E+02  0.53789700116E+02  0.22280258118E+03  0.24684922965E+03  0.90120790664E+02 0.  0.
         11    1    3    3    0    0  0.18361943016E+02 -0.43369204825E+02  0.17698454308E+02  0.50311869011E+02  0.00000000000E+00 0. -1.
        -12    1    3    3    0    0 -0.52321608523E+02  0.43049837536E+02  0.34055810706E+02  0.75832957698E+02  0.00000000000E+00 0.  1.
        -11    1    4    4    0    0  0.19436280328E+02 -0.20598235524E+02  0.36304801938E+02  0.46044488741E+02  0.00000000000E+00 0.  1.
         11    1    4    4    0    0 -0.27490620982E+01  0.74387935640E+02  0.18649777924E+03  0.20080474091E+03  0.00000000000E+00 0. -1.
          2    1    1    2  501    0  0.17272447277E+02 -0.53470332827E+02  0.10260761144E+03  0.11698604982E+03  0.00000000000E+00 0. -1.
<scales pt_clust_5="13000.00000" pt_clust_6="13000.00000" pt_clust_7="13000.00000" pt_clust_8="13000.00000" pt_clust_9="56.19087"></scales>
<clustering>
<clus scale="   56.191">  1  9  2 -1</clus>
<clus scale="   90.121">  7  8 -1 -1</clus>
<clus scale="   95.919">  1  7  2 -1</clus>
<clus scale="  109.912">  5  6 -1 -1</clus>
<clus scale="   56.191">  1  5  2 -1</clus>
</clustering>
</event>
<event>
 9    1  0.7719620E-005  0.1344993E+03  0.7546771E-02  0.1236448E+00
          1   -1    0    0  502    0 -0.00000000000E+00  0.00000000000E+00  0.73765656584E+03  0.73765656584E+03  0.00000000000E+00 0. -1.
         21   -1    0    0  501  502  0.00000000000E+00 -0.00000000000E+00 -0.77543227616E+02  0.77543227616E+02  0.00000000000E+00 0.  1.
         23    2    1    2    0    0 -0.85608664097E+01  0.29379969832E+02 -0.57391788569E+01  0.97720972752E+02  0.92628177574E+02 0.  0.
        -24    2    1    2    0    0 -0.86790771518E+02 -0.70288438132E+02  0.21752948242E+03  0.25730604767E+03  0.80088849975E+02 0.  0.
         11    1    4    4    0    0 -0.40494626625E+02 -0.15148376172E+02  0.15823212830E+03  0.16403260199E+03  0.00000000000E+00 0. -1.
        -12    1    4    4    0    0 -0.46296144893E+02 -0.55140061961E+02  0.59297354115E+02  0.93273445686E+02  0.00000000000E+00 0.  1.
        -11    1    3    3    0    0 -0.16629170378E+02 -0.29834527589E+02  0.10605387710E+02  0.35764543788E+02  0.00000000000E+00 0. -1.
         11    1    3    3    0    0  0.80683039687E+01  0.59214497420E+02 -0.16344566567E+02  0.61956428963E+02  0.00000000000E+00 0.  1.
          2    1    1    2  501    0  0.95351637928E+02  0.40908468301E+02  0.44832303467E+03  0.46017277304E+03  0.00000000000E+00 0. -1.
<scales pt_clust_5="13000.00000" pt_clust_6="13000.00000" pt_clust_7="13000.00000" pt_clust_8="13000.00000" pt_clust_9="108.05480"></scales>
<clustering>
<clus scale="   80.089">  5  6 -1 -1</clus>
<clus scale="   92.628">  7  8 -1 -1</clus>
<clus scale="   97.552">  1  7  2 -1</clus>
<clus scale="  108.055">  2  9  1 -1</clus>
<clus scale="  108.055">  2  5  1 -1</clus>
</clustering>
</event>
<event>
 9    1  0.7719620E-005  0.8853632E+02  0.7546771E-02  0.1309741E+00
         -4   -1    0    0    0  501 -0.00000000000E+00  0.00000000000E+00  0.11700414099E+04  0.11700414099E+04  0.00000000000E+00 0.  1.
         21   -1    0    0  501  502  0.00000000000E+00 -0.00000000000E+00 -0.17509270880E+02  0.17509270880E+02  0.00000000000E+00 0. -1.
        -24    2    1    2    0    0  0.15186883138E+02  0.23704051623E+02  0.67433544531E+03  0.67971596563E+03  0.80579014921E+02 0.  0.
         23    2    1    2    0    0 -0.51080781447E+01  0.19073630454E+02  0.13120687647E+03  0.15807273085E+03  0.85917681329E+02 0.  0.
         11    1    3    3    0    0  0.19894839941E+02  0.62495177822E+01  0.39880463951E+02  0.45003472463E+02  0.00000000000E+00 0. -1.
        -12    1    3    3    0    0 -0.47079568026E+01  0.17454533841E+02  0.63445498136E+03  0.63471249317E+03  0.00000000000E+00 0.  1.
        -13    1    4    4    0    0  0.22714180172E+02  0.51860969638E+01  0.69280594126E-01  0.23298806458E+02  0.00000000000E+00 0. -1.
         13    1    4    4    0    0 -0.27822258316E+02  0.13887533491E+02  0.13113759588E+03  0.13477392440E+03  0.00000000000E+00 0.  1.
         -3    1    1    2    0  502 -0.10078804993E+02 -0.42777682078E+02  0.34698981725E+03  0.34976198431E+03  0.00000000000E+00 0.  1.
<scales pt_clust_5="13000.00000" pt_clust_6="13000.00000" pt_clust_7="13000.00000" pt_clust_8="13000.00000" pt_clust_9="43.94900"></scales>
<clustering>
<clus scale="   43.949">  2  9  1 -1</clus>
<clus scale="   80.579">  5  6 -1 -1</clus>
<clus scale="   83.366">  1  5  2 -1</clus>
<clus scale="   85.918">  7  8 -1 -1</clus>
<clus scale="   43.949">  2  5  1 -1</clus>
</clustering>
</event>
<event>
 9    1  0.7719620E-005  0.1057592E+03  0.7546771E-02  0.1273405E+00
         21   -1    0    0  501  502  0.00000000000E+00  0.00000000000E+00  0.17808967118E+03  0.17808967118E+03  0.00000000000E+00 0. -1.
         -4   -1    0    0    0  501 -0.00000000000E+00 -0.00000000000E+00 -0.16243268754E+03  0.16243268754E+03  0.00000000000E+00 0.  1.
         23    2    1    2    0    0 -0.24920083338E+02  0.37594761632E+02 -0.49608016798E+02  0.11414371936E+03  0.92376710721E+02 0.  0.
        -24    2    1    2    0    0  0.62681359999E+02 -0.51936797901E+02  0.11467156932E+03  0.16256157998E+03  0.81549461101E+02 0.  0.
         13    1    4    4    0    0  0.47565549180E+02 -0.15246070964E+02  0.11218385098E+03  0.12280122381E+03  0.00000000000E+00 0. -1.
        -14    1    4    4    0    0  0.15115810818E+02 -0.36690726937E+02  0.24877183423E+01  0.39760356165E+02  0.00000000000E+00 0.  1.
        -11    1    3    3    0    0 -0.13191847731E+02 -0.28028903117E+02  0.11585164538E+00  0.30978342081E+02  0.00000000000E+00 0.  1.
         11    1    3    3    0    0 -0.11728235607E+02  0.65623664749E+02 -0.49723868443E+02  0.83165377282E+02  0.00000000000E+00 0. -1.
         -3    1    1    2    0  502 -0.37761276661E+02  0.14342036269E+02 -0.49406568887E+02  0.63817059385E+02  0.00000000000E+00 0.  1.
<scales pt_clust_5="13000.00000" pt_clust_6="13000.00000" pt_clust_7="13000.00000" pt_clust_8="13000.00000" pt_clust_9="40.39319"></scales>
<clustering>
<clus scale="   40.393">  1  9  2 -1</clus>
<clus scale="   81.549">  5  6 -1 -1</clus>
<clus scale="   92.377">  7  8 -1 -1</clus>
<clus scale="   96.446">  1  5  2 -1</clus>
<clus scale="   40.393">  1  5  2 -1</clus>
</clustering>
</event>
<event>
 9    1  0.7719620E-005  0.1103907E+03  0.7546771E-02  0.1260239E+00
          3   -1    0    0  502    0 -0.00000000000E+00  0.00000000000E+00  0.51849497893E+03  0.51849497893E+03  0.00000000000E+00 0. -1.
         21   -1    0    0  501  502  0.00000000000E+00 -0.00000000000E+00 -0.27988519462E+03  0.27988519462E+03  0.00000000000E+00 0. -1.
         23    2    1    2    0    0 -0.79088329777E+01 -0.54112124286E+02  0.39587064694E+03  0.40988995595E+03  0.91134709334E+02 0.  0.
        -24    2    1    2    0    0  0.29406794294E+02  0.11066463824E+03  0.63972383427E+02  0.15913351215E+03  0.90108751744E+02 0.  0.
         11    1    4    4    0    0  0.39264691565E+02  0.64238541246E+02  0.79214274623E+02  0.10928498291E+03  0.00000000000E+00 0. -1.
        -12    1    4    4    0    0 -0.98578972703E+01  0.46426096990E+02 -0.15241891196E+02  0.49848529241E+02  0.00000000000E+00 0.  1.
        -11    1    3    3    0    0  0.16083975496E+02  0.20593699786E+02  0.13369733288E+03  0.13622691202E+03  0.00000000000E+00 0.  1.
         11    1    3    3    0    0 -0.23992808473E+02 -0.74705824072E+02  0.26217331406E+03  0.27366304393E+03  0.00000000000E+00 0. -1.
          4    1    1    2  501    0 -0.21497961317E+02 -0.56552513950E+02 -0.22123324606E+03  0.22935670545E+03  0.00000000000E+00 0. -1.
<scales pt_clust_5="13000.00000" pt_clust_6="13000.00000" pt_clust_7="13000.00000" pt_clust_8="13000.00000" pt_clust_9="60.50082"></scales>
<clustering>
<clus scale="   60.501">  2  9  1 -1</clus>
<clus scale="   90.109">  5  6 -1 -1</clus>
<clus scale="   91.135">  7  8 -1 -1</clus>
<clus scale="  109.545">  2  5  1 -1</clus>
<clus scale="   60.501">  2  5  1 -1</clus>
</clustering>
</event>
<event>
 9    1  0.7719620E-005  0.1178826E+03  0.7546771E-02  0.1249245E+00
         21   -1    0    0  501  502  0.00000000000E+00  0.00000000000E+00  0.18077411905E+03  0.18077411905E+03  0.00000000000E+00 0.  1.
          1   -1    0    0  502    0 -0.00000000000E+00 -0.00000000000E+00 -0.64640466061E+03  0.64640466061E+03  0.00000000000E+00 0. -1.
         23    2    1    2    0    0 -0.64810481375E+01  0.78858954419E+02 -0.60829898837E+03  0.61951611428E+03  0.86670744356E+02 0.  0.
        -24    2    1    2    0    0  0.15433681769E+02 -0.97126519437E+02  0.10085089383E+03  0.16115931798E+03  0.78292168676E+02 0.  0.
         13    1    4    4    0    0  0.40609096693E+02 -0.53354939468E+02  0.28329486928E+02  0.72790165060E+02  0.00000000000E+00 0. -1.
        -14    1    4    4    0    0 -0.25175414924E+02 -0.43771579968E+02  0.72521406901E+02  0.88369152924E+02  0.00000000000E+00 0.  1.
        -13    1    3    3    0    0  0.34183765174E+02  0.62955083866E+02 -0.43143054718E+03  0.43733761492E+03  0.00000000000E+00 0. -1.
         13    1    3    3    0    0 -0.40664813312E+02  0.15903870553E+02 -0.17686844119E+03  0.18217849936E+03  0.00000000000E+00 0.  1.
          2    1    1    2  501    0 -0.89526336311E+01  0.18267565017E+02  0.41817552987E+02  0.46503347389E+02  0.00000000000E+00 0. -1.
<scales pt_clust_5="13000.00000" pt_clust_6="13000.00000" pt_clust_7="13000.00000" pt_clust_8="13000.00000" pt_clust_9="20.34339"></scales>
<clustering>
<clus scale="   20.343">  1  9  2 -1</clus>
<clus scale="   78.292">  5  6 -1 -1</clus>
<clus scale="   86.671">  7  8 -1 -1</clus>
<clus scale="  111.867">  1  5  2 -1</clus>
<clus scale="   20.343">  1  5  2 -1</clus>
</clustering>
</event>
<event>
 9    1  0.7719620E-005  0.8728766E+02  0.7546771E-02  0.1317431E+00
         21   -1    0    0  501  502  0.00000000000E+00  0.00000000000E+00  0.42730706521E+03  0.42730706521E+03  0.00000000000E+00 0. -1.
          3   -1    0    0  502    0 -0.00000000000E+00 -0.00000000000E+00 -0.48767404265E+02  0.48767404265E+02  0.00000000000E+00 0. -1.
         23    2    1    2    0    0  0.39620581503E+01 -0.27733561390E+02  0.24929008328E+02  0.77201611187E+02  0.67481738133E+02 0.  0.
        -24    2    1    2    0    0  0.14213563593E+02  0.76216561403E+02  0.31530492423E+03  0.33446568987E+03  0.80244082866E+02 0.  0.
         11    1    4    4    0    0 -0.32594110924E+02  0.40855314310E+02  0.16669630974E+03  0.17469743117E+03  0.00000000000E+00 0. -1.
        -12    1    4    4    0    0  0.46807674517E+02  0.35361247093E+02  0.14860861449E+03  0.15976825871E+03  0.00000000000E+00 0.  1.
        -11    1    3    3    0    0  0.25928243792E+02  0.71117887507E+01 -0.35568053695E+01  0.27120144355E+02  0.00000000000E+00 0.  1.
         11    1    3    3    0    0 -0.21966185642E+02 -0.34845350141E+02  0.28485813698E+02  0.50081466833E+02  0.00000000000E+00 0. -1.
          4    1    1    2  501    0 -0.18175621743E+02 -0.48483000013E+02  0.38305728381E+02  0.64407168412E+02  0.00000000000E+00 0. -1.
<scales pt_clust_5="13000.00000" pt_clust_6="13000.00000" pt_clust_7="13000.00000" pt_clust_8="13000.00000" pt_clust_9="51.77796"></scales>
<clustering>
<clus scale="   51.778">  1  9  2 -1</clus>
<clus scale="   67.482">  7  8 -1 -1</clus>
<clus scale="   75.722">  2  7  1 -1</clus>
<clus scale="   80.244">  5  6 -1 -1</clus>
<clus scale="   51.778">  1  5  2 -1</clus>
</clustering>
</event>
<event>
 9    1  0.7719620E-005  0.1396937E+03  0.7546771E-02  0.1231967E+00
          1   -1    0    0  502    0 -0.00000000000E+00  0.00000000000E+00  0.85739370081E+02  0.85739370081E+02  0.00000000000E+00 0. -1.
         21   -1    0    0  501  502  0.00000000000E+00 -0.00000000000E+00 -0.63704539755E+03  0.63704539755E+03  0.00000000000E+00 0. -1.
         23    2    1    2    0    0  0.42456108050E+02  0.17789279486E+02  0.77276342624E+01  0.95760673901E+02  0.83614656367E+02 0.  0.
        -24    2    1    2    0    0  0.78050960509E+02 -0.44316390385E+02 -0.11649382467E+03  0.16760364515E+03  0.80400720077E+02 0.  0.
         11    1    4    4    0    0  0.93030840840E+02 -0.47155970625E+02 -0.93865200119E+02  0.14031784885E+03  0.00000000000E+00 0. -1.
        -12    1    4    4    0    0 -0.14979880331E+02  0.28395802406E+01 -0.22628624554E+02  0.27285796302E+02  0.00000000000E+00 0.  1.
        -11    1    3    3    0    0 -0.18060482100E+02 -0.13141402185E+02  0.15743744236E+02  0.27326597806E+02  0.00000000000E+00 0.  1.
         11    1    3    3    0    0  0.60516590149E+02  0.30930681671E+02 -0.80161099739E+01  0.68434076095E+02  0.00000000000E+00 0. -1.
          2    1    1    2  501    0 -0.12050706856E+03  0.26527110899E+02 -0.44253983706E+03  0.45942044858E+03  0.00000000000E+00 0. -1.
<scales pt_clust_5="13000.00000" pt_clust_6="13000.00000" pt_clust_7="13000.00000" pt_clust_8="13000.00000" pt_clust_9="114.23687"></scales>
<clustering>
<clus scale="   80.401">  5  6 -1 -1</clus>
<clus scale="   83.615">  7  8 -1 -1</clus>
<clus scale="   95.448">  1  7  2 -1</clus>
<clus scale="  114.237">  2  9  1 -1</clus>
<clus scale="  114.237">  2  5  1 -1</clus>
</clustering>
</event>
<event>
 9    1  0.7719620E-005  0.1515005E+03  0.7546771E-02  0.1200303E+00
         21   -1    0    0  501  502  0.00000000000E+00  0.00000000000E+00  0.82996280708E+02  0.82996280708E+02  0.00000000000E+00 0.  1.
         -2   -1    0    0    0  501 -0.00000000000E+00 -0.00000000000E+00 -0.49205753690E+03  0.49205753690E+03  0.00000000000E+00 0.  1.
        -24    2    1    2    0    0  0.73886776432E+02  0.88881255061E+02 -0.26307201609E+03  0.29879782857E+03  0.81939755143E+02 0.  0.
         23    2    1    2    0    0 -0.12811347263E+03 -0.67961687243E+02 -0.82359443212E+02  0.19007644419E+03  0.91181818073E+02 0.  0.
         13    1    3    3    0    0  0.37506502636E+02 -0.70953892003E+01 -0.57346124001E+02  0.68888752535E+02  0.00000000000E+00 0. -1.
        -14    1    3    3    0    0  0.36380273796E+02  0.95976644261E+02 -0.20572589209E+03  0.22990907603E+03  0.00000000000E+00 0.  1.
        -13    1    4    4    0    0 -0.17328875194E+02  0.22384262698E+02 -0.12001639736E+02  0.30747105366E+02  0.00000000000E+00 0. -1.
         13    1    4    4    0    0 -0.11078459744E+03 -0.90345949941E+02 -0.70357803476E+02  0.15932933883E+03  0.00000000000E+00 0.  1.
         -1    1    1    2    0  502  0.54226696202E+02 -0.20919567818E+02 -0.63629796888E+02  0.86179544850E+02  0.00000000000E+00 0.  1.
<scales pt_clust_5="13000.00000" pt_clust_6="13000.00000" pt_clust_7="13000.00000" pt_clust_8="13000.00000" pt_clust_9="58.12199"></scales>
<clustering>
<clus scale="   58.122">  1  9  2 -1</clus>
<clus scale="   81.940">  5  6 -1 -1</clus>
<clus scale="   91.182">  7  8 -1 -1</clus>
<clus scale="  146.125">  2  5  1 -1</clus>
<clus scale="   58.122">  1  5  2 -1</clus>
</clustering>
</event>
<event>
 9    1  0.7719620E-005  0.1210914E+03  0.7546771E-02  0.1262470E+00
         21   -1    0    0  501  502  0.00000000000E+00  0.00000000000E+00  0.60486070481E+03  0.60486070481E+03  0.00000000000E+00 0.  1.
         -2   -1    0    0    0  501 -0.00000000000E+00 -0.00000000000E+00 -0.37730639762E+02  0.37730639762E+02  0.00000000000E+00 0.  1.
        -24    2    1    2    0    0  0.25468231200E+01 -0.11003750895E+02  0.16533259638E+03  0.18342794457E+03  0.78634436368E+02 0.  0.
         23    2    1    2    0    0  0.57060233299E+02 -0.45547508215E+02  0.12683357663E+03  0.17218572141E+03  0.90723319871E+02 0.  0.
         11    1    3    3    0    0 -0.27446059351E+02  0.12437580975E+02  0.28779410570E+02  0.41668142113E+02  0.00000000000E+00 0. -1.
        -12    1    3    3    0    0  0.29992882471E+02 -0.23441331870E+02  0.13655318581E+03  0.14175980246E+03  0.00000000000E+00 0.  1.
        -11    1    4    4    0    0  0.78871880818E+02 -0.48607288974E+02  0.89363233997E+02  0.12872152002E+03  0.00000000000E+00 0.  1.
         11    1    4    4    0    0 -0.21811647519E+02  0.30597807595E+01  0.37470342630E+02  0.43464201391E+02  0.00000000000E+00 0. -1.
         -1    1    1    2    0  502 -0.59607056419E+02  0.56551259110E+02  0.27496389204E+03  0.28697767859E+03  0.00000000000E+00 0.  1.
<scales pt_clust_5="13000.00000" pt_clust_6="13000.00000" pt_clust_7="13000.00000" pt_clust_8="13000.00000" pt_clust_9="80.20235"></scales>
<clustering>
<clus scale="   78.634">  5  6 -1 -1</clus>
<clus scale="   79.441">  2  5  1 -1</clus>
<clus scale="   80.202">  1  9  2 -1</clus>
<clus scale="   90.723">  7  8 -1 -1</clus>
<clus scale="   80.202">  1  5  2 -1</clus>
</clustering>
</event>
<event>
 9    1  0.7719620E-005  0.1035452E+03  0.7546771E-02  0.1274575E+00
         -2   -1    0    0    0  501 -0.00000000000E+00  0.00000000000E+00  0.33334725347E+02  0.33334725347E+02  0.00000000000E+00 0.  1.
         21   -1    0    0  501  502  0.00000000000E+00 -0.00000000000E+00 -0.10945218412E+04  0.10945218412E+04  0.00000000000E+00 0.  1.
        -24    2    1    2    0    0 -0.56383278240E+02  0.85832486881E+01 -0.10848890536E+03  0.15428752780E+03  0.93712605480E+02 0.  0.
         23    2    1    2    0    0 -0.15638913343E+01  0.60326145383E+02 -0.45441529308E+03  0.46721714052E+03  0.90315603499E+02 0.  0.
         13    1    3    3    0    0 -0.23559151125E+02  0.46605567113E+02 -0.82739834805E+02  0.97841671854E+02  0.00000000000E+00 0. -1.
        -14    1    3    3    0    0 -0.32824127115E+02 -0.38022318425E+02 -0.25749070556E+02  0.56445855948E+02  0.00000000000E+00 0.  1.
        -11    1    4    4    0    0 -0.15341695879E+02  0.80452618837E+02 -0.38574145708E+03  0.39434054219E+03  0.00000000000E+00 0.  1.
         11    1    4    4    0    0  0.13777804545E+02 -0.20126473454E+02 -0.68673836007E+02  0.72876598327E+02  0.00000000000E+00 0. -1.
         -1    1    1    2    0  502  0.57947169574E+02 -0.68909394071E+02 -0.49828291737E+03  0.50635189818E+03  0.00000000000E+00 0.  1.
<scales pt_clust_5="13000.00000" pt_clust_6="13000.00000" pt_clust_7="13000.00000" pt_clust_8="13000.00000" pt_clust_9="90.03543"></scales>
<clustering>
<clus scale="   90.035">  2  9  1 -1</clus>
<clus scale="   90.316">  7  8 -1 -1</clus>
<clus scale="   93.713">  5  6 -1 -1</clus>
<clus scale="  100.481">  2  7  1 -1</clus>
<clus scale="   90.035">  2  5  1 -1</clus>
</clustering>
</event>
<event>
 9    1  0.7719620E-005  0.9378656E+02  0.7546771E-02  0.1299692E+00
         21   -1    0    0  501  502  0.00000000000E+00  0.00000000000E+00  0.33968556970E+02  0.33968556970E+02  0.00000000000E+00 0.  1.
          1   -1    0    0  502    0 -0.00000000000E+00 -0.00000000000E+00 -0.56299080759E+03  0.56299080759E+03  0.00000000000E+00 0. -1.
        -24    2    1    2    0    0  0.16269076229E+02  0.68457896124E+01 -0.30393177941E+03  0.31566012580E+03  0.83398086346E+02 0.  0.
         23    2    1    2    0    0  0.49376289256E+01 -0.13284274085E+02 -0.23781823216E+03  0.25574196339E+03  0.92981655036E+02 0.  0.
         11    1    3    3    0    0 -0.23600771730E+02  0.29417988063E+02 -0.10646187785E+03  0.11294487984E+03  0.00000000000E+00 0. -1.
        -12    1    3    3    0    0  0.39869847959E+02 -0.22572198451E+02 -0.19746990156E+03  0.20271524595E+03  0.00000000000E+00 0.  1.
        -11    1    4    4    0    0  0.40658754829E+02 -0.32395683627E+02 -0.15616963027E+03  0.16459516421E+03  0.00000000000E+00 0.  1.
         11    1    4    4    0    0 -0.35721125903E+02  0.19111409542E+02 -0.81648601885E+02  0.91146799177E+02  0.00000000000E+00 0. -1.
          2    1    1    2  501    0 -0.21206705154E+02  0.64384844728E+01  0.12727760948E+02  0.25557275375E+02  0.00000000000E+00 0. -1.
<scales pt_clust_5="13000.00000" pt_clust_6="13000.00000" pt_clust_7="13000.00000" pt_clust_8="13000.00000" pt_clust_9="22.16255"></scales>
<clustering>
<clus scale="   22.163">  1  9  2 -1</clus>
<clus scale="   83.398">  5  6 -1 -1</clus>
<clus scale="   84.295">  2  5  1 -1</clus>
<clus scale="   92.982">  7  8 -1 -1</clus>
<clus scale="   22.163">  1  5  2 -1</clus>
</clustering>
</event>
<event>
 9    1  0.7719620E-005  0.1587917E+03  0.7546771E-02  0.1191777E+00
          1   -1    0    0  502    0 -0.00000000000E+00  0.00000000000E+00  0.50495399072E+02  0.50495399072E+02  0.00000000000E+00 0. -1.
         21   -1    0    0  501  502  0.00000000000E+00 -0.00000000000E+00 -0.94411799378E+03  0.94411799378E+03  0.00000000000E+00 0. -1.
         23    2    1    2    0    0 -0.11031923628E+03 -0.63488387484E+02 -0.12662220443E+03  0.20110423903E+03  0.90601451769E+02 0.  0.
        -24    2    1    2    0    0  0.11904963920E+03  0.83117717618E+02 -0.74319090826E+03  0.76144013496E+03  0.79856004400E+02 0.  0.
         13    1    4    4    0    0  0.11261492060E+03  0.55839767381E+02 -0.68960613240E+03  0.70096848560E+03  0.00000000000E+00 0. -1.
        -14    1    4    4    0    0  0.64347185945E+01  0.27277950238E+02 -0.53584775857E+02  0.60471649359E+02  0.00000000000E+00 0.  1.
        -13    1    3    3    0    0 -0.20477004726E+02 -0.61947130480E+02 -0.41453292277E+02  0.77298965956E+02  0.00000000000E+00 0.  1.
         13    1    3    3    0    0 -0.89842231553E+02 -0.15412570040E+01 -0.85168912158E+02  0.12380527308E+03  0.00000000000E+00 0. -1.
          2    1    1    2  501    0 -0.87304029174E+01 -0.19629330135E+02 -0.23809482016E+02  0.32069018858E+02  0.00000000000E+00 0. -1.
<scales pt_clust_5="13000.00000" pt_clust_6="13000.00000" pt_clust_7="13000.00000" pt_clust_8="13000.00000" pt_clust_9="21.48327"></scales>
<clustering>
<clus scale="   21.483">  2  9  1 -1</clus>
<clus scale="   79.856">  5  6 -1 -1</clus>
<clus scale="   90.601">  7  8 -1 -1</clus>
<clus scale="  152.916">  2  5  1 -1</clus>
<clus scale="   21.483">  2  5  1 -1</clus>
</clustering>
</event>
<event>
 9    1  0.7719620E-005  0.1209880E+03  0.7546771E-02  0.1244387E+00
         21   -1    0    0  501  502  0.00000000000E+00  0.00000000000E+00  0.49726151632E+02  0.49726151632E+02  0.00000000000E+00 0. -1.
          1   -1    0    0  502    0 -0.00000000000E+00 -0.00000000000E+00 -0.69695721649E+03  0.69695721649E+03  0.00000000000E+00 0. -1.
        -24    2    1    2    0    0 -0.91480257065E+02  0.27082208660E+02 -0.52185434575E+03  0.53656003850E+03  0.80390504887E+02 0.  0.
         23    2    1    2    0    0  0.20886523408E+02 -0.18534724098E+02 -0.50470022212E+02  0.10683950725E+03  0.89931497875E+02 0.  0.
         11    1    3    3    0    0 -0.92063911841E+02  0.31317146835E+02 -0.52313563110E+03  0.53209718668E+03  0.00000000000E+00 0. -1.
        -12    1    3    3    0    0  0.58365477575E+00 -0.42349381750E+01  0.12812853440E+01  0.44628518210E+01  0.00000000000E+00 0.  1.
        -13    1    4    4    0    0  0.46340622304E+02  0.96125210012E+01 -0.49650532470E+01  0.47586821592E+02  0.00000000000E+00 0. -1.
         13    1    4    4    0    0 -0.25454098896E+02 -0.28147245099E+02 -0.45504968965E+02  0.59252685658E+02  0.00000000000E+00 0.  1.
          2    1    1    2  501    0  0.70593733657E+02 -0.85474845625E+01 -0.74906696892E+02  0.10328382237E+03  0.00000000000E+00 0. -1.
<scales pt_clust_5="13000.00000" pt_clust_6="13000.00000" pt_clust_7="13000.00000" pt_clust_8="13000.00000" pt_clust_9="71.10932"></scales>
<clustering>
<clus scale="   71.109">  1  9  2 -1</clus>
<clus scale="   80.391">  5  6 -1 -1</clus>
<clus scale="   89.931">  7  8 -1 -1</clus>
<clus scale="  114.075">  2  5  1 -1</clus>
<clus scale="   71.109">  1  5  2 -1</clus>
</clustering>
</event>
<event>
 9    1  0.7719620E-005  0.9698253E+02  0.7546771E-02  0.1292392E+00
         -2   -1    0    0    0  501 -0.00000000000E+00  0.00000000000E+00  0.31156379778E+03  0.31156379778E+03  0.00000000000E+00 0.  1.
         21   -1    0    0  501  502  0.00000000000E+00 -0.00000000000E+00 -0.12367030852E+03  0.12367030852E+03  0.00000000000E+00 0.  1.
        -24    2    1    2    0    0  0.34429971970E+02 -0.14168889483E+02  0.24348857863E+03  0.25905540861E+03  0.80229897211E+02 0.  0.
         23    2    1    2    0    0 -0.18051367762E+02 -0.43344784696E+02 -0.55818665566E+02  0.11637793364E+03  0.90683393050E+02 0.  0.
         13    1    3    3    0    0  0.19623070747E+02 -0.42525564484E+02  0.82032099399E+02  0.94460329620E+02  0.00000000000E+00 0. -1.
        -14    1    3    3    0    0  0.14806901223E+02  0.28356675001E+02  0.16145647923E+03  0.16459507899E+03  0.00000000000E+00 0.  1.
        -11    1    4    4    0    0 -0.17183138374E+02 -0.68702382093E+02 -0.22114706421E+02  0.74191224479E+02  0.00000000000E+00 0.  1.
         11    1    4    4    0    0 -0.86822938795E+00  0.25357597397E+02 -0.33703959145E+02  0.42186709164E+02  0.00000000000E+00 0. -1.
         -1    1    1    2    0  502 -0.16378604208E+02  0.57513674180E+02  0.22357619153E+00  0.59800764040E+02  0.00000000000E+00 0.  1.
<scales pt_clust_5="13000.00000" pt_clust_6="13000.00000" pt_clust_7="13000.00000" pt_clust_8="13000.00000" pt_clust_9="59.80035"></scales>
<clustering>
<clus scale="   59.800">  2  9  1 -1</clus>
<clus scale="   80.230">  5  6 -1 -1</clus>
<clus scale="   87.287">  1  5  2 -1</clus>
<clus scale="   90.683">  7  8 -1 -1</clus>
<clus scale="   59.800">  2  5  1 -1</clus>
</clustering>
</event>
<event>
 9    1  0.7719620E-005  0.9253933E+02  0.7546771E-02  0.1304744E+00
          1   -1    0    0  502    0 -0.00000000000E+00  0.00000000000E+00  0.42700070675E+03  0.42700070675E+03  0.00000000000E+00 0. -1.
         21   -1    0    0  501  502  0.00000000000E+00 -0.00000000000E+00 -0.45893502251E+02  0.45893502251E+02  0.00000000000E+00 0. -1.
         23    2    1    2    0    0 -0.15239970079E+02 -0.19686168722E+02  0.17915473368E+03  0.20311273446E+03  0.92404341741E+02 0.  0.
        -24    2    1    2    0    0 -0.18364326497E+02 -0.39394207606E+02  0.50953674007E+02  0.10419048368E+03  0.79813707559E+02 0.  0.
         11    1    4    4    0    0 -0.13823879952E+02 -0.59620301424E+02  0.55889675606E+02  0.82881456539E+02  0.00000000000E+00 0. -1.
        -12    1    4    4    0    0 -0.45404465450E+01  0.20226093818E+02 -0.49360015983E+01  0.21309027142E+02  0.00000000000E+00 0.  1.
        -13    1    3    3    0    0  0.25983712833E+02  0.39337298317E+01  0.11199168945E+02  0.28566570463E+02  0.00000000000E+00 0. -1.
         13    1    3    3    0    0 -0.41223682912E+02 -0.23619898554E+02  0.16795556473E+03  0.17454616399E+03  0.00000000000E+00 0.  1.
          2    1    1    2  501    0  0.33604296576E+02  0.59080376328E+02  0.15099879681E+03  0.16559099086E+03  0.00000000000E+00 0. -1.
<scales pt_clust_5="13000.00000" pt_clust_6="13000.00000" pt_clust_7="13000.00000" pt_clust_8="13000.00000" pt_clust_9="67.96870"></scales>
<clustering>
<clus scale="   67.969">  2  9  1 -1</clus>
<clus scale="   79.814">  5  6 -1 -1</clus>
<clus scale="   79.970">  2  5  1 -1</clus>
<clus scale="   92.404">  7  8 -1 -1</clus>
<clus scale="   67.969">  2  5  1 -1</clus>
</clustering>
</event>
<event>
 9    1  0.7719620E-005  0.9733563E+02  0.7546771E-02  0.1288205E+00
         21   -1    0    0  501  502  0.00000000000E+00  0.00000000000E+00  0.12491178480E+03  0.12491178480E+03  0.00000000000E+00 0. -1.
          1   -1    0    0  502    0 -0.00000000000E+00 -0.00000000000E+00 -0.31181206046E+03  0.31181206046E+03  0.00000000000E+00 0. -1.
        -24    2    1    2    0    0 -0.37823826396E+02 -0.20552992616E+02 -0.14230230349E+03  0.17699788906E+03  0.96048111930E+02 0.  0.
         23    2    1    2    0    0 -0.12314415670E+02 -0.38467173621E+02 -0.11662920083E+03  0.15396338606E+03  0.92037956744E+02 0.  0.
         13    1    3    3    0    0  0.15350689176E+02 -0.35085116022E+02 -0.10129729652E+03  0.10829474275E+03  0.00000000000E+00 0. -1.
        -14    1    3    3    0    0 -0.53174515572E+02  0.14532123407E+02 -0.41005006972E+02  0.68703146316E+02  0.00000000000E+00 0.  1.
        -13    1    4    4    0    0 -0.35808198394E+02 -0.54567441520E+02 -0.10405441299E+03  0.12282977493E+03  0.00000000000E+00 0. -1.
         13    1    4    4    0    0  0.23493782724E+02  0.16100267899E+02 -0.12574787844E+02  0.31133611137E+02  0.00000000000E+00 0.  1.
          2    1    1    2  501    0  0.50138242066E+02  0.59020166236E+02  0.72031228658E+02  0.10576257014E+03  0.00000000000E+00 0. -1.
<scales pt_clust_5="13000.00000" pt_clust_6="13000.00000" pt_clust_7="13000.00000" pt_clust_8="13000.00000" pt_clust_9="77.44174"></scales>
<clustering>
<clus scale="   77.442">  1  9  2 -1</clus>
<clus scale="   92.038">  7  8 -1 -1</clus>
<clus scale="   93.381">  1  7  2 -1</clus>
<clus scale="   96.048">  5  6 -1 -1</clus>
<clus scale="   77.442">  1  5  2 -1</clus>
</clustering>
</event>
<event>
 9    1  0.7719620E-005  0.1194437E+03  0.7546771E-02  0.1247631E+00
         21   -1    0    0  501  502  0.00000000000E+00  0.00000000000E+00  0.58749754176E+02  0.58749754176E+02  0.00000000000E+00 0.  1.
          1   -1    0    0  502    0 -0.00000000000E+00 -0.00000000000E+00 -0.58488492836E+03  0.58488492836E+03  0.00000000000E+00 0. -1.
        -24    2    1    2    0    0 -0.86315216903E+02  0.46230048400E+02 -0.30816417192E+03  0.33301401503E+03  0.79659546252E+02 0.  0.
         23    2    1    2    0    0 -0.13380531895E+02 -0.71775073489E+02 -0.96310583499E+02  0.15126870445E+03  0.90971383656E+02 0.  0.
         13    1    3    3    0    0 -0.90620251568E+02  0.33613902440E+02 -0.30408081729E+03  0.31907219853E+03  0.00000000000E+00 0. -1.
        -14    1    3    3    0    0  0.43050346652E+01  0.12616145960E+02 -0.40833546308E+01  0.13941816503E+02  0.00000000000E+00 0.  1.
        -13    1    4    4    0    0  0.32084319451E+02 -0.57391981531E+02 -0.72816394521E+02  0.98109481753E+02  0.00000000000E+00 0. -1.
         13    1    4    4    0    0 -0.45464851346E+02 -0.14383091958E+02 -0.23494188978E+02  0.53159222699E+02  0.00000000000E+00 0.  1.
          2    1    1    2  501    0  0.99695748798E+02  0.25545025088E+02 -0.12166041877E+03  0.15935196306E+03  0.00000000000E+00 0. -1.
<scales pt_clust_5="13000.00000" pt_clust_6="13000.00000" pt_clust_7="13000.00000" pt_clust_8="13000.00000" pt_clust_9="102.91643"></scales>
<clustering>
<clus scale="   79.660">  5  6 -1 -1</clus>
<clus scale="   90.971">  7  8 -1 -1</clus>
<clus scale="  102.916">  1  9  2 -1</clus>
<clus scale="  111.070">  2  5  1 -1</clus>
<clus scale="  102.916">  1  5  2 -1</clus>
</clustering>
</event>
<event>
 9    1  0.7719620E-005  0.1030157E+03  0.7546771E-02  0.1285905E+00
         21   -1    0    0  501  502  0.00000000000E+00  0.00000000000E+00  0.17513922366E+03  0.17513922366E+03  0.00000000000E+00 0. -1.
          3   -1    0    0  502    0 -0.00000000000E+00 -0.00000000000E+00 -0.17618352743E+03  0.17618352743E+03  0.00000000000E+00 0. -1.
         23    2    1    2    0    0 -0.65101225510E+01 -0.91020264810E+01 -0.13282274452E+03  0.16786748679E+03  0.10204108525E+03 0.  0.
        -24    2    1    2    0    0 -0.91065372131E+01  0.36544427182E+02  0.67992314125E+02  0.11228198723E+03  0.81030029603E+02 0.  0.
         11    1    4    4    0    0  0.32370409400E+02  0.35242407807E+02  0.36999336001E+02  0.60488193701E+02  0.00000000000E+00 0. -1.
        -12    1    4    4    0    0 -0.41476946613E+02  0.13020193754E+01  0.30992978124E+02  0.51793793526E+02  0.00000000000E+00 0.  1.
        -13    1    3    3    0    0 -0.35385483650E+02  0.23042129749E+02 -0.19354843137E+02  0.46450857359E+02  0.00000000000E+00 0.  1.
         13    1    3    3    0    0  0.28875361099E+02 -0.32144156230E+02 -0.11346790138E+03  0.12141662943E+03  0.00000000000E+00 0. -1.
          4    1    1    2  501    0  0.15616659764E+02 -0.27442400701E+02  0.63786126632E+02  0.71173277072E+02  0.00000000000E+00 0. -1.
<scales pt_clust_5="13000.00000" pt_clust_6="13000.00000" pt_clust_7="13000.00000" pt_clust_8="13000.00000" pt_clust_9="31.57476"></scales>
<clustering>
<clus scale="   31.575">  1  9  2 -1</clus>
<clus scale="   81.030">  5  6 -1 -1</clus>
<clus scale="   82.254">  1  5  2 -1</clus>
<clus scale="  102.041">  7  8 -1 -1</clus>
<clus scale="   31.575">  1  5  2 -1</clus>
</clustering>
</event>
<event>
 9    1  0.7719620E-005  0.1235926E+03  0.7546771E-02  0.1240456E+00
         21   -1    0    0  501  502  0.00000000000E+00  0.00000000000E+00  0.71004697627E+03  0.71004697627E+03  0.00000000000E+00 0.  1.
          1   -1    0    0  502    0 -0.00000000000E+00 -0.00000000000E+00 -0.61164475347E+02  0.61164475347E+02  0.00000000000E+00 0. -1.
         23    2    1    2    0    0 -0.32263137089E+02 -0.58361099543E+02  0.28568495929E+03  0.30720119200E+03  0.91157821656E+02 0.  0.
        -24    2    1    2    0    0  0.11480146749E+03  0.31547332415E+02  0.34722664191E+03  0.37576841166E+03  0.80380017566E+02 0.  0.
         13    1    4    4    0    0 -0.48810625757E+01  0.22847157964E+02  0.65882231489E+02  0.69901972968E+02  0.00000000000E+00 0. -1.
        -14    1    4    4    0    0  0.11968253007E+03  0.87001744510E+01  0.28134441043E+03  0.30586643869E+03  0.00000000000E+00 0.  1.
        -11    1    3    3    0    0 -0.45384324064E+02 -0.15878859733E+02  0.23460140879E+03  0.23947796572E+03  0.00000000000E+00 0.  1.
         11    1    3    3    0    0  0.13121186975E+02 -0.42482239810E+02  0.51083550494E+02  0.67723226282E+02  0.00000000000E+00 0. -1.
          2    1    1    2  501    0 -0.82538330404E+02  0.26813767128E+02  0.15970899724E+02  0.88241847961E+02  0.00000000000E+00 0. -1.
<scales pt_clust_5="13000.00000" pt_clust_6="13000.00000" pt_clust_7="13000.00000" pt_clust_8="13000.00000" pt_clust_9="86.78457"></scales>
<clustering>
<clus scale="   80.380">  5  6 -1 -1</clus>
<clus scale="   86.785">  1  9  2 -1</clus>
<clus scale="   91.158">  7  8 -1 -1</clus>
<clus scale="  115.872">  1  5  2 -1</clus>
<clus scale="   86.785">  1  5  2 -1</clus>
</clustering>
</event>
<event>
 9    1  0.7719620E-005  0.9586333E+02  0.7546771E-02  0.1296918E+00
         -2   -1    0    0    0  501 -0.00000000000E+00  0.00000000000E+00  0.20610218760E+03  0.20610218760E+03  0.00000000000E+00 0.  1.
         21   -1    0    0  501  502  0.00000000000E+00 -0.00000000000E+00 -0.69965437493E+02  0.69965437493E+02  0.00000000000E+00 0.  1.
        -24    2    1    2    0    0 -0.84622585903E+01  0.32287796355E+00  0.56690941081E+02  0.98696960317E+02  0.80346207779E+02 0.  0.
         23    2    1    2    0    0  0.16883617448E+02  0.49035203158E+02  0.42109520205E+02  0.11491157481E+03  0.93498399159E+02 0.  0.
         13    1    3    3    0    0  0.52728297650E+01 -0.34375438849E+02  0.52895552575E+01  0.35177449092E+02  0.00000000000E+00 0. -1.
        -14    1    3    3    0    0 -0.13735088355E+02  0.34698316812E+02  0.51401385823E+02  0.63519511225E+02  0.00000000000E+00 0.  1.
        -13    1    4    4    0    0 -0.20192911439E+02  0.43387216561E+02 -0.11753036373E+02  0.49278170596E+02  0.00000000000E+00 0.  1.
         13    1    4    4    0    0  0.37076528887E+02  0.56479865971E+01  0.53862556579E+02  0.65633404209E+02  0.00000000000E+00 0. -1.
         -1    1    1    2    0  502 -0.84213588576E+01 -0.49358081122E+02  0.37336288818E+02  0.62459089969E+02  0.00000000000E+00 0.  1.
<scales pt_clust_5="13000.00000" pt_clust_6="13000.00000" pt_clust_7="13000.00000" pt_clust_8="13000.00000" pt_clust_9="50.07137"></scales>
<clustering>
<clus scale="   50.071">  2  9  1 -1</clus>
<clus scale="   80.346">  5  6 -1 -1</clus>
<clus scale="   83.086">  1  5  2 -1</clus>
<clus scale="   93.498">  7  8 -1 -1</clus>
<clus scale="   50.071">  2  5  1 -1</clus>
</clustering>
</event>
<event>
 9    1  0.7719620E-005  0.2714130E+03  0.7546771E-02  0.1100939E+00
          1   -1    0    0  502    0 -0.00000000000E+00  0.00000000000E+00  0.84481836870E+03  0.84481836870E+03  0.00000000000E+00 0. -1.
         21   -1    0    0  501  502  0.00000000000E+00 -0.00000000000E+00 -0.25544609284E+03  0.25544609284E+03  0.00000000000E+00 0.  1.
        -24    2    1    2    0    0 -0.22988756721E+03  0.23090274322E+02  0.34125346553E+03  0.42002588660E+03  0.81156412902E+02 0.  0.
         23    2    1    2    0    0  0.37728321623E+03 -0.22669919565E+02 -0.32346521771E+01  0.38885529270E+03  0.91331403056E+02 0.  0.
         11    1    3    3    0    0 -0.20982990686E+03 -0.42459680164E+01  0.27882300849E+03  0.34898264731E+03  0.00000000000E+00 0. -1.
        -12    1    3    3    0    0 -0.20057660353E+02  0.27336242338E+02  0.62430457033E+02  0.71043239294E+02  0.00000000000E+00 0.  1.
        -11    1    4    4    0    0  0.17344339393E+03  0.12665843315E+02 -0.40714666432E+02  0.17860772253E+03  0.00000000000E+00 0.  1.
         11    1    4    4    0    0  0.20383982230E+03 -0.35335762881E+02  0.37480014255E+02  0.21024757017E+03  0.00000000000E+00 0. -1.
          2    1    1    2  501    0 -0.14739564902E+03 -0.42035475656E+00  0.25135346252E+03  0.29138328224E+03  0.00000000000E+00 0. -1.
<scales pt_clust_5="13000.00000" pt_clust_6="13000.00000" pt_clust_7="13000.00000" pt_clust_8="13000.00000" pt_clust_9="147.39632"></scales>
<clustering>
<clus scale="   81.156">  5  6 -1 -1</clus>
<clus scale="   91.331">  7  8 -1 -1</clus>
<clus scale="  147.396">  2  9  1 -1</clus>
<clus scale="  268.160">  1  5  2 -1</clus>
<clus scale="  147.396">  2  5  1 -1</clus>
</clustering>
</event>
<event>
 9    1  0.7719620E-005  0.2722431E+03  0.7546771E-02  0.1135364E+00
         21   -1    0    0  501  502  0.00000000000E+00  0.00000000000E+00  0.12719493319E+04  0.12719493319E+04  0.00000000000E+00 0.  1.
          1   -1    0    0  502    0 -0.00000000000E+00 -0.00000000000E+00 -0.11460295656E+03  0.11460295656E+03  0.00000000000E+00 0. -1.
         23    2    1    2    0    0 -0.15117027609E+02  0.62308143740E+02  0.25183174748E+03  0.27560722618E+03  0.91811136477E+02 0.  0.
        -24    2    1    2    0    0  0.23514195211E+03 -0.12341241708E+03  0.82042967225E+03  0.86725643044E+03  0.92230725291E+02 0.  0.
         13    1    4    4    0    0  0.76063850905E+02  0.43511028691E+01  0.25513402541E+03  0.26626680685E+03  0.00000000000E+00 0. -1.
        -14    1    4    4    0    0  0.15907810121E+03 -0.12776351995E+03  0.56529564685E+03  0.60098962359E+03  0.00000000000E+00 0.  1.
        -13    1    3    3    0    0 -0.44811398576E+02  0.12606373846E+02  0.64577332097E+02  0.79606619854E+02  0.00000000000E+00 0.  1.
         13    1    3    3    0    0  0.29694370967E+02  0.49701769894E+02  0.18725441539E+03  0.19600060633E+03  0.00000000000E+00 0. -1.
          2    1    1    2  501    0 -0.22002492450E+03  0.61104273341E+02  0.85084955596E+02  0.24368863185E+03  0.00000000000E+00 0. -1.
<scales pt_clust_5="13000.00000" pt_clust_6="13000.00000" pt_clust_7="13000.00000" pt_clust_8="13000.00000" pt_clust_9="256.14428"></scales>
<clustering>
<clus scale="   91.811">  7  8 -1 -1</clus>
<clus scale="   92.231">  5  6 -1 -1</clus>
<clus scale="  111.983">  2  7  1 -1</clus>
<clus scale="  256.144">  1  9  2 -1</clus>
<clus scale="  256.144">  1  5  2 -1</clus>
</clustering>
</event>
<event>
 9    1  0.7719620E-005  0.9103067E+02  0.7546771E-02  0.1305919E+00
         21   -1    0    0  501  502  0.00000000000E+00  0.00000000000E+00  0.67186870337E+02  0.67186870337E+02  0.00000000000E+00 0.  1.
          3   -1    0    0  502    0 -0.00000000000E+00 -0.00000000000E+00 -0.31752274328E+03  0.31752274328E+03  0.00000000000E+00 0. -1.
        -24    2    1    2    0    0 -0.12087702061E+02  0.91709662725E+00 -0.24681701918E+03  0.26030087044E+03  0.81798218736E+02 0.  0.
         23    2    1    2    0    0 -0.18689921476E+02 -0.62832673424E+01  0.14468294712E+01  0.92774649090E+02  0.90643530298E+02 0.  0.
         13    1    3    3    0    0  0.15473299115E+02 -0.30845021193E+02 -0.64011636570E+02  0.72720890632E+02  0.00000000000E+00 0. -1.
        -14    1    3    3    0    0 -0.27561001176E+02  0.31762117820E+02 -0.18280538261E+03  0.18757997981E+03  0.00000000000E+00 0.  1.
        -13    1    4    4    0    0 -0.15724719113E+02  0.19343546733E+02  0.39555272222E+02  0.46755311484E+02  0.00000000000E+00 0.  1.
         13    1    4    4    0    0 -0.29652023627E+01 -0.25626814076E+02 -0.38108442751E+02  0.46019337605E+02  0.00000000000E+00 0. -1.
          4    1    1    2  501    0  0.30777623537E+02  0.53661707152E+01 -0.49656832350E+01  0.31634094087E+02  0.00000000000E+00 0. -1.
<scales pt_clust_5="13000.00000" pt_clust_6="13000.00000" pt_clust_7="13000.00000" pt_clust_8="13000.00000" pt_clust_9="31.24193"></scales>
<clustering>
<clus scale="   31.242">  1  9  2 -1</clus>
<clus scale="   81.798">  5  6 -1 -1</clus>
<clus scale="   82.227">  2  5  1 -1</clus>
<clus scale="   90.644">  7  8 -1 -1</clus>
<clus scale="   31.242">  1  5  2 -1</clus>
</clustering>
</event>
<event>
 9    1  0.7719620E-005  0.9264644E+02  0.7546771E-02  0.1302896E+00
         21   -1    0    0  501  502  0.00000000000E+00  0.00000000000E+00  0.42586355011E+03  0.42586355011E+03  0.00000000000E+00 0. -1.
          1   -1    0    0  502    0 -0.00000000000E+00 -0.00000000000E+00 -0.26919088778E+03  0.26919088778E+03  0.00000000000E+00 0. -1.
         23    2    1    2    0    0 -0.84202395352E+01 -0.21335453755E+02 -0.23415191691E+03  0.25223415538E+03  0.90933200370E+02 0.  0.
        -24    2    1    2    0    0 -0.32631570850E+02 -0.23327691996E+02  0.63949446180E+02  0.11036366830E+03  0.80508428025E+02 0.  0.
         13    1    4    4    0    0 -0.51643427782E+02 -0.13193025903E+02  0.12735046294E+02  0.54802198584E+02  0.00000000000E+00 0. -1.
        -14    1    4    4    0    0  0.19011856932E+02 -0.10134666092E+02  0.51214399887E+02  0.55561469712E+02  0.00000000000E+00 0.  1.
        -11    1    3    3    0    0 -0.33214867220E+02 -0.45695321830E+02 -0.17178492683E+03  0.18083514849E+03  0.00000000000E+00 0. -1.
         11    1    3    3    0    0  0.24794627685E+02  0.24359868075E+02 -0.62366990072E+02  0.71399006893E+02  0.00000000000E+00 0.  1.
          2    1    1    2  501    0  0.41051810385E+02  0.44663145751E+02  0.32687513305E+03  0.33245661421E+03  0.00000000000E+00 0. -1.
<scales pt_clust_5="13000.00000" pt_clust_6="13000.00000" pt_clust_7="13000.00000" pt_clust_8="13000.00000" pt_clust_9="60.66340"></scales>
<clustering>
<clus scale="   60.663">  1  9  2 -1</clus>
<clus scale="   80.508">  5  6 -1 -1</clus>
<clus scale="   82.439">  1  5  2 -1</clus>
<clus scale="   90.933">  7  8 -1 -1</clus>
<clus scale="   60.663">  1  5  2 -1</clus>
</clustering>
</event>
<event>
 9    1  0.7719620E-005  0.9774095E+02  0.7546771E-02  0.1290829E+00
         21   -1    0    0  501  502  0.00000000000E+00  0.00000000000E+00  0.12148179892E+03  0.12148179892E+03  0.00000000000E+00 0. -1.
          1   -1    0    0  502    0 -0.00000000000E+00 -0.00000000000E+00 -0.51607170953E+03  0.51607170953E+03  0.00000000000E+00 0. -1.
         23    2    1    2    0    0 -0.16359798368E+02  0.37693478166E+02 -0.43653914217E+03  0.44778311165E+03  0.90856211314E+02 0.  0.
        -24    2    1    2    0    0  0.15872173005E+02 -0.89814283369E+01 -0.48161290371E+02  0.95194893906E+02  0.80062263301E+02 0.  0.
         11    1    4    4    0    0 -0.15387798537E+02  0.26211854875E+02 -0.40114807436E+01  0.30658402724E+02  0.00000000000E+00 0. -1.
        -12    1    4    4    0    0  0.31259971541E+02 -0.35193283212E+02 -0.44149809627E+02  0.64536491182E+02  0.00000000000E+00 0.  1.
        -13    1    3    3    0    0 -0.43582008587E+02 -0.95106611900E+01 -0.17201818152E+03  0.17770790338E+03  0.00000000000E+00 0.  1.
         13    1    3    3    0    0  0.27222210220E+02  0.47204139356E+02 -0.26452096065E+03  0.27007520827E+03  0.00000000000E+00 0. -1.
          2    1    1    2  501    0  0.48762536312E+00 -0.28712049829E+02  0.90110521932E+02  0.94575502889E+02  0.00000000000E+00 0. -1.
<scales pt_clust_5="13000.00000" pt_clust_6="13000.00000" pt_clust_7="13000.00000" pt_clust_8="13000.00000" pt_clust_9="28.71619"></scales>
<clustering>
<clus scale="   28.716">  1  9  2 -1</clus>
<clus scale="   80.062">  5  6 -1 -1</clus>
<clus scale="   87.798">  1  5  2 -1</clus>
<clus scale="   90.856">  7  8 -1 -1</clus>
<clus scale="   28.716">  1  5  2 -1</clus>
</clustering>
</event>
<event>
 9    1  0.7719620E-005  0.1113463E+03  0.7546771E-02  0.1261204E+00
         21   -1    0    0  501  502  0.00000000000E+00  0.00000000000E+00  0.18549569469E+02  0.18549569469E+02  0.00000000000E+00 0.  1.
          1   -1    0    0  502    0 -0.00000000000E+00 -0.00000000000E+00 -0.93029663526E+03  0.93029663526E+03  0.00000000000E+00 0. -1.
        -24    2    1    2    0    0 -0.43086712874E+02 -0.47826669455E+02 -0.41565954656E+03  0.42901574761E+03  0.84485489395E+02 0.  0.
         23    2    1    2    0    0  0.64948676693E+02  0.12995862164E+02 -0.34772714626E+03  0.36587614289E+03  0.92541669837E+02 0.  0.
         11    1    3    3    0    0  0.12869182978E+02 -0.45930512392E+02 -0.23837494070E+03  0.24310047345E+03  0.00000000000E+00 0. -1.
        -12    1    3    3    0    0 -0.55955895852E+02 -0.18961570628E+01 -0.17728460586E+03  0.18591527416E+03  0.00000000000E+00 0.  1.
        -11    1    4    4    0    0  0.38124490810E+02 -0.29507734409E+02 -0.79458500400E+02  0.92939961671E+02  0.00000000000E+00 0.  1.
         11    1    4    4    0    0  0.26824185883E+02  0.42503596574E+02 -0.26826864586E+03  0.27293618122E+03  0.00000000000E+00 0. -1.
          2    1    1    2  501    0 -0.21861963819E+02  0.34830807290E+02 -0.14836037298E+03  0.15395431423E+03  0.00000000000E+00 0. -1.
<scales pt_clust_5="13000.00000" pt_clust_6="13000.00000" pt_clust_7="13000.00000" pt_clust_8="13000.00000" pt_clust_9="41.12338"></scales>
<clustering>
<clus scale="   41.123">  1  9  2 -1</clus>
<clus scale="   84.485">  5  6 -1 -1</clus>
<clus scale="   92.542">  7  8 -1 -1</clus>
<clus scale="  104.746">  2  5  1 -1</clus>
<clus scale="   41.123">  1  5  2 -1</clus>
</clustering>
</event>
<event>
 9    1  0.7719620E-005  0.1016931E+03  0.7546771E-02  0.1286721E+00
         21   -1    0    0  501  502  0.00000000000E+00  0.00000000000E+00  0.13728494579E+03  0.13728494579E+03  0.00000000000E+00 0. -1.
          1   -1    0    0  502    0 -0.00000000000E+00 -0.00000000000E+00 -0.18292252680E+03  0.18292252680E+03  0.00000000000E+00 0. -1.
        -24    2    1    2    0    0  0.29490191208E+02 -0.39541417224E+02 -0.86795665985E+02  0.12429846416E+03  0.74050155334E+02 0.  0.
         23    2    1    2    0    0 -0.15897483969E+02  0.19114670868E+02 -0.44751410450E+02  0.10656442236E+03  0.93462220909E+02 0.  0.
         11    1    3    3    0    0 -0.93797292481E+01 -0.41757743206E+02 -0.69669518881E+02  0.81765092182E+02  0.00000000000E+00 0. -1.
        -12    1    3    3    0    0  0.38869920456E+02  0.22163259816E+01 -0.17126147104E+02  0.42533371977E+02  0.00000000000E+00 0.  1.
        -13    1    4    4    0    0  0.16413719618E+02  0.33063837054E+02 -0.58174563624E+02  0.68897803777E+02  0.00000000000E+00 0.  1.
         13    1    4    4    0    0 -0.32311203587E+02 -0.13949166186E+02  0.13423153174E+02  0.37666618585E+02  0.00000000000E+00 0. -1.
          2    1    1    2  501    0 -0.13592707240E+02  0.20426746357E+02  0.85909495424E+02  0.89344586075E+02  0.00000000000E+00 0. -1.
<scales pt_clust_5="13000.00000" pt_clust_6="13000.00000" pt_clust_7="13000.00000" pt_clust_8="13000.00000" pt_clust_9="24.53597"></scales>
<clustering>
<clus scale="   24.536">  1  9  2 -1</clus>
<clus scale="   74.050">  5  6 -1 -1</clus>
<clus scale="   84.201">  2  5  1 -1</clus>
<clus scale="   93.462">  7  8 -1 -1</clus>
<clus scale="   24.536">  1  5  2 -1</clus>
</clustering>
</event>
<event>
 9    1  0.7719620E-005  0.9475008E+02  0.7546771E-02  0.1293989E+00
          1   -1    0    0  502    0 -0.00000000000E+00  0.00000000000E+00  0.15827381813E+03  0.15827381813E+03  0.00000000000E+00 0. -1.
         21   -1    0    0  501  502  0.00000000000E+00 -0.00000000000E+00 -0.49865994287E+03  0.49865994287E+03  0.00000000000E+00 0. -1.
         23    2    1    2    0    0  0.55050991217E+01 -0.48111118705E+02  0.91961618079E+02  0.13685514374E+03  0.89035977617E+02 0.  0.
        -24    2    1    2    0    0  0.25137418087E+02 -0.12547859332E+01 -0.48694767214E+01  0.88669734193E+02  0.84883129552E+02 0.  0.
         13    1    4    4    0    0  0.16897713715E+02 -0.42092150608E+02 -0.10703007584E+02  0.46602963886E+02  0.00000000000E+00 0. -1.
        -14    1    4    4    0    0  0.82397043722E+01  0.40837364675E+02  0.58335308629E+01  0.42066770307E+02  0.00000000000E+00 0.  1.
        -11    1    3    3    0    0 -0.34283646057E+02 -0.50055547333E+02  0.46719828405E+02  0.76574594821E+02  0.00000000000E+00 0.  1.
         11    1    3    3    0    0  0.39788745179E+02  0.19444286289E+01  0.45241789674E+02  0.60280548923E+02  0.00000000000E+00 0. -1.
          2    1    1    2  501    0 -0.30642517209E+02  0.49365904638E+02 -0.42747826610E+03  0.43140888307E+03  0.00000000000E+00 0. -1.
<scales pt_clust_5="13000.00000" pt_clust_6="13000.00000" pt_clust_7="13000.00000" pt_clust_8="13000.00000" pt_clust_9="58.10298"></scales>
<clustering>
<clus scale="   58.103">  2  9  1 -1</clus>
<clus scale="   84.883">  5  6 -1 -1</clus>
<clus scale="   89.036">  7  8 -1 -1</clus>
<clus scale="   90.859">  2  5  1 -1</clus>
<clus scale="   58.103">  2  5  1 -1</clus>
</clustering>
</event>
<event>
 9    1  0.7719620E-005  0.9736347E+02  0.7546771E-02  0.1290373E+00
         21   -1    0    0  501  502  0.00000000000E+00  0.00000000000E+00  0.83982410405E+02  0.83982410405E+02  0.00000000000E+00 0. -1.
         -4   -1    0    0    0  501 -0.00000000000E+00 -0.00000000000E+00 -0.16361553099E+03  0.16361553099E+03  0.00000000000E+00 0.  1.
        -24    2    1    2    0    0 -0.26405954994E+02 -0.38834489424E+02 -0.65427685827E+02  0.11449190296E+03  0.81377034494E+02 0.  0.
         23    2    1    2    0    0  0.24738100176E+02  0.11613313757E+02 -0.33467437348E+02  0.99717434274E+02  0.89870210185E+02 0.  0.
         11    1    3    3    0    0 -0.53394979200E+01 -0.30517454205E+02 -0.81188602807E+02  0.86898874992E+02  0.00000000000E+00 0. -1.
        -12    1    3    3    0    0 -0.21066457074E+02 -0.83170352189E+01  0.15760916979E+02  0.27593027970E+02  0.00000000000E+00 0.  1.
        -13    1    4    4    0    0 -0.22966540270E+02  0.20670728083E+02 -0.40192659671E+02  0.50697049844E+02  0.00000000000E+00 0.  1.
         13    1    4    4    0    0  0.47704640446E+02 -0.90574143260E+01  0.67252223233E+01  0.49020384430E+02  0.00000000000E+00 0. -1.
         -3    1    1    2    0  502  0.16678548182E+01  0.27221175667E+02  0.19262002586E+02  0.33388604164E+02  0.00000000000E+00 0.  1.
<scales pt_clust_5="13000.00000" pt_clust_6="13000.00000" pt_clust_7="13000.00000" pt_clust_8="13000.00000" pt_clust_9="27.27222"></scales>
<clustering>
<clus scale="   27.272">  1  9  2 -1</clus>
<clus scale="   81.377">  5  6 -1 -1</clus>
<clus scale="   89.584">  2  5  1 -1</clus>
<clus scale="   89.870">  7  8 -1 -1</clus>
<clus scale="   27.272">  1  5  2 -1</clus>
</clustering>
</event>
<event>
 9    1  0.7719620E-005  0.1450773E+03  0.7546771E-02  0.1208771E+00
          1   -1    0    0  502    0 -0.00000000000E+00  0.00000000000E+00  0.62764568806E+03  0.62764568806E+03  0.00000000000E+00 0. -1.
         21   -1    0    0  501  502  0.00000000000E+00 -0.00000000000E+00 -0.67590624640E+02  0.67590624640E+02  0.00000000000E+00 0. -1.
        -24    2    1    2    0    0 -0.59419961580E+02 -0.10745644238E+03  0.37763202791E+03  0.40526597069E+03  0.80974932248E+02 0.  0.
         23    2    1    2    0    0  0.33111668830E+02  0.93025112060E+02  0.20983818325E+03  0.24932578656E+03  0.91549061222E+02 0.  0.
         11    1    3    3    0    0 -0.70324158171E+02 -0.85323065148E+02  0.22553148672E+03  0.25117715695E+03  0.00000000000E+00 0. -1.
        -12    1    3    3    0    0  0.10904196591E+02 -0.22133377229E+02  0.15210054119E+03  0.15408881374E+03  0.00000000000E+00 0.  1.
        -13    1    4    4    0    0 -0.21520958820E+01  0.98330521311E+02  0.14281236946E+03  0.17340385177E+03  0.00000000000E+00 0. -1.
         13    1    4    4    0    0  0.35263764712E+02 -0.53054092509E+01  0.67025813785E+02  0.75921934791E+02  0.00000000000E+00 0.  1.
          2    1    1    2  501    0  0.26308292750E+02  0.14431330318E+02 -0.27415147737E+02  0.40644555448E+02  0.00000000000E+00 0. -1.
<scales pt_clust_5="13000.00000" pt_clust_6="13000.00000" pt_clust_7="13000.00000" pt_clust_8="13000.00000" pt_clust_9="30.00649"></scales>
<clustering>
<clus scale="   30.006">  2  9  1 -1</clus>
<clus scale="   80.975">  5  6 -1 -1</clus>
<clus scale="   91.549">  7  8 -1 -1</clus>
<clus scale="  138.647">  1  5  2 -1</clus>
<clus scale="   30.006">  2  5  1 -1</clus>
</clustering>
</event>
<event>
 9    1  0.7719620E-005  0.1918585E+03  0.7546771E-02  0.1157829E+00
          1   -1    0    0  502    0 -0.00000000000E+00  0.00000000000E+00  0.12760161575E+04  0.12760161575E+04  0.00000000000E+00 0. -1.
         21   -1    0    0  501  502  0.00000000000E+00 -0.00000000000E+00 -0.78097980153E+02  0.78097980153E+02  0.00000000000E+00 0. -1.
         23    2    1    2    0    0  0.87899680286E+01  0.18645889871E+03  0.72163688028E+03  0.75073554685E+03  0.89442103452E+02 0.  0.
        -24    2    1    2    0    0 -0.58418414642E+02 -0.97985595383E+02  0.25295272405E+02  0.14112443717E+03  0.79135124240E+02 0.  0.
         11    1    4    4    0    0 -0.48559582179E+02 -0.41830970145E+02  0.47670973176E+02  0.79877310722E+02  0.00000000000E+00 0. -1.
        -12    1    4    4    0    0 -0.98588324632E+01 -0.56154625238E+02 -0.22375700770E+02  0.61247126448E+02  0.00000000000E+00 0.  1.
        -13    1    3    3    0    0 -0.32417585421E+02  0.48526702210E+02  0.28718898720E+03  0.29305844987E+03  0.00000000000E+00 0.  1.
         13    1    3    3    0    0  0.41207553450E+02  0.13793219650E+03  0.43444789309E+03  0.45767709698E+03  0.00000000000E+00 0. -1.
          2    1    1    2  501    0  0.49628446613E+02 -0.88473303327E+02  0.45098602462E+03  0.46225415360E+03  0.00000000000E+00 0. -1.
<scales pt_clust_5="13000.00000" pt_clust_6="13000.00000" pt_clust_7="13000.00000" pt_clust_8="13000.00000" pt_clust_9="101.44219"></scales>
<clustering>
<clus scale="   79.135">  5  6 -1 -1</clus>
<clus scale="   89.442">  7  8 -1 -1</clus>
<clus scale="  101.442">  2  9  1 -1</clus>
<clus scale="  187.276">  2  5  1 -1</clus>
<clus scale="  101.442">  2  5  1 -1</clus>
</clustering>
</event>
<event>
 9    1  0.7719620E-005  0.1077696E+03  0.7546771E-02  0.1277874E+00
          1   -1    0    0  502    0 -0.00000000000E+00  0.00000000000E+00  0.28131609768E+03  0.28131609768E+03  0.00000000000E+00 0. -1.
         21   -1    0    0  501  502  0.00000000000E+00 -0.00000000000E+00 -0.52925946552E+02  0.52925946552E+02  0.00000000000E+00 0.  1.
         23    2    1    2    0    0  0.71683176133E+01  0.16686495377E+02  0.16237351459E+03  0.19397269137E+03  0.10454866259E+03 0.  0.
        -24    2    1    2    0    0 -0.31003293045E+02 -0.23157432755E+02  0.72957344706E+02  0.11461486955E+03  0.79475299964E+02 0.  0.
         13    1    4    4    0    0 -0.27516574379E+02  0.11613874987E+02  0.73846678743E+02  0.79657867905E+02  0.00000000000E+00 0. -1.
        -14    1    4    4    0    0 -0.34867186660E+01 -0.34771307742E+02 -0.88933403689E+00  0.34957001647E+02  0.00000000000E+00 0.  1.
        -13    1    3    3    0    0  0.54331670362E+02  0.20674199352E+02  0.78732898863E+02  0.97868392684E+02  0.00000000000E+00 0. -1.
         13    1    3    3    0    0 -0.47163352749E+02 -0.39877039754E+01  0.83640615730E+02  0.96104298682E+02  0.00000000000E+00 0.  1.
          2    1    1    2  501    0  0.23834975432E+02  0.64709373778E+01 -0.69407081674E+01  0.25654483317E+02  0.00000000000E+00 0. -1.
<scales pt_clust_5="13000.00000" pt_clust_6="13000.00000" pt_clust_7="13000.00000" pt_clust_8="13000.00000" pt_clust_9="24.69775"></scales>
<clustering>
<clus scale="   24.698">  2  9  1 -1</clus>
<clus scale="   79.475">  5  6 -1 -1</clus>
<clus scale="   83.667">  2  5  1 -1</clus>
<clus scale="  104.549">  7  8 -1 -1</clus>
<clus scale="   24.698">  2  5  1 -1</clus>
</clustering>
</event>
<event>
 9    1  0.7719620E-005  0.2070278E+03  0.7546771E-02  0.1149692E+00
         21   -1    0    0  501  502  0.00000000000E+00  0.00000000000E+00  0.20615818202E+03  0.20615818202E+03  0.00000000000E+00 0.  1.
         -2   -1    0    0    0  501 -0.00000000000E+00 -0.00000000000E+00 -0.45867413295E+03  0.45867413295E+03  0.00000000000E+00 0.  1.
         23    2    1    2    0    0  0.77195200652E+02 -0.13572875624E+03 -0.88099025778E+02  0.20086595446E+03  0.90577585771E+02 0.  0.
        -24    2    1    2    0    0 -0.18650444998E+03 -0.46058062375E+02 -0.13768194854E+03  0.25016804811E+03  0.81990721245E+02 0.  0.
         11    1    4    4    0    0 -0.48064894665E+02 -0.34879164493E+02 -0.75946581018E+01  0.59870435497E+02  0.00000000000E+00 0. -1.
        -12    1    4    4    0    0 -0.13843955531E+03 -0.11178897882E+02 -0.13008729043E+03  0.19029761261E+03  0.00000000000E+00 0.  1.
        -11    1    3    3    0    0  0.97406126726E+02 -0.10478822632E+03 -0.63889507844E+02  0.15668565701E+03  0.00000000000E+00 0.  1.
         11    1    3    3    0    0 -0.20210926074E+02 -0.30940529916E+02 -0.24209517933E+02  0.44180297450E+02  0.00000000000E+00 0. -1.
         -1    1    1    2    0  502  0.10930924932E+03  0.18178681861E+03 -0.26734976615E+02  0.21379831240E+03  0.00000000000E+00 0.  1.
<scales pt_clust_5="13000.00000" pt_clust_6="13000.00000" pt_clust_7="13000.00000" pt_clust_8="13000.00000" pt_clust_9="190.10005"></scales>
<clustering>
<clus scale="   81.991">  5  6 -1 -1</clus>
<clus scale="   90.578">  7  8 -1 -1</clus>
<clus scale="  180.515">  2  7  1 -1</clus>
<clus scale="  190.100">  1  9  2 -1</clus>
<clus scale="  190.100">  1  5  2 -1</clus>
</clustering>
</event>
<event>
 9    1  0.7719620E-005  0.1065752E+03  0.7546771E-02  0.1273660E+00
          3   -1    0    0  502    0 -0.00000000000E+00  0.00000000000E+00  0.35860415284E+02  0.35860415284E+02  0.00000000000E+00 0. -1.
         21   -1    0    0  501  502  0.00000000000E+00 -0.00000000000E+00 -0.55140561202E+03  0.55140561202E+03  0.00000000000E+00 0. -1.
         23    2    1    2    0    0 -0.26809698274E+02 -0.41899677189E+02 -0.10110097261E+03  0.14642932986E+03  0.93518977264E+02 0.  0.
        -24    2    1    2    0    0  0.58196426603E+02  0.20033500944E+02 -0.20618629621E+03  0.22909482413E+03  0.78635135075E+02 0.  0.
         13    1    4    4    0    0  0.68267789048E+02  0.50569892514E+01 -0.19757466280E+03  0.20909761248E+03  0.00000000000E+00 0. -1.
        -14    1    4    4    0    0 -0.10071362445E+02  0.14976511693E+02 -0.86116334110E+01  0.19997211655E+02  0.00000000000E+00 0.  1.
        -11    1    3    3    0    0 -0.14868076804E+02 -0.67345257528E+02 -0.41391033358E+02  0.80434203308E+02  0.00000000000E+00 0. -1.
         11    1    3    3    0    0 -0.11941621470E+02  0.25445580339E+02 -0.59709939255E+02  0.65995126547E+02  0.00000000000E+00 0.  1.
          4    1    1    2  501    0 -0.31386728329E+02  0.21866176245E+02 -0.20825792791E+03  0.21174187332E+03  0.00000000000E+00 0. -1.
<scales pt_clust_5="13000.00000" pt_clust_6="13000.00000" pt_clust_7="13000.00000" pt_clust_8="13000.00000" pt_clust_9="38.25253"></scales>
<clustering>
<clus scale="   38.253">  2  9  1 -1</clus>
<clus scale="   78.635">  5  6 -1 -1</clus>
<clus scale="   93.519">  7  8 -1 -1</clus>
<clus scale="   93.787">  2  5  1 -1</clus>
<clus scale="   38.253">  2  5  1 -1</clus>
</clustering>
</event>
<event>
 9    1  0.7719620E-005  0.1511906E+03  0.7546771E-02  0.1217017E+00
         21   -1    0    0  501  502  0.00000000000E+00  0.00000000000E+00  0.63548031290E+03  0.63548031290E+03  0.00000000000E+00 0. -1.
          1   -1    0    0  502    0 -0.00000000000E+00 -0.00000000000E+00 -0.10992273069E+03  0.10992273069E+03  0.00000000000E+00 0. -1.
         23    2    1    2    0    0 -0.13167404234E+02  0.28968395092E+01 -0.39305990940E+02  0.11006792218E+03  0.10192259001E+03 0.  0.
        -24    2    1    2    0    0  0.13277164705E+03  0.16702494283E+02  0.41108332748E+03  0.43953503780E+03  0.79336396132E+02 0.  0.
         11    1    4    4    0    0  0.13184615424E+03  0.33431690613E+02  0.33365748464E+03  0.36031708727E+03  0.00000000000E+00 0. -1.
        -12    1    4    4    0    0  0.92549280469E+00 -0.16729196329E+02  0.77425842836E+02  0.79217950527E+02  0.00000000000E+00 0.  1.
        -13    1    3    3    0    0  0.35778736689E+02 -0.24800468416E+02 -0.30472600559E+02  0.53139068655E+02  0.00000000000E+00 0.  1.
         13    1    3    3    0    0 -0.48946140924E+02  0.27697307925E+02 -0.88333903817E+01  0.56928853521E+02  0.00000000000E+00 0. -1.
          2    1    1    2  501    0 -0.11960424281E+03 -0.19599333793E+02  0.15378024567E+03  0.19580008361E+03  0.00000000000E+00 0. -1.
<scales pt_clust_5="13000.00000" pt_clust_6="13000.00000" pt_clust_7="13000.00000" pt_clust_8="13000.00000" pt_clust_9="128.70252"></scales>
<clustering>
<clus scale="   79.336">  5  6 -1 -1</clus>
<clus scale="  101.923">  7  8 -1 -1</clus>
<clus scale="  102.810">  2  7  1 -1</clus>
<clus scale="  128.703">  1  9  2 -1</clus>
<clus scale="  128.703">  1  5  2 -1</clus>
</clustering>
</event>
<event>
 9    1  0.7719620E-005  0.2843135E+03  0.7546771E-02  0.1116125E+00
         21   -1    0    0  501  502  0.00000000000E+00  0.00000000000E+00  0.69872848326E+03  0.69872848326E+03  0.00000000000E+00 0.  1.
         -2   -1    0    0    0  501 -0.00000000000E+00 -0.00000000000E+00 -0.19898205711E+03  0.19898205711E+03  0.00000000000E+00 0.  1.
         23    2    1    2    0    0  0.48362452697E+02  0.11923449512E+03  0.16304452265E+03  0.22723953843E+03  0.92187308244E+02 0.  0.
        -24    2    1    2    0    0  0.42298722086E+02 -0.31629208722E+03  0.30988766487E+03  0.45190717462E+03  0.79748751133E+02 0.  0.
         13    1    4    4    0    0  0.38753560805E+02 -0.15083286151E+03  0.19901276820E+03  0.25270233971E+03  0.00000000000E+00 0. -1.
        -14    1    4    4    0    0  0.35451612807E+01 -0.16545922572E+03  0.11087489667E+03  0.19920483492E+03  0.00000000000E+00 0.  1.
        -11    1    3    3    0    0 -0.25944681932E+02  0.50614663288E+02  0.65059411164E+02  0.86415841380E+02  0.00000000000E+00 0. -1.
         11    1    3    3    0    0  0.74307134629E+02  0.68619831831E+02  0.97985111484E+02  0.14082369705E+03  0.00000000000E+00 0.  1.
         -1    1    1    2    0  502 -0.90661174783E+02  0.19705759210E+03  0.26814238629E+02  0.21856382732E+03  0.00000000000E+00 0.  1.
<scales pt_clust_5="13000.00000" pt_clust_6="13000.00000" pt_clust_7="13000.00000" pt_clust_8="13000.00000" pt_clust_9="272.89999"></scales>
<clustering>
<clus scale="   79.749">  5  6 -1 -1</clus>
<clus scale="   92.187">  7  8 -1 -1</clus>
<clus scale="  158.286">  2  7  1 -1</clus>
<clus scale="  272.900">  1  9  2 -1</clus>
<clus scale="  272.900">  1  5  2 -1</clus>
</clustering>
</event>
<event>
 9    1  0.7719620E-005  0.1034872E+03  0.7546771E-02  0.1278164E+00
         21   -1    0    0  501  502  0.00000000000E+00  0.00000000000E+00  0.97155817303E+02  0.97155817303E+02  0.00000000000E+00 0. -1.
          1   -1    0    0  502    0 -0.00000000000E+00 -0.00000000000E+00 -0.15964337338E+03  0.15964337338E+03  0.00000000000E+00 0. -1.
        -24    2    1    2    0    0  0.38250167541E+02 -0.84344506745E+01 -0.39689472347E+02  0.97586147368E+02  0.80084871655E+02 0.  0.
         23    2    1    2    0    0 -0.70820414381E+02 -0.86044809168E+01  0.51790705722E+00  0.11568395424E+03  0.91065585469E+02 0.  0.
         13    1    3    3    0    0  0.46787655719E+02 -0.21837294122E+02  0.33153926758E+01  0.51739191826E+02  0.00000000000E+00 0. -1.
        -14    1    3    3    0    0 -0.85374881777E+01  0.13402843448E+02 -0.43004865023E+02  0.45846955542E+02  0.00000000000E+00 0.  1.
        -11    1    4    4    0    0  0.16612108927E+02 -0.20548410420E+02  0.65831938391E+01  0.27231191213E+02  0.00000000000E+00 0.  1.
         11    1    4    4    0    0 -0.87432523307E+02  0.11943929503E+02 -0.60652867819E+01  0.88452763030E+02  0.00000000000E+00 0. -1.
          2    1    1    2  501    0  0.32570246839E+02  0.17038931591E+02 -0.23315990785E+02  0.43529089070E+02  0.00000000000E+00 0. -1.
<scales pt_clust_5="13000.00000" pt_clust_6="13000.00000" pt_clust_7="13000.00000" pt_clust_8="13000.00000" pt_clust_9="36.75796"></scales>
<clustering>
<clus scale="   36.758">  1  9  2 -1</clus>
<clus scale="   80.085">  5  6 -1 -1</clus>
<clus scale="   91.066">  7  8 -1 -1</clus>
<clus scale="   93.969">  2  5  1 -1</clus>
<clus scale="   36.758">  1  5  2 -1</clus>
</clustering>
</event>
<event>
 9    1  0.7719620E-005  0.9271240E+02  0.7546771E-02  0.1303674E+00
          1   -1    0    0  502    0 -0.00000000000E+00  0.00000000000E+00  0.64036791366E+02  0.64036791366E+02  0.00000000000E+00 0. -1.
         21   -1    0    0  501  502  0.00000000000E+00 -0.00000000000E+00 -0.22128309282E+03  0.22128309282E+03  0.00000000000E+00 0.  1.
         23    2    1    2    0    0 -0.22137332635E+02  0.10955570889E+02 -0.90563988250E+02  0.13145423153E+03  0.92023328509E+02 0.  0.
        -24    2    1    2    0    0 -0.18670533307E+01 -0.70180742309E+00 -0.88733380530E+02  0.11969549343E+03  0.80308280427E+02 0.  0.
         13    1    4    4    0    0  0.13377157800E+02 -0.16971691271E+02  0.59568188852E+01  0.22415850344E+02  0.00000000000E+00 0. -1.
        -14    1    4    4    0    0 -0.15244211130E+02  0.16269883848E+02 -0.94690199416E+02  0.97279643085E+02  0.00000000000E+00 0.  1.
        -11    1    3    3    0    0 -0.16843878547E+02 -0.40071724023E+02 -0.48357542324E+02  0.65022390069E+02  0.00000000000E+00 0.  1.
         11    1    3    3    0    0 -0.52934540885E+01  0.51027294912E+02 -0.42206445926E+02  0.66431841461E+02  0.00000000000E+00 0. -1.
          2    1    1    2  501    0  0.24004385966E+02 -0.10253763466E+02  0.22051067330E+02  0.34170159222E+02  0.00000000000E+00 0. -1.
<scales pt_clust_5="13000.00000" pt_clust_6="13000.00000" pt_clust_7="13000.00000" pt_clust_8="13000.00000" pt_clust_9="26.10270"></scales>
<clustering>
<clus scale="   26.103">  2  9  1 -1</clus>
<clus scale="   80.308">  5  6 -1 -1</clus>
<clus scale="   81.097">  2  5  1 -1</clus>
<clus scale="   92.023">  7  8 -1 -1</clus>
<clus scale="   26.103">  2  5  1 -1</clus>
</clustering>
</event>
<event>
 9    1  0.7719620E-005  0.1002450E+03  0.7546771E-02  0.1285468E+00
         21   -1    0    0  501  502  0.00000000000E+00  0.00000000000E+00  0.11418590283E+03  0.11418590283E+03  0.00000000000E+00 0. -1.
          1   -1    0    0  502    0 -0.00000000000E+00 -0.00000000000E+00 -0.30129477429E+03  0.30129477429E+03  0.00000000000E+00 0. -1.
         23    2    1    2    0    0 -0.20579265888E+02 -0.33485000686E+02 -0.25440071938E+03  0.27313429634E+03  0.91311917941E+02 0.  0.
        -24    2    1    2    0    0  0.42217148749E+02  0.41674212944E+02  0.41915809976E+02  0.10800683399E+03  0.79934431816E+02 0.  0.
         13    1    4    4    0    0  0.57408257922E+02  0.63956044193E+01  0.38557684461E+02  0.69450031422E+02  0.00000000000E+00 0. -1.
        -14    1    4    4    0    0 -0.15191109173E+02  0.35278608525E+02  0.33581255151E+01  0.38556802569E+02  0.00000000000E+00 0.  1.
        -11    1    3    3    0    0  0.23749356359E+02  0.12118712974E+02 -0.13742502369E+03  0.13998761469E+03  0.00000000000E+00 0. -1.
         11    1    3    3    0    0 -0.44328622247E+02 -0.45603713661E+02 -0.11697569570E+03  0.13314668165E+03  0.00000000000E+00 0.  1.
          2    1    1    2  501    0 -0.21637882861E+02 -0.81892122580E+01  0.25376037942E+02  0.34339546790E+02  0.00000000000E+00 0. -1.
<scales pt_clust_5="13000.00000" pt_clust_6="13000.00000" pt_clust_7="13000.00000" pt_clust_8="13000.00000" pt_clust_9="23.13571"></scales>
<clustering>
<clus scale="   23.136">  1  9  2 -1</clus>
<clus scale="   79.934">  5  6 -1 -1</clus>
<clus scale="   90.004">  1  5  2 -1</clus>
<clus scale="   91.312">  7  8 -1 -1</clus>
<clus scale="   23.136">  1  5  2 -1</clus>
</clustering>
</event>
<event>
 9    1  0.7719620E-005  0.1168309E+03  0.7546771E-02  0.1251523E+00
         -2   -1    0    0    0  501 -0.00000000000E+00  0.00000000000E+00  0.57149792126E+03  0.57149792126E+03  0.00000000000E+00 0.  1.
         21   -1    0    0  501  502  0.00000000000E+00 -0.00000000000E+00 -0.42724086287E+02  0.42724086287E+02  0.00000000000E+00 0. -1.
         23    2    1    2    0    0 -0.37856537927E+02 -0.69560744807E+02  0.36824757047E+03  0.38746404439E+03  0.90831150229E+02 0.  0.
        -24    2    1    2    0    0  0.96794787393E+01  0.66404857924E+02  0.16705968397E+03  0.19766171157E+03  0.81596058394E+02 0.  0.
         13    1    4    4    0    0 -0.20083531246E+02 -0.67103548298E+01  0.13825100641E+02  0.25288544778E+02  0.00000000000E+00 0. -1.
        -14    1    4    4    0    0  0.29763009986E+02  0.73115212753E+02  0.15323458333E+03  0.17237316679E+03  0.00000000000E+00 0.  1.
        -11    1    3    3    0    0  0.15349292510E+02 -0.29050836722E+02  0.36781855643E+02  0.49319943221E+02  0.00000000000E+00 0. -1.
         11    1    3    3    0    0 -0.53205830437E+02 -0.40509908085E+02  0.33146571483E+03  0.33814410117E+03  0.00000000000E+00 0.  1.
         -1    1    1    2    0  502  0.28177059188E+02  0.31558868838E+01 -0.65334194771E+01  0.29096251589E+02  0.00000000000E+00 0.  1.
<scales pt_clust_5="13000.00000" pt_clust_6="13000.00000" pt_clust_7="13000.00000" pt_clust_8="13000.00000" pt_clust_9="28.35324"></scales>
<clustering>
<clus scale="   28.353">  2  9  1 -1</clus>
<clus scale="   81.596">  5  6 -1 -1</clus>
<clus scale="   90.831">  7  8 -1 -1</clus>
<clus scale="  109.805">  2  5  1 -1</clus>
<clus scale="   28.353">  2  5  1 -1</clus>
</clustering>
</event>
<event>
 9    1  0.7719620E-005  0.1094101E+03  0.7546771E-02  0.1267329E+00
          1   -1    0    0  502    0 -0.00000000000E+00  0.00000000000E+00  0.70766833847E+03  0.70766833847E+03  0.00000000000E+00 0. -1.
         21   -1    0    0  501  502  0.00000000000E+00 -0.00000000000E+00 -0.37980113241E+02  0.37980113241E+02  0.00000000000E+00 0. -1.
        -24    2    1    2    0    0  0.10187475321E+02  0.42496582456E+02  0.31494772899E+03  0.32724732942E+03  0.77388619583E+02 0.  0.
         23    2    1    2    0    0 -0.48956252011E+02 -0.10532711714E+03  0.24477243422E+03  0.28594860704E+03  0.91446952353E+02 0.  0.
         11    1    3    3    0    0 -0.17648193522E+02  0.42487446907E+02  0.95095258237E+02  0.10563971800E+03  0.00000000000E+00 0. -1.
        -12    1    3    3    0    0  0.27835668843E+02  0.91355494656E-02  0.21985247075E+03  0.22160761142E+03  0.00000000000E+00 0.  1.
        -11    1    4    4    0    0 -0.50402685254E+02 -0.18059473691E+02  0.13812834545E+03  0.14814187487E+03  0.00000000000E+00 0.  1.
         11    1    4    4    0    0  0.14464332433E+01 -0.87267643449E+02  0.10664408877E+03  0.13780673217E+03  0.00000000000E+00 0. -1.
          2    1    1    2  501    0  0.38768776689E+02  0.62830534684E+02  0.10996806201E+03  0.13245251526E+03  0.00000000000E+00 0. -1.
<scales pt_clust_5="13000.00000" pt_clust_6="13000.00000" pt_clust_7="13000.00000" pt_clust_8="13000.00000" pt_clust_9="73.82882"></scales>
<clustering>
<clus scale="   73.829">  2  9  1 -1</clus>
<clus scale="   77.389">  5  6 -1 -1</clus>
<clus scale="   91.447">  7  8 -1 -1</clus>
<clus scale="   97.964">  1  5  2 -1</clus>
<clus scale="   73.829">  2  5  1 -1</clus>
</clustering>
</event>
<event>
 9    1  0.7719620E-005  0.9187710E+02  0.7546771E-02  0.1305256E+00
         21   -1    0    0  501  502  0.00000000000E+00  0.00000000000E+00  0.22684309494E+03  0.22684309494E+03  0.00000000000E+00 0. -1.
         -2   -1    0    0    0  501 -0.00000000000E+00 -0.00000000000E+00 -0.61029972996E+02  0.61029972996E+02  0.00000000000E+00 0.  1.
        -24    2    1    2    0    0  0.11106255474E+01 -0.42683181788E+01 -0.82128486183E+00  0.80771286156E+02  0.80646600234E+02 0.  0.
         23    2    1    2    0    0  0.14307599832E+02  0.17652758708E+02  0.15976058304E+03  0.18555846785E+03  0.91608808496E+02 0.  0.
         11    1    3    3    0    0 -0.25120730996E+02  0.23068676568E+01 -0.31185016783E+02  0.40110821930E+02  0.00000000000E+00 0. -1.
        -12    1    3    3    0    0  0.26231356544E+02 -0.65751858356E+01  0.30363731921E+02  0.40660464226E+02  0.00000000000E+00 0.  1.
        -13    1    4    4    0    0  0.30996080240E+02  0.48094382624E+02  0.78026407428E+02  0.96757154187E+02  0.00000000000E+00 0.  1.
         13    1    4    4    0    0 -0.16688480408E+02 -0.30441623917E+02  0.81734175609E+02  0.88801313658E+02  0.00000000000E+00 0. -1.
         -1    1    1    2    0  502 -0.15418225380E+02 -0.13384440529E+02  0.68738237722E+01  0.21543313937E+02  0.00000000000E+00 0.  1.
<scales pt_clust_5="13000.00000" pt_clust_6="13000.00000" pt_clust_7="13000.00000" pt_clust_8="13000.00000" pt_clust_9="20.41728"></scales>
<clustering>
<clus scale="   20.417">  1  9  2 -1</clus>
<clus scale="   80.647">  5  6 -1 -1</clus>
<clus scale="   80.951">  2  5  1 -1</clus>
<clus scale="   91.609">  7  8 -1 -1</clus>
<clus scale="   20.417">  1  5  2 -1</clus>
</clustering>
</event>
<event>
 9    1  0.7719620E-005  0.9730048E+02  0.7546771E-02  0.1292759E+00
         21   -1    0    0  501  502  0.00000000000E+00  0.00000000000E+00  0.15842863319E+02  0.15842863319E+02  0.00000000000E+00 0.  1.
          1   -1    0    0  502    0 -0.00000000000E+00 -0.00000000000E+00 -0.10505319771E+04  0.10505319771E+04  0.00000000000E+00 0. -1.
         23    2    1    2    0    0 -0.33926547311E+02 -0.96965082960E+00 -0.32383793176E+03  0.33851942945E+03  0.92587511200E+02 0.  0.
        -24    2    1    2    0    0  0.48759730864E+01 -0.45348679884E+02 -0.31668575193E+03  0.32991608156E+03  0.80464138035E+02 0.  0.
         13    1    4    4    0    0 -0.20089212593E+02 -0.44904102284E+02 -0.28672661489E+03  0.29091597851E+03  0.00000000000E+00 0. -1.
        -14    1    4    4    0    0  0.24965185679E+02 -0.44457759992E+00 -0.29959137041E+02  0.39000103045E+02  0.00000000000E+00 0.  1.
        -11    1    3    3    0    0  0.25100866465E+02  0.23102084015E+02 -0.13352411057E+03  0.13781309041E+03  0.00000000000E+00 0. -1.
         11    1    3    3    0    0 -0.59027413776E+02 -0.24071734844E+02 -0.19031382119E+03  0.20070633904E+03  0.00000000000E+00 0.  1.
          2    1    1    2  501    0  0.29050574224E+02  0.46318330713E+02 -0.39416543008E+03  0.39793932941E+03  0.00000000000E+00 0. -1.
<scales pt_clust_5="13000.00000" pt_clust_6="13000.00000" pt_clust_7="13000.00000" pt_clust_8="13000.00000" pt_clust_9="54.67473"></scales>
<clustering>
<clus scale="   54.675">  1  9  2 -1</clus>
<clus scale="   80.464">  5  6 -1 -1</clus>
<clus scale="   85.845">  1  5  2 -1</clus>
<clus scale="   92.588">  7  8 -1 -1</clus>
<clus scale="   54.675">  1  5  2 -1</clus>
</clustering>
</event>
<event>
 9    1  0.7719620E-005  0.1469422E+03  0.7546771E-02  0.1208450E+00
         21   -1    0    0  501  502  0.00000000000E+00  0.00000000000E+00  0.45614974375E+02  0.45614974375E+02  0.00000000000E+00 0. -1.
          1   -1    0    0  502    0 -0.00000000000E+00 -0.00000000000E+00 -0.79567810729E+03  0.79567810729E+03  0.00000000000E+00 0. -1.
        -24    2    1    2    0    0  0.87003620506E+02 -0.97281334630E+02 -0.38145509302E+03  0.41088944398E+03  0.79302327380E+02 0.  0.
         23    2    1    2    0    0 -0.94343749123E+02  0.17966222483E+02 -0.27340105363E+03  0.30627010179E+03  0.99144898874E+02 0.  0.
         13    1    3    3    0    0  0.50647406929E+02 -0.60105044539E+02 -0.11427180622E+03  0.13869326553E+03  0.00000000000E+00 0. -1.
        -14    1    3    3    0    0  0.36356213576E+02 -0.37176290091E+02 -0.26718328681E+03  0.27219617844E+03  0.00000000000E+00 0.  1.
        -13    1    4    4    0    0 -0.82609246297E+02 -0.27435174689E+02 -0.21070543025E+03  0.22797753118E+03  0.00000000000E+00 0. -1.
         13    1    4    4    0    0 -0.11734502826E+02  0.45401397172E+02 -0.62695623381E+02  0.78292570611E+02  0.00000000000E+00 0.  1.
          2    1    1    2  501    0  0.73401286173E+01  0.79315112148E+02 -0.95206986256E+02  0.12413353590E+03  0.00000000000E+00 0. -1.
<scales pt_clust_5="13000.00000" pt_clust_6="13000.00000" pt_clust_7="13000.00000" pt_clust_8="13000.00000" pt_clust_9="79.65403"></scales>
<clustering>
<clus scale="   79.302">  5  6 -1 -1</clus>
<clus scale="   79.654">  1  9  2 -1</clus>
<clus scale="   99.145">  7  8 -1 -1</clus>
<clus scale="  134.355">  2  5  1 -1</clus>
<clus scale="   79.654">  1  5  2 -1</clus>
</clustering>
</event>
<event>
 9    1  0.7719620E-005  0.1715107E+03  0.7546771E-02  0.1177761E+00
          1   -1    0    0  502    0 -0.00000000000E+00  0.00000000000E+00  0.69592091176E+03  0.69592091176E+03  0.00000000000E+00 0. -1.
         21   -1    0    0  501  502  0.00000000000E+00 -0.00000000000E+00 -0.70346103934E+02  0.70346103934E+02  0.00000000000E+00 0. -1.
        -24    2    1    2    0    0  0.62861470495E+01 -0.16765994782E+03  0.44986469178E+03  0.48652919918E+03  0.78632353378E+02 0.  0.
         23    2    1    2    0    0 -0.38514625125E+02  0.99033257024E+02  0.92303080081E+02  0.16702121997E+03  0.89918112642E+02 0.  0.
         13    1    3    3    0    0  0.25660536624E+02 -0.14260737665E+03  0.41429883310E+03  0.43890642525E+03  0.00000000000E+00 0. -1.
        -14    1    3    3    0    0 -0.19374389574E+02 -0.25052571167E+02  0.35565858679E+02  0.47622773932E+02  0.00000000000E+00 0.  1.
        -13    1    4    4    0    0 -0.20975748080E+02  0.11054592936E+01  0.58164220141E+02  0.61840767721E+02  0.00000000000E+00 0. -1.
         13    1    4    4    0    0 -0.17538877045E+02  0.97927797731E+02  0.34138859941E+02  0.10518045225E+03  0.00000000000E+00 0.  1.
          2    1    1    2  501    0  0.32228478076E+02  0.68626690797E+02  0.83407035967E+02  0.11271659655E+03  0.00000000000E+00 0. -1.
<scales pt_clust_5="13000.00000" pt_clust_6="13000.00000" pt_clust_7="13000.00000" pt_clust_8="13000.00000" pt_clust_9="75.81753"></scales>
<clustering>
<clus scale="   75.818">  2  9  1 -1</clus>
<clus scale="   78.632">  5  6 -1 -1</clus>
<clus scale="   89.918">  7  8 -1 -1</clus>
<clus scale="  165.873">  1  5  2 -1</clus>
<clus scale="   75.818">  2  5  1 -1</clus>
</clustering>
</event>
<event>
 9    1  0.7719620E-005  0.1158439E+03  0.7546771E-02  0.1252931E+00
         -4   -1    0    0    0  501 -0.00000000000E+00  0.00000000000E+00  0.52506911700E+03  0.52506911700E+03  0.00000000000E+00 0.  1.
         21   -1    0    0  501  502  0.00000000000E+00 -0.00000000000E+00 -0.35059062853E+02  0.35059062853E+02  0.00000000000E+00 0. -1.
         23    2    1    2    0    0 -0.72619564079E+02 -0.35295761141E+02  0.33423532505E+03  0.35538169076E+03  0.89797003154E+02 0.  0.
        -24    2    1    2    0    0  0.50397778112E+02  0.36955058002E+02  0.14990519488E+03  0.18170278128E+03  0.81478346333E+02 0.  0.
         11    1    4    4    0    0  0.22775927150E+02  0.40967943673E+02  0.23845819939E+02  0.52590288028E+02  0.00000000000E+00 0. -1.
        -12    1    4    4    0    0  0.27621850962E+02 -0.40128856717E+01  0.12605937495E+03  0.12911249325E+03  0.00000000000E+00 0.  1.
        -11    1    3    3    0    0 -0.54984724235E+02 -0.22134808818E+02  0.32683486356E+03  0.33216606946E+03  0.00000000000E+00 0.  1.
         11    1    3    3    0    0 -0.17634839844E+02 -0.13160952323E+02  0.74004614941E+01  0.23215621307E+02  0.00000000000E+00 0. -1.
         -3    1    1    2    0  502  0.22221785967E+02 -0.16592968611E+01  0.58695342081E+01  0.23043707807E+02  0.00000000000E+00 0.  1.
<scales pt_clust_5="13000.00000" pt_clust_6="13000.00000" pt_clust_7="13000.00000" pt_clust_8="13000.00000" pt_clust_9="22.28365"></scales>
<clustering>
<clus scale="   22.284">  2  9  1 -1</clus>
<clus scale="   81.478">  5  6 -1 -1</clus>
<clus scale="   89.797">  7  8 -1 -1</clus>
<clus scale="  109.522">  2  5  1 -1</clus>
<clus scale="   22.284">  2  5  1 -1</clus>
</clustering>
</event>
<event>
 9    1  0.7719620E-005  0.1489279E+03  0.7546771E-02  0.1203629E+00
          3   -1    0    0  502    0 -0.00000000000E+00  0.00000000000E+00  0.10894868206E+03  0.10894868206E+03  0.00000000000E+00 0. -1.
         21   -1    0    0  501  502  0.00000000000E+00 -0.00000000000E+00 -0.32929055550E+03  0.32929055550E+03  0.00000000000E+00 0. -1.
        -24    2    1    2    0    0  0.10824103503E+02 -0.88082458707E+02 -0.78247085962E+02  0.14336211861E+03  0.80959309795E+02 0.  0.
         23    2    1    2    0    0 -0.55303084942E+02  0.14294231616E+03 -0.63280841757E+02  0.18904885340E+03  0.90796845125E+02 0.  0.
         13    1    3    3    0    0 -0.25059782027E+02 -0.71774370639E+02 -0.69463928384E+02  0.10297956255E+03  0.00000000000E+00 0. -1.
        -14    1    3    3    0    0  0.35883885530E+02 -0.16308088068E+02 -0.87831575781E+01  0.40382556064E+02  0.00000000000E+00 0.  1.
        -13    1    4    4    0    0 -0.47651265032E+02  0.11028067340E+03 -0.86685924654E+02  0.14814492741E+03  0.00000000000E+00 0.  1.
         13    1    4    4    0    0 -0.76518199099E+01  0.32661642767E+02  0.23405082897E+02  0.40903925992E+02  0.00000000000E+00 0. -1.
          4    1    1    2  501    0  0.44478981439E+02 -0.54859857457E+02 -0.78813945715E+02  0.10582826555E+03  0.00000000000E+00 0. -1.
<scales pt_clust_5="13000.00000" pt_clust_6="13000.00000" pt_clust_7="13000.00000" pt_clust_8="13000.00000" pt_clust_9="70.62566"></scales>
<clustering>
<clus scale="   70.626">  2  9  1 -1</clus>
<clus scale="   80.959">  5  6 -1 -1</clus>
<clus scale="   90.797">  7  8 -1 -1</clus>
<clus scale="  143.143">  1  5  2 -1</clus>
<clus scale="   70.626">  2  5  1 -1</clus>
</clustering>
</event>
<event>
 9    1  0.7719620E-005  0.1337254E+03  0.7546771E-02  0.1244151E+00
         21   -1    0    0  501  502  0.00000000000E+00  0.00000000000E+00  0.58347868337E+03  0.58347868337E+03  0.00000000000E+00 0.  1.
          3   -1    0    0  502    0 -0.00000000000E+00 -0.00000000000E+00 -0.56706703568E+02  0.56706703568E+02  0.00000000000E+00 0. -1.
        -24    2    1    2    0    0 -0.75972680002E+01 -0.19520539577E+02  0.22596341518E+03  0.24138186006E+03  0.82261579243E+02 0.  0.
         23    2    1    2    0    0  0.97676905852E+02  0.30618175116E+02  0.27044979362E+03  0.30310005961E+03  0.90820177733E+02 0.  0.
         13    1    3    3    0    0  0.30030798172E+02 -0.24181589638E+01  0.35856155641E+02  0.46833323916E+02  0.00000000000E+00 0. -1.
        -14    1    3    3    0    0 -0.37628066172E+02 -0.17102380613E+02  0.19010725954E+03  0.19454853615E+03  0.00000000000E+00 0.  1.
        -13    1    4    4    0    0  0.37664186009E+02 -0.32458490903E+02  0.94021166173E+02  0.10635847041E+03  0.00000000000E+00 0. -1.
         13    1    4    4    0    0  0.60012719843E+02  0.63076666019E+02  0.17642862744E+03  0.19674158920E+03  0.00000000000E+00 0.  1.
          4    1    1    2  501    0 -0.90079637852E+02 -0.11097635539E+02  0.30358771004E+02  0.95703467267E+02  0.00000000000E+00 0. -1.
<scales pt_clust_5="13000.00000" pt_clust_6="13000.00000" pt_clust_7="13000.00000" pt_clust_8="13000.00000" pt_clust_9="98.15395"></scales>
<clustering>
<clus scale="   82.262">  5  6 -1 -1</clus>
<clus scale="   84.887">  2  5  1 -1</clus>
<clus scale="   90.820">  7  8 -1 -1</clus>
<clus scale="   98.154">  1  9  2 -1</clus>
<clus scale="   98.154">  1  5  2 -1</clus>
</clustering>
</event>
<event>
 9    1  0.7719620E-005  0.2707137E+03  0.7546771E-02  0.1119359E+00
         21   -1    0    0  501  502  0.00000000000E+00  0.00000000000E+00  0.18310266493E+03  0.18310266493E+03  0.00000000000E+00 0. -1.
          1   -1    0    0  502    0 -0.00000000000E+00 -0.00000000000E+00 -0.75609408980E+03  0.75609408980E+03  0.00000000000E+00 0. -1.
         23    2    1    2    0    0 -0.13608845144E+03  0.36730076171E+02 -0.25374341520E+03  0.30490314156E+03  0.93332951641E+02 0.  0.
        -24    2    1    2    0    0 -0.99038293286E+02 -0.21628797188E+03 -0.16748918637E+03  0.30179344108E+03  0.80234551233E+02 0.  0.
         13    1    4    4    0    0 -0.11039726914E+03 -0.21164321473E+03 -0.15767876846E+03  0.28608215847E+03  0.00000000000E+00 0. -1.
        -14    1    4    4    0    0  0.11358975856E+02 -0.46447571476E+01 -0.98104179157E+01  0.15711282606E+02  0.00000000000E+00 0.  1.
        -11    1    3    3    0    0 -0.66504055140E+02  0.48908429150E+02 -0.70656986209E+02  0.10866109466E+03  0.00000000000E+00 0. -1.
         11    1    3    3    0    0 -0.69584396297E+02 -0.12178352980E+02 -0.18308642899E+03  0.19624204690E+03  0.00000000000E+00 0.  1.
          2    1    1    2  501    0  0.23512674472E+03  0.17955789571E+03 -0.15175882329E+03  0.33250017209E+03  0.00000000000E+00 0. -1.
<scales pt_clust_5="13000.00000" pt_clust_6="13000.00000" pt_clust_7="13000.00000" pt_clust_8="13000.00000" pt_clust_9="258.55058"></scales>
<clustering>
<clus scale="   80.235">  5  6 -1 -1</clus>
<clus scale="   93.333">  7  8 -1 -1</clus>
<clus scale="  169.057">  2  7  1 -1</clus>
<clus scale="  258.551">  1  9  2 -1</clus>
<clus scale="  258.551">  1  5  2 -1</clus>
</clustering>
</event>
<event>
 9    1  0.7719620E-005  0.1973759E+03  0.7546771E-02  0.1152804E+00
         21   -1    0    0  501  502  0.00000000000E+00  0.00000000000E+00  0.26701890828E+02  0.26701890828E+02  0.00000000000E+00 0. -1.
          1   -1    0    0  502    0 -0.00000000000E+00 -0.00000000000E+00 -0.24318533296E+04  0.24318533296E+04  0.00000000000E+00 0. -1.
        -24    2    1    2    0    0 -0.14643700952E+03  0.61645366564E+02 -0.79892728451E+03  0.81914008305E+03  0.86381252319E+02 0.  0.
         23    2    1    2    0    0  0.13651551775E+03 -0.16151830061E+03 -0.10086019961E+04  0.10334239800E+04  0.77217146928E+02 0.  0.
         11    1    3    3    0    0 -0.15186151163E+03  0.48628091532E+02 -0.77607144539E+03  0.79228372339E+03  0.00000000000E+00 0. -1.
        -12    1    3    3    0    0  0.54245021097E+01  0.13017275031E+02 -0.22855839121E+02  0.26856359662E+02  0.00000000000E+00 0.  1.
        -11    1    4    4    0    0  0.39132765204E+02 -0.89293506312E+02 -0.33093988559E+03  0.34500132094E+03  0.00000000000E+00 0.  1.
         11    1    4    4    0    0  0.97382752541E+02 -0.72224794294E+02 -0.67766211052E+03  0.68842265901E+03  0.00000000000E+00 0. -1.
          2    1    1    2  501    0  0.99214917791E+01  0.99872934042E+02 -0.59762215818E+03  0.60599115744E+03  0.00000000000E+00 0. -1.
<scales pt_clust_5="13000.00000" pt_clust_6="13000.00000" pt_clust_7="13000.00000" pt_clust_8="13000.00000" pt_clust_9="100.36458"></scales>
<clustering>
<clus scale="   77.217">  7  8 -1 -1</clus>
<clus scale="   86.381">  5  6 -1 -1</clus>
<clus scale="  100.365">  1  9  2 -1</clus>
<clus scale="  193.541">  1  7  2 -1</clus>
<clus scale="  100.365">  1  5  2 -1</clus>
</clustering>
</event>
<event>
 9    1  0.7719620E-005  0.1757900E+03  0.7546771E-02  0.1173290E+00
         21   -1    0    0  501  502  0.00000000000E+00  0.00000000000E+00  0.27058104635E+03  0.27058104635E+03  0.00000000000E+00 0. -1.
          1   -1    0    0  502    0 -0.00000000000E+00 -0.00000000000E+00 -0.36468812756E+03  0.36468812756E+03  0.00000000000E+00 0. -1.
         23    2    1    2    0    0  0.12517231416E+03  0.11032519766E+03 -0.22446720868E+03  0.29455399017E+03  0.92394631254E+02 0.  0.
        -24    2    1    2    0    0 -0.35818946296E+02 -0.12760703867E+03 -0.27816567109E+02  0.15822531255E+03  0.81822581813E+02 0.  0.
         11    1    4    4    0    0 -0.13023235852E+02 -0.13152178119E+03 -0.27984883731E+02  0.13509528976E+03  0.00000000000E+00 0. -1.
        -12    1    4    4    0    0 -0.22795710444E+02  0.39147425200E+01  0.16831662223E+00  0.23130022787E+02  0.00000000000E+00 0.  1.
        -11    1    3    3    0    0  0.15077225875E+02 -0.16439246750E+02 -0.33818421953E+02  0.40512433119E+02  0.00000000000E+00 0.  1.
         11    1    3    3    0    0  0.11009508829E+03  0.12676444441E+03 -0.19064878672E+03  0.25404155705E+03  0.00000000000E+00 0. -1.
          2    1    1    2  501    0 -0.89353367867E+02  0.17281841004E+02  0.15817669458E+03  0.18248987118E+03  0.00000000000E+00 0. -1.
<scales pt_clust_5="13000.00000" pt_clust_6="13000.00000" pt_clust_7="13000.00000" pt_clust_8="13000.00000" pt_clust_9="91.00927"></scales>
<clustering>
<clus scale="   81.823">  5  6 -1 -1</clus>
<clus scale="   91.009">  1  9  2 -1</clus>
<clus scale="   92.395">  7  8 -1 -1</clus>
<clus scale="  170.471">  1  5  2 -1</clus>
<clus scale="   91.009">  1  5  2 -1</clus>
</clustering>
</event>
<event>
 9    1  0.7719620E-005  0.8915442E+02  0.7546771E-02  0.1307322E+00
         21   -1    0    0  501  502  0.00000000000E+00  0.00000000000E+00  0.35868577974E+03  0.35868577974E+03  0.00000000000E+00 0. -1.
          1   -1    0    0  502    0 -0.00000000000E+00 -0.00000000000E+00 -0.12681336784E+03  0.12681336784E+03  0.00000000000E+00 0. -1.
         23    2    1    2    0    0 -0.16335947144E+02 -0.10625369451E+01 -0.90848087946E+02  0.12784003340E+03  0.88440414412E+02 0.  0.
        -24    2    1    2    0    0 -0.23745283827E+02  0.54566150184E+01  0.10864428186E+03  0.13981871365E+03  0.84569968388E+02 0.  0.
         13    1    4    4    0    0  0.70773376529E+01 -0.30179060447E+02  0.13830343808E+02  0.33943229186E+02  0.00000000000E+00 0. -1.
        -14    1    4    4    0    0 -0.30822621479E+02  0.35635675465E+02  0.94813938052E+02  0.10587548446E+03  0.00000000000E+00 0.  1.
        -13    1    3    3    0    0 -0.37161382109E+02  0.28916041775E+02 -0.26956503561E+02  0.54256417836E+02  0.00000000000E+00 0.  1.
         13    1    3    3    0    0  0.20825434965E+02 -0.29978578720E+02 -0.63891584386E+02  0.73583615560E+02  0.00000000000E+00 0. -1.
          2    1    1    2  501    0  0.40081230971E+02 -0.43940780733E+01  0.21407621798E+03  0.21784040053E+03  0.00000000000E+00 0. -1.
<scales pt_clust_5="13000.00000" pt_clust_6="13000.00000" pt_clust_7="13000.00000" pt_clust_8="13000.00000" pt_clust_9="40.32137"></scales>
<clustering>
<clus scale="   40.321">  1  9  2 -1</clus>
<clus scale="   84.570">  5  6 -1 -1</clus>
<clus scale="   85.316">  1  5  2 -1</clus>
<clus scale="   88.440">  7  8 -1 -1</clus>
<clus scale="   40.321">  1  5  2 -1</clus>
</clustering>
</event>
<event>
 9    1  0.7719620E-005  0.9383245E+02  0.7546771E-02  0.1299921E+00
         21   -1    0    0  501  502  0.00000000000E+00  0.00000000000E+00  0.25474623391E+03  0.25474623391E+03  0.00000000000E+00 0.  1.
          1   -1    0    0  502    0 -0.00000000000E+00 -0.00000000000E+00 -0.19287425042E+03  0.19287425042E+03  0.00000000000E+00 0. -1.
         23    2    1    2    0    0  0.11705693486E+02 -0.30409288103E+02 -0.12803446489E+03  0.16016234000E+03  0.90539510101E+02 0.  0.
        -24    2    1    2    0    0 -0.24060716898E+02 -0.69273030906E+01 -0.92635457387E+01  0.84442494180E+02  0.80111272102E+02 0.  0.
         11    1    4    4    0    0  0.25624996069E+02 -0.16814035407E+02 -0.13734945203E+02  0.33585725092E+02  0.00000000000E+00 0. -1.
        -12    1    4    4    0    0 -0.49685712967E+02  0.98867323165E+01  0.44713994643E+01  0.50856769088E+02  0.00000000000E+00 0.  1.
        -13    1    3    3    0    0 -0.15758245351E+02  0.27217791163E+02 -0.32181868464E+02  0.44997812282E+02  0.00000000000E+00 0. -1.
         13    1    3    3    0    0  0.27463938837E+02 -0.57627079266E+02 -0.95852596430E+02  0.11516452771E+03  0.00000000000E+00 0.  1.
          2    1    1    2  501    0  0.12355023412E+02  0.37336591194E+02  0.19916999413E+03  0.20301565015E+03  0.00000000000E+00 0. -1.
<scales pt_clust_5="13000.00000" pt_clust_6="13000.00000" pt_clust_7="13000.00000" pt_clust_8="13000.00000" pt_clust_9="39.32770"></scales>
<clustering>
<clus scale="   39.328">  1  9  2 -1</clus>
<clus scale="   80.111">  5  6 -1 -1</clus>
<clus scale="   83.815">  1  5  2 -1</clus>
<clus scale="   90.540">  7  8 -1 -1</clus>
<clus scale="   39.328">  1  5  2 -1</clus>
</clustering>
</event>
<event>
 9    1  0.7719620E-005  0.2029407E+03  0.7546771E-02  0.1178954E+00
         21   -1    0    0  501  502  0.00000000000E+00  0.00000000000E+00  0.26214446323E+03  0.26214446323E+03  0.00000000000E+00 0.  1.
          1   -1    0    0  502    0 -0.00000000000E+00 -0.00000000000E+00 -0.24376388455E+03  0.24376388455E+03  0.00000000000E+00 0. -1.
         23    2    1    2    0    0  0.83851618184E+00  0.32341731370E+02 -0.35131745158E+02  0.10360582959E+03  0.91941490686E+02 0.  0.
        -24    2    1    2    0    0 -0.88545054342E+02 -0.18416173527E+03  0.27009923451E+01  0.21975514946E+03  0.80803830166E+02 0.  0.
         11    1    4    4    0    0 -0.59037257669E+02 -0.17221463410E+03 -0.16133137983E+02  0.18276639771E+03  0.00000000000E+00 0. -1.
        -12    1    4    4    0    0 -0.29507796673E+02 -0.11947101170E+02  0.18834130328E+02  0.36988751751E+02  0.00000000000E+00 0.  1.
        -11    1    3    3    0    0 -0.27538291469E+02 -0.66452814047E+01  0.16641318476E+02  0.32854995702E+02  0.00000000000E+00 0.  1.
         11    1    3    3    0    0  0.28376807651E+02  0.38987012775E+02 -0.51773063635E+02  0.70750833887E+02  0.00000000000E+00 0. -1.
          2    1    1    2  501    0  0.87706538160E+02  0.15182000390E+03  0.50811331499E+02  0.18254736873E+03  0.00000000000E+00 0. -1.
<scales pt_clust_5="13000.00000" pt_clust_6="13000.00000" pt_clust_7="13000.00000" pt_clust_8="13000.00000" pt_clust_9="186.16033"></scales>
<clustering>
<clus scale="   80.804">  5  6 -1 -1</clus>
<clus scale="   91.941">  7  8 -1 -1</clus>
<clus scale="   97.468">  2  7  1 -1</clus>
<clus scale="  186.160">  1  9  2 -1</clus>
<clus scale="  186.160">  1  5  2 -1</clus>
</clustering>
</event>
<event>
 9    1  0.7719620E-005  0.2752427E+03  0.7546771E-02  0.1098316E+00
         21   -1    0    0  501  502  0.00000000000E+00  0.00000000000E+00  0.64426671260E+02  0.64426671260E+02  0.00000000000E+00 0.  1.
         -2   -1    0    0    0  501 -0.00000000000E+00 -0.00000000000E+00 -0.10319027019E+04  0.10319027019E+04  0.00000000000E+00 0.  1.
        -24    2    1    2    0    0  0.77750622540E+02 -0.53799085570E+00 -0.12142658778E+03  0.16524252520E+03  0.80716957182E+02 0.  0.
         23    2    1    2    0    0  0.10553626233E+03 -0.83712398118E+02 -0.21983882445E+03  0.27318719845E+03  0.90313168460E+02 0.  0.
         11    1    3    3    0    0  0.50566140998E+02  0.35615144256E+02 -0.45200580820E+02  0.76605911145E+02  0.00000000000E+00 0. -1.
        -12    1    3    3    0    0  0.27184481542E+02 -0.36153135112E+02 -0.76226006958E+02  0.88636614059E+02  0.00000000000E+00 0.  1.
        -11    1    4    4    0    0  0.55769393233E+02 -0.98169505185E+00 -0.12935230052E+03  0.14086591708E+03  0.00000000000E+00 0. -1.
         11    1    4    4    0    0  0.49766869094E+02 -0.82730703066E+02 -0.90486523935E+02  0.13232128137E+03  0.00000000000E+00 0.  1.
         -1    1    1    2    0  502 -0.18328688487E+03  0.84250388974E+02 -0.62621061838E+03  0.65789964947E+03  0.00000000000E+00 0.  1.
<scales pt_clust_5="13000.00000" pt_clust_6="13000.00000" pt_clust_7="13000.00000" pt_clust_8="13000.00000" pt_clust_9="201.72320"></scales>
<clustering>
<clus scale="   80.717">  5  6 -1 -1</clus>
<clus scale="   90.313">  7  8 -1 -1</clus>
<clus scale="  106.100">  5  7 -1 -1</clus>
<clus scale="  201.723">  1  9  2 -1</clus>
<clus scale="  201.723">  1  5  2 -1</clus>
</clustering>
</event>
<event>
 9    1  0.7719620E-005  0.9749123E+02  0.7546771E-02  0.1292850E+00
          1   -1    0    0  502    0 -0.00000000000E+00  0.00000000000E+00  0.43791237543E+03  0.43791237543E+03  0.00000000000E+00 0. -1.
         21   -1    0    0  501  502  0.00000000000E+00 -0.00000000000E+00 -0.48232820261E+02  0.48232820261E+02  0.00000000000E+00 0. -1.
        -24    2    1    2    0    0  0.26199510104E+02 -0.25468117421E+02  0.20245509909E+03  0.21967818448E+03  0.77041535907E+02 0.  0.
         23    2    1    2    0    0 -0.61647184726E+02 -0.32039930578E+02  0.78478228627E+02  0.13844570359E+03  0.90451356745E+02 0.  0.
         13    1    3    3    0    0  0.53095823562E+02 -0.23951181542E+02  0.13394207043E+03  0.14605924759E+03  0.00000000000E+00 0. -1.
        -14    1    3    3    0    0 -0.26896313458E+02 -0.15169358785E+01  0.68513028659E+02  0.73618936886E+02  0.00000000000E+00 0.  1.
        -11    1    4    4    0    0 -0.42607430856E+02 -0.59643355402E+02  0.74774367419E+02  0.10470878201E+03  0.00000000000E+00 0. -1.
         11    1    4    4    0    0 -0.19039753869E+02  0.27603424824E+02  0.37038612084E+01  0.33736921573E+02  0.00000000000E+00 0.  1.
          2    1    1    2  501    0  0.35447674622E+02  0.57508047999E+02  0.10874622746E+03  0.12802130763E+03  0.00000000000E+00 0. -1.
<scales pt_clust_5="13000.00000" pt_clust_6="13000.00000" pt_clust_7="13000.00000" pt_clust_8="13000.00000" pt_clust_9="67.55529"></scales>
<clustering>
<clus scale="   67.555">  2  9  1 -1</clus>
<clus scale="   77.042">  5  6 -1 -1</clus>
<clus scale="   85.197">  1  5  2 -1</clus>
<clus scale="   90.451">  7  8 -1 -1</clus>
<clus scale="   67.555">  2  5  1 -1</clus>
</clustering>
</event>
<event>
 9    1  0.7719620E-005  0.1079648E+03  0.7546771E-02  0.1267353E+00
         21   -1    0    0  501  502  0.00000000000E+00  0.00000000000E+00  0.61462681557E+03  0.61462681557E+03  0.00000000000E+00 0. -1.
          1   -1    0    0  502    0 -0.00000000000E+00 -0.00000000000E+00 -0.48650041117E+02  0.48650041117E+02  0.00000000000E+00 0. -1.
         23    2    1    2    0    0 -0.54722028798E+02 -0.30346648015E+02  0.80741576205E+02  0.13755290440E+03  0.92120464067E+02 0.  0.
        -24    2    1    2    0    0  0.16001683117E+02  0.56343832472E+02  0.12319725129E+03  0.16069437292E+03  0.84937844594E+02 0.  0.
         13    1    4    4    0    0  0.88157483864E+01  0.32606565551E+02  0.13053198334E+03  0.13483139179E+03  0.00000000000E+00 0. -1.
        -14    1    4    4    0    0  0.71859347310E+01  0.23737266920E+02 -0.73347320546E+01  0.25862981134E+02  0.00000000000E+00 0.  1.
        -13    1    3    3    0    0  0.22289803018E+02  0.90552379383E+01  0.11092724661E+02  0.26493040465E+02  0.00000000000E+00 0. -1.
         13    1    3    3    0    0 -0.77011831816E+02 -0.39401885953E+02  0.69648851544E+02  0.11105986394E+03  0.00000000000E+00 0.  1.
          2    1    1    2  501    0  0.38720345681E+02 -0.25997184457E+02  0.36203794696E+03  0.36502957936E+03  0.00000000000E+00 0. -1.
<scales pt_clust_5="13000.00000" pt_clust_6="13000.00000" pt_clust_7="13000.00000" pt_clust_8="13000.00000" pt_clust_9="46.63817"></scales>
<clustering>
<clus scale="   46.638">  1  9  2 -1</clus>
<clus scale="   84.938">  5  6 -1 -1</clus>
<clus scale="   92.120">  7  8 -1 -1</clus>
<clus scale="  101.905">  1  5  2 -1</clus>
<clus scale="   46.638">  1  5  2 -1</clus>
</clustering>
</event>
<event>
 9    1  0.7719620E-005  0.1143149E+03  0.7546771E-02  0.1256262E+00
         21   -1    0    0  501  502  0.00000000000E+00  0.00000000000E+00  0.33020196027E+02  0.33020196027E+02  0.00000000000E+00 0. -1.
          1   -1    0    0  502    0 -0.00000000000E+00 -0.00000000000E+00 -0.82933978117E+03  0.82933978117E+03  0.00000000000E+00 0. -1.
        -24    2    1    2    0    0 -0.62433239619E+02  0.38921214183E+02 -0.39309272576E+03  0.40813712823E+03  0.81493889810E+02 0.  0.
         23    2    1    2    0    0  0.36675618837E+01 -0.82835327622E+02 -0.17191320771E+03  0.21155463989E+03  0.91247313194E+02 0.  0.
         11    1    3    3    0    0  0.92601199757E+01  0.26301008284E+02 -0.48543701178E+02  0.55981995166E+02  0.00000000000E+00 0. -1.
        -12    1    3    3    0    0 -0.71693359595E+02  0.12620205898E+02 -0.34454902458E+03  0.35215513307E+03  0.00000000000E+00 0.  1.
        -11    1    4    4    0    0  0.27164537715E+02 -0.88992525654E+02 -0.10461362749E+03  0.14000568841E+03  0.00000000000E+00 0. -1.
         11    1    4    4    0    0 -0.23496975831E+02  0.61571980327E+01 -0.67299580217E+02  0.71548951482E+02  0.00000000000E+00 0.  1.
          2    1    1    2  501    0  0.58765677736E+02  0.43914113439E+02 -0.23131365167E+03  0.24266820906E+03  0.00000000000E+00 0. -1.
<scales pt_clust_5="13000.00000" pt_clust_6="13000.00000" pt_clust_7="13000.00000" pt_clust_8="13000.00000" pt_clust_9="73.36116"></scales>
<clustering>
<clus scale="   73.361">  1  9  2 -1</clus>
<clus scale="   81.494">  5  6 -1 -1</clus>
<clus scale="   91.247">  7  8 -1 -1</clus>
<clus scale="  106.691">  2  5  1 -1</clus>
<clus scale="   73.361">  1  5  2 -1</clus>
</clustering>
</event>
<event>
 9    1  0.7719620E-005  0.9234586E+02  0.7546771E-02  0.1304155E+00
         21   -1    0    0  501  502  0.00000000000E+00  0.00000000000E+00  0.36811103430E+03  0.36811103430E+03  0.00000000000E+00 0.  1.
         -4   -1    0    0    0  501 -0.00000000000E+00 -0.00000000000E+00 -0.75083464212E+02  0.75083464212E+02  0.00000000000E+00 0.  1.
        -24    2    1    2    0    0  0.87972929378E+01 -0.54196566822E+01  0.89919156441E+02  0.12144847926E+03  0.80978474778E+02 0.  0.
         23    2    1    2    0    0  0.45827889278E+02 -0.79625984147E+01  0.23533127636E+03  0.25692852034E+03  0.92020956957E+02 0.  0.
         13    1    3    3    0    0 -0.31580223959E+02 -0.20821687865E+02  0.34722974980E+02  0.51347231885E+02  0.00000000000E+00 0. -1.
        -14    1    3    3    0    0  0.40377516897E+02  0.15402031182E+02  0.55196181461E+02  0.70101247372E+02  0.00000000000E+00 0.  1.
        -11    1    4    4    0    0  0.33456110500E+02 -0.32820471142E+02  0.22054649561E+03  0.22547117638E+03  0.00000000000E+00 0.  1.
         11    1    4    4    0    0  0.12371778778E+02  0.24857872727E+02  0.14784780758E+02  0.31457343955E+02  0.00000000000E+00 0. -1.
         -3    1    1    2    0  502 -0.54625182216E+02  0.13382255097E+02 -0.32222862718E+02  0.64817498913E+02  0.00000000000E+00 0.  1.
<scales pt_clust_5="13000.00000" pt_clust_6="13000.00000" pt_clust_7="13000.00000" pt_clust_8="13000.00000" pt_clust_9="56.24054"></scales>
<clustering>
<clus scale="   56.241">  1  9  2 -1</clus>
<clus scale="   80.978">  5  6 -1 -1</clus>
<clus scale="   81.347">  2  5  1 -1</clus>
<clus scale="   92.021">  7  8 -1 -1</clus>
<clus scale="   56.241">  1  5  2 -1</clus>
</clustering>
</event>
<event>
 9    1  0.7719620E-005  0.9885370E+02  0.7546771E-02  0.1287862E+00
         21   -1    0    0  501  502  0.00000000000E+00  0.00000000000E+00  0.19140301611E+03  0.19140301611E+03  0.00000000000E+00 0. -1.
          3   -1    0    0  502    0 -0.00000000000E+00 -0.00000000000E+00 -0.32541377230E+03  0.32541377230E+03  0.00000000000E+00 0. -1.
         23    2    1    2    0    0  0.13790843795E+02 -0.31037276270E+02 -0.26167612115E+03  0.27906093396E+03  0.90813614555E+02 0.  0.
        -24    2    1    2    0    0 -0.64919299725E+02  0.64144766445E+02  0.34892613494E+02  0.12677383643E+03  0.80777748095E+02 0.  0.
         13    1    4    4    0    0 -0.60989301501E+02  0.83332620797E+01  0.14129824707E+01  0.61572190751E+02  0.00000000000E+00 0. -1.
        -14    1    4    4    0    0 -0.39299982239E+01  0.55811504365E+02  0.33479631024E+02  0.65201645677E+02  0.00000000000E+00 0.  1.
        -11    1    3    3    0    0 -0.29923082443E+02  0.11086554172E+02 -0.54306663973E+02  0.62988223488E+02  0.00000000000E+00 0.  1.
         11    1    3    3    0    0  0.43713926238E+02 -0.42123830443E+02 -0.20736945718E+03  0.21607271047E+03  0.00000000000E+00 0. -1.
          4    1    1    2  501    0  0.51128455930E+02 -0.33107490174E+02  0.92772751469E+02  0.11098201803E+03  0.00000000000E+00 0. -1.
<scales pt_clust_5="13000.00000" pt_clust_6="13000.00000" pt_clust_7="13000.00000" pt_clust_8="13000.00000" pt_clust_9="60.91162"></scales>
<clustering>
<clus scale="   60.912">  1  9  2 -1</clus>
<clus scale="   80.778">  5  6 -1 -1</clus>
<clus scale="   89.722">  1  5  2 -1</clus>
<clus scale="   90.814">  7  8 -1 -1</clus>
<clus scale="   60.912">  1  5  2 -1</clus>
</clustering>
</event>
<event>
 9    1  0.7719620E-005  0.2962668E+03  0.7546771E-02  0.1087122E+00
          1   -1    0    0  502    0 -0.00000000000E+00  0.00000000000E+00  0.15023120158E+03  0.15023120158E+03  0.00000000000E+00 0. -1.
         21   -1    0    0  501  502  0.00000000000E+00 -0.00000000000E+00 -0.94386678437E+03  0.94386678437E+03  0.00000000000E+00 0. -1.
        -24    2    1    2    0    0  0.15810769373E+03 -0.64939458630E+02 -0.24999166932E+02  0.18977891419E+03  0.78586906156E+02 0.  0.
         23    2    1    2    0    0  0.30749267830E+02 -0.53698006182E+02 -0.40970318945E+01  0.10791322697E+03  0.88314696085E+02 0.  0.
         11    1    3    3    0    0  0.13193966011E+03 -0.58461312138E+02 -0.50281690727E+02  0.15282031066E+03  0.00000000000E+00 0. -1.
        -12    1    3    3    0    0  0.26168033617E+02 -0.64781464921E+01  0.25282523795E+02  0.36958603529E+02  0.00000000000E+00 0.  1.
        -13    1    4    4    0    0 -0.13548192959E+02  0.18528762335E+02  0.14783699426E+01  0.23001177009E+02  0.00000000000E+00 0.  1.
         13    1    4    4    0    0  0.44297460789E+02 -0.72226768517E+02 -0.55754018371E+01  0.84912049960E+02  0.00000000000E+00 0. -1.
          2    1    1    2  501    0 -0.18885696156E+03  0.11863746481E+03 -0.76453938396E+03  0.79640584479E+03  0.00000000000E+00 0. -1.
<scales pt_clust_5="13000.00000" pt_clust_6="13000.00000" pt_clust_7="13000.00000" pt_clust_8="13000.00000" pt_clust_9="223.02870"></scales>
<clustering>
<clus scale="   78.587">  5  6 -1 -1</clus>
<clus scale="   88.315">  7  8 -1 -1</clus>
<clus scale="  101.373">  5  7 -1 -1</clus>
<clus scale="  223.029">  2  9  1 -1</clus>
<clus scale="  223.029">  2  5  1 -1</clus>
</clustering>
</event>
<event>
 9    1  0.7719620E-005  0.1073312E+03  0.7546771E-02  0.1269503E+00
         21   -1    0    0  501  502  0.00000000000E+00  0.00000000000E+00  0.76376009367E+02  0.76376009367E+02  0.00000000000E+00 0. -1.
          1   -1    0    0  502    0 -0.00000000000E+00 -0.00000000000E+00 -0.19744074851E+03  0.19744074851E+03  0.00000000000E+00 0. -1.
         23    2    1    2    0    0 -0.23633364378E+02 -0.64404313650E+02 -0.78330615369E+02  0.13777212372E+03  0.90216524213E+02 0.  0.
        -24    2    1    2    0    0  0.28170202630E+02  0.35502050688E+02 -0.11563372843E+02  0.93294904110E+02  0.80723426725E+02 0.  0.
         11    1    4    4    0    0  0.54315366561E+02  0.31890452654E+02 -0.19150908999E+02  0.65832494488E+02  0.00000000000E+00 0. -1.
        -12    1    4    4    0    0 -0.26145163931E+02  0.36115980340E+01  0.75875361560E+01  0.27462409622E+02  0.00000000000E+00 0.  1.
        -13    1    3    3    0    0 -0.33197510078E+02  0.49087667662E+01 -0.11244948761E+01  0.33577301191E+02  0.00000000000E+00 0.  1.
         13    1    3    3    0    0  0.95641457005E+01 -0.69313080416E+02 -0.77206120493E+02  0.10419482253E+03  0.00000000000E+00 0. -1.
          2    1    1    2  501    0 -0.45368382521E+01  0.28902262962E+02 -0.31170750933E+02  0.42749730051E+02  0.00000000000E+00 0. -1.
<scales pt_clust_5="13000.00000" pt_clust_6="13000.00000" pt_clust_7="13000.00000" pt_clust_8="13000.00000" pt_clust_9="29.25619"></scales>
<clustering>
<clus scale="   29.256">  1  9  2 -1</clus>
<clus scale="   80.723">  5  6 -1 -1</clus>
<clus scale="   90.217">  7  8 -1 -1</clus>
<clus scale="   99.485">  1  5  2 -1</clus>
<clus scale="   29.256">  1  5  2 -1</clus>
</clustering>
</event>
<event>
 9    1  0.7719620E-005  0.9884722E+02  0.7546771E-02  0.1288451E+00
         21   -1    0    0  501  502  0.00000000000E+00  0.00000000000E+00  0.59325639289E+03  0.59325639289E+03  0.00000000000E+00 0. -1.
          1   -1    0    0  502    0 -0.00000000000E+00 -0.00000000000E+00 -0.69896451183E+02  0.69896451183E+02  0.00000000000E+00 0. -1.
         23    2    1    2    0    0  0.22909375643E+02 -0.39954276020E+02 -0.10937951405E+02  0.10365472063E+03  0.92214308345E+02 0.  0.
        -24    2    1    2    0    0 -0.16895915622E+02 -0.31726726976E+02  0.22446850784E+03  0.24142804332E+03  0.81297797752E+02 0.  0.
         13    1    4    4    0    0  0.25811508304E+00 -0.30409210632E+02  0.20362154380E+02  0.36597869414E+02  0.00000000000E+00 0. -1.
        -14    1    4    4    0    0 -0.17154030705E+02 -0.13175163440E+01  0.20410635346E+03  0.20483017391E+03  0.00000000000E+00 0.  1.
        -13    1    3    3    0    0  0.49730203864E+02 -0.35171510765E+02  0.18388838520E+02  0.63626077421E+02  0.00000000000E+00 0. -1.
         13    1    3    3    0    0 -0.26820828221E+02 -0.47827652555E+01 -0.29326789925E+02  0.40028643210E+02  0.00000000000E+00 0.  1.
          2    1    1    2  501    0 -0.60134600213E+01  0.71681002997E+02  0.30982938527E+03  0.31807008013E+03  0.00000000000E+00 0. -1.
<scales pt_clust_5="13000.00000" pt_clust_6="13000.00000" pt_clust_7="13000.00000" pt_clust_8="13000.00000" pt_clust_9="71.93280"></scales>
<clustering>
<clus scale="   71.933">  1  9  2 -1</clus>
<clus scale="   81.298">  5  6 -1 -1</clus>
<clus scale="   88.750">  1  5  2 -1</clus>
<clus scale="   92.214">  7  8 -1 -1</clus>
<clus scale="   71.933">  1  5  2 -1</clus>
</clustering>
</event>
<event>
 9    1  0.7719620E-005  0.1245345E+03  0.7546771E-02  0.1237526E+00
         21   -1    0    0  501  502  0.00000000000E+00  0.00000000000E+00  0.39186561397E+03  0.39186561397E+03  0.00000000000E+00 0.  1.
          1   -1    0    0  502    0 -0.00000000000E+00 -0.00000000000E+00 -0.99281469344E+02  0.99281469344E+02  0.00000000000E+00 0. -1.
        -24    2    1    2    0    0 -0.74231359318E+02  0.66815447237E+02  0.11997634520E+03  0.18478772402E+03  0.98881650702E+02 0.  0.
         23    2    1    2    0    0  0.25324304919E+02 -0.31937631042E+02  0.21152270829E+03  0.23478609498E+03  0.93388016228E+02 0.  0.
         13    1    3    3    0    0 -0.11479015392E+02  0.48922969345E+02  0.23893794958E+01  0.50308387554E+02  0.00000000000E+00 0. -1.
        -14    1    3    3    0    0 -0.62752343926E+02  0.17892477892E+02  0.11758696570E+03  0.13447933646E+03  0.00000000000E+00 0.  1.
        -11    1    4    4    0    0  0.37181238587E+02  0.16332096712E+02  0.15153275705E+03  0.15688007632E+03  0.00000000000E+00 0.  1.
         11    1    4    4    0    0 -0.11856933668E+02 -0.48269727754E+02  0.59989951242E+02  0.77906018660E+02  0.00000000000E+00 0. -1.
          2    1    1    2  501    0  0.48907054399E+02 -0.34877816195E+02 -0.38914908866E+02  0.71573264315E+02  0.00000000000E+00 0. -1.
<scales pt_clust_5="13000.00000" pt_clust_6="13000.00000" pt_clust_7="13000.00000" pt_clust_8="13000.00000" pt_clust_9="60.06967"></scales>
<clustering>
<clus scale="   60.070">  1  9  2 -1</clus>
<clus scale="   93.388">  7  8 -1 -1</clus>
<clus scale="   98.882">  5  6 -1 -1</clus>
<clus scale="  120.219">  1  7  2 -1</clus>
<clus scale="   60.070">  1  5  2 -1</clus>
</clustering>
</event>
<event>
 9    1  0.7719620E-005  0.9447114E+02  0.7546771E-02  0.1298394E+00
         -2   -1    0    0    0  501 -0.00000000000E+00  0.00000000000E+00  0.31349201375E+03  0.31349201375E+03  0.00000000000E+00 0.  1.
         21   -1    0    0  501  502  0.00000000000E+00 -0.00000000000E+00 -0.86364935106E+02  0.86364935106E+02  0.00000000000E+00 0. -1.
         23    2    1    2    0    0 -0.22493546397E+02 -0.63129464280E+01  0.26215809898E+03  0.27848312195E+03  0.90995425302E+02 0.  0.
        -24    2    1    2    0    0  0.33807487428E+02  0.27986586453E+02 -0.28387218344E+02  0.96038238524E+02  0.80568690358E+02 0.  0.
         13    1    4    4    0    0  0.55703564573E+02  0.22852953161E+02 -0.49848128055E+00  0.60211236973E+02  0.00000000000E+00 0. -1.
        -14    1    4    4    0    0 -0.21896077144E+02  0.51336332927E+01 -0.27888737064E+02  0.35827001551E+02  0.00000000000E+00 0.  1.
        -13    1    3    3    0    0 -0.13817185975E+01 -0.39569384889E+02  0.20670562071E+03  0.21046343863E+03  0.00000000000E+00 0.  1.
         13    1    3    3    0    0 -0.21111827799E+02  0.33256438461E+02  0.55452478272E+02  0.68019683318E+02  0.00000000000E+00 0. -1.
         -1    1    1    2    0  502 -0.11313941032E+02 -0.21673640025E+02 -0.66438019965E+01  0.25335588381E+02  0.00000000000E+00 0.  1.
<scales pt_clust_5="13000.00000" pt_clust_6="13000.00000" pt_clust_7="13000.00000" pt_clust_8="13000.00000" pt_clust_9="24.44897"></scales>
<clustering>
<clus scale="   24.449">  2  9  1 -1</clus>
<clus scale="   80.569">  5  6 -1 -1</clus>
<clus scale="   84.475">  2  5  1 -1</clus>
<clus scale="   90.995">  7  8 -1 -1</clus>
<clus scale="   24.449">  2  5  1 -1</clus>
</clustering>
</event>
<event>
 9    1  0.7719620E-005  0.9440823E+02  0.7546771E-02  0.1305177E+00
         21   -1    0    0  501  502  0.00000000000E+00  0.00000000000E+00  0.26186688360E+03  0.26186688360E+03  0.00000000000E+00 0. -1.
          1   -1    0    0  502    0 -0.00000000000E+00 -0.00000000000E+00 -0.86259037831E+02  0.86259037831E+02  0.00000000000E+00 0. -1.
        -24    2    1    2    0    0  0.53784783135E+01  0.16818331047E+02 -0.24873632261E+02  0.76448047041E+02  0.70098659234E+02 0.  0.
         23    2    1    2    0    0 -0.45555771711E+02 -0.39235358273E+02  0.61027775421E+02  0.12483076619E+03  0.90794213144E+02 0.  0.
         13    1    3    3    0    0 -0.16111362690E+02  0.17725565596E+02 -0.42402811587E+02  0.48700822518E+02  0.00000000000E+00 0. -1.
        -14    1    3    3    0    0  0.21489841003E+02 -0.90723454883E+00  0.17529179326E+02  0.27747224523E+02  0.00000000000E+00 0.  1.
        -11    1    4    4    0    0  0.11226519706E+02 -0.44064556762E+02  0.64561609046E+01  0.45928225755E+02  0.00000000000E+00 0.  1.
         11    1    4    4    0    0 -0.56782291418E+02  0.48291984889E+01  0.54571614517E+02  0.78902540439E+02  0.00000000000E+00 0. -1.
          2    1    1    2  501    0  0.40177293398E+02  0.22417027226E+02  0.13945370261E+03  0.14684710820E+03  0.00000000000E+00 0. -1.
<scales pt_clust_5="13000.00000" pt_clust_6="13000.00000" pt_clust_7="13000.00000" pt_clust_8="13000.00000" pt_clust_9="46.00802"></scales>
<clustering>
<clus scale="   46.008">  1  9  2 -1</clus>
<clus scale="   70.099">  5  6 -1 -1</clus>
<clus scale="   74.720">  2  5  1 -1</clus>
<clus scale="   90.794">  7  8 -1 -1</clus>
<clus scale="   46.008">  1  5  2 -1</clus>
</clustering>
</event>
<event>
 9    1  0.7719620E-005  0.9664191E+02  0.7546771E-02  0.1294697E+00
         21   -1    0    0  501  502  0.00000000000E+00  0.00000000000E+00  0.17734118954E+03  0.17734118954E+03  0.00000000000E+00 0. -1.
         -4   -1    0    0    0  501 -0.00000000000E+00 -0.00000000000E+00 -0.77844750225E+02  0.77844750225E+02  0.00000000000E+00 0.  1.
         23    2    1    2    0    0 -0.43782183120E+01 -0.14817297211E+02  0.48380640922E+02  0.10568224705E+03  0.92678637411E+02 0.  0.
        -24    2    1    2    0    0 -0.36399933200E+02  0.30060821359E+02  0.51087410994E+02  0.10596952826E+03  0.79943788006E+02 0.  0.
         11    1    4    4    0    0 -0.15616616238E+02  0.38653805253E+02  0.66654197172E+02  0.78617920120E+02  0.00000000000E+00 0. -1.
        -12    1    4    4    0    0 -0.20783316963E+02 -0.85929838934E+01 -0.15566786179E+02  0.27351608144E+02  0.00000000000E+00 0.  1.
        -13    1    3    3    0    0  0.22088407652E+02  0.18078901686E+02  0.55928772508E+02  0.62791496502E+02  0.00000000000E+00 0.  1.
         13    1    3    3    0    0 -0.26466625964E+02 -0.32896198896E+02 -0.75481315864E+01  0.42890750543E+02  0.00000000000E+00 0. -1.
         -3    1    1    2    0  502  0.40778151512E+02 -0.15243524149E+02  0.28387401905E-01  0.43534164458E+02  0.00000000000E+00 0.  1.
<scales pt_clust_5="13000.00000" pt_clust_6="13000.00000" pt_clust_7="13000.00000" pt_clust_8="13000.00000" pt_clust_9="43.53418"></scales>
<clustering>
<clus scale="   43.534">  1  9  2 -1</clus>
<clus scale="   79.944">  5  6 -1 -1</clus>
<clus scale="   84.506">  1  5  2 -1</clus>
<clus scale="   92.679">  7  8 -1 -1</clus>
<clus scale="   43.534">  1  5  2 -1</clus>
</clustering>
</event>
<event>
 9    1  0.7719620E-005  0.1036994E+03  0.7546771E-02  0.1277316E+00
         21   -1    0    0  501  502  0.00000000000E+00  0.00000000000E+00  0.23660644817E+03  0.23660644817E+03  0.00000000000E+00 0.  1.
          3   -1    0    0  502    0 -0.00000000000E+00 -0.00000000000E+00 -0.26138817816E+03  0.26138817816E+03  0.00000000000E+00 0. -1.
        -24    2    1    2    0    0  0.25127764182E+02 -0.43772786918E+02 -0.23481011701E+03  0.25350923814E+03  0.81139887604E+02 0.  0.
         23    2    1    2    0    0  0.53702497809E+00  0.30398379212E+02  0.16303146758E+03  0.18929239387E+03  0.91257882418E+02 0.  0.
         13    1    3    3    0    0 -0.19922701333E+02 -0.44186916739E+02 -0.95518146326E+02  0.10711262258E+03  0.00000000000E+00 0. -1.
        -14    1    3    3    0    0  0.45050465515E+02  0.41412982094E+00 -0.13929197069E+03  0.14639661555E+03  0.00000000000E+00 0.  1.
        -11    1    4    4    0    0 -0.96841385389E+01 -0.27855463957E+02  0.93336449267E+02  0.97884637065E+02  0.00000000000E+00 0.  1.
         11    1    4    4    0    0  0.10221163517E+02  0.58253843169E+02  0.69695018310E+02  0.91407756808E+02  0.00000000000E+00 0. -1.
          4    1    1    2  501    0 -0.25664789161E+02  0.13374407707E+02  0.46996919450E+02  0.55192994320E+02  0.00000000000E+00 0. -1.
<scales pt_clust_5="13000.00000" pt_clust_6="13000.00000" pt_clust_7="13000.00000" pt_clust_8="13000.00000" pt_clust_9="28.94056"></scales>
<clustering>
<clus scale="   28.941">  1  9  2 -1</clus>
<clus scale="   81.140">  5  6 -1 -1</clus>
<clus scale="   91.258">  7  8 -1 -1</clus>
<clus scale="   94.917">  2  5  1 -1</clus>
<clus scale="   28.941">  1  5  2 -1</clus>
</clustering>
</event>
<event>
 9    1  0.7719620E-005  0.9887475E+02  0.7546771E-02  0.1288767E+00
          1   -1    0    0  502    0 -0.00000000000E+00  0.00000000000E+00  0.41948759906E+03  0.41948759906E+03  0.00000000000E+00 0. -1.
         21   -1    0    0  501  502  0.00000000000E+00 -0.00000000000E+00 -0.32292739393E+02  0.32292739393E+02  0.00000000000E+00 0. -1.
        -24    2    1    2    0    0  0.33920827762E+02  0.18613524129E+02  0.17510303416E+03  0.19664671286E+03  0.80695546767E+02 0.  0.
         23    2    1    2    0    0 -0.45293562282E+01 -0.41278996958E+02  0.12768496832E+03  0.16292679398E+03  0.92288777235E+02 0.  0.
         13    1    3    3    0    0  0.14544055276E+02  0.42479785145E+02  0.15114056002E+03  0.15766905395E+03  0.00000000000E+00 0. -1.
        -14    1    3    3    0    0  0.19376772486E+02 -0.23866261016E+02  0.23962474138E+02  0.38977658905E+02  0.00000000000E+00 0.  1.
        -13    1    4    4    0    0 -0.30995792400E+02 -0.61423399905E+01  0.11176404900E+03  0.11614503922E+03  0.00000000000E+00 0.  1.
         13    1    4    4    0    0  0.26466436172E+02 -0.35136656967E+02  0.15920919328E+02  0.46781754763E+02  0.00000000000E+00 0. -1.
          2    1    1    2  501    0 -0.29391471534E+02  0.22665472829E+02  0.84406857183E+02  0.92206831618E+02  0.00000000000E+00 0. -1.
<scales pt_clust_5="13000.00000" pt_clust_6="13000.00000" pt_clust_7="13000.00000" pt_clust_8="13000.00000" pt_clust_9="37.11581"></scales>
<clustering>
<clus scale="   37.116">  2  9  1 -1</clus>
<clus scale="   80.696">  5  6 -1 -1</clus>
<clus scale="   88.152">  1  5  2 -1</clus>
<clus scale="   92.289">  7  8 -1 -1</clus>
<clus scale="   37.116">  2  5  1 -1</clus>
</clustering>
</event>
<event>
 9    1  0.7719620E-005  0.9032479E+02  0.7546771E-02  0.1305258E+00
         21   -1    0    0  501  502  0.00000000000E+00  0.00000000000E+00  0.21751616030E+03  0.21751616030E+03  0.00000000000E+00 0.  1.
          1   -1    0    0  502    0 -0.00000000000E+00 -0.00000000000E+00 -0.20101268980E+03  0.20101268980E+03  0.00000000000E+00 0. -1.
         23    2    1    2    0    0 -0.55603714778E+01  0.24760609357E+02 -0.17505251594E+03  0.19706585975E+03  0.86876718593E+02 0.  0.
        -24    2    1    2    0    0  0.24643040747E+02 -0.88284041518E+01  0.15787345154E+03  0.17960015975E+03  0.81528954995E+02 0.  0.
         13    1    4    4    0    0 -0.24626888058E+02  0.15754592370E+02  0.40461407136E+02  0.49918095553E+02  0.00000000000E+00 0. -1.
        -14    1    4    4    0    0  0.49269928804E+02 -0.24582996522E+02  0.11741204441E+03  0.12968206420E+03  0.00000000000E+00 0.  1.
        -13    1    3    3    0    0 -0.33988331302E+01 -0.31362882244E+02 -0.87838349995E+02  0.93331442607E+02  0.00000000000E+00 0.  1.
         13    1    3    3    0    0 -0.21615383476E+01  0.56123491601E+02 -0.87214165947E+02  0.10373441714E+03  0.00000000000E+00 0. -1.
          2    1    1    2  501    0 -0.19082669269E+02 -0.15932205205E+02  0.33682534901E+02  0.41862830607E+02  0.00000000000E+00 0. -1.
<scales pt_clust_5="13000.00000" pt_clust_6="13000.00000" pt_clust_7="13000.00000" pt_clust_8="13000.00000" pt_clust_9="24.85927"></scales>
<clustering>
<clus scale="   24.859">  1  9  2 -1</clus>
<clus scale="   81.529">  5  6 -1 -1</clus>
<clus scale="   85.194">  1  5  2 -1</clus>
<clus scale="   86.877">  7  8 -1 -1</clus>
<clus scale="   24.859">  1  5  2 -1</clus>
</clustering>
</event>
<event>
 9    1  0.7719620E-005  0.9767087E+02  0.7546771E-02  0.1290762E+00
         -2   -1    0    0    0  501 -0.00000000000E+00  0.00000000000E+00  0.14881033983E+03  0.14881033983E+03  0.00000000000E+00 0.  1.
         21   -1    0    0  501  502  0.00000000000E+00 -0.00000000000E+00 -0.78115675005E+02  0.78115675005E+02  0.00000000000E+00 0.  1.
        -24    2    1    2    0    0 -0.34831614259E+02 -0.24668935286E+02  0.56873815956E+02  0.10748755436E+03  0.80604873797E+02 0.  0.
         23    2    1    2    0    0  0.19801740852E+02  0.10306126857E+02 -0.13889010829E+01  0.93679503702E+02  0.90970298318E+02 0.  0.
         11    1    3    3    0    0 -0.36715991035E+02  0.23110772408E+02  0.27738080507E+02  0.51493425883E+02  0.00000000000E+00 0. -1.
        -12    1    3    3    0    0  0.18843767758E+01 -0.47779707694E+02  0.29135735449E+02  0.55994128472E+02  0.00000000000E+00 0.  1.
        -11    1    4    4    0    0 -0.25356082358E+02  0.32567020442E+02  0.90682139349E+01  0.42258422084E+02  0.00000000000E+00 0.  1.
         11    1    4    4    0    0  0.45157823210E+02 -0.22260893586E+02 -0.10457115018E+02  0.51421081618E+02  0.00000000000E+00 0. -1.
         -1    1    1    2    0  502  0.15029873408E+02  0.14362808430E+02  0.15209749948E+02  0.25758956775E+02  0.00000000000E+00 0.  1.
<scales pt_clust_5="13000.00000" pt_clust_6="13000.00000" pt_clust_7="13000.00000" pt_clust_8="13000.00000" pt_clust_9="20.78913"></scales>
<clustering>
<clus scale="   20.789">  2  9  1 -1</clus>
<clus scale="   80.605">  5  6 -1 -1</clus>
<clus scale="   88.097">  1  5  2 -1</clus>
<clus scale="   90.970">  7  8 -1 -1</clus>
<clus scale="   20.789">  2  5  1 -1</clus>
</clustering>
</event>
<event>
 9    1  0.7719620E-005  0.1368487E+03  0.7546771E-02  0.1219888E+00
          1   -1    0    0  502    0 -0.00000000000E+00  0.00000000000E+00  0.53654041811E+03  0.53654041811E+03  0.00000000000E+00 0. -1.
         21   -1    0    0  501  502  0.00000000000E+00 -0.00000000000E+00 -0.95067433936E+02  0.95067433936E+02  0.00000000000E+00 0. -1.
         23    2    1    2    0    0  0.11702922645E+03  0.20800942829E+02  0.13504974940E+03  0.20128550621E+03  0.90271264150E+02 0.  0.
        -24    2    1    2    0    0 -0.49849684131E+02 -0.89725784162E+02  0.24767101442E+02  0.13267506784E+03  0.80334033636E+02 0.  0.
         11    1    4    4    0    0  0.50685256791E+01 -0.71279347605E+02  0.21611275344E+02  0.74655760458E+02  0.00000000000E+00 0. -1.
        -12    1    4    4    0    0 -0.54918209810E+02 -0.18446436557E+02  0.31558260979E+01  0.58019307379E+02  0.00000000000E+00 0.  1.
        -11    1    3    3    0    0  0.80376496805E+02  0.56253526558E+02  0.93192165398E+02  0.13531304512E+03  0.00000000000E+00 0. -1.
         11    1    3    3    0    0  0.36652729641E+02 -0.35452583729E+02  0.41857584005E+02  0.65972461087E+02  0.00000000000E+00 0.  1.
          2    1    1    2  501    0 -0.67179542315E+02  0.68924841333E+02  0.28165613333E+03  0.29764727800E+03  0.00000000000E+00 0. -1.
<scales pt_clust_5="13000.00000" pt_clust_6="13000.00000" pt_clust_7="13000.00000" pt_clust_8="13000.00000" pt_clust_9="96.24829"></scales>
<clustering>
<clus scale="   80.334">  5  6 -1 -1</clus>
<clus scale="   90.271">  7  8 -1 -1</clus>
<clus scale="   96.248">  2  9  1 -1</clus>
<clus scale="  130.508">  2  5  1 -1</clus>
<clus scale="   96.248">  2  5  1 -1</clus>
</clustering>
</event>
<event>
 9    1  0.7719620E-005  0.8043344E+02  0.7546771E-02  0.1328047E+00
         -2   -1    0    0    0  501 -0.00000000000E+00  0.00000000000E+00  0.21766994641E+03  0.21766994641E+03  0.00000000000E+00 0.  1.
         21   -1    0    0  501  502  0.00000000000E+00 -0.00000000000E+00 -0.77303203368E+02  0.77303203368E+02  0.00000000000E+00 0. -1.
        -24    2    1    2    0    0  0.22376985213E+01 -0.14097886096E+02  0.13992746210E+03  0.16168532791E+03  0.79741412859E+02 0.  0.
         23    2    1    2    0    0 -0.11583136926E+02 -0.14329420459E+02  0.33480886143E+02  0.88709837933E+02  0.80056007004E+02 0.  0.
         11    1    3    3    0    0 -0.13699252469E+02  0.20630827393E+02  0.11108207134E+03  0.11380916980E+03  0.00000000000E+00 0. -1.
        -12    1    3    3    0    0  0.15936950990E+02 -0.34728713489E+02  0.28845390762E+02  0.47876158113E+02  0.00000000000E+00 0.  1.
        -13    1    4    4    0    0 -0.32604972263E+02 -0.24265707379E+02  0.46742757443E+02  0.61941861001E+02  0.00000000000E+00 0. -1.
         13    1    4    4    0    0  0.21021835337E+02  0.99362869203E+01 -0.13261871300E+02  0.26767976932E+02  0.00000000000E+00 0.  1.
         -1    1    1    2    0  502  0.93454384051E+01  0.28427306555E+02 -0.33041605204E+02  0.44577983931E+02  0.00000000000E+00 0.  1.
<scales pt_clust_5="13000.00000" pt_clust_6="13000.00000" pt_clust_7="13000.00000" pt_clust_8="13000.00000" pt_clust_9="29.92405"></scales>
<clustering>
<clus scale="   29.924">  2  9  1 -1</clus>
<clus scale="   79.741">  5  6 -1 -1</clus>
<clus scale="   80.056">  7  8 -1 -1</clus>
<clus scale="   80.120">  1  5  2 -1</clus>
<clus scale="   29.924">  2  5  1 -1</clus>
</clustering>
</event>
<event>
 9    1  0.7719620E-005  0.1413649E+03  0.7546771E-02  0.1226375E+00
         21   -1    0    0  501  502  0.00000000000E+00  0.00000000000E+00  0.81334334754E+02  0.81334334754E+02  0.00000000000E+00 0.  1.
          1   -1    0    0  502    0 -0.00000000000E+00 -0.00000000000E+00 -0.66962004914E+03  0.66962004914E+03  0.00000000000E+00 0. -1.
         23    2    1    2    0    0 -0.49641831851E+02  0.11370888492E+02 -0.46818588047E+03  0.47946637696E+03  0.89979883274E+02 0.  0.
        -24    2    1    2    0    0 -0.11257406100E+02  0.78176637847E+02 -0.91492730376E+02  0.15947977942E+03  0.10404116703E+03 0.  0.
         11    1    4    4    0    0  0.13786004176E+02  0.38758871802E+02 -0.10340204624E+03  0.11128471243E+03  0.00000000000E+00 0. -1.
        -12    1    4    4    0    0 -0.25043410276E+02  0.39417766045E+02  0.11909315862E+02  0.48195066994E+02  0.00000000000E+00 0.  1.
        -11    1    3    3    0    0 -0.59483886308E+02 -0.25841577587E+02 -0.30065347472E+03  0.30756890565E+03  0.00000000000E+00 0. -1.
         11    1    3    3    0    0  0.98420544570E+01  0.37212466079E+02 -0.16753240575E+03  0.17189747131E+03  0.00000000000E+00 0.  1.
          2    1    1    2  501    0  0.60899237951E+02 -0.89547526339E+02 -0.28607103545E+02  0.11200822751E+03  0.00000000000E+00 0. -1.
<scales pt_clust_5="13000.00000" pt_clust_6="13000.00000" pt_clust_7="13000.00000" pt_clust_8="13000.00000" pt_clust_9="95.70511"></scales>
<clustering>
<clus scale="   89.980">  7  8 -1 -1</clus>
<clus scale="  103.392">  2  7  1 -1</clus>
<clus scale="   95.705">  1  9  2 -1</clus>
<clus scale="  104.041">  5  6 -1 -1</clus>
<clus scale="   95.705">  1  5  2 -1</clus>
</clustering>
</event>
<event>
 9    1  0.7719620E-005  0.2045215E+03  0.7546771E-02  0.1145979E+00
          1   -1    0    0  502    0 -0.00000000000E+00  0.00000000000E+00  0.26702797877E+03  0.26702797877E+03  0.00000000000E+00 0. -1.
         21   -1    0    0  501  502  0.00000000000E+00 -0.00000000000E+00 -0.10256062736E+03  0.10256062736E+03  0.00000000000E+00 0. -1.
        -24    2    1    2    0    0  0.51875394330E+02 -0.43870561695E+02  0.99700742363E+02  0.14466580812E+03  0.79826532499E+02 0.  0.
         23    2    1    2    0    0  0.45503216997E+02 -0.20833536554E+02  0.46150442092E+02  0.10653455558E+03  0.81946136116E+02 0.  0.
         11    1    3    3    0    0  0.82220970361E+00 -0.46278445958E+02  0.74433868698E+02  0.87651419831E+02  0.00000000000E+00 0. -1.
        -12    1    3    3    0    0  0.51053184626E+02  0.24078842623E+01  0.25266873665E+02  0.57014388288E+02  0.00000000000E+00 0.  1.
        -13    1    4    4    0    0  0.58546182012E+02 -0.48487137349E+01  0.31381779306E+01  0.58830380024E+02  0.00000000000E+00 0. -1.
         13    1    4    4    0    0 -0.13042965015E+02 -0.15984822819E+02  0.43012264161E+02  0.47704175553E+02  0.00000000000E+00 0.  1.
          2    1    1    2  501    0 -0.97378611327E+02  0.64704098249E+02  0.18616166952E+02  0.11838824243E+03  0.00000000000E+00 0. -1.
<scales pt_clust_5="13000.00000" pt_clust_6="13000.00000" pt_clust_7="13000.00000" pt_clust_8="13000.00000" pt_clust_9="116.91542"></scales>
<clustering>
<clus scale="   79.827">  5  6 -1 -1</clus>
<clus scale="   81.946">  7  8 -1 -1</clus>
<clus scale="   88.131">  5  7 -1 -1</clus>
<clus scale="  116.915">  2  9  1 -1</clus>
<clus scale="  116.915">  2  5  1 -1</clus>
</clustering>
</event>
<event>
 9    1  0.7719620E-005  0.1785262E+03  0.7546771E-02  0.1185144E+00
         21   -1    0    0  501  502  0.00000000000E+00  0.00000000000E+00  0.12392161436E+03  0.12392161436E+03  0.00000000000E+00 0. -1.
          1   -1    0    0  502    0 -0.00000000000E+00 -0.00000000000E+00 -0.48779144148E+03  0.48779144148E+03  0.00000000000E+00 0. -1.
         23    2    1    2    0    0  0.80399602238E+02 -0.26970346672E+02 -0.27315548544E+02  0.12759328745E+03  0.91336806218E+02 0.  0.
        -24    2    1    2    0    0  0.41752647748E+02 -0.12041214836E+03 -0.19147749903E+03  0.24393225002E+03  0.81221554399E+02 0.  0.
         11    1    4    4    0    0 -0.16670250040E+02 -0.73757664532E+02 -0.84194834983E+02  0.11316740057E+03  0.00000000000E+00 0. -1.
        -12    1    4    4    0    0  0.58422897788E+02 -0.46654483823E+02 -0.10728266404E+03  0.13076484945E+03  0.00000000000E+00 0.  1.
        -11    1    3    3    0    0  0.94787539250E+02 -0.12533721599E+02 -0.27216672474E+01  0.95651342107E+02  0.00000000000E+00 0. -1.
         11    1    3    3    0    0 -0.14387937012E+02 -0.14436625073E+02 -0.24593881297E+02  0.31941945342E+02  0.00000000000E+00 0.  1.
          2    1    1    2  501    0 -0.12215224999E+03  0.14738249503E+03 -0.14507677955E+03  0.24018751837E+03  0.00000000000E+00 0. -1.
<scales pt_clust_5="13000.00000" pt_clust_6="13000.00000" pt_clust_7="13000.00000" pt_clust_8="13000.00000" pt_clust_9="158.98009"></scales>
<clustering>
<clus scale="   81.222">  5  6 -1 -1</clus>
<clus scale="   91.337">  7  8 -1 -1</clus>
<clus scale="  124.635">  2  7  1 -1</clus>
<clus scale="  158.980">  1  9  2 -1</clus>
<clus scale="  158.980">  1  5  2 -1</clus>
</clustering>
</event>
<event>
 9    1  0.7719620E-005  0.8503126E+02  0.7546771E-02  0.1318062E+00
         -2   -1    0    0    0  501 -0.00000000000E+00  0.00000000000E+00  0.50027989856E+02  0.50027989856E+02  0.00000000000E+00 0.  1.
         21   -1    0    0  501  502  0.00000000000E+00 -0.00000000000E+00 -0.18685321950E+03  0.18685321950E+03  0.00000000000E+00 0.  1.
         23    2    1    2    0    0 -0.18372449888E+02 -0.10787082192E+02 -0.43587700504E+02  0.97118153413E+02  0.84131682677E+02 0.  0.
        -24    2    1    2    0    0 -0.46386556964E+01  0.64917691077E+01 -0.76277516773E+02  0.11085626238E+03  0.80044932075E+02 0.  0.
         11    1    4    4    0    0  0.22864078221E+01 -0.20231598436E+02 -0.80405480753E+02  0.82943273212E+02  0.00000000000E+00 0. -1.
        -12    1    4    4    0    0 -0.69250635185E+01  0.26723367544E+02  0.41279639807E+01  0.27912989167E+02  0.00000000000E+00 0.  1.
        -13    1    3    3    0    0  0.14585593786E+02 -0.35607141791E+02 -0.40313976367E+02  0.55729927176E+02  0.00000000000E+00 0.  1.
         13    1    3    3    0    0 -0.32958043674E+02  0.24820059599E+02 -0.32737241373E+01  0.41388226237E+02  0.00000000000E+00 0. -1.
         -1    1    1    2    0  502  0.23011105584E+02  0.42953130839E+01 -0.16960012370E+02  0.28906793566E+02  0.00000000000E+00 0.  1.
<scales pt_clust_5="13000.00000" pt_clust_6="13000.00000" pt_clust_7="13000.00000" pt_clust_8="13000.00000" pt_clust_9="23.40856"></scales>
<clustering>
<clus scale="   23.409">  2  9  1 -1</clus>
<clus scale="   80.045">  5  6 -1 -1</clus>
<clus scale="   80.990">  2  5  1 -1</clus>
<clus scale="   84.132">  7  8 -1 -1</clus>
<clus scale="   23.409">  2  5  1 -1</clus>
</clustering>
</event>
<event>
 9    1  0.7719620E-005  0.1556277E+03  0.7546771E-02  0.1196638E+00
          3   -1    0    0  502    0 -0.00000000000E+00  0.00000000000E+00  0.72484576281E+02  0.72484576281E+02  0.00000000000E+00 0. -1.
         21   -1    0    0  501  502  0.00000000000E+00 -0.00000000000E+00 -0.46032994031E+03  0.46032994031E+03  0.00000000000E+00 0. -1.
        -24    2    1    2    0    0 -0.43435407446E+01  0.13303776702E+03 -0.15632390721E+03  0.22062059070E+03  0.80736406143E+02 0.  0.
         23    2    1    2    0    0 -0.36186721537E+02 -0.10560161374E+03 -0.21412165987E+03  0.26024974814E+03  0.97060118202E+02 0.  0.
         13    1    3    3    0    0 -0.15992808361E+02  0.13992649275E+03 -0.14975614449E+03  0.20557746984E+03  0.00000000000E+00 0. -1.
        -14    1    3    3    0    0  0.11649267617E+02 -0.68887257311E+01 -0.65677627209E+01  0.15043120865E+02  0.00000000000E+00 0.  1.
        -13    1    4    4    0    0 -0.19006777162E+02 -0.12194803052E+03 -0.16891175096E+03  0.20919789516E+03  0.00000000000E+00 0. -1.
         13    1    4    4    0    0 -0.17179944376E+02  0.16346416779E+02 -0.45209908906E+02  0.51051852989E+02  0.00000000000E+00 0.  1.
          4    1    1    2  501    0  0.40530262282E+02 -0.27436153276E+02 -0.17399796948E+02  0.51944177740E+02  0.00000000000E+00 0. -1.
<scales pt_clust_5="13000.00000" pt_clust_6="13000.00000" pt_clust_7="13000.00000" pt_clust_8="13000.00000" pt_clust_9="48.94330"></scales>
<clustering>
<clus scale="   48.943">  2  9  1 -1</clus>
<clus scale="   80.736">  5  6 -1 -1</clus>
<clus scale="   97.060">  7  8 -1 -1</clus>
<clus scale="  146.006">  1  5  2 -1</clus>
<clus scale="   48.943">  2  5  1 -1</clus>
</clustering>
</event>
<event>
 9    1  0.7719620E-005  0.2266438E+03  0.7546771E-02  0.1129025E+00
         21   -1    0    0  501  502  0.00000000000E+00  0.00000000000E+00  0.19161038904E+03  0.19161038904E+03  0.00000000000E+00 0. -1.
         -4   -1    0    0    0  501 -0.00000000000E+00 -0.00000000000E+00 -0.16472438893E+03  0.16472438893E+03  0.00000000000E+00 0.  1.
        -24    2    1    2    0    0 -0.37786920625E+02  0.91195563495E+02  0.11405717274E+02  0.12928959575E+03  0.82711710245E+02 0.  0.
         23    2    1    2    0    0 -0.28475499697E+01  0.30328727554E+02  0.15169773904E+02  0.98906936838E+02  0.92868293074E+02 0.  0.
         11    1    3    3    0    0 -0.59105011361E+02  0.59278698117E+02 -0.11648120689E+02  0.84516537636E+02  0.00000000000E+00 0. -1.
        -12    1    3    3    0    0  0.21318090736E+02  0.31916865379E+02  0.23053837963E+02  0.44773058116E+02  0.00000000000E+00 0.  1.
        -13    1    4    4    0    0 -0.51250558041E+00 -0.33680535230E+02  0.53650000073E+01  0.34109006735E+02  0.00000000000E+00 0. -1.
         13    1    4    4    0    0 -0.23350443893E+01  0.64009262784E+02  0.98047738969E+01  0.64797930103E+02  0.00000000000E+00 0.  1.
         -3    1    1    2    0  502  0.40634470594E+02 -0.12152429105E+03  0.31050893313E+00  0.12813824539E+03  0.00000000000E+00 0.  1.
<scales pt_clust_5="13000.00000" pt_clust_6="13000.00000" pt_clust_7="13000.00000" pt_clust_8="13000.00000" pt_clust_9="128.13793"></scales>
<clustering>
<clus scale="   82.712">  5  6 -1 -1</clus>
<clus scale="   92.868">  7  8 -1 -1</clus>
<clus scale="   93.585">  5  7 -1 -1</clus>
<clus scale="  128.138">  1  9  2 -1</clus>
<clus scale="  128.138">  1  5  2 -1</clus>
</clustering>
</event>
<event>
 9    1  0.7719620E-005  0.8862578E+02  0.7546771E-02  0.1310345E+00
          1   -1    0    0  502    0 -0.00000000000E+00  0.00000000000E+00  0.20915564061E+03  0.20915564061E+03  0.00000000000E+00 0. -1.
         21   -1    0    0  501  502  0.00000000000E+00 -0.00000000000E+00 -0.74985751305E+02  0.74985751305E+02  0.00000000000E+00 0.  1.
        -24    2    1    2    0    0  0.39621502149E+01  0.50213311787E+01  0.12137035387E+03  0.14664670339E+03  0.82058396374E+02 0.  0.
         23    2    1    2    0    0 -0.86474648621E+01  0.16295739347E+02 -0.25055584601E+02  0.93798238075E+02  0.88487272400E+02 0.  0.
         11    1    3    3    0    0 -0.21194553390E+02  0.30600656196E+02  0.27874819547E+02  0.46503922607E+02  0.00000000000E+00 0. -1.
        -12    1    3    3    0    0  0.25156703605E+02 -0.25579325017E+02  0.93495534323E+02  0.10014278078E+03  0.00000000000E+00 0.  1.
        -13    1    4    4    0    0 -0.29438471022E+02  0.37699599247E+02 -0.38178815384E+02  0.61200533524E+02  0.00000000000E+00 0.  1.
         13    1    4    4    0    0  0.20791006160E+02 -0.21403859900E+02  0.13123230783E+02  0.32597704551E+02  0.00000000000E+00 0. -1.
          2    1    1    2  501    0  0.46853146472E+01 -0.21317070526E+02  0.37855120036E+02  0.43696450451E+02  0.00000000000E+00 0. -1.
<scales pt_clust_5="13000.00000" pt_clust_6="13000.00000" pt_clust_7="13000.00000" pt_clust_8="13000.00000" pt_clust_9="21.82591"></scales>
<clustering>
<clus scale="   21.826">  2  9  1 -1</clus>
<clus scale="   82.058">  5  6 -1 -1</clus>
<clus scale="   82.208">  1  5  2 -1</clus>
<clus scale="   88.487">  7  8 -1 -1</clus>
<clus scale="   21.826">  2  5  1 -1</clus>
</clustering>
</event>
<event>
 9    1  0.7719620E-005  0.1014632E+03  0.7546771E-02  0.1281341E+00
          1   -1    0    0  502    0 -0.00000000000E+00  0.00000000000E+00  0.23855024733E+03  0.23855024733E+03  0.00000000000E+00 0. -1.
         21   -1    0    0  501  502  0.00000000000E+00 -0.00000000000E+00 -0.75094641838E+02  0.75094641838E+02  0.00000000000E+00 0. -1.
        -24    2    1    2    0    0 -0.55848676006E+02 -0.14116683541E+02  0.84993559827E+02  0.13107764423E+03  0.81480600389E+02 0.  0.
         23    2    1    2    0    0  0.32243396449E+02 -0.40529667187E+02  0.60986966527E+02  0.12052845657E+03  0.90141046258E+02 0.  0.
         11    1    3    3    0    0 -0.66377619973E+02 -0.23490499432E+02  0.34036567490E+02  0.78206648843E+02  0.00000000000E+00 0. -1.
        -12    1    3    3    0    0  0.10528943967E+02  0.93738158909E+01  0.50956992337E+02  0.52870995389E+02  0.00000000000E+00 0.  1.
        -13    1    4    4    0    0  0.51488056446E+02 -0.49278878215E+02  0.19378618171E+02  0.73857691793E+02  0.00000000000E+00 0. -1.
         13    1    4    4    0    0 -0.19244659998E+02  0.87492110287E+01  0.41608348357E+02  0.46670764779E+02  0.00000000000E+00 0.  1.
          2    1    1    2  501    0  0.23605279557E+02  0.54646350728E+02  0.17475079140E+02  0.62038788365E+02  0.00000000000E+00 0. -1.
<scales pt_clust_5="13000.00000" pt_clust_6="13000.00000" pt_clust_7="13000.00000" pt_clust_8="13000.00000" pt_clust_9="59.52674"></scales>
<clustering>
<clus scale="   59.527">  2  9  1 -1</clus>
<clus scale="   81.481">  5  6 -1 -1</clus>
<clus scale="   90.141">  7  8 -1 -1</clus>
<clus scale="   93.853">  1  5  2 -1</clus>
<clus scale="   59.527">  2  5  1 -1</clus>
</clustering>
</event>
<event>
 9    1  0.7719620E-005  0.1102854E+03  0.7546771E-02  0.1265107E+00
         21   -1    0    0  501  502  0.00000000000E+00  0.00000000000E+00  0.24138216482E+03  0.24138216482E+03  0.00000000000E+00 0.  1.
         -2   -1    0    0    0  501 -0.00000000000E+00 -0.00000000000E+00 -0.72377099826E+02  0.72377099826E+02  0.00000000000E+00 0.  1.
        -24    2    1    2    0    0  0.35445423214E+02 -0.47509271111E+02  0.81564370190E+02  0.12750825965E+03  0.78051911742E+02 0.  0.
         23    2    1    2    0    0 -0.67801410144E+02  0.23607832323E+02  0.88783588191E+02  0.14600188042E+03  0.90992651292E+02 0.  0.
         11    1    3    3    0    0 -0.19548408428E+02 -0.36361733632E+02  0.27615381586E+02  0.49668151213E+02  0.00000000000E+00 0. -1.
        -12    1    3    3    0    0  0.54993831641E+02 -0.11147537479E+02  0.53948988604E+02  0.77840108439E+02  0.00000000000E+00 0.  1.
        -13    1    4    4    0    0  0.48705383748E+01 -0.20196082415E+02  0.47068671787E+02  0.51449623446E+02  0.00000000000E+00 0. -1.
         13    1    4    4    0    0 -0.72671948519E+02  0.43803914738E+02  0.41714916405E+02  0.94552256972E+02  0.00000000000E+00 0.  1.
         -1    1    1    2    0  502  0.32355986930E+02  0.23901438788E+02 -0.13428933885E+01  0.40249124574E+02  0.00000000000E+00 0.  1.
<scales pt_clust_5="13000.00000" pt_clust_6="13000.00000" pt_clust_7="13000.00000" pt_clust_8="13000.00000" pt_clust_9="40.22674"></scales>
<clustering>
<clus scale="   40.227">  1  9  2 -1</clus>
<clus scale="   78.052">  5  6 -1 -1</clus>
<clus scale="   90.993">  7  8 -1 -1</clus>
<clus scale="   99.877">  2  5  1 -1</clus>
<clus scale="   40.227">  1  5  2 -1</clus>
</clustering>
</event>
<event>
 9    1  0.7719620E-005  0.1579380E+03  0.7546771E-02  0.1192723E+00
         21   -1    0    0  501  502  0.00000000000E+00  0.00000000000E+00  0.39339423471E+03  0.39339423471E+03  0.00000000000E+00 0.  1.
          1   -1    0    0  502    0 -0.00000000000E+00 -0.00000000000E+00 -0.20181803271E+03  0.20181803271E+03  0.00000000000E+00 0. -1.
         23    2    1    2    0    0 -0.12894505234E+03  0.24815735026E+02 -0.12678721675E+03  0.20414082793E+03  0.91410240517E+02 0.  0.
        -24    2    1    2    0    0  0.12096412672E+03  0.80684185143E+00  0.11399681860E+03  0.18495031278E+03  0.81107167384E+02 0.  0.
         13    1    4    4    0    0  0.49861508581E+01 -0.22370265079E+02  0.36731411145E+01  0.23211687266E+02  0.00000000000E+00 0. -1.
        -14    1    4    4    0    0  0.11597797586E+03  0.23177106930E+02  0.11032367748E+03  0.16173862551E+03  0.00000000000E+00 0.  1.
        -11    1    3    3    0    0 -0.11091489634E+03  0.34544264070E+02 -0.13831896850E+03  0.18063099805E+03  0.00000000000E+00 0. -1.
         11    1    3    3    0    0 -0.18030155999E+02 -0.97285290437E+01  0.11531751751E+02  0.23509829883E+02  0.00000000000E+00 0.  1.
          2    1    1    2  501    0  0.79809256189E+01 -0.25622576878E+02  0.20436660015E+03  0.20612112671E+03  0.00000000000E+00 0. -1.
<scales pt_clust_5="13000.00000" pt_clust_6="13000.00000" pt_clust_7="13000.00000" pt_clust_8="13000.00000" pt_clust_9="26.83676"></scales>
<clustering>
<clus scale="   26.837">  1  9  2 -1</clus>
<clus scale="   81.107">  5  6 -1 -1</clus>
<clus scale="   91.410">  7  8 -1 -1</clus>
<clus scale="  152.207">  1  5  2 -1</clus>
<clus scale="   26.837">  1  5  2 -1</clus>
</clustering>
</event>
<event>
 9    1  0.7719620E-005  0.1101112E+03  0.7546771E-02  0.1263752E+00
         21   -1    0    0  501  502  0.00000000000E+00  0.00000000000E+00  0.17323756001E+03  0.17323756001E+03  0.00000000000E+00 0. -1.
          1   -1    0    0  502    0 -0.00000000000E+00 -0.00000000000E+00 -0.12400038228E+03  0.12400038228E+03  0.00000000000E+00 0. -1.
        -24    2    1    2    0    0 -0.28984418766E+02  0.60616067850E+02 -0.21308564207E+02  0.10728746753E+03  0.80883506155E+02 0.  0.
         23    2    1    2    0    0  0.30204396367E+01 -0.62500437286E+02 -0.55519472447E+01  0.10952325698E+03  0.89716731906E+02 0.  0.
         13    1    3    3    0    0 -0.14218115807E+02  0.54378024439E+02  0.22573160284E+02  0.60569562688E+02  0.00000000000E+00 0. -1.
        -14    1    3    3    0    0 -0.14766302958E+02  0.62380434112E+01 -0.43881724491E+02  0.46717904843E+02  0.00000000000E+00 0.  1.
        -11    1    4    4    0    0 -0.19336218308E+02 -0.78847108126E+02 -0.87056255529E+01  0.81648905165E+02  0.00000000000E+00 0.  1.
         11    1    4    4    0    0  0.22356657945E+02  0.16346670840E+02  0.31536783081E+01  0.27874351811E+02  0.00000000000E+00 0. -1.
          2    1    1    2  501    0  0.25963979129E+02  0.18843694357E+01  0.76097689187E+02  0.80427217781E+02  0.00000000000E+00 0. -1.
<scales pt_clust_5="13000.00000" pt_clust_6="13000.00000" pt_clust_7="13000.00000" pt_clust_8="13000.00000" pt_clust_9="26.03227"></scales>
<clustering>
<clus scale="   26.032">  1  9  2 -1</clus>
<clus scale="   80.884">  5  6 -1 -1</clus>
<clus scale="   89.717">  7  8 -1 -1</clus>
<clus scale="  103.041">  2  5  1 -1</clus>
<clus scale="   26.032">  1  5  2 -1</clus>
</clustering>
</event>
<event>
 9    1  0.7719620E-005  0.1618666E+03  0.7546771E-02  0.1188153E+00
         21   -1    0    0  501  502  0.00000000000E+00  0.00000000000E+00  0.52974784943E+03  0.52974784943E+03  0.00000000000E+00 0.  1.
         -2   -1    0    0    0  501 -0.00000000000E+00 -0.00000000000E+00 -0.78026367719E+02  0.78026367719E+02  0.00000000000E+00 0.  1.
        -24    2    1    2    0    0  0.10318613951E+03  0.61904819750E+02  0.14740795850E+03  0.20680226225E+03  0.80984463629E+02 0.  0.
         23    2    1    2    0    0 -0.91716602774E+02 -0.12273501817E+03  0.14409484590E+03  0.22921081880E+03  0.91095855735E+02 0.  0.
         11    1    3    3    0    0  0.22591487751E+02  0.51439477609E+02  0.29105151501E+02  0.63273256747E+02  0.00000000000E+00 0. -1.
        -12    1    3    3    0    0  0.80594651760E+02  0.10465342142E+02  0.11830280700E+03  0.14352900551E+03  0.00000000000E+00 0.  1.
        -13    1    4    4    0    0 -0.49239039502E+02 -0.86412795051E+02  0.32894659351E+02  0.10475549042E+03  0.00000000000E+00 0.  1.
         13    1    4    4    0    0 -0.42477563272E+02 -0.36322223115E+02  0.11120018655E+03  0.12445532838E+03  0.00000000000E+00 0. -1.
         -1    1    1    2    0  502 -0.11469536737E+02  0.60830198416E+02  0.16021867731E+03  0.17176113609E+03  0.00000000000E+00 0.  1.
<scales pt_clust_5="13000.00000" pt_clust_6="13000.00000" pt_clust_7="13000.00000" pt_clust_8="13000.00000" pt_clust_9="61.90205"></scales>
<clustering>
<clus scale="   61.902">  1  9  2 -1</clus>
<clus scale="   80.984">  5  6 -1 -1</clus>
<clus scale="   91.096">  7  8 -1 -1</clus>
<clus scale="  156.400">  2  5  1 -1</clus>
<clus scale="   61.902">  1  5  2 -1</clus>
</clustering>
</event>
<event>
 9    1  0.7719620E-005  0.1267040E+03  0.7546771E-02  0.1235858E+00
         21   -1    0    0  501  502  0.00000000000E+00  0.00000000000E+00  0.42714123846E+02  0.42714123846E+02  0.00000000000E+00 0. -1.
          3   -1    0    0  502    0 -0.00000000000E+00 -0.00000000000E+00 -0.52845508766E+03  0.52845508766E+03  0.00000000000E+00 0. -1.
        -24    2    1    2    0    0  0.43976762095E+02  0.61718293675E+02 -0.14613361454E+03  0.18309628909E+03  0.80163048856E+02 0.  0.
         23    2    1    2    0    0 -0.87215022758E+02 -0.53990272670E+02 -0.21070215302E+03  0.25188988707E+03  0.92367246275E+02 0.  0.
         13    1    3    3    0    0  0.67556161322E+02  0.43955283749E+02 -0.10200658370E+03  0.13000478845E+03  0.00000000000E+00 0. -1.
        -14    1    3    3    0    0 -0.23579399226E+02  0.17763009926E+02 -0.44127030835E+02  0.53091500637E+02  0.00000000000E+00 0.  1.
        -11    1    4    4    0    0  0.10877189431E+02 -0.29676996946E+02 -0.24353194469E+02  0.39901321764E+02  0.00000000000E+00 0.  1.
         11    1    4    4    0    0 -0.98092212189E+02 -0.24313275724E+02 -0.18634895855E+03  0.21198856531E+03  0.00000000000E+00 0. -1.
          4    1    1    2  501    0  0.43238260662E+02 -0.77280210051E+01 -0.12890519625E+03  0.13618303534E+03  0.00000000000E+00 0. -1.
<scales pt_clust_5="13000.00000" pt_clust_6="13000.00000" pt_clust_7="13000.00000" pt_clust_8="13000.00000" pt_clust_9="43.92347"></scales>
<clustering>
<clus scale="   43.923">  1  9  2 -1</clus>
<clus scale="   80.163">  5  6 -1 -1</clus>
<clus scale="   92.367">  7  8 -1 -1</clus>
<clus scale="  118.103">  2  5  1 -1</clus>
<clus scale="   43.923">  1  5  2 -1</clus>
</clustering>
</event>
<event>
 9    1  0.7719620E-005  0.1194830E+03  0.7546771E-02  0.1248769E+00
         -2   -1    0    0    0  501 -0.00000000000E+00  0.00000000000E+00  0.20852609224E+03  0.20852609224E+03  0.00000000000E+00 0.  1.
         21   -1    0    0  501  502  0.00000000000E+00 -0.00000000000E+00 -0.10612936845E+03  0.10612936845E+03  0.00000000000E+00 0.  1.
        -24    2    1    2    0    0  0.24070501971E+02  0.57742162086E+02  0.61536203275E+02  0.11712890683E+03  0.77581764310E+02 0.  0.
         23    2    1    2    0    0 -0.73317841301E+02 -0.75011440356E+02  0.39829459654E+02  0.14532893428E+03  0.92368237212E+02 0.  0.
         11    1    3    3    0    0 -0.36825670585E+01  0.43558399704E+02  0.72017569686E+02  0.84246221448E+02  0.00000000000E+00 0. -1.
        -12    1    3    3    0    0  0.27753069029E+02  0.14183762382E+02 -0.10481366411E+02  0.32882685378E+02  0.00000000000E+00 0.  1.
        -11    1    4    4    0    0 -0.65018752296E+02 -0.19570583530E+02  0.54856996335E+02  0.87291098840E+02  0.00000000000E+00 0.  1.
         11    1    4    4    0    0 -0.82990890047E+01 -0.55440856827E+02 -0.15027536681E+02  0.58037835441E+02  0.00000000000E+00 0. -1.
         -1    1    1    2    0  502  0.49247339330E+02  0.17269278271E+02  0.10310608593E+01  0.52197619578E+02  0.00000000000E+00 0.  1.
<scales pt_clust_5="13000.00000" pt_clust_6="13000.00000" pt_clust_7="13000.00000" pt_clust_8="13000.00000" pt_clust_9="52.18744"></scales>
<clustering>
<clus scale="   52.187">  2  9  1 -1</clus>
<clus scale="   77.582">  5  6 -1 -1</clus>
<clus scale="   92.368">  7  8 -1 -1</clus>
<clus scale="  108.458">  1  5  2 -1</clus>
<clus scale="   52.187">  2  5  1 -1</clus>
</clustering>
</event>
<event>
 9    1  0.7719620E-005  0.1036166E+03  0.7546771E-02  0.1277209E+00
          3   -1    0    0  502    0 -0.00000000000E+00  0.00000000000E+00  0.12072703605E+03  0.12072703605E+03  0.00000000000E+00 0. -1.
         21   -1    0    0  501  502  0.00000000000E+00 -0.00000000000E+00 -0.37998496205E+03  0.37998496205E+03  0.00000000000E+00 0. -1.
         23    2    1    2    0    0 -0.35191429626E+02  0.13243112660E+02  0.23331689849E+02  0.10194826513E+03  0.91843694721E+02 0.  0.
        -24    2    1    2    0    0  0.64356109599E+02  0.22340873199E+02  0.54736471147E+01  0.10704941711E+03  0.82394134701E+02 0.  0.
         13    1    4    4    0    0  0.60607417167E+02  0.44080682718E+02  0.23521358163E+02  0.78546927975E+02  0.00000000000E+00 0. -1.
        -14    1    4    4    0    0  0.37486924323E+01 -0.21739809519E+02 -0.18047711048E+02  0.28502489136E+02  0.00000000000E+00 0.  1.
        -13    1    3    3    0    0  0.26509656586E+02 -0.15232920396E+02  0.16541309759E+01  0.30619273430E+02  0.00000000000E+00 0.  1.
         13    1    3    3    0    0 -0.61701086213E+02  0.28476033056E+02  0.21677558873E+02  0.71328991701E+02  0.00000000000E+00 0. -1.
          4    1    1    2  501    0 -0.29164679973E+02 -0.35583985859E+02 -0.28806326296E+03  0.29171431586E+03  0.00000000000E+00 0. -1.
<scales pt_clust_5="13000.00000" pt_clust_6="13000.00000" pt_clust_7="13000.00000" pt_clust_8="13000.00000" pt_clust_9="46.00868"></scales>
<clustering>
<clus scale="   46.009">  2  9  1 -1</clus>
<clus scale="   82.394">  5  6 -1 -1</clus>
<clus scale="   91.844">  7  8 -1 -1</clus>
<clus scale="   95.341">  2  5  1 -1</clus>
<clus scale="   46.009">  2  5  1 -1</clus>
</clustering>
</event>
<event>
 9    1  0.9080712E-005  0.1007226E+03  0.7546771E-02  0.1281717E+00
         21   -1    0    0  501  502  0.00000000000E+00  0.00000000000E+00  0.19457913328E+03  0.19457913328E+03  0.00000000000E+00 0.  1.
         -4   -1    0    0    0  501 -0.00000000000E+00 -0.00000000000E+00 -0.40265987822E+03  0.40265987822E+03  0.00000000000E+00 0.  1.
        -24    2    1    2    0    0 -0.53415498667E+02 -0.83225972083E+01 -0.36604806273E+03  0.37859115587E+03  0.80109911689E+02 0.  0.
         23    2    1    2    0    0  0.37460554635E+01 -0.24183092548E+02  0.11158850706E+03  0.14331746641E+03  0.86539276475E+02 0.  0.
         13    1    3    3    0    0 -0.20746233202E+02 -0.24343369812E+02 -0.43477947619E+02  0.53975344140E+02  0.00000000000E+00 0. -1.
        -14    1    3    3    0    0 -0.32669265465E+02  0.16020772604E+02 -0.32257011511E+03  0.32461581173E+03  0.00000000000E+00 0.  1.
        -11    1    4    4    0    0 -0.33291489301E+02 -0.79571455004E+01  0.92445912484E+02  0.98579339415E+02  0.00000000000E+00 0.  1.
         11    1    4    4    0    0  0.37037544765E+02 -0.16225947047E+02  0.19142594577E+02  0.44738126994E+02  0.00000000000E+00 0. -1.
         -3    1    1    2    0  502  0.49669443204E+02  0.32505689756E+02  0.46378810731E+02  0.75330389217E+02  0.00000000000E+00 0.  1.
<scales pt_clust_5="13000.00000" pt_clust_6="13000.00000" pt_clust_7="13000.00000" pt_clust_8="13000.00000" pt_clust_9="59.36054"></scales>
<clustering>
<clus scale="   59.361">  1  9  2 -1</clus>
<clus scale="   80.110">  5  6 -1 -1</clus>
<clus scale="   86.539">  7  8 -1 -1</clus>
<clus scale="   95.255">  2  5  1 -1</clus>
<clus scale="   59.361">  1  5  2 -1</clus>
</clustering>
</event>
<event>
 9    1  0.7719620E-005  0.1196616E+03  0.7546771E-02  0.1247248E+00
         21   -1    0    0  501  502  0.00000000000E+00  0.00000000000E+00  0.94684637337E+02  0.94684637337E+02  0.00000000000E+00 0.  1.
         -2   -1    0    0    0  501 -0.00000000000E+00 -0.00000000000E+00 -0.22082822132E+03  0.22082822132E+03  0.00000000000E+00 0.  1.
        -24    2    1    2    0    0  0.74841553544E+02  0.36069323773E+02 -0.13714327321E+03  0.17962689697E+03  0.80964748335E+02 0.  0.
         23    2    1    2    0    0 -0.48756134251E+02 -0.32055785579E+02  0.79650158116E+01  0.10931968926E+03  0.92101134446E+02 0.  0.
         11    1    3    3    0    0  0.53714340484E+02  0.28195778195E+02 -0.25629599350E+02  0.65856728164E+02  0.00000000000E+00 0. -1.
        -12    1    3    3    0    0  0.21127213060E+02  0.78735455772E+01 -0.11151367386E+03  0.11377016880E+03  0.00000000000E+00 0.  1.
        -13    1    4    4    0    0 -0.22125177283E+02 -0.49157317997E+01  0.48626880932E+02  0.53649430921E+02  0.00000000000E+00 0.  1.
         13    1    4    4    0    0 -0.26630956968E+02 -0.27140053779E+02 -0.40661865121E+02  0.55670258336E+02  0.00000000000E+00 0. -1.
         -1    1    1    2    0  502 -0.26085419293E+02 -0.40135381940E+01  0.30346734118E+01  0.26566272438E+02  0.00000000000E+00 0.  1.
<scales pt_clust_5="13000.00000" pt_clust_6="13000.00000" pt_clust_7="13000.00000" pt_clust_8="13000.00000" pt_clust_9="26.39238"></scales>
<clustering>
<clus scale="   26.392">  1  9  2 -1</clus>
<clus scale="   80.965">  5  6 -1 -1</clus>
<clus scale="   92.101">  7  8 -1 -1</clus>
<clus scale="  111.317">  2  5  1 -1</clus>
<clus scale="   26.392">  1  5  2 -1</clus>
</clustering>
</event>
<event>
 9    1  0.7719620E-005  0.9208559E+02  0.7546771E-02  0.1302949E+00
         21   -1    0    0  501  502  0.00000000000E+00  0.00000000000E+00  0.78293469381E+02  0.78293469381E+02  0.00000000000E+00 0. -1.
          1   -1    0    0  502    0 -0.00000000000E+00 -0.00000000000E+00 -0.22338619287E+03  0.22338619287E+03  0.00000000000E+00 0. -1.
        -24    2    1    2    0    0  0.84962894201E+01 -0.32308660473E+02 -0.92298015997E+02  0.12828823673E+03  0.82600916774E+02 0.  0.
         23    2    1    2    0    0 -0.16700840813E+02 -0.32956936805E+02 -0.41891175113E+02  0.10671459393E+03  0.90928852620E+02 0.  0.
         11    1    3    3    0    0 -0.31701095868E+02 -0.30881029467E+02 -0.68499815229E+02  0.81552572899E+02  0.00000000000E+00 0. -1.
        -12    1    3    3    0    0  0.40197385288E+02 -0.14276310062E+01 -0.23798200769E+02  0.46735663835E+02  0.00000000000E+00 0.  1.
        -11    1    4    4    0    0  0.10570659246E+02 -0.48395111169E+02  0.55620376558E+01  0.49847385938E+02  0.00000000000E+00 0. -1.
         11    1    4    4    0    0 -0.27271500059E+02  0.15438174365E+02 -0.47453212768E+02  0.56867207996E+02  0.00000000000E+00 0.  1.
          2    1    1    2  501    0  0.82045513925E+01  0.65265597278E+02 -0.10903532379E+02  0.66676831583E+02  0.00000000000E+00 0. -1.
<scales pt_clust_5="13000.00000" pt_clust_6="13000.00000" pt_clust_7="13000.00000" pt_clust_8="13000.00000" pt_clust_9="65.77927"></scales>
<clustering>
<clus scale="   65.779">  1  9  2 -1</clus>
<clus scale="   82.601">  5  6 -1 -1</clus>
<clus scale="   83.873">  2  5  1 -1</clus>
<clus scale="   90.929">  7  8 -1 -1</clus>
<clus scale="   65.779">  1  5  2 -1</clus>
</clustering>
</event>
<event>
 9    1  0.7719620E-005  0.3716820E+03  0.7546771E-02  0.1054285E+00
          1   -1    0    0  502    0 -0.00000000000E+00  0.00000000000E+00  0.19710136630E+03  0.19710136630E+03  0.00000000000E+00 0. -1.
         21   -1    0    0  501  502  0.00000000000E+00 -0.00000000000E+00 -0.82788927323E+03  0.82788927323E+03  0.00000000000E+00 0. -1.
         23    2    1    2    0    0  0.12925243965E+03 -0.36007677072E+03 -0.22774767521E+03  0.45444294969E+03  0.91037997505E+02 0.  0.
        -24    2    1    2    0    0 -0.13899595613E+03  0.30241159952E+03 -0.36659611974E+03  0.50163918978E+03  0.80476769129E+02 0.  0.
         13    1    4    4    0    0 -0.75099275937E+02  0.24575854883E+03 -0.27163992487E+03  0.37393236602E+03  0.00000000000E+00 0. -1.
        -14    1    4    4    0    0 -0.63896680194E+02  0.56653050692E+02 -0.94956194868E+02  0.12770682377E+03  0.00000000000E+00 0.  1.
        -11    1    3    3    0    0  0.41252468606E+02 -0.18923672120E+03 -0.15817821112E+03  0.25006529006E+03  0.00000000000E+00 0. -1.
         11    1    3    3    0    0  0.87999971042E+02 -0.17084004952E+03 -0.69569464091E+02  0.20437765963E+03  0.00000000000E+00 0.  1.
          2    1    1    2  501    0  0.97435164828E+01  0.57665171197E+02 -0.36444111982E+02  0.68908500062E+02  0.00000000000E+00 0. -1.
<scales pt_clust_5="13000.00000" pt_clust_6="13000.00000" pt_clust_7="13000.00000" pt_clust_8="13000.00000" pt_clust_9="58.48257"></scales>
<clustering>
<clus scale="   58.483">  2  9  1 -1</clus>
<clus scale="   80.477">  5  6 -1 -1</clus>
<clus scale="   91.038">  7  8 -1 -1</clus>
<clus scale="  369.237">  2  5  1 -1</clus>
<clus scale="   58.483">  2  5  1 -1</clus>
</clustering>
</event>
<event>
 9    1  0.7719620E-005  0.1225143E+03  0.7546771E-02  0.1242187E+00
         21   -1    0    0  501  502  0.00000000000E+00  0.00000000000E+00  0.11111041540E+03  0.11111041540E+03  0.00000000000E+00 0. -1.
          1   -1    0    0  502    0 -0.00000000000E+00 -0.00000000000E+00 -0.26955435136E+03  0.26955435136E+03  0.00000000000E+00 0. -1.
        -24    2    1    2    0    0 -0.55707333814E+02  0.82737569783E+02 -0.14444980693E+03  0.19296750231E+03  0.80136743951E+02 0.  0.
         23    2    1    2    0    0 -0.95735807979E+01 -0.47908327191E+02  0.22014674073E+02  0.10540930754E+03  0.90772324955E+02 0.  0.
         13    1    3    3    0    0 -0.28530790586E+02  0.91929534160E+02 -0.91819469519E+02  0.13302578790E+03  0.00000000000E+00 0. -1.
        -14    1    3    3    0    0 -0.27176543228E+02 -0.91919643774E+01 -0.52630337408E+02  0.59941714412E+02  0.00000000000E+00 0.  1.
        -11    1    4    4    0    0  0.10967920926E+02  0.24562849704E+02  0.11871146211E+02  0.29403281915E+02  0.00000000000E+00 0.  1.
         11    1    4    4    0    0 -0.20541501724E+02 -0.72471176895E+02  0.10143527861E+02  0.76006025623E+02  0.00000000000E+00 0. -1.
          2    1    1    2  501    0  0.65280914612E+02 -0.34829242592E+02 -0.36008803112E+02  0.82287956917E+02  0.00000000000E+00 0. -1.
<scales pt_clust_5="13000.00000" pt_clust_6="13000.00000" pt_clust_7="13000.00000" pt_clust_8="13000.00000" pt_clust_9="73.99108"></scales>
<clustering>
<clus scale="   73.991">  1  9  2 -1</clus>
<clus scale="   80.137">  5  6 -1 -1</clus>
<clus scale="   90.772">  7  8 -1 -1</clus>
<clus scale="  114.857">  2  5  1 -1</clus>
<clus scale="   73.991">  1  5  2 -1</clus>
</clustering>
</event>
<event>
 9    1  0.7719620E-005  0.1054674E+03  0.7546771E-02  0.1273107E+00
         21   -1    0    0  501  502  0.00000000000E+00  0.00000000000E+00  0.62507171070E+03  0.62507171070E+03  0.00000000000E+00 0. -1.
          1   -1    0    0  502    0 -0.00000000000E+00 -0.00000000000E+00 -0.31343254771E+02  0.31343254771E+02  0.00000000000E+00 0. -1.
         23    2    1    2    0    0 -0.12723105989E+02 -0.59306011195E+02  0.19327149860E+03  0.22217545200E+03  0.91263239640E+02 0.  0.
        -24    2    1    2    0    0  0.56069575832E+02  0.19596256799E+02  0.31147853610E+03  0.32759552402E+03  0.82293002696E+02 0.  0.
         11    1    4    4    0    0  0.37189957233E+02 -0.28667702345E+02  0.11093343348E+03  0.12046226272E+03  0.00000000000E+00 0. -1.
        -12    1    4    4    0    0  0.18879618599E+02  0.48263959145E+02  0.20054510262E+03  0.20713326130E+03  0.00000000000E+00 0.  1.
        -11    1    3    3    0    0 -0.32766710906E+02 -0.74593914832E+02  0.12315739306E+03  0.14766737263E+03  0.00000000000E+00 0. -1.
         11    1    3    3    0    0  0.20043604918E+02  0.15287903637E+02  0.70114105541E+02  0.74508079371E+02  0.00000000000E+00 0.  1.
          2    1    1    2  501    0 -0.43346469844E+02  0.39709754395E+02  0.88978421224E+02  0.10664398945E+03  0.00000000000E+00 0. -1.
<scales pt_clust_5="13000.00000" pt_clust_6="13000.00000" pt_clust_7="13000.00000" pt_clust_8="13000.00000" pt_clust_9="58.78592"></scales>
<clustering>
<clus scale="   58.786">  1  9  2 -1</clus>
<clus scale="   82.293">  5  6 -1 -1</clus>
<clus scale="   91.263">  7  8 -1 -1</clus>
<clus scale="   97.809">  1  5  2 -1</clus>
<clus scale="   58.786">  1  5  2 -1</clus>
</clustering>
</event>
<event>
 9    1  0.7719620E-005  0.9547719E+02  0.7546771E-02  0.1297181E+00
          3   -1    0    0  502    0 -0.00000000000E+00  0.00000000000E+00  0.35070789377E+03  0.35070789377E+03  0.00000000000E+00 0. -1.
         21   -1    0    0  501  502  0.00000000000E+00 -0.00000000000E+00 -0.10065571484E+03  0.10065571484E+03  0.00000000000E+00 0.  1.
         23    2    1    2    0    0 -0.24087133019E+01  0.27939015264E+02  0.30525733545E+03  0.31997271212E+03  0.91728431683E+02 0.  0.
        -24    2    1    2    0    0 -0.17631425635E+02 -0.16827047358E+02 -0.13961511952E+02  0.84209107455E+02  0.79386606362E+02 0.  0.
         13    1    4    4    0    0 -0.13364709836E+02 -0.18917074451E+02  0.31167057444E+02  0.38831129838E+02  0.00000000000E+00 0. -1.
        -14    1    4    4    0    0 -0.42667157990E+01  0.20900270926E+01 -0.45128569396E+02  0.45377977618E+02  0.00000000000E+00 0.  1.
        -11    1    3    3    0    0  0.28591143261E+01 -0.23494339439E+02  0.22941658276E+02  0.32961768837E+02  0.00000000000E+00 0.  1.
         11    1    3    3    0    0 -0.52678276280E+01  0.51433354702E+02  0.28231567717E+03  0.28701094328E+03  0.00000000000E+00 0. -1.
          4    1    1    2  501    0  0.20040138937E+02 -0.11111967905E+02 -0.41243644572E+02  0.47181789039E+02  0.00000000000E+00 0. -1.
<scales pt_clust_5="13000.00000" pt_clust_6="13000.00000" pt_clust_7="13000.00000" pt_clust_8="13000.00000" pt_clust_9="22.91469"></scales>
<clustering>
<clus scale="   22.915">  2  9  1 -1</clus>
<clus scale="   79.387">  5  6 -1 -1</clus>
<clus scale="   83.690">  2  5  1 -1</clus>
<clus scale="   91.728">  7  8 -1 -1</clus>
<clus scale="   22.915">  2  5  1 -1</clus>
</clustering>
</event>
<event>
 9    1  0.7719620E-005  0.2473757E+03  0.7546771E-02  0.1154558E+00
          1   -1    0    0  502    0 -0.00000000000E+00  0.00000000000E+00  0.58163215244E+03  0.58163215244E+03  0.00000000000E+00 0. -1.
         21   -1    0    0  501  502  0.00000000000E+00 -0.00000000000E+00 -0.35399708923E+03  0.35399708923E+03  0.00000000000E+00 0.  1.
         23    2    1    2    0    0  0.35553574862E+01 -0.25573357699E+02  0.23573026822E+02  0.97229745186E+02  0.90726504201E+02 0.  0.
        -24    2    1    2    0    0 -0.13979234283E+03 -0.18313647943E+03 -0.23088039911E+03  0.33710593529E+03  0.85169147625E+02 0.  0.
         11    1    4    4    0    0 -0.68173753378E+02 -0.27254389627E+02 -0.80802688945E+02  0.10917663186E+03  0.00000000000E+00 0. -1.
        -12    1    4    4    0    0 -0.71618589449E+02 -0.15588208980E+03 -0.15007771016E+03  0.22792930343E+03  0.00000000000E+00 0.  1.
        -13    1    3    3    0    0  0.37409352757E+02 -0.25031474944E+02 -0.13529071108E+02  0.47000746554E+02  0.00000000000E+00 0. -1.
         13    1    3    3    0    0 -0.33853995271E+02 -0.54188275460E+00  0.37102097930E+02  0.50228998632E+02  0.00000000000E+00 0.  1.
          2    1    1    2  501    0  0.13623698534E+03  0.20870983713E+03  0.43494243550E+03  0.50129356119E+03  0.00000000000E+00 0. -1.
<scales pt_clust_5="13000.00000" pt_clust_6="13000.00000" pt_clust_7="13000.00000" pt_clust_8="13000.00000" pt_clust_9="232.25207"></scales>
<clustering>
<clus scale="   85.169">  5  6 -1 -1</clus>
<clus scale="   90.727">  7  8 -1 -1</clus>
<clus scale="   94.329">  1  7  2 -1</clus>
<clus scale="  232.252">  2  9  1 -1</clus>
<clus scale="  232.252">  2  5  1 -1</clus>
</clustering>
</event>
<event>
 9    1  0.7719620E-005  0.2008767E+03  0.7546771E-02  0.1158922E+00
         21   -1    0    0  501  502  0.00000000000E+00  0.00000000000E+00  0.81074118896E+02  0.81074118896E+02  0.00000000000E+00 0.  1.
          1   -1    0    0  502    0 -0.00000000000E+00 -0.00000000000E+00 -0.10102834578E+04  0.10102834578E+04  0.00000000000E+00 0. -1.
         23    2    1    2    0    0  0.66691344116E+02 -0.11178658939E+03 -0.29440501818E+03  0.33462460200E+03  0.91407508371E+02 0.  0.
        -24    2    1    2    0    0 -0.20353785873E+03  0.39120818369E+01 -0.24851368268E+03  0.33295905504E+03  0.87519812238E+02 0.  0.
         13    1    4    4    0    0 -0.42991539248E+02 -0.10252026713E+02 -0.11657451775E+03  0.12467154722E+03  0.00000000000E+00 0. -1.
        -14    1    4    4    0    0 -0.16054631948E+03  0.14164108549E+02 -0.13193916493E+03  0.20828750782E+03  0.00000000000E+00 0.  1.
        -11    1    3    3    0    0  0.52905194873E+02 -0.12650144647E+03 -0.23734039578E+03  0.27410224200E+03  0.00000000000E+00 0.  1.
         11    1    3    3    0    0  0.13786149244E+02  0.14714857077E+02 -0.57064622399E+02  0.60522359994E+02  0.00000000000E+00 0. -1.
          2    1    1    2  501    0  0.13684651462E+03  0.10787450755E+03 -0.38629063810E+03  0.42377391971E+03  0.00000000000E+00 0. -1.
<scales pt_clust_5="13000.00000" pt_clust_6="13000.00000" pt_clust_7="13000.00000" pt_clust_8="13000.00000" pt_clust_9="180.80865"></scales>
<clustering>
<clus scale="   87.520">  5  6 -1 -1</clus>
<clus scale="   91.408">  7  8 -1 -1</clus>
<clus scale="  159.058">  2  7  1 -1</clus>
<clus scale="  180.809">  1  9  2 -1</clus>
<clus scale="  180.809">  1  5  2 -1</clus>
</clustering>
</event>
<event>
 9    1  0.7719620E-005  0.9797724E+02  0.7546771E-02  0.1292789E+00
         21   -1    0    0  501  502  0.00000000000E+00  0.00000000000E+00  0.16546383014E+03  0.16546383014E+03  0.00000000000E+00 0. -1.
         -4   -1    0    0    0  501 -0.00000000000E+00 -0.00000000000E+00 -0.11207150371E+03  0.11207150371E+03  0.00000000000E+00 0.  1.
         23    2    1    2    0    0 -0.24545455393E+02  0.70577150889E+01 -0.61499975213E+02  0.11471117143E+03  0.93402971987E+02 0.  0.
        -24    2    1    2    0    0  0.46193301120E+02 -0.11897069427E+02  0.10119628858E+03  0.13675446068E+03  0.78649426984E+02 0.  0.
         13    1    4    4    0    0  0.30903994315E+02  0.40510137331E+01  0.10896517463E+03  0.11333524102E+03  0.00000000000E+00 0. -1.
        -14    1    4    4    0    0  0.15289306804E+02 -0.15948083160E+02 -0.77688860447E+01  0.23419219658E+02  0.00000000000E+00 0.  1.
        -13    1    3    3    0    0  0.11877764256E+02  0.43536197605E+02 -0.25475587209E+02  0.51821687827E+02  0.00000000000E+00 0. -1.
         13    1    3    3    0    0 -0.36423219649E+02 -0.36478482516E+02 -0.36024388004E+02  0.62889483599E+02  0.00000000000E+00 0.  1.
         -3    1    1    2    0  502 -0.21647845726E+02  0.48393543379E+01  0.13696013065E+02  0.26069701741E+02  0.00000000000E+00 0.  1.
<scales pt_clust_5="13000.00000" pt_clust_6="13000.00000" pt_clust_7="13000.00000" pt_clust_8="13000.00000" pt_clust_9="22.18217"></scales>
<clustering>
<clus scale="   22.182">  1  9  2 -1</clus>
<clus scale="   78.649">  5  6 -1 -1</clus>
<clus scale="   84.031">  1  5  2 -1</clus>
<clus scale="   93.403">  7  8 -1 -1</clus>
<clus scale="   22.182">  1  5  2 -1</clus>
</clustering>
</event>
<event>
 9    1  0.7719620E-005  0.9086374E+02  0.7546771E-02  0.1305780E+00
         21   -1    0    0  501  502  0.00000000000E+00  0.00000000000E+00  0.76106937195E+02  0.76106937195E+02  0.00000000000E+00 0.  1.
          1   -1    0    0  502    0 -0.00000000000E+00 -0.00000000000E+00 -0.16262365021E+03  0.16262365021E+03  0.00000000000E+00 0. -1.
         23    2    1    2    0    0  0.11955671747E+02  0.49628729527E+00 -0.43747726124E+02  0.10043812350E+03  0.89614556420E+02 0.  0.
        -24    2    1    2    0    0  0.13581243875E+02 -0.33081280701E+02 -0.20766377029E+02  0.91409303870E+02  0.81520531776E+02 0.  0.
         11    1    4    4    0    0  0.53291489508E+00  0.26390945362E+02 -0.14719386442E+02  0.30222943811E+02  0.00000000000E+00 0. -1.
        -12    1    4    4    0    0  0.13048328980E+02 -0.59472226063E+02 -0.60469905873E+01  0.61186360058E+02  0.00000000000E+00 0.  1.
        -13    1    3    3    0    0 -0.26038510013E+02 -0.28260102307E+02 -0.44687783773E+01  0.38686009956E+02  0.00000000000E+00 0.  1.
         13    1    3    3    0    0  0.37994181760E+02  0.28756389602E+02 -0.39278947746E+02  0.61752113540E+02  0.00000000000E+00 0. -1.
          2    1    1    2  501    0 -0.25536915622E+02  0.32584993406E+02 -0.22002609864E+02  0.46883160043E+02  0.00000000000E+00 0. -1.
<scales pt_clust_5="13000.00000" pt_clust_6="13000.00000" pt_clust_7="13000.00000" pt_clust_8="13000.00000" pt_clust_9="41.39949"></scales>
<clustering>
<clus scale="   41.399">  1  9  2 -1</clus>
<clus scale="   81.521">  5  6 -1 -1</clus>
<clus scale="   82.892">  1  5  2 -1</clus>
<clus scale="   89.615">  7  8 -1 -1</clus>
<clus scale="   41.399">  1  5  2 -1</clus>
</clustering>
</event>
<event>
 9    1  0.7719620E-005  0.2597310E+03  0.7546771E-02  0.1107803E+00
         21   -1    0    0  501  502  0.00000000000E+00  0.00000000000E+00  0.40226223194E+02  0.40226223194E+02  0.00000000000E+00 0.  1.
          1   -1    0    0  502    0 -0.00000000000E+00 -0.00000000000E+00 -0.20993315072E+04  0.20993315072E+04  0.00000000000E+00 0. -1.
         23    2    1    2    0    0 -0.15940155137E+03  0.18404096106E+03 -0.13809716221E+04  0.14051920926E+04  0.90566362799E+02 0.  0.
        -24    2    1    2    0    0  0.17665767649E+03 -0.16844305261E+03 -0.59778375239E+03  0.65071651013E+03  0.80657084656E+02 0.  0.
         13    1    4    4    0    0  0.18537729411E+02  0.75487368851E+01 -0.58103242507E+02  0.61454191314E+02  0.00000000000E+00 0. -1.
        -14    1    4    4    0    0  0.15811994708E+03 -0.17599178950E+03 -0.53968050988E+03  0.58926231882E+03  0.00000000000E+00 0.  1.
        -13    1    3    3    0    0 -0.77088880932E+02  0.25658379122E+02 -0.44219920435E+03  0.44960113913E+03  0.00000000000E+00 0. -1.
         13    1    3    3    0    0 -0.82312670441E+02  0.15838258194E+03 -0.93877241778E+03  0.95559095348E+03  0.00000000000E+00 0.  1.
          2    1    1    2  501    0 -0.17256125116E+02 -0.15597908450E+02 -0.80349909458E+02  0.83649127622E+02  0.00000000000E+00 0. -1.
<scales pt_clust_5="13000.00000" pt_clust_6="13000.00000" pt_clust_7="13000.00000" pt_clust_8="13000.00000" pt_clust_9="23.26088"></scales>
<clustering>
<clus scale="   23.261">  1  9  2 -1</clus>
<clus scale="   80.657">  5  6 -1 -1</clus>
<clus scale="   90.566">  7  8 -1 -1</clus>
<clus scale="  256.444">  1  5  2 -1</clus>
<clus scale="   23.261">  1  5  2 -1</clus>
</clustering>
</event>
<event>
 9    1  0.7719620E-005  0.1612792E+03  0.7546771E-02  0.1204778E+00
          3   -1    0    0  502    0 -0.00000000000E+00  0.00000000000E+00  0.23788188839E+03  0.23788188839E+03  0.00000000000E+00 0. -1.
         21   -1    0    0  501  502  0.00000000000E+00 -0.00000000000E+00 -0.23179363136E+03  0.23179363136E+03  0.00000000000E+00 0. -1.
        -24    2    1    2    0    0 -0.58858413101E+02 -0.47522050786E+02  0.92721121183E+02  0.14382857217E+03  0.79792191073E+02 0.  0.
         23    2    1    2    0    0  0.10325758291E+03 -0.85399030825E+02 -0.11535857936E+01  0.16169455726E+03  0.90491304514E+02 0.  0.
         11    1    3    3    0    0 -0.38046472814E+02 -0.44458481001E+02  0.10446419437E+03  0.11973662152E+03  0.00000000000E+00 0. -1.
        -12    1    3    3    0    0 -0.20811940287E+02 -0.30635697853E+01 -0.11743073191E+02  0.24091950654E+02  0.00000000000E+00 0.  1.
        -13    1    4    4    0    0 -0.29788447915E+01 -0.37803743672E+02  0.20771222879E+02  0.43237024086E+02  0.00000000000E+00 0.  1.
         13    1    4    4    0    0  0.10623642770E+03 -0.47595287153E+02 -0.21924808672E+02  0.11845753317E+03  0.00000000000E+00 0. -1.
          4    1    1    2  501    0 -0.44399169810E+02  0.13292108161E+03 -0.85479278360E+02  0.16415239031E+03  0.00000000000E+00 0. -1.
<scales pt_clust_5="13000.00000" pt_clust_6="13000.00000" pt_clust_7="13000.00000" pt_clust_8="13000.00000" pt_clust_9="133.50022"></scales>
<clustering>
<clus scale="   79.792">  5  6 -1 -1</clus>
<clus scale="   90.491">  7  8 -1 -1</clus>
<clus scale="  109.952">  1  5  2 -1</clus>
<clus scale="  133.500">  2  9  1 -1</clus>
<clus scale="  133.500">  2  5  1 -1</clus>
</clustering>
</event>
<event>
 9    1  0.7719620E-005  0.1428132E+03  0.7546771E-02  0.1212560E+00
         21   -1    0    0  501  502  0.00000000000E+00  0.00000000000E+00  0.45269228170E+03  0.45269228170E+03  0.00000000000E+00 0. -1.
          1   -1    0    0  502    0 -0.00000000000E+00 -0.00000000000E+00 -0.28555125768E+03  0.28555125768E+03  0.00000000000E+00 0. -1.
         23    2    1    2    0    0  0.80628244825E+02  0.81288874002E+02 -0.21562493067E+03  0.26185119484E+03  0.94673875021E+02 0.  0.
        -24    2    1    2    0    0 -0.10583347904E+03  0.16231382947E+02  0.77529840562E+02  0.15496647483E+03  0.80867478430E+02 0.  0.
         13    1    4    4    0    0 -0.80270756126E+02  0.46917038315E+02  0.44199753403E+02  0.10294766133E+03  0.00000000000E+00 0. -1.
        -14    1    4    4    0    0 -0.25562722910E+02 -0.30685655368E+02  0.33330087159E+02  0.52018813500E+02  0.00000000000E+00 0.  1.
        -13    1    3    3    0    0  0.25072527690E+02  0.86585581029E+02 -0.15608914364E+03  0.18024848196E+03  0.00000000000E+00 0. -1.
         13    1    3    3    0    0  0.55555717135E+02 -0.52967070272E+01 -0.59535787035E+02  0.81602712881E+02  0.00000000000E+00 0.  1.
          2    1    1    2  501    0  0.25205234211E+02 -0.97520256949E+02  0.30523611413E+03  0.32142586971E+03  0.00000000000E+00 0. -1.
<scales pt_clust_5="13000.00000" pt_clust_6="13000.00000" pt_clust_7="13000.00000" pt_clust_8="13000.00000" pt_clust_9="100.72489"></scales>
<clustering>
<clus scale="   80.867">  5  6 -1 -1</clus>
<clus scale="   94.674">  7  8 -1 -1</clus>
<clus scale="  100.725">  1  9  2 -1</clus>
<clus scale="  134.060">  1  5  2 -1</clus>
<clus scale="  100.725">  1  5  2 -1</clus>
</clustering>
</event>
<event>
 9    1  0.7719620E-005  0.1235709E+03  0.7546771E-02  0.1247491E+00
         -2   -1    0    0    0  501 -0.00000000000E+00  0.00000000000E+00  0.28773568939E+03  0.28773568939E+03  0.00000000000E+00 0.  1.
         21   -1    0    0  501  502  0.00000000000E+00 -0.00000000000E+00 -0.10628109872E+03  0.10628109872E+03  0.00000000000E+00 0.  1.
         23    2    1    2    0    0 -0.50508502443E+01  0.49339249053E+02  0.52214862935E+00  0.10059126928E+03  0.87512617553E+02 0.  0.
        -24    2    1    2    0    0 -0.74577363972E+02  0.32998731688E+02  0.70635501651E+02  0.13441102065E+03  0.80163887555E+02 0.  0.
         13    1    4    4    0    0 -0.54649175301E+02  0.22894105297E+02 -0.11156296580E+01  0.59261429682E+02  0.00000000000E+00 0. -1.
        -14    1    4    4    0    0 -0.19928188672E+02  0.10104626390E+02  0.71751131309E+02  0.75149590965E+02  0.00000000000E+00 0.  1.
        -11    1    3    3    0    0  0.41314529232E+01  0.25333369962E+02 -0.42981431799E+02  0.50062481125E+02  0.00000000000E+00 0.  1.
         11    1    3    3    0    0 -0.91823031674E+01  0.24005879091E+02  0.43503580428E+02  0.50528788155E+02  0.00000000000E+00 0. -1.
         -1    1    1    2    0  502  0.79628214216E+02 -0.82337980741E+02  0.11029694039E+03  0.15901449818E+03  0.00000000000E+00 0.  1.
<scales pt_clust_5="13000.00000" pt_clust_6="13000.00000" pt_clust_7="13000.00000" pt_clust_8="13000.00000" pt_clust_9="94.04009"></scales>
<clustering>
<clus scale="   80.164">  5  6 -1 -1</clus>
<clus scale="   87.513">  7  8 -1 -1</clus>
<clus scale="  100.590">  1  7  2 -1</clus>
<clus scale="   94.040">  2  9  1 -1</clus>
<clus scale="   94.040">  2  5  1 -1</clus>
</clustering>
</event>
<event>
 9    1  0.7719620E-005  0.9639877E+02  0.7546771E-02  0.1295489E+00
         21   -1    0    0  501  502  0.00000000000E+00  0.00000000000E+00  0.16233418732E+03  0.16233418732E+03  0.00000000000E+00 0. -1.
          3   -1    0    0  502    0 -0.00000000000E+00 -0.00000000000E+00 -0.20890157279E+03  0.20890157279E+03  0.00000000000E+00 0. -1.
         23    2    1    2    0    0  0.95249288570E+00 -0.27927679714E+02 -0.15878523024E+03  0.18566994646E+03  0.92085379610E+02 0.  0.
        -24    2    1    2    0    0 -0.46995214620E+02  0.24591958473E+02  0.48087046253E+02  0.10654797656E+03  0.78910028975E+02 0.  0.
         13    1    4    4    0    0  0.67430388342E+01 -0.20602847564E+02  0.23937065453E+02  0.32294411327E+02  0.00000000000E+00 0. -1.
        -14    1    4    4    0    0 -0.53738253454E+02  0.45194806037E+02  0.24149980800E+02  0.74253565232E+02  0.00000000000E+00 0.  1.
        -13    1    3    3    0    0  0.39539849209E+02 -0.35232910310E+02 -0.64000167484E+02  0.83070928021E+02  0.00000000000E+00 0.  1.
         13    1    3    3    0    0 -0.38587356324E+02  0.73052305963E+01 -0.94785062756E+02  0.10259901843E+03  0.00000000000E+00 0. -1.
          4    1    1    2  501    0  0.46042721734E+02  0.33357212410E+01  0.64130798521E+02  0.79017837099E+02  0.00000000000E+00 0. -1.
<scales pt_clust_5="13000.00000" pt_clust_6="13000.00000" pt_clust_7="13000.00000" pt_clust_8="13000.00000" pt_clust_9="46.16340"></scales>
<clustering>
<clus scale="   46.163">  1  9  2 -1</clus>
<clus scale="   78.910">  5  6 -1 -1</clus>
<clus scale="   83.904">  1  5  2 -1</clus>
<clus scale="   92.085">  7  8 -1 -1</clus>
<clus scale="   46.163">  1  5  2 -1</clus>
</clustering>
</event>
<event>
 9    1  0.7719620E-005  0.1436557E+03  0.7546771E-02  0.1211064E+00
         21   -1    0    0  501  502  0.00000000000E+00  0.00000000000E+00  0.77361914368E+02  0.77361914368E+02  0.00000000000E+00 0. -1.
          1   -1    0    0  502    0 -0.00000000000E+00 -0.00000000000E+00 -0.61775874872E+03  0.61775874872E+03  0.00000000000E+00 0. -1.
         23    2    1    2    0    0  0.93387700681E+02 -0.69385553218E+02 -0.47239867903E+03  0.49439147199E+03  0.87902206998E+02 0.  0.
        -24    2    1    2    0    0 -0.91877689714E+02  0.40005959106E+02  0.17831226011E+01  0.12500028359E+03  0.74698759965E+02 0.  0.
         13    1    4    4    0    0 -0.57089770965E+02 -0.15791695777E+02  0.79148462504E+00  0.59238889695E+02  0.00000000000E+00 0. -1.
        -14    1    4    4    0    0 -0.34787918749E+02  0.55797654882E+02  0.99163797609E+00  0.65761393896E+02  0.00000000000E+00 0.  1.
        -11    1    3    3    0    0  0.10476659539E+02 -0.60424301135E+02 -0.17081007935E+03  0.18148537068E+03  0.00000000000E+00 0.  1.
         11    1    3    3    0    0  0.82911041142E+02 -0.89612520830E+01 -0.30158859968E+03  0.31290610131E+03  0.00000000000E+00 0. -1.
          2    1    1    2  501    0 -0.15100109666E+01  0.29379594112E+02 -0.69781277923E+02  0.75728907505E+02  0.00000000000E+00 0. -1.
<scales pt_clust_5="13000.00000" pt_clust_6="13000.00000" pt_clust_7="13000.00000" pt_clust_8="13000.00000" pt_clust_9="29.41839"></scales>
<clustering>
<clus scale="   29.418">  1  9  2 -1</clus>
<clus scale="   74.699">  5  6 -1 -1</clus>
<clus scale="   87.902">  7  8 -1 -1</clus>
<clus scale="  135.978">  1  5  2 -1</clus>
<clus scale="   29.418">  1  5  2 -1</clus>
</clustering>
</event>
<event>
 9    1  0.7719620E-005  0.1718255E+03  0.7546771E-02  0.1196600E+00
         -2   -1    0    0    0  501 -0.00000000000E+00  0.00000000000E+00  0.24191226703E+03  0.24191226703E+03  0.00000000000E+00 0.  1.
         21   -1    0    0  501  502  0.00000000000E+00 -0.00000000000E+00 -0.22143401393E+03  0.22143401393E+03  0.00000000000E+00 0.  1.
         23    2    1    2    0    0  0.18924330580E+02  0.55501956404E+02  0.12502100823E+02  0.10929248322E+03  0.91378043918E+02 0.  0.
        -24    2    1    2    0    0 -0.13922468080E+03  0.47204650994E+02  0.74239986010E+02  0.18255535131E+03  0.78759697486E+02 0.  0.
         11    1    4    4    0    0 -0.37767806037E+02  0.48247013191E+02  0.90008903113E+01  0.61928971258E+02  0.00000000000E+00 0. -1.
        -12    1    4    4    0    0 -0.10145687477E+03 -0.10423621967E+01  0.65239095699E+02  0.12062638005E+03  0.00000000000E+00 0.  1.
        -11    1    3    3    0    0  0.63115293843E+01  0.77888088825E+02  0.23117645603E+02  0.81491197821E+02  0.00000000000E+00 0.  1.
         11    1    3    3    0    0  0.12612801195E+02 -0.22386132421E+02 -0.10615544779E+02  0.27801285397E+02  0.00000000000E+00 0. -1.
         -1    1    1    2    0  502  0.12030035022E+03 -0.10270660740E+03 -0.66263833737E+02  0.17149844643E+03  0.00000000000E+00 0.  1.
<scales pt_clust_5="13000.00000" pt_clust_6="13000.00000" pt_clust_7="13000.00000" pt_clust_8="13000.00000" pt_clust_9="152.71182"></scales>
<clustering>
<clus scale="   78.760">  5  6 -1 -1</clus>
<clus scale="   91.378">  7  8 -1 -1</clus>
<clus scale="  108.575">  1  7  2 -1</clus>
<clus scale="  152.712">  2  9  1 -1</clus>
<clus scale="  152.712">  2  5  1 -1</clus>
</clustering>
</event>
<event>
 9    1  0.7719620E-005  0.1162514E+03  0.7546771E-02  0.1252723E+00
         -2   -1    0    0    0  501 -0.00000000000E+00  0.00000000000E+00  0.20792835201E+03  0.20792835201E+03  0.00000000000E+00 0.  1.
         21   -1    0    0  501  502  0.00000000000E+00 -0.00000000000E+00 -0.16205138911E+03  0.16205138911E+03  0.00000000000E+00 0. -1.
         23    2    1    2    0    0  0.59639470386E+02 -0.25429380509E+02  0.11879898684E+03  0.16464569133E+03  0.93762916864E+02 0.  0.
        -24    2    1    2    0    0 -0.93368733859E+02  0.10149415012E+02 -0.98665938754E+02  0.16023538340E+03  0.84378193477E+02 0.  0.
         11    1    4    4    0    0 -0.10465054491E+03  0.63823311255E+01 -0.10356586608E+03  0.14737150104E+03  0.00000000000E+00 0. -1.
        -12    1    4    4    0    0  0.11281811047E+02  0.37670838865E+01  0.48999273311E+01  0.12863882360E+02  0.00000000000E+00 0.  1.
        -11    1    3    3    0    0  0.34530831271E+02  0.33652551978E+02  0.37653350163E+02  0.61177179908E+02  0.00000000000E+00 0. -1.
         11    1    3    3    0    0  0.25108639115E+02 -0.59081932487E+02  0.81145636676E+02  0.10346851142E+03  0.00000000000E+00 0.  1.
         -1    1    1    2    0  502  0.33729263474E+02  0.15279965497E+02  0.25743914817E+02  0.45098666391E+02  0.00000000000E+00 0.  1.
<scales pt_clust_5="13000.00000" pt_clust_6="13000.00000" pt_clust_7="13000.00000" pt_clust_8="13000.00000" pt_clust_9="37.02893"></scales>
<clustering>
<clus scale="   37.029">  2  9  1 -1</clus>
<clus scale="   84.378">  5  6 -1 -1</clus>
<clus scale="   93.763">  7  8 -1 -1</clus>
<clus scale="  108.824">  2  5  1 -1</clus>
<clus scale="   37.029">  2  5  1 -1</clus>
</clustering>
</event>
<event>
 9    1  0.7719620E-005  0.1516183E+03  0.7546771E-02  0.1200273E+00
         21   -1    0    0  501  502  0.00000000000E+00  0.00000000000E+00  0.80904621837E+03  0.80904621837E+03  0.00000000000E+00 0. -1.
          1   -1    0    0  502    0 -0.00000000000E+00 -0.00000000000E+00 -0.77211795937E+02  0.77211795937E+02  0.00000000000E+00 0. -1.
         23    2    1    2    0    0 -0.11524724561E+03  0.19312171400E+01  0.43703569064E+02  0.15360726286E+03  0.91648960899E+02 0.  0.
        -24    2    1    2    0    0  0.13686579100E+03 -0.45994086371E+02  0.31254174085E+03  0.35386838730E+03  0.81809504496E+02 0.  0.
         13    1    4    4    0    0  0.50926282311E+02 -0.68724276789E+01  0.39069560374E+02  0.64553443286E+02  0.00000000000E+00 0. -1.
        -14    1    4    4    0    0  0.85939508689E+02 -0.39121658692E+02  0.27347218048E+03  0.28931494401E+03  0.00000000000E+00 0.  1.
        -13    1    3    3    0    0 -0.45749484660E+02  0.11597803164E+02  0.64956492277E+02  0.80292404832E+02  0.00000000000E+00 0.  1.
         13    1    3    3    0    0 -0.69497760951E+02 -0.96665860240E+01 -0.21252923212E+02  0.73314858028E+02  0.00000000000E+00 0. -1.
          2    1    1    2  501    0 -0.21618545388E+02  0.44062869231E+02  0.37558911251E+03  0.37878236415E+03  0.00000000000E+00 0. -1.
<scales pt_clust_5="13000.00000" pt_clust_6="13000.00000" pt_clust_7="13000.00000" pt_clust_8="13000.00000" pt_clust_9="49.08053"></scales>
<clustering>
<clus scale="   49.081">  1  9  2 -1</clus>
<clus scale="   81.810">  5  6 -1 -1</clus>
<clus scale="   91.649">  7  8 -1 -1</clus>
<clus scale="  145.881">  1  5  2 -1</clus>
<clus scale="   49.081">  1  5  2 -1</clus>
</clustering>
</event>
<event>
 9    1  0.7719620E-005  0.1022381E+03  0.7546771E-02  0.1280958E+00
         21   -1    0    0  501  502  0.00000000000E+00  0.00000000000E+00  0.73229904747E+02  0.73229904747E+02  0.00000000000E+00 0.  1.
          1   -1    0    0  502    0 -0.00000000000E+00 -0.00000000000E+00 -0.29833620883E+03  0.29833620883E+03  0.00000000000E+00 0. -1.
         23    2    1    2    0    0  0.31225310623E+02 -0.33701475421E+02 -0.18056874572E+03  0.20804394225E+03  0.92554851344E+02 0.  0.
        -24    2    1    2    0    0 -0.50039109554E+02 -0.54579620218E+01  0.70192079251E+01  0.96101694310E+02  0.81563254808E+02 0.  0.
         11    1    4    4    0    0 -0.12636831998E+01 -0.23642745429E+02 -0.25442168152E+02  0.34754571309E+02  0.00000000000E+00 0. -1.
        -12    1    4    4    0    0 -0.48775426354E+02  0.18184783407E+02  0.32461376077E+02  0.61347123000E+02  0.00000000000E+00 0.  1.
        -11    1    3    3    0    0  0.25838538775E+02  0.26051753646E+02 -0.35482722591E+02  0.51042605307E+02  0.00000000000E+00 0.  1.
         11    1    3    3    0    0  0.53867718485E+01 -0.59753229067E+02 -0.14508602313E+03  0.15700133694E+03  0.00000000000E+00 0. -1.
          2    1    1    2  501    0  0.18813798931E+02  0.39159437443E+02 -0.51556766291E+02  0.67420477019E+02  0.00000000000E+00 0. -1.
<scales pt_clust_5="13000.00000" pt_clust_6="13000.00000" pt_clust_7="13000.00000" pt_clust_8="13000.00000" pt_clust_9="43.44448"></scales>
<clustering>
<clus scale="   43.444">  1  9  2 -1</clus>
<clus scale="   81.563">  5  6 -1 -1</clus>
<clus scale="   92.406">  1  5  2 -1</clus>
<clus scale="   92.555">  7  8 -1 -1</clus>
<clus scale="   43.444">  1  5  2 -1</clus>
</clustering>
</event>
<event>
 9    1  0.7719620E-005  0.9300490E+02  0.7546771E-02  0.1304341E+00
          1   -1    0    0  502    0 -0.00000000000E+00  0.00000000000E+00  0.61079074945E+02  0.61079074945E+02  0.00000000000E+00 0. -1.
         21   -1    0    0  501  502  0.00000000000E+00 -0.00000000000E+00 -0.29885472770E+03  0.29885472770E+03  0.00000000000E+00 0. -1.
         23    2    1    2    0    0 -0.22090334954E+02  0.48825036992E+01 -0.41233991608E+01  0.94357877192E+02  0.91512757727E+02 0.  0.
        -24    2    1    2    0    0  0.40480060620E+01  0.17122003044E+02 -0.94484866380E+02  0.12352915283E+03  0.77604847030E+02 0.  0.
         13    1    4    4    0    0 -0.17343946118E+02  0.39545231774E+02 -0.76094029710E+02  0.87492509282E+02  0.00000000000E+00 0. -1.
        -14    1    4    4    0    0  0.21391952180E+02 -0.22423228729E+02 -0.18390836670E+02  0.36036643547E+02  0.00000000000E+00 0.  1.
        -11    1    3    3    0    0  0.29849628512E+02 -0.19983637396E+02 -0.74138649083E+01  0.36678487956E+02  0.00000000000E+00 0.  1.
         11    1    3    3    0    0 -0.51939963466E+02  0.24866141096E+02  0.32904657475E+01  0.57679389236E+02  0.00000000000E+00 0. -1.
          2    1    1    2  501    0  0.18042328892E+02 -0.22004506744E+02 -0.13916738721E+03  0.14204677262E+03  0.00000000000E+00 0. -1.
<scales pt_clust_5="13000.00000" pt_clust_6="13000.00000" pt_clust_7="13000.00000" pt_clust_8="13000.00000" pt_clust_9="28.45565"></scales>
<clustering>
<clus scale="   28.456">  2  9  1 -1</clus>
<clus scale="   77.605">  5  6 -1 -1</clus>
<clus scale="   79.359">  2  5  1 -1</clus>
<clus scale="   91.513">  7  8 -1 -1</clus>
<clus scale="   28.456">  2  5  1 -1</clus>
</clustering>
</event>
<event>
 9    1  0.7719620E-005  0.8757698E+02  0.7546771E-02  0.1317562E+00
          1   -1    0    0  502    0 -0.00000000000E+00  0.00000000000E+00  0.29338322202E+03  0.29338322202E+03  0.00000000000E+00 0. -1.
         21   -1    0    0  501  502  0.00000000000E+00 -0.00000000000E+00 -0.34696305315E+02  0.34696305315E+02  0.00000000000E+00 0. -1.
        -24    2    1    2    0    0 -0.96728208717E+01 -0.38159601613E+02  0.15865121226E+03  0.18257440274E+03  0.81323346755E+02 0.  0.
         23    2    1    2    0    0  0.27602834334E+02  0.12687874866E+02  0.62993995801E+02  0.97106959073E+02  0.67369276094E+02 0.  0.
         11    1    3    3    0    0  0.25947303675E+02 -0.41002613378E+02  0.12242359267E+03  0.13168907667E+03  0.00000000000E+00 0. -1.
        -12    1    3    3    0    0 -0.35620124547E+02  0.28430117648E+01  0.36227619587E+02  0.50885326073E+02  0.00000000000E+00 0.  1.
        -13    1    4    4    0    0  0.63070187929E+01 -0.25702244716E+02  0.38841564368E+02  0.47000542465E+02  0.00000000000E+00 0.  1.
         13    1    4    4    0    0  0.21295815541E+02  0.38390119582E+02  0.24152431433E+02  0.50106416607E+02  0.00000000000E+00 0. -1.
          2    1    1    2  501    0 -0.17930013463E+02  0.25471726747E+02  0.37041708652E+02  0.48398165524E+02  0.00000000000E+00 0. -1.
<scales pt_clust_5="13000.00000" pt_clust_6="13000.00000" pt_clust_7="13000.00000" pt_clust_8="13000.00000" pt_clust_9="31.14955"></scales>
<clustering>
<clus scale="   31.150">  2  9  1 -1</clus>
<clus scale="   67.369">  7  8 -1 -1</clus>
<clus scale="   74.799">  2  7  1 -1</clus>
<clus scale="   81.323">  5  6 -1 -1</clus>
<clus scale="   31.150">  2  5  1 -1</clus>
</clustering>
</event>
<event>
 9    1  0.7719620E-005  0.1231738E+03  0.7546771E-02  0.1239589E+00
         21   -1    0    0  501  502  0.00000000000E+00  0.00000000000E+00  0.21041178470E+03  0.21041178470E+03  0.00000000000E+00 0. -1.
         -2   -1    0    0    0  501 -0.00000000000E+00 -0.00000000000E+00 -0.42317895589E+03  0.42317895589E+03  0.00000000000E+00 0.  1.
        -24    2    1    2    0    0 -0.30154301990E+02 -0.70182744044E+02 -0.33935903323E+03  0.35885232661E+03  0.88179018981E+02 0.  0.
         23    2    1    2    0    0  0.91937216013E+02  0.85704227095E+02  0.30781943949E+02  0.15968370826E+03  0.93561169192E+02 0.  0.
         13    1    3    3    0    0  0.29914467114E+02 -0.29863754962E+02 -0.94358539020E+02  0.10339368012E+03  0.00000000000E+00 0. -1.
        -14    1    3    3    0    0 -0.60068769104E+02 -0.40318989082E+02 -0.24500049421E+03  0.25545864649E+03  0.00000000000E+00 0.  1.
        -13    1    4    4    0    0  0.58435084126E+02  0.99199328005E+02  0.40891956057E+02  0.12217740300E+03  0.00000000000E+00 0. -1.
         13    1    4    4    0    0  0.33502131887E+02 -0.13495100911E+02 -0.10110012107E+02  0.37506305262E+02  0.00000000000E+00 0.  1.
         -1    1    1    2    0  502 -0.61782914023E+02 -0.15521483050E+02  0.95809918095E+02  0.11505470571E+03  0.00000000000E+00 0.  1.
<scales pt_clust_5="13000.00000" pt_clust_6="13000.00000" pt_clust_7="13000.00000" pt_clust_8="13000.00000" pt_clust_9="63.70279"></scales>
<clustering>
<clus scale="   63.703">  1  9  2 -1</clus>
<clus scale="   88.179">  5  6 -1 -1</clus>
<clus scale="   93.561">  7  8 -1 -1</clus>
<clus scale="  119.137">  2  5  1 -1</clus>
<clus scale="   63.703">  1  5  2 -1</clus>
</clustering>
</event>
<event>
 9    1  0.7719620E-005  0.1512090E+03  0.7546771E-02  0.1207637E+00
         21   -1    0    0  501  502  0.00000000000E+00  0.00000000000E+00  0.12507011849E+03  0.12507011849E+03  0.00000000000E+00 0. -1.
         -4   -1    0    0    0  501 -0.00000000000E+00 -0.00000000000E+00 -0.70216179883E+03  0.70216179883E+03  0.00000000000E+00 0.  1.
         23    2    1    2    0    0  0.37943118367E+02 -0.79051512979E+02 -0.29360736176E+03  0.31929136564E+03  0.89737792261E+02 0.  0.
        -24    2    1    2    0    0  0.28819502303E+02 -0.98706656742E+02  0.26826875414E+02  0.14414355947E+03  0.97386429719E+02 0.  0.
         11    1    4    4    0    0  0.35895884546E+02 -0.10764896114E+03  0.45504550994E+02  0.12225987699E+03  0.00000000000E+00 0. -1.
        -12    1    4    4    0    0 -0.70763822431E+01  0.89423043955E+01 -0.18677675580E+02  0.21883682474E+02  0.00000000000E+00 0.  1.
        -11    1    3    3    0    0  0.95618721505E+01 -0.91702101456E+02 -0.24303144273E+03  0.25993265852E+03  0.00000000000E+00 0.  1.
         11    1    3    3    0    0  0.28381246217E+02  0.12650588477E+02 -0.50575919030E+02  0.59358707124E+02  0.00000000000E+00 0. -1.
         -3    1    1    2    0  502 -0.66762620670E+02  0.17775816972E+03 -0.31031119400E+03  0.36379699221E+03  0.00000000000E+00 0.  1.
<scales pt_clust_5="13000.00000" pt_clust_6="13000.00000" pt_clust_7="13000.00000" pt_clust_8="13000.00000" pt_clust_9="115.67215"></scales>
<clustering>
<clus scale="   89.738">  7  8 -1 -1</clus>
<clus scale="   97.386">  5  6 -1 -1</clus>
<clus scale="  125.466">  2  7  1 -1</clus>
<clus scale="  115.672">  1  9  2 -1</clus>
<clus scale="  115.672">  1  5  2 -1</clus>
</clustering>
</event>
<event>
 9    1  0.7719620E-005  0.1280791E+03  0.7546771E-02  0.1242834E+00
         21   -1    0    0  501  502  0.00000000000E+00  0.00000000000E+00  0.28923948193E+03  0.28923948193E+03  0.00000000000E+00 0. -1.
         -4   -1    0    0    0  501 -0.00000000000E+00 -0.00000000000E+00 -0.12366487180E+03  0.12366487180E+03  0.00000000000E+00 0.  1.
        -24    2    1    2    0    0  0.41200897142E+02  0.38626126564E+02  0.14959345606E+03  0.17950701274E+03  0.81578636605E+02 0.  0.
         23    2    1    2    0    0  0.66082502416E+02 -0.41283814829E+02  0.29675649373E+02  0.12521078762E+03  0.93412240518E+02 0.  0.
         11    1    3    3    0    0  0.52988623078E+02  0.21330335225E+02  0.14785392679E+03  0.15850413573E+03  0.00000000000E+00 0. -1.
        -12    1    3    3    0    0 -0.11787725935E+02  0.17295791339E+02  0.17395292678E+01  0.21002877014E+02  0.00000000000E+00 0.  1.
        -13    1    4    4    0    0  0.73572626789E+02 -0.61235345381E+02  0.37075714321E+02  0.10265138834E+03  0.00000000000E+00 0.  1.
         13    1    4    4    0    0 -0.74901243733E+01  0.19951530552E+02 -0.74000649479E+01  0.22559399277E+02  0.00000000000E+00 0. -1.
         -3    1    1    2    0  502 -0.10728339956E+03  0.26576882646E+01 -0.13694495291E+02  0.10818655337E+03  0.00000000000E+00 0.  1.
<scales pt_clust_5="13000.00000" pt_clust_6="13000.00000" pt_clust_7="13000.00000" pt_clust_8="13000.00000" pt_clust_9="87.62663"></scales>
<clustering>
<clus scale="   81.579">  5  6 -1 -1</clus>
<clus scale="   93.412">  7  8 -1 -1</clus>
<clus scale="   99.220">  2  5  1 -1</clus>
<clus scale="   87.627">  1  9  2 -1</clus>
<clus scale="   87.627">  1  5  2 -1</clus>
</clustering>
</event>
<event>
 9    1  0.7719620E-005  0.1274839E+03  0.7546771E-02  0.1262828E+00
         21   -1    0    0  501  502  0.00000000000E+00  0.00000000000E+00  0.65553852340E+03  0.65553852340E+03  0.00000000000E+00 0. -1.
          1   -1    0    0  502    0 -0.00000000000E+00 -0.00000000000E+00 -0.74384907766E+02  0.74384907766E+02  0.00000000000E+00 0. -1.
        -24    2    1    2    0    0 -0.15821348333E+02 -0.40161292304E+02  0.26027938789E+03  0.26891623627E+03  0.52032085345E+02 0.  0.
         23    2    1    2    0    0  0.10123353981E+01 -0.51146260486E+02 -0.20963162181E+02  0.10687561312E+03  0.91465718861E+02 0.  0.
         13    1    3    3    0    0  0.98898361864E+01 -0.36644198506E+02  0.19515897481E+03  0.19881557181E+03  0.00000000000E+00 0. -1.
        -14    1    3    3    0    0 -0.25711184519E+02 -0.35170937983E+01  0.65120413079E+02  0.70100664460E+02  0.00000000000E+00 0.  1.
        -13    1    4    4    0    0  0.16175652911E+02  0.22029876995E+02  0.49585859776E+01  0.27776875317E+02  0.00000000000E+00 0.  1.
         13    1    4    4    0    0 -0.15163317513E+02 -0.73176137481E+02 -0.25921748159E+02  0.79098737805E+02  0.00000000000E+00 0. -1.
          2    1    1    2  501    0  0.14809012934E+02  0.91307552790E+02  0.34183738993E+03  0.35413158178E+03  0.00000000000E+00 0. -1.
<scales pt_clust_5="13000.00000" pt_clust_6="13000.00000" pt_clust_7="13000.00000" pt_clust_8="13000.00000" pt_clust_9="88.80412"></scales>
<clustering>
<clus scale="   52.032">  5  6 -1 -1</clus>
<clus scale="   67.606">  2  5  1 -1</clus>
<clus scale="   88.804">  1  9  2 -1</clus>
<clus scale="   91.466">  7  8 -1 -1</clus>
<clus scale="   88.804">  1  5  2 -1</clus>
</clustering>
</event>
<event>
 9    1  0.7719620E-005  0.1138239E+03  0.7546771E-02  0.1257836E+00
          1   -1    0    0  502    0 -0.00000000000E+00  0.00000000000E+00  0.54633934697E+02  0.54633934697E+02  0.00000000000E+00 0. -1.
         21   -1    0    0  501  502  0.00000000000E+00 -0.00000000000E+00 -0.41144612166E+03  0.41144612166E+03  0.00000000000E+00 0.  1.
         23    2    1    2    0    0  0.45268250512E+02 -0.59387099514E+02 -0.81687060096E+02  0.14408742750E+03  0.92262499873E+02 0.  0.
        -24    2    1    2    0    0 -0.58381858277E+02  0.23632421604E+02 -0.10146690447E+03  0.14420752851E+03  0.80829115106E+02 0.  0.
         13    1    4    4    0    0  0.16412711112E+02  0.17071015615E+02 -0.95779757762E+01  0.25544750540E+02  0.00000000000E+00 0. -1.
        -14    1    4    4    0    0 -0.74794569389E+02  0.65614059899E+01 -0.91888928696E+02  0.11866277797E+03  0.00000000000E+00 0.  1.
        -13    1    3    3    0    0  0.19774769079E+02 -0.81851129498E+02 -0.52008508012E+02  0.98972389068E+02  0.00000000000E+00 0.  1.
         13    1    3    3    0    0  0.25493481433E+02  0.22464029984E+02 -0.29678552084E+02  0.45115038430E+02  0.00000000000E+00 0. -1.
          2    1    1    2  501    0  0.13113607765E+02  0.35754677910E+02 -0.17365822239E+03  0.17778510035E+03  0.00000000000E+00 0. -1.
<scales pt_clust_5="13000.00000" pt_clust_6="13000.00000" pt_clust_7="13000.00000" pt_clust_8="13000.00000" pt_clust_9="38.08364"></scales>
<clustering>
<clus scale="   38.084">  2  9  1 -1</clus>
<clus scale="   80.829">  5  6 -1 -1</clus>
<clus scale="   92.262">  7  8 -1 -1</clus>
<clus scale="  104.770">  2  5  1 -1</clus>
<clus scale="   38.084">  2  5  1 -1</clus>
</clustering>
</event>
<event>
 9    1  0.7719620E-005  0.2278264E+03  0.7546771E-02  0.1163325E+00
          1   -1    0    0  502    0 -0.00000000000E+00  0.00000000000E+00  0.64562060272E+03  0.64562060272E+03  0.00000000000E+00 0. -1.
         21   -1    0    0  501  502  0.00000000000E+00 -0.00000000000E+00 -0.17709875986E+03  0.17709875986E+03  0.00000000000E+00 0. -1.
        -24    2    1    2    0    0 -0.42903219588E+02  0.36105650015E+02 -0.20093396699E+02  0.10045531746E+03  0.80890184831E+02 0.  0.
         23    2    1    2    0    0 -0.17300283526E+03 -0.53510854155E+02  0.46130790064E+03  0.50394305114E+03  0.91434277402E+02 0.  0.
         11    1    3    3    0    0 -0.63964659991E+02  0.13046606268E+02 -0.22702817961E+02  0.69116637695E+02  0.00000000000E+00 0. -1.
        -12    1    3    3    0    0  0.21061440403E+02  0.23059043746E+02  0.26094212618E+01  0.31338679769E+02  0.00000000000E+00 0.  1.
        -11    1    4    4    0    0 -0.40663681372E+01 -0.24336234218E+02  0.11384824776E+03  0.11649124930E+03  0.00000000000E+00 0.  1.
         11    1    4    4    0    0 -0.16893646712E+03 -0.29174619937E+02  0.34745965288E+03  0.38745180184E+03  0.00000000000E+00 0. -1.
          2    1    1    2  501    0  0.21590605485E+03  0.17405204141E+02  0.27307338922E+02  0.21832099397E+03  0.00000000000E+00 0. -1.
<scales pt_clust_5="13000.00000" pt_clust_6="13000.00000" pt_clust_7="13000.00000" pt_clust_8="13000.00000" pt_clust_9="208.67356"></scales>
<clustering>
<clus scale="   80.890">  5  6 -1 -1</clus>
<clus scale="   91.434">  7  8 -1 -1</clus>
<clus scale="   98.425">  1  5  2 -1</clus>
<clus scale="  208.674">  2  9  1 -1</clus>
<clus scale="  208.674">  2  5  1 -1</clus>
</clustering>
</event>
<event>
 9    1  0.7719620E-005  0.1054175E+03  0.7546771E-02  0.1274819E+00
         21   -1    0    0  501  502  0.00000000000E+00  0.00000000000E+00  0.93700716786E+02  0.93700716786E+02  0.00000000000E+00 0. -1.
         -2   -1    0    0    0  501 -0.00000000000E+00 -0.00000000000E+00 -0.16771523358E+03  0.16771523358E+03  0.00000000000E+00 0.  1.
         23    2    1    2    0    0  0.11676484954E+02 -0.35995689766E+02 -0.60806094344E+02  0.11733701313E+03  0.92943873162E+02 0.  0.
        -24    2    1    2    0    0 -0.31021107299E+02  0.64894154986E+02 -0.42453117685E+01  0.10816691893E+03  0.80675270251E+02 0.  0.
         13    1    4    4    0    0 -0.34400895610E+02  0.11596195699E+02 -0.31630778337E+02  0.48149761284E+02  0.00000000000E+00 0. -1.
        -14    1    4    4    0    0  0.33797883103E+01  0.53297959286E+02  0.27385466569E+02  0.60017157649E+02  0.00000000000E+00 0.  1.
        -11    1    3    3    0    0  0.33532751343E+02  0.18265622194E+01  0.92000563236E+01  0.34819861840E+02  0.00000000000E+00 0. -1.
         11    1    3    3    0    0 -0.21856266390E+02 -0.37822251985E+02 -0.70006150668E+02  0.82517151290E+02  0.00000000000E+00 0.  1.
         -1    1    1    2    0  502  0.19344622346E+02 -0.28898465220E+02 -0.89631106859E+01  0.35912018308E+02  0.00000000000E+00 0.  1.
<scales pt_clust_5="13000.00000" pt_clust_6="13000.00000" pt_clust_7="13000.00000" pt_clust_8="13000.00000" pt_clust_9="34.77550"></scales>
<clustering>
<clus scale="   34.776">  1  9  2 -1</clus>
<clus scale="   80.675">  5  6 -1 -1</clus>
<clus scale="   92.944">  7  8 -1 -1</clus>
<clus scale="   94.778">  1  5  2 -1</clus>
<clus scale="   34.776">  1  5  2 -1</clus>
</clustering>
</event>
<event>
 9    1  0.7719620E-005  0.1139682E+03  0.7546771E-02  0.1255195E+00
          1   -1    0    0  502    0 -0.00000000000E+00  0.00000000000E+00  0.40154231674E+03  0.40154231674E+03  0.00000000000E+00 0. -1.
         21   -1    0    0  501  502  0.00000000000E+00 -0.00000000000E+00 -0.52132877747E+03  0.52132877747E+03  0.00000000000E+00 0. -1.
         23    2    1    2    0    0  0.38130841934E+02 -0.24640126198E+02  0.17088500499E+03  0.19718945137E+03  0.87297754128E+02 0.  0.
        -24    2    1    2    0    0 -0.10415280273E+03  0.90230884069E+02  0.18279057329E+03  0.24315977887E+03  0.82005277999E+02 0.  0.
         11    1    4    4    0    0 -0.83757274959E+02  0.98574422455E+02  0.17892716263E+03  0.22078751640E+03  0.00000000000E+00 0. -1.
        -12    1    4    4    0    0 -0.20395527775E+02 -0.83435383861E+01  0.38634106538E+01  0.22372262467E+02  0.00000000000E+00 0.  1.
        -13    1    3    3    0    0 -0.39504885958E+00  0.24014597221E+02  0.12492062612E+02  0.27072284196E+02  0.00000000000E+00 0.  1.
         13    1    3    3    0    0  0.38525890794E+02 -0.48654723419E+02  0.15839294238E+03  0.17011716718E+03  0.00000000000E+00 0. -1.
          2    1    1    2  501    0  0.66021960800E+02 -0.65590757870E+02 -0.47346203901E+03  0.48252186397E+03  0.00000000000E+00 0. -1.
<scales pt_clust_5="13000.00000" pt_clust_6="13000.00000" pt_clust_7="13000.00000" pt_clust_8="13000.00000" pt_clust_9="93.06475"></scales>
<clustering>
<clus scale="   82.005">  5  6 -1 -1</clus>
<clus scale="   87.298">  7  8 -1 -1</clus>
<clus scale="   93.065">  2  9  1 -1</clus>
<clus scale="  109.967">  2  5  1 -1</clus>
<clus scale="   93.065">  2  5  1 -1</clus>
</clustering>
</event>
<event>
 9    1  0.7719620E-005  0.9502998E+02  0.7546771E-02  0.1298224E+00
          1   -1    0    0  502    0 -0.00000000000E+00  0.00000000000E+00  0.90201654439E+02  0.90201654439E+02  0.00000000000E+00 0. -1.
         21   -1    0    0  501  502  0.00000000000E+00 -0.00000000000E+00 -0.15717460295E+03  0.15717460295E+03  0.00000000000E+00 0.  1.
         23    2    1    2    0    0  0.24339449657E+02 -0.90959318417E+01  0.20938170217E+02  0.98086775887E+02  0.92235914080E+02 0.  0.
        -24    2    1    2    0    0 -0.27711075103E+01  0.27673718715E+02 -0.40349331557E+02  0.93859785968E+02  0.80050466086E+02 0.  0.
         11    1    4    4    0    0 -0.57245837228E+01 -0.28159327558E+02 -0.15847910428E+02  0.32815771395E+02  0.00000000000E+00 0. -1.
        -12    1    4    4    0    0  0.29534762124E+01  0.55833046273E+02 -0.24501421129E+02  0.61044014573E+02  0.00000000000E+00 0.  1.
        -11    1    3    3    0    0 -0.33970344677E+02  0.63115898762E+01  0.14363844021E+02  0.37418451321E+02  0.00000000000E+00 0.  1.
         11    1    3    3    0    0  0.58309794333E+02 -0.15407521718E+02  0.65743261952E+01  0.60668324566E+02  0.00000000000E+00 0. -1.
          2    1    1    2  501    0 -0.21568342147E+02 -0.18577786873E+02 -0.47561787172E+02  0.55429695534E+02  0.00000000000E+00 0. -1.
<scales pt_clust_5="13000.00000" pt_clust_6="13000.00000" pt_clust_7="13000.00000" pt_clust_8="13000.00000" pt_clust_9="28.46625"></scales>
<clustering>
<clus scale="   28.466">  2  9  1 -1</clus>
<clus scale="   80.050">  5  6 -1 -1</clus>
<clus scale="   83.254">  2  5  1 -1</clus>
<clus scale="   92.236">  7  8 -1 -1</clus>
<clus scale="   28.466">  2  5  1 -1</clus>
</clustering>
</event>
<event>
 9    1  0.7719620E-005  0.1159745E+03  0.7546771E-02  0.1253403E+00
         -4   -1    0    0    0  501 -0.00000000000E+00  0.00000000000E+00  0.55594540080E+02  0.55594540080E+02  0.00000000000E+00 0.  1.
         21   -1    0    0  501  502  0.00000000000E+00 -0.00000000000E+00 -0.51271036821E+03  0.51271036821E+03  0.00000000000E+00 0. -1.
        -24    2    1    2    0    0 -0.80485140450E+02 -0.28944565859E+02 -0.46085887965E+02  0.12657356202E+03  0.81125284634E+02 0.  0.
         23    2    1    2    0    0  0.38105550486E+02  0.14568877955E+02 -0.17559161675E+03  0.20207764991E+03  0.91316348680E+02 0.  0.
         11    1    3    3    0    0 -0.44720932282E+02 -0.10297922772E+02 -0.66946059084E+02  0.81165163860E+02  0.00000000000E+00 0. -1.
        -12    1    3    3    0    0 -0.35764208169E+02 -0.18646643087E+02  0.20860171119E+02  0.45408398160E+02  0.00000000000E+00 0.  1.
        -11    1    4    4    0    0  0.42381701053E+02 -0.12118487154E+02 -0.16845037893E+03  0.17412236064E+03  0.00000000000E+00 0.  1.
         11    1    4    4    0    0 -0.42761505676E+01  0.26687365109E+02 -0.71412378216E+01  0.27955289263E+02  0.00000000000E+00 0. -1.
         -3    1    1    2    0  502  0.42379589965E+02  0.14375687904E+02 -0.23543832341E+03  0.23965369636E+03  0.00000000000E+00 0.  1.
<scales pt_clust_5="13000.00000" pt_clust_6="13000.00000" pt_clust_7="13000.00000" pt_clust_8="13000.00000" pt_clust_9="44.75143"></scales>
<clustering>
<clus scale="   44.751">  2  9  1 -1</clus>
<clus scale="   81.125">  5  6 -1 -1</clus>
<clus scale="   91.316">  7  8 -1 -1</clus>
<clus scale="  108.133">  1  5  2 -1</clus>
<clus scale="   44.751">  2  5  1 -1</clus>
</clustering>
</event>
<event>
 9    1  0.7719620E-005  0.1316058E+03  0.7546771E-02  0.1248713E+00
         -2   -1    0    0    0  501 -0.00000000000E+00  0.00000000000E+00  0.37598019535E+03  0.37598019535E+03  0.00000000000E+00 0.  1.
         21   -1    0    0  501  502  0.00000000000E+00 -0.00000000000E+00 -0.88533656926E+02  0.88533656926E+02  0.00000000000E+00 0. -1.
        -24    2    1    2    0    0 -0.98703006217E+01 -0.59876055454E+01  0.11187896539E+03  0.13827190007E+03  0.80429728311E+02 0.  0.
         23    2    1    2    0    0 -0.30083168359E+02 -0.88139535283E+02  0.81727828913E+01  0.13008585598E+03  0.90454191977E+02 0.  0.
         13    1    3    3    0    0  0.28361489776E+02  0.18862733060E+02  0.34662460986E+02  0.48596944373E+02  0.00000000000E+00 0. -1.
        -14    1    3    3    0    0 -0.38231790398E+02 -0.24850338605E+02  0.77216504406E+02  0.89674955693E+02  0.00000000000E+00 0.  1.
        -13    1    4    4    0    0  0.30847073964E+01 -0.59916338348E+02  0.43419649078E+02  0.74059090913E+02  0.00000000000E+00 0.  1.
         13    1    4    4    0    0 -0.33167875756E+02 -0.28223196935E+02 -0.35246866187E+02  0.56026765063E+02  0.00000000000E+00 0. -1.
         -1    1    1    2    0  502  0.39953468981E+02  0.94127140828E+02  0.16739479014E+03  0.19615609624E+03  0.00000000000E+00 0.  1.
<scales pt_clust_5="13000.00000" pt_clust_6="13000.00000" pt_clust_7="13000.00000" pt_clust_8="13000.00000" pt_clust_9="95.59357"></scales>
<clustering>
<clus scale="   80.430">  5  6 -1 -1</clus>
<clus scale="   81.254">  1  5  2 -1</clus>
<clus scale="   90.454">  7  8 -1 -1</clus>
<clus scale="   95.594">  2  9  1 -1</clus>
<clus scale="   95.594">  2  5  1 -1</clus>
</clustering>
</event>
<event>
 9    1  0.7719620E-005  0.1151830E+03  0.7546771E-02  0.1253727E+00
          1   -1    0    0  502    0 -0.00000000000E+00  0.00000000000E+00  0.17528565204E+03  0.17528565204E+03  0.00000000000E+00 0. -1.
         21   -1    0    0  501  502  0.00000000000E+00 -0.00000000000E+00 -0.53926403653E+03  0.53926403653E+03  0.00000000000E+00 0. -1.
         23    2    1    2    0    0  0.40286845334E+02  0.62548462466E+02  0.14556726402E+03  0.18597597374E+03  0.88667324258E+02 0.  0.
        -24    2    1    2    0    0 -0.14221041396E+02 -0.62173790082E+02 -0.29797226354E+03  0.31540039628E+03  0.81376421278E+02 0.  0.
         13    1    4    4    0    0  0.14087422550E+02  0.15358948305E+02 -0.62017715018E+02  0.65425910336E+02  0.00000000000E+00 0. -1.
        -14    1    4    4    0    0 -0.28308463946E+02 -0.77532738387E+02 -0.23595454852E+03  0.24997448594E+03  0.00000000000E+00 0.  1.
        -11    1    3    3    0    0  0.59436205893E+02  0.10796480833E+02  0.71239182426E+02  0.93403681308E+02  0.00000000000E+00 0.  1.
         11    1    3    3    0    0 -0.19149360559E+02  0.51751981634E+02  0.74328081597E+02  0.92572292435E+02  0.00000000000E+00 0. -1.
          2    1    1    2  501    0 -0.26065803938E+02 -0.37467238391E+00 -0.21157338497E+03  0.21317331855E+03  0.00000000000E+00 0. -1.
<scales pt_clust_5="13000.00000" pt_clust_6="13000.00000" pt_clust_7="13000.00000" pt_clust_8="13000.00000" pt_clust_9="26.06850"></scales>
<clustering>
<clus scale="   26.068">  2  9  1 -1</clus>
<clus scale="   81.376">  5  6 -1 -1</clus>
<clus scale="   88.667">  7  8 -1 -1</clus>
<clus scale="  109.669">  2  5  1 -1</clus>
<clus scale="   26.068">  2  5  1 -1</clus>
</clustering>
</event>
<event>
 9    1  0.7719620E-005  0.1206294E+03  0.7546771E-02  0.1244963E+00
          1   -1    0    0  502    0 -0.00000000000E+00  0.00000000000E+00  0.17407069328E+03  0.17407069328E+03  0.00000000000E+00 0. -1.
         21   -1    0    0  501  502  0.00000000000E+00 -0.00000000000E+00 -0.52951014247E+03  0.52951014247E+03  0.00000000000E+00 0.  1.
         23    2    1    2    0    0 -0.72414222999E+02  0.42893658533E+02 -0.27768206127E+02  0.12905530916E+03  0.93811054342E+02 0.  0.
        -24    2    1    2    0    0 -0.31557796743E+01 -0.57582854960E+02 -0.43248447224E+03  0.44447780148E+03  0.84805383924E+02 0.  0.
         11    1    4    4    0    0  0.13338378413E+01 -0.34609428086E+02 -0.47521326233E+02  0.58803640047E+02  0.00000000000E+00 0. -1.
        -12    1    4    4    0    0 -0.44896175156E+01 -0.22973426874E+02 -0.38496314601E+03  0.38567416143E+03  0.00000000000E+00 0.  1.
        -11    1    3    3    0    0 -0.40069635691E+02  0.71716890622E+02 -0.12376766495E+02  0.83078712398E+02  0.00000000000E+00 0.  1.
         11    1    3    3    0    0 -0.32344587308E+02 -0.28823232088E+02 -0.15391439632E+02  0.45976596765E+02  0.00000000000E+00 0. -1.
          2    1    1    2  501    0  0.75570002673E+02  0.14689196427E+02  0.10481322918E+03  0.13004772511E+03  0.00000000000E+00 0. -1.
<scales pt_clust_5="13000.00000" pt_clust_6="13000.00000" pt_clust_7="13000.00000" pt_clust_8="13000.00000" pt_clust_9="76.98444"></scales>
<clustering>
<clus scale="   76.984">  2  9  1 -1</clus>
<clus scale="   84.805">  5  6 -1 -1</clus>
<clus scale="   93.811">  7  8 -1 -1</clus>
<clus scale="  113.767">  2  5  1 -1</clus>
<clus scale="   76.984">  2  5  1 -1</clus>
</clustering>
</event>
<event>
 9    1  0.7719620E-005  0.1594349E+03  0.7546771E-02  0.1193263E+00
         21   -1    0    0  501  502  0.00000000000E+00  0.00000000000E+00  0.15908195883E+03  0.15908195883E+03  0.00000000000E+00 0. -1.
          1   -1    0    0  502    0 -0.00000000000E+00 -0.00000000000E+00 -0.93408329100E+03  0.93408329100E+03  0.00000000000E+00 0. -1.
        -24    2    1    2    0    0 -0.71821945366E+02 -0.99554972505E+02 -0.85479221337E+03  0.86717785254E+03  0.79108251839E+02 0.  0.
         23    2    1    2    0    0  0.98304752596E+02  0.84463610870E+02  0.29580263050E+02  0.16724904142E+03  0.10148558494E+03 0.  0.
         11    1    3    3    0    0 -0.43945822449E+02 -0.71803042675E+02 -0.31825818202E+03  0.32920386187E+03  0.00000000000E+00 0. -1.
        -12    1    3    3    0    0 -0.27876122918E+02 -0.27751929830E+02 -0.53653403135E+03  0.53797399067E+03  0.00000000000E+00 0.  1.
        -13    1    4    4    0    0 -0.11654856771E+02  0.36813192848E+02  0.27473519468E+02  0.47390306245E+02  0.00000000000E+00 0. -1.
         13    1    4    4    0    0  0.10995960937E+03  0.47650418022E+02  0.21067435819E+01  0.11985873518E+03  0.00000000000E+00 0.  1.
          2    1    1    2  501    0 -0.26482807229E+02  0.15091361635E+02  0.50210618147E+02  0.58738355863E+02  0.00000000000E+00 0. -1.
<scales pt_clust_5="13000.00000" pt_clust_6="13000.00000" pt_clust_7="13000.00000" pt_clust_8="13000.00000" pt_clust_9="30.48095"></scales>
<clustering>
<clus scale="   30.481">  1  9  2 -1</clus>
<clus scale="   79.108">  5  6 -1 -1</clus>
<clus scale="  101.486">  7  8 -1 -1</clus>
<clus scale="  146.213">  2  5  1 -1</clus>
<clus scale="   30.481">  1  5  2 -1</clus>
</clustering>
</event>
<event>
 9    1  0.7719620E-005  0.9267738E+02  0.7546771E-02  0.1302788E+00
         21   -1    0    0  501  502  0.00000000000E+00  0.00000000000E+00  0.10559228245E+03  0.10559228245E+03  0.00000000000E+00 0. -1.
          1   -1    0    0  502    0 -0.00000000000E+00 -0.00000000000E+00 -0.24534048981E+03  0.24534048981E+03  0.00000000000E+00 0. -1.
        -24    2    1    2    0    0 -0.72250399076E+01 -0.65758500726E+01 -0.12113654053E+03  0.14585959541E+03  0.80656785936E+02 0.  0.
         23    2    1    2    0    0  0.33913324637E+02 -0.12008436307E+00 -0.87599376216E+02  0.13080067773E+03  0.91022187259E+02 0.  0.
         13    1    3    3    0    0 -0.17453992081E+02 -0.22855302054E+02 -0.63194372011E+01  0.29443878109E+02  0.00000000000E+00 0. -1.
        -14    1    3    3    0    0  0.10228952173E+02  0.16279451982E+02 -0.11481710333E+03  0.11641571730E+03  0.00000000000E+00 0.  1.
        -11    1    4    4    0    0  0.62521137909E+01  0.30152937738E+02  0.34068583108E+01  0.30982176564E+02  0.00000000000E+00 0.  1.
         11    1    4    4    0    0  0.27661210846E+02 -0.30273022101E+02 -0.91006234527E+02  0.99818501168E+02  0.00000000000E+00 0. -1.
          2    1    1    2  501    0 -0.26688284729E+02  0.66959344357E+01  0.68987709381E+02  0.74272499119E+02  0.00000000000E+00 0. -1.
<scales pt_clust_5="13000.00000" pt_clust_6="13000.00000" pt_clust_7="13000.00000" pt_clust_8="13000.00000" pt_clust_9="27.51545"></scales>
<clustering>
<clus scale="   27.515">  1  9  2 -1</clus>
<clus scale="   80.657">  5  6 -1 -1</clus>
<clus scale="   82.520">  2  5  1 -1</clus>
<clus scale="   91.022">  7  8 -1 -1</clus>
<clus scale="   27.515">  1  5  2 -1</clus>
</clustering>
</event>
<event>
 9    1  0.7719620E-005  0.9920160E+02  0.7546771E-02  0.1286282E+00
         21   -1    0    0  501  502  0.00000000000E+00  0.00000000000E+00  0.19501100458E+03  0.19501100458E+03  0.00000000000E+00 0. -1.
          1   -1    0    0  502    0 -0.00000000000E+00 -0.00000000000E+00 -0.23496959107E+03  0.23496959107E+03  0.00000000000E+00 0. -1.
         23    2    1    2    0    0  0.37307542861E+02  0.39378684003E+02 -0.11186557645E+03  0.15394060216E+03  0.90781431422E+02 0.  0.
        -24    2    1    2    0    0 -0.41949084519E+02  0.32828519819E+02 -0.67488220492E+02  0.11898443360E+03  0.82250824484E+02 0.  0.
         13    1    4    4    0    0 -0.21782243876E+02  0.60052709034E+02 -0.40156610431E+02  0.75454273384E+02  0.00000000000E+00 0. -1.
        -14    1    4    4    0    0 -0.20166840643E+02 -0.27224189214E+02 -0.27331610061E+02  0.43530160216E+02  0.00000000000E+00 0.  1.
        -13    1    3    3    0    0 -0.99891219840E+00  0.47580676364E+02 -0.15719672924E+02  0.50120122762E+02  0.00000000000E+00 0.  1.
         13    1    3    3    0    0  0.38306455059E+02 -0.82019923611E+01 -0.96145903525E+02  0.10382047940E+03  0.00000000000E+00 0. -1.
          2    1    1    2  501    0  0.46415416585E+01 -0.72207203822E+02  0.13939521045E+03  0.15705555988E+03  0.00000000000E+00 0. -1.
<scales pt_clust_5="13000.00000" pt_clust_6="13000.00000" pt_clust_7="13000.00000" pt_clust_8="13000.00000" pt_clust_9="72.35623"></scales>
<clustering>
<clus scale="   72.356">  1  9  2 -1</clus>
<clus scale="   82.251">  5  6 -1 -1</clus>
<clus scale="   90.781">  7  8 -1 -1</clus>
<clus scale="   91.460">  1  5  2 -1</clus>
<clus scale="   72.356">  1  5  2 -1</clus>
</clustering>
</event>
<event>
 9    1  0.7719620E-005  0.9071570E+02  0.7546771E-02  0.1305585E+00
         21   -1    0    0  501  502  0.00000000000E+00  0.00000000000E+00  0.57114794264E+03  0.57114794264E+03  0.00000000000E+00 0.  1.
          1   -1    0    0  502    0 -0.00000000000E+00 -0.00000000000E+00 -0.41873916251E+02  0.41873916251E+02  0.00000000000E+00 0. -1.
         23    2    1    2    0    0 -0.77151017694E+01 -0.14818157405E+02  0.25234707695E+02  0.93659045337E+02  0.88634788412E+02 0.  0.
        -24    2    1    2    0    0  0.14988933955E+02  0.37191359092E+02  0.46518651889E+03  0.47394245643E+03  0.81333199377E+02 0.  0.
         11    1    4    4    0    0 -0.14010745244E+02  0.21607972877E+02  0.40581785917E+02  0.48063362579E+02  0.00000000000E+00 0. -1.
        -12    1    4    4    0    0  0.28999679199E+02  0.15583386215E+02  0.42460473297E+03  0.42587909385E+03  0.00000000000E+00 0.  1.
        -11    1    3    3    0    0  0.15447904422E+02  0.31569470494E+02  0.22512920170E+02  0.41738480960E+02  0.00000000000E+00 0.  1.
         11    1    3    3    0    0 -0.23163006191E+02 -0.46387627899E+02  0.27217875258E+01  0.51920564377E+02  0.00000000000E+00 0. -1.
          2    1    1    2  501    0 -0.72738321861E+01 -0.22373201687E+02  0.38852799808E+02  0.45420357125E+02  0.00000000000E+00 0. -1.
<scales pt_clust_5="13000.00000" pt_clust_6="13000.00000" pt_clust_7="13000.00000" pt_clust_8="13000.00000" pt_clust_9="23.52593"></scales>
<clustering>
<clus scale="   23.526">  1  9  2 -1</clus>
<clus scale="   81.333">  5  6 -1 -1</clus>
<clus scale="   83.596">  1  5  2 -1</clus>
<clus scale="   88.635">  7  8 -1 -1</clus>
<clus scale="   23.526">  1  5  2 -1</clus>
</clustering>
</event>
<event>
 9    1  0.7719620E-005  0.1081280E+03  0.7546771E-02  0.1264949E+00
         21   -1    0    0  501  502  0.00000000000E+00  0.00000000000E+00  0.24200823183E+03  0.24200823183E+03  0.00000000000E+00 0. -1.
          1   -1    0    0  502    0 -0.00000000000E+00 -0.00000000000E+00 -0.12382368824E+03  0.12382368824E+03  0.00000000000E+00 0. -1.
         23    2    1    2    0    0 -0.54644047318E+02  0.67961824326E+01  0.60903661543E+02  0.12286996749E+03  0.91409041780E+02 0.  0.
        -24    2    1    2    0    0  0.21744306365E+02  0.94286582035E+02  0.51584665547E+02  0.13650743125E+03  0.81305145327E+02 0.  0.
         13    1    4    4    0    0 -0.18549581350E+02  0.31685881896E+02 -0.11973552109E+02  0.38619270189E+02  0.00000000000E+00 0. -1.
        -14    1    4    4    0    0  0.40293887715E+02  0.62600700139E+02  0.63558217656E+02  0.97888161065E+02  0.00000000000E+00 0.  1.
        -13    1    3    3    0    0  0.14667431025E+02  0.26243588971E+02  0.35525709410E+02  0.46539612418E+02  0.00000000000E+00 0.  1.
         13    1    3    3    0    0 -0.69311478343E+02 -0.19447406538E+02  0.25377952134E+02  0.76330355074E+02  0.00000000000E+00 0. -1.
          2    1    1    2  501    0  0.32899740953E+02 -0.10108276447E+03  0.56962165013E+01  0.10645452132E+03  0.00000000000E+00 0. -1.
<scales pt_clust_5="13000.00000" pt_clust_6="13000.00000" pt_clust_7="13000.00000" pt_clust_8="13000.00000" pt_clust_9="106.30207"></scales>
<clustering>
<clus scale="   81.305">  5  6 -1 -1</clus>
<clus scale="   91.409">  7  8 -1 -1</clus>
<clus scale="  106.302">  1  9  2 -1</clus>
<clus scale="  106.302">  1  5  2 -1</clus>
<clus scale="  106.302">  1  5  2 -1</clus>
</clustering>
</event>
<event>
 9    1  0.7719620E-005  0.1625396E+03  0.7546771E-02  0.1190547E+00
         21   -1    0    0  501  502  0.00000000000E+00  0.00000000000E+00  0.16918843570E+03  0.16918843570E+03  0.00000000000E+00 0. -1.
          1   -1    0    0  502    0 -0.00000000000E+00 -0.00000000000E+00 -0.38269605970E+03  0.38269605970E+03  0.00000000000E+00 0. -1.
         23    2    1    2    0    0  0.70845560532E+02  0.93428777395E+02 -0.14234971419E+03  0.20426937308E+03  0.87832259195E+02 0.  0.
        -24    2    1    2    0    0 -0.15031144510E+03  0.32961441936E+02  0.16499555821E+02  0.17448758081E+03  0.80583455687E+02 0.  0.
         13    1    4    4    0    0 -0.78420806224E+02  0.21779770354E+02  0.48785636322E+02  0.94890566217E+02  0.00000000000E+00 0. -1.
        -14    1    4    4    0    0 -0.71890638875E+02  0.11181671582E+02 -0.32286080501E+02  0.79597014589E+02  0.00000000000E+00 0.  1.
        -11    1    3    3    0    0  0.44896009958E+01  0.58622975704E+02 -0.22558823605E+02  0.62973886015E+02  0.00000000000E+00 0.  1.
         11    1    3    3    0    0  0.66355959536E+02  0.34805801691E+02 -0.11979089058E+03  0.14129548706E+03  0.00000000000E+00 0. -1.
          2    1    1    2  501    0  0.79465884568E+02 -0.12639021933E+03 -0.87657465632E+02  0.17312754152E+03  0.00000000000E+00 0. -1.
<scales pt_clust_5="13000.00000" pt_clust_6="13000.00000" pt_clust_7="13000.00000" pt_clust_8="13000.00000" pt_clust_9="141.15754"></scales>
<clustering>
<clus scale="   80.583">  5  6 -1 -1</clus>
<clus scale="   87.832">  7  8 -1 -1</clus>
<clus scale="  146.501">  2  7  1 -1</clus>
<clus scale="  141.158">  1  9  2 -1</clus>
<clus scale="  141.158">  1  5  2 -1</clus>
</clustering>
</event>
<event>
 9    1  0.7719620E-005  0.1008592E+03  0.7546771E-02  0.1280398E+00
         21   -1    0    0  501  502  0.00000000000E+00  0.00000000000E+00  0.48633874740E+02  0.48633874740E+02  0.00000000000E+00 0. -1.
          3   -1    0    0  502    0 -0.00000000000E+00 -0.00000000000E+00 -0.53469464037E+03  0.53469464037E+03  0.00000000000E+00 0. -1.
         23    2    1    2    0    0  0.24417452248E+02  0.38853758164E+02 -0.34835576020E+03  0.36149849937E+03  0.84991781275E+02 0.  0.
        -24    2    1    2    0    0 -0.70018375742E+02 -0.57003021980E+02 -0.11755398983E+03  0.16877435223E+03  0.80708884216E+02 0.  0.
         11    1    4    4    0    0 -0.82754725427E+02 -0.49624274927E+02 -0.11986108541E+03  0.15387525154E+03  0.00000000000E+00 0. -1.
        -12    1    4    4    0    0  0.12736349685E+02 -0.73787470533E+01  0.23070955804E+01  0.14899100691E+02  0.00000000000E+00 0.  1.
        -13    1    3    3    0    0 -0.31353308226E+02  0.21476496105E+02 -0.12695352646E+03  0.13251968798E+03  0.00000000000E+00 0.  1.
         13    1    3    3    0    0  0.55770760474E+02  0.17377262059E+02 -0.22140223373E+03  0.22897881138E+03  0.00000000000E+00 0. -1.
          4    1    1    2  501    0  0.45600923494E+02  0.18149263816E+02 -0.20151015608E+02  0.53055663511E+02  0.00000000000E+00 0. -1.
<scales pt_clust_5="13000.00000" pt_clust_6="13000.00000" pt_clust_7="13000.00000" pt_clust_8="13000.00000" pt_clust_9="49.07993"></scales>
<clustering>
<clus scale="   49.080">  1  9  2 -1</clus>
<clus scale="   80.709">  5  6 -1 -1</clus>
<clus scale="   84.992">  7  8 -1 -1</clus>
<clus scale="   97.277">  1  5  2 -1</clus>
<clus scale="   49.080">  1  5  2 -1</clus>
</clustering>
</event>
<event>
 9    1  0.7719620E-005  0.1487101E+03  0.7546771E-02  0.1204075E+00
          1   -1    0    0  502    0 -0.00000000000E+00  0.00000000000E+00  0.18491629251E+04  0.18491629251E+04  0.00000000000E+00 0. -1.
         21   -1    0    0  501  502  0.00000000000E+00 -0.00000000000E+00 -0.18091066790E+02  0.18091066790E+02  0.00000000000E+00 0. -1.
         23    2    1    2    0    0  0.50687281780E+02  0.86868496476E+02  0.61149080351E+03  0.62663420342E+03  0.92919782131E+02 0.  0.
        -24    2    1    2    0    0 -0.10887111728E+02 -0.13813029234E+03  0.80461358255E+03  0.82060808829E+03  0.82438525523E+02 0.  0.
         13    1    4    4    0    0 -0.29512316102E+02 -0.13483602635E+03  0.75496061692E+03  0.76747460147E+03  0.00000000000E+00 0. -1.
        -14    1    4    4    0    0  0.18625204374E+02 -0.32942659939E+01  0.49652965629E+02  0.53133486825E+02  0.00000000000E+00 0.  1.
        -13    1    3    3    0    0  0.29693314794E+02  0.10498861181E+03  0.47822697769E+03  0.49051538584E+03  0.00000000000E+00 0. -1.
         13    1    3    3    0    0  0.20993966986E+02 -0.18120115331E+02  0.13326382582E+03  0.13611881758E+03  0.00000000000E+00 0.  1.
          2    1    1    2  501    0 -0.39800170052E+02  0.51261795867E+02  0.41496747227E+03  0.42001170018E+03  0.00000000000E+00 0. -1.
<scales pt_clust_5="13000.00000" pt_clust_6="13000.00000" pt_clust_7="13000.00000" pt_clust_8="13000.00000" pt_clust_9="64.89861"></scales>
<clustering>
<clus scale="   64.899">  2  9  1 -1</clus>
<clus scale="   82.439">  5  6 -1 -1</clus>
<clus scale="   92.920">  7  8 -1 -1</clus>
<clus scale="  142.396">  2  5  1 -1</clus>
<clus scale="   64.899">  2  5  1 -1</clus>
</clustering>
</event>
<event>
 9    1  0.7719620E-005  0.1051499E+03  0.7546771E-02  0.1274049E+00
          1   -1    0    0  502    0 -0.00000000000E+00  0.00000000000E+00  0.52365036941E+03  0.52365036941E+03  0.00000000000E+00 0. -1.
         21   -1    0    0  501  502  0.00000000000E+00 -0.00000000000E+00 -0.56804927006E+02  0.56804927006E+02  0.00000000000E+00 0.  1.
        -24    2    1    2    0    0  0.59328152159E+02  0.12047144132E+02  0.39991903235E+03  0.41221040450E+03  0.79480952524E+02 0.  0.
         23    2    1    2    0    0 -0.33106280500E+02 -0.23141760491E+02  0.88852443410E+02  0.13230844796E+03  0.89326378050E+02 0.  0.
         13    1    3    3    0    0  0.85973557614E+01  0.30450816829E+02  0.58096677878E+02  0.66154295039E+02  0.00000000000E+00 0. -1.
        -14    1    3    3    0    0  0.50730796398E+02 -0.18403672697E+02  0.34182235448E+03  0.34605610946E+03  0.00000000000E+00 0.  1.
        -11    1    4    4    0    0 -0.45226546958E+02 -0.39347893536E+02  0.24346878604E+02  0.64702919357E+02  0.00000000000E+00 0.  1.
         11    1    4    4    0    0  0.12120266458E+02  0.16206133046E+02  0.64505564806E+02  0.67605528607E+02  0.00000000000E+00 0. -1.
          2    1    1    2  501    0 -0.26221871659E+02  0.11094616359E+02 -0.21926033360E+02  0.35936443958E+02  0.00000000000E+00 0. -1.
<scales pt_clust_5="13000.00000" pt_clust_6="13000.00000" pt_clust_7="13000.00000" pt_clust_8="13000.00000" pt_clust_9="28.47239"></scales>
<clustering>
<clus scale="   28.472">  2  9  1 -1</clus>
<clus scale="   79.481">  5  6 -1 -1</clus>
<clus scale="   89.326">  7  8 -1 -1</clus>
<clus scale="   96.925">  1  5  2 -1</clus>
<clus scale="   28.472">  2  5  1 -1</clus>
</clustering>
</event>
<event>
 9    1  0.7719620E-005  0.1235064E+03  0.7546771E-02  0.1261463E+00
         21   -1    0    0  501  502  0.00000000000E+00  0.00000000000E+00  0.70118040820E+03  0.70118040820E+03  0.00000000000E+00 0.  1.
         -2   -1    0    0    0  501 -0.00000000000E+00 -0.00000000000E+00 -0.60606545804E+02  0.60606545804E+02  0.00000000000E+00 0.  1.
        -24    2    1    2    0    0  0.19854598243E+02  0.20426721240E+02 -0.11234341018E+02  0.77185997026E+02  0.70852040950E+02 0.  0.
         23    2    1    2    0    0  0.70128655619E+02 -0.26998522159E+02  0.33225794032E+03  0.35255797002E+03  0.90856121333E+02 0.  0.
         11    1    3    3    0    0  0.38401334576E+02  0.34813653409E+02 -0.13619756187E+02  0.53592450210E+02  0.00000000000E+00 0. -1.
        -12    1    3    3    0    0 -0.18546736333E+02 -0.14386932169E+02  0.23854151690E+01  0.23593546816E+02  0.00000000000E+00 0.  1.
        -13    1    4    4    0    0  0.86690082960E+02 -0.41262392510E+02  0.27411857354E+03  0.29044577442E+03  0.00000000000E+00 0.  1.
         13    1    4    4    0    0 -0.16561427341E+02  0.14263870352E+02  0.58139366776E+02  0.62112195598E+02  0.00000000000E+00 0. -1.
         -1    1    1    2    0  502 -0.89983253862E+02  0.65718009183E+01  0.31955026310E+03  0.33204298696E+03  0.00000000000E+00 0.  1.
<scales pt_clust_5="13000.00000" pt_clust_6="13000.00000" pt_clust_7="13000.00000" pt_clust_8="13000.00000" pt_clust_9="83.65997"></scales>
<clustering>
<clus scale="   70.852">  5  6 -1 -1</clus>
<clus scale="   76.364">  2  5  1 -1</clus>
<clus scale="   83.660">  1  9  2 -1</clus>
<clus scale="   90.856">  7  8 -1 -1</clus>
<clus scale="   83.660">  1  5  2 -1</clus>
</clustering>
</event>
<event>
 9    1  0.7719620E-005  0.1130786E+03  0.7546771E-02  0.1258932E+00
         21   -1    0    0  501  502  0.00000000000E+00  0.00000000000E+00  0.81470644475E+02  0.81470644475E+02  0.00000000000E+00 0. -1.
          1   -1    0    0  502    0 -0.00000000000E+00 -0.00000000000E+00 -0.39869388545E+03  0.39869388545E+03  0.00000000000E+00 0. -1.
        -24    2    1    2    0    0 -0.22487975809E+02 -0.46837264953E+02 -0.12682273270E+03  0.15877728240E+03  0.80167209209E+02 0.  0.
         23    2    1    2    0    0  0.17511315477E+01  0.12542498457E+03 -0.56870685794E+02  0.16506623206E+03  0.90984025240E+02 0.  0.
         13    1    3    3    0    0  0.27157631996E+02 -0.76403809486E+01 -0.62456392468E+02  0.68532571503E+02  0.00000000000E+00 0. -1.
        -14    1    3    3    0    0 -0.49645607805E+02 -0.39196884005E+02 -0.64366340234E+02  0.90244710899E+02  0.00000000000E+00 0.  1.
        -11    1    4    4    0    0  0.32970265556E+02  0.86557226756E+01 -0.12177018886E+02  0.36197233801E+02  0.00000000000E+00 0.  1.
         11    1    4    4    0    0 -0.31219134009E+02  0.11676926189E+03 -0.44693666908E+02  0.12886899826E+03  0.00000000000E+00 0. -1.
          2    1    1    2  501    0  0.20736844262E+02 -0.78587719614E+02 -0.13352982248E+03  0.15632101546E+03  0.00000000000E+00 0. -1.
<scales pt_clust_5="13000.00000" pt_clust_6="13000.00000" pt_clust_7="13000.00000" pt_clust_8="13000.00000" pt_clust_9="81.27763"></scales>
<clustering>
<clus scale="   80.167">  5  6 -1 -1</clus>
<clus scale="   81.278">  1  9  2 -1</clus>
<clus scale="   90.984">  7  8 -1 -1</clus>
<clus scale="  104.573">  2  5  1 -1</clus>
<clus scale="   81.278">  1  5  2 -1</clus>
</clustering>
</event>
<event>
 9    1  0.7719620E-005  0.1006728E+03  0.7546771E-02  0.1286931E+00
         21   -1    0    0  501  502  0.00000000000E+00  0.00000000000E+00  0.11342617838E+03  0.11342617838E+03  0.00000000000E+00 0. -1.
          1   -1    0    0  502    0 -0.00000000000E+00 -0.00000000000E+00 -0.14331919442E+03  0.14331919442E+03  0.00000000000E+00 0. -1.
        -24    2    1    2    0    0 -0.25422681035E+02  0.14518657432E+02 -0.51920955498E+02  0.97935837091E+02  0.77708033319E+02 0.  0.
         23    2    1    2    0    0  0.49690113775E+02 -0.23260252597E+02 -0.19463988198E+02  0.10995358583E+03  0.93278065178E+02 0.  0.
         11    1    3    3    0    0 -0.26314251383E+02  0.42749430555E+02 -0.47937434515E+02  0.69411463509E+02  0.00000000000E+00 0. -1.
        -12    1    3    3    0    0  0.89157034792E+00 -0.28230773123E+02 -0.39835209821E+01  0.28524373581E+02  0.00000000000E+00 0.  1.
        -13    1    4    4    0    0 -0.12753560649E+01  0.27940499600E+02 -0.24980055429E+02  0.37500682930E+02  0.00000000000E+00 0. -1.
         13    1    4    4    0    0  0.50965469840E+02 -0.51200752197E+02  0.55160672308E+01  0.72452902905E+02  0.00000000000E+00 0.  1.
          2    1    1    2  501    0 -0.24267432741E+02  0.87415951651E+01  0.41491927659E+02  0.48855949880E+02  0.00000000000E+00 0. -1.
<scales pt_clust_5="13000.00000" pt_clust_6="13000.00000" pt_clust_7="13000.00000" pt_clust_8="13000.00000" pt_clust_9="25.79387"></scales>
<clustering>
<clus scale="   25.794">  1  9  2 -1</clus>
<clus scale="   77.708">  5  6 -1 -1</clus>
<clus scale="   86.445">  2  5  1 -1</clus>
<clus scale="   93.278">  7  8 -1 -1</clus>
<clus scale="   25.794">  1  5  2 -1</clus>
</clustering>
</event>
<event>
 9    1  0.7719620E-005  0.1057875E+03  0.7546771E-02  0.1281537E+00
          1   -1    0    0  502    0 -0.00000000000E+00  0.00000000000E+00  0.58860635272E+02  0.58860635272E+02  0.00000000000E+00 0. -1.
         21   -1    0    0  501  502  0.00000000000E+00 -0.00000000000E+00 -0.23496252890E+03  0.23496252890E+03  0.00000000000E+00 0.  1.
         23    2    1    2    0    0 -0.55945296715E+01 -0.20267644150E+02 -0.42804598818E+02  0.11337477244E+03  0.10285683829E+03 0.  0.
        -24    2    1    2    0    0 -0.19352965201E+02  0.28024317931E+02 -0.65870294026E+02  0.10813695472E+03  0.78707087884E+02 0.  0.
         11    1    4    4    0    0  0.21601586376E+02  0.66638011662E+01  0.53677539772E+01  0.23234619918E+02  0.00000000000E+00 0. -1.
        -12    1    4    4    0    0 -0.40954551577E+02  0.21360516765E+02 -0.71238048003E+02  0.84902334801E+02  0.00000000000E+00 0.  1.
        -13    1    3    3    0    0  0.44982983442E+02 -0.11930167521E+02  0.85117884966E-01  0.46538209479E+02  0.00000000000E+00 0. -1.
         13    1    3    3    0    0 -0.50577513114E+02 -0.83374766292E+01 -0.42889716703E+02  0.66836562959E+02  0.00000000000E+00 0.  1.
          2    1    1    2  501    0  0.24947494872E+02 -0.77566737803E+01 -0.67427000789E+02  0.72311437020E+02  0.00000000000E+00 0. -1.
<scales pt_clust_5="13000.00000" pt_clust_6="13000.00000" pt_clust_7="13000.00000" pt_clust_8="13000.00000" pt_clust_9="26.12553"></scales>
<clustering>
<clus scale="   26.126">  2  9  1 -1</clus>
<clus scale="   78.707">  5  6 -1 -1</clus>
<clus scale="   82.500">  2  5  1 -1</clus>
<clus scale="  102.857">  7  8 -1 -1</clus>
<clus scale="   26.126">  2  5  1 -1</clus>
</clustering>
</event>
<event>
 9    1  0.7719620E-005  0.1038571E+03  0.7546771E-02  0.1279836E+00
          1   -1    0    0  502    0 -0.00000000000E+00  0.00000000000E+00  0.41646351148E+03  0.41646351148E+03  0.00000000000E+00 0. -1.
         21   -1    0    0  501  502  0.00000000000E+00 -0.00000000000E+00 -0.10370622447E+03  0.10370622447E+03  0.00000000000E+00 0.  1.
         23    2    1    2    0    0  0.28119573768E+02 -0.37990976002E+02  0.36854811794E+03  0.38296797984E+03  0.92750922721E+02 0.  0.
        -24    2    1    2    0    0 -0.17102762921E+01  0.50112135329E+02 -0.25755678698E+02  0.95410801746E+02  0.76978665566E+02 0.  0.
         13    1    4    4    0    0 -0.93358891847E+01  0.37216846425E+02  0.22775204182E+02  0.44620201818E+02  0.00000000000E+00 0. -1.
        -14    1    4    4    0    0  0.76256128927E+01  0.12895288904E+02 -0.48530882880E+02  0.50790599928E+02  0.00000000000E+00 0.  1.
        -11    1    3    3    0    0  0.14400405692E+02  0.22481435264E+02  0.36743615801E+02  0.45418937876E+02  0.00000000000E+00 0.  1.
         11    1    3    3    0    0  0.13719168076E+02 -0.60472411266E+02  0.33180450213E+03  0.33754904197E+03  0.00000000000E+00 0. -1.
          2    1    1    2  501    0 -0.26409297476E+02 -0.12121159327E+02 -0.30035152233E+02  0.41790954359E+02  0.00000000000E+00 0. -1.
<scales pt_clust_5="13000.00000" pt_clust_6="13000.00000" pt_clust_7="13000.00000" pt_clust_8="13000.00000" pt_clust_9="29.05811"></scales>
<clustering>
<clus scale="   29.058">  2  9  1 -1</clus>
<clus scale="   76.979">  5  6 -1 -1</clus>
<clus scale="   90.052">  2  5  1 -1</clus>
<clus scale="   92.751">  7  8 -1 -1</clus>
<clus scale="   29.058">  2  5  1 -1</clus>
</clustering>
</event>
<event>
 9    1  0.7719620E-005  0.2121178E+03  0.7546771E-02  0.1140969E+00
         21   -1    0    0  501  502  0.00000000000E+00  0.00000000000E+00  0.98719635425E+02  0.98719635425E+02  0.00000000000E+00 0.  1.
          1   -1    0    0  502    0 -0.00000000000E+00 -0.00000000000E+00 -0.70181899192E+03  0.70181899192E+03  0.00000000000E+00 0. -1.
        -24    2    1    2    0    0  0.98928770181E+02  0.16828535760E+03 -0.35801003310E+03  0.41528162609E+03  0.78617949690E+02 0.  0.
         23    2    1    2    0    0 -0.13368068111E+03 -0.13417082698E+03 -0.25980699074E+03  0.33438356767E+03  0.91871445929E+02 0.  0.
         13    1    3    3    0    0  0.45985707537E+02  0.10622480330E+03 -0.27747312860E+03  0.30064885037E+03  0.00000000000E+00 0. -1.
        -14    1    3    3    0    0  0.52943062644E+02  0.62060554304E+02 -0.80536904502E+02  0.11463277572E+03  0.00000000000E+00 0.  1.
        -11    1    4    4    0    0 -0.84564924663E+02 -0.54122045536E+02 -0.69331541365E+02  0.12201346206E+03  0.00000000000E+00 0.  1.
         11    1    4    4    0    0 -0.49115756447E+02 -0.80048781441E+02 -0.19047544938E+03  0.21237010561E+03  0.00000000000E+00 0. -1.
          2    1    1    2  501    0  0.34751910929E+02 -0.34114530623E+02  0.14717667346E+02  0.50873433587E+02  0.00000000000E+00 0. -1.
<scales pt_clust_5="13000.00000" pt_clust_6="13000.00000" pt_clust_7="13000.00000" pt_clust_8="13000.00000" pt_clust_9="48.69801"></scales>
<clustering>
<clus scale="   48.698">  1  9  2 -1</clus>
<clus scale="   78.618">  5  6 -1 -1</clus>
<clus scale="   91.871">  7  8 -1 -1</clus>
<clus scale="  206.723">  2  5  1 -1</clus>
<clus scale="   48.698">  1  5  2 -1</clus>
</clustering>
</event>
<event>
 9    1  0.7719620E-005  0.1103796E+03  0.7546771E-02  0.1262140E+00
         21   -1    0    0  501  502  0.00000000000E+00  0.00000000000E+00  0.13245753703E+03  0.13245753703E+03  0.00000000000E+00 0. -1.
         -2   -1    0    0    0  501 -0.00000000000E+00 -0.00000000000E+00 -0.43935968633E+03  0.43935968633E+03  0.00000000000E+00 0.  1.
        -24    2    1    2    0    0  0.32427692264E+02 -0.61666163096E+02 -0.35259386643E+03  0.36858855307E+03  0.81736258264E+02 0.  0.
         23    2    1    2    0    0 -0.79710257041E+02  0.36188948826E+01  0.68489186774E+01  0.11888479518E+03  0.87862764349E+02 0.  0.
         11    1    3    3    0    0  0.10306636472E+02  0.19663043966E+02 -0.55648129098E+02  0.59913073077E+02  0.00000000000E+00 0. -1.
        -12    1    3    3    0    0  0.22121055792E+02 -0.81329207062E+02 -0.29694573733E+03  0.30867547999E+03  0.00000000000E+00 0.  1.
        -11    1    4    4    0    0 -0.43457657786E+02 -0.12290410046E+02 -0.38028449274E+02  0.59040538222E+02  0.00000000000E+00 0.  1.
         11    1    4    4    0    0 -0.36252599255E+02  0.15909304929E+02  0.44877367951E+02  0.59844256953E+02  0.00000000000E+00 0. -1.
         -1    1    1    2    0  502  0.47282564777E+02  0.58047268214E+02  0.38842798446E+02  0.84343875119E+02  0.00000000000E+00 0.  1.
<scales pt_clust_5="13000.00000" pt_clust_6="13000.00000" pt_clust_7="13000.00000" pt_clust_8="13000.00000" pt_clust_9="74.86739"></scales>
<clustering>
<clus scale="   74.867">  1  9  2 -1</clus>
<clus scale="   81.736">  5  6 -1 -1</clus>
<clus scale="   87.863">  7  8 -1 -1</clus>
<clus scale="  105.568">  2  5  1 -1</clus>
<clus scale="   74.867">  1  5  2 -1</clus>
</clustering>
</event>
<event>
 9    1  0.7719620E-005  0.1630120E+03  0.7546771E-02  0.1196770E+00
          1   -1    0    0  502    0 -0.00000000000E+00  0.00000000000E+00  0.16419143611E+04  0.16419143611E+04  0.00000000000E+00 0. -1.
         21   -1    0    0  501  502  0.00000000000E+00 -0.00000000000E+00 -0.30902145193E+02  0.30902145193E+02  0.00000000000E+00 0. -1.
        -24    2    1    2    0    0 -0.92385933959E+01 -0.64988484333E+02  0.25785172668E+03  0.28729126220E+03  0.10835082684E+03 0.  0.
         23    2    1    2    0    0  0.13056621610E+03  0.18056649464E+02  0.80595333497E+03  0.82306754896E+03  0.10249796400E+03 0.  0.
         13    1    3    3    0    0  0.47037613031E+02 -0.24035945894E+02  0.75809785338E+02  0.92397983136E+02  0.00000000000E+00 0. -1.
        -14    1    3    3    0    0 -0.56276206427E+02 -0.40952538439E+02  0.18204194135E+03  0.19489327906E+03  0.00000000000E+00 0.  1.
        -13    1    4    4    0    0  0.96559807463E+02 -0.35420624781E+02  0.46007315080E+03  0.47142944452E+03  0.00000000000E+00 0.  1.
         13    1    4    4    0    0  0.34006408634E+02  0.53477274245E+02  0.34588018417E+03  0.35163810444E+03  0.00000000000E+00 0. -1.
          2    1    1    2  501    0 -0.12132762270E+03  0.46931834868E+02  0.54720715430E+03  0.56245769518E+03  0.00000000000E+00 0. -1.
<scales pt_clust_5="13000.00000" pt_clust_6="13000.00000" pt_clust_7="13000.00000" pt_clust_8="13000.00000" pt_clust_9="126.75601"></scales>
<clustering>
<clus scale="  102.498">  7  8 -1 -1</clus>
<clus scale="  108.351">  5  6 -1 -1</clus>
<clus scale="  126.684">  1  5  2 -1</clus>
<clus scale="  126.756">  2  9  1 -1</clus>
<clus scale="  126.756">  2  5  1 -1</clus>
</clustering>
</event>
<event>
 9    1  0.7719620E-005  0.3628947E+03  0.7546771E-02  0.1076627E+00
          1   -1    0    0  502    0 -0.00000000000E+00  0.00000000000E+00  0.29198122121E+03  0.29198122121E+03  0.00000000000E+00 0. -1.
         21   -1    0    0  501  502  0.00000000000E+00 -0.00000000000E+00 -0.10440156810E+04  0.10440156810E+04  0.00000000000E+00 0. -1.
         23    2    1    2    0    0  0.34565370506E+02 -0.18756694806E+03  0.74401426319E+02  0.22625108742E+03  0.96321635573E+02 0.  0.
        -24    2    1    2    0    0  0.10740342011E+03 -0.23370978730E+03 -0.18044384273E+03  0.32556793613E+03  0.85315539769E+02 0.  0.
         11    1    4    4    0    0  0.53278538431E+02 -0.15288568074E+03 -0.15696631421E+03  0.22550179119E+03  0.00000000000E+00 0. -1.
        -12    1    4    4    0    0  0.54124881676E+02 -0.80824106560E+02 -0.23477528517E+02  0.10006614494E+03  0.00000000000E+00 0.  1.
        -11    1    3    3    0    0 -0.26168670464E+02 -0.63443913480E+02 -0.13951726518E+01  0.68643105832E+02  0.00000000000E+00 0.  1.
         11    1    3    3    0    0  0.60734040970E+02 -0.12412303458E+03  0.75796598971E+02  0.15760798159E+03  0.00000000000E+00 0. -1.
          2    1    1    2  501    0 -0.14196879061E+03  0.42127673536E+03 -0.64599204335E+03  0.78417787863E+03  0.00000000000E+00 0. -1.
<scales pt_clust_5="13000.00000" pt_clust_6="13000.00000" pt_clust_7="13000.00000" pt_clust_8="13000.00000" pt_clust_9="352.72341"></scales>
<clustering>
<clus scale="   85.316">  5  6 -1 -1</clus>
<clus scale="   96.322">  7  8 -1 -1</clus>
<clus scale="  213.668">  1  7  2 -1</clus>
<clus scale="  352.723">  2  9  1 -1</clus>
<clus scale="  352.723">  2  5  1 -1</clus>
</clustering>
</event>
<event>
 9    1  0.7719620E-005  0.9989479E+02  0.7546771E-02  0.1286286E+00
         21   -1    0    0  501  502  0.00000000000E+00  0.00000000000E+00  0.74443918200E+02  0.74443918200E+02  0.00000000000E+00 0.  1.
          1   -1    0    0  502    0 -0.00000000000E+00 -0.00000000000E+00 -0.18702756650E+03  0.18702756650E+03  0.00000000000E+00 0. -1.
         23    2    1    2    0    0  0.16782990993E+02  0.39301899066E+02 -0.10583829789E+03  0.14609974962E+03  0.91198045379E+02 0.  0.
        -24    2    1    2    0    0 -0.31709370993E+02 -0.24084036766E+02  0.79375140988E+01  0.89488020839E+02  0.79746954223E+02 0.  0.
         11    1    4    4    0    0 -0.23247858996E+02  0.22291344750E+02 -0.16718169046E+02  0.36288623216E+02  0.00000000000E+00 0. -1.
        -12    1    4    4    0    0 -0.84615119971E+01 -0.46375381516E+02  0.24655683145E+02  0.53199397622E+02  0.00000000000E+00 0.  1.
        -13    1    3    3    0    0 -0.21693450111E+02  0.46027222385E+01  0.58877578747E+01  0.22944640387E+02  0.00000000000E+00 0.  1.
         13    1    3    3    0    0  0.38476441104E+02  0.34699176828E+02 -0.11172605577E+03  0.12315510923E+03  0.00000000000E+00 0. -1.
          2    1    1    2  501    0  0.14926380000E+02 -0.15217862300E+02 -0.14682864507E+02  0.25883714243E+02  0.00000000000E+00 0. -1.
<scales pt_clust_5="13000.00000" pt_clust_6="13000.00000" pt_clust_7="13000.00000" pt_clust_8="13000.00000" pt_clust_9="21.31621"></scales>
<clustering>
<clus scale="   21.316">  1  9  2 -1</clus>
<clus scale="   79.747">  5  6 -1 -1</clus>
<clus scale="   89.563">  1  5  2 -1</clus>
<clus scale="   91.198">  7  8 -1 -1</clus>
<clus scale="   21.316">  1  5  2 -1</clus>
</clustering>
</event>
<event>
 9    1  0.7719620E-005  0.1474690E+03  0.7546771E-02  0.1205888E+00
         21   -1    0    0  501  502  0.00000000000E+00  0.00000000000E+00  0.30893380192E+03  0.30893380192E+03  0.00000000000E+00 0. -1.
          3   -1    0    0  502    0 -0.00000000000E+00 -0.00000000000E+00 -0.15290602799E+03  0.15290602799E+03  0.00000000000E+00 0. -1.
         23    2    1    2    0    0 -0.10779270389E+03 -0.79189296808E+02 -0.46562346457E+02  0.16891880168E+03  0.92061380139E+02 0.  0.
        -24    2    1    2    0    0  0.54326344597E+02  0.18650541493E+02  0.18583091048E+03  0.21043185568E+03  0.80307186356E+02 0.  0.
         11    1    4    4    0    0  0.47079765612E+02  0.22845897770E+02  0.19265140930E+03  0.19963217396E+03  0.00000000000E+00 0. -1.
        -12    1    4    4    0    0  0.72465789846E+01 -0.41953562771E+01 -0.68204988152E+01  0.10799681725E+02  0.00000000000E+00 0.  1.
        -11    1    3    3    0    0 -0.18171868889E+02  0.19893290983E+02 -0.17694777661E+02  0.32234531197E+02  0.00000000000E+00 0.  1.
         11    1    3    3    0    0 -0.89620835002E+02 -0.99082587791E+02 -0.28867568797E+02  0.13668427049E+03  0.00000000000E+00 0. -1.
          4    1    1    2  501    0  0.53466359294E+02  0.60538755315E+02  0.16759209903E+02  0.82489172549E+02  0.00000000000E+00 0. -1.
<scales pt_clust_5="13000.00000" pt_clust_6="13000.00000" pt_clust_7="13000.00000" pt_clust_8="13000.00000" pt_clust_9="80.76880"></scales>
<clustering>
<clus scale="   80.307">  5  6 -1 -1</clus>
<clus scale="   80.769">  1  9  2 -1</clus>
<clus scale="   92.061">  7  8 -1 -1</clus>
<clus scale="  140.432">  1  5  2 -1</clus>
<clus scale="   80.769">  1  5  2 -1</clus>
</clustering>
</event>
<event>
 9    1  0.7719620E-005  0.4432984E+03  0.7546771E-02  0.1030028E+00
         21   -1    0    0  501  502  0.00000000000E+00  0.00000000000E+00  0.29090334875E+03  0.29090334875E+03  0.00000000000E+00 0. -1.
          1   -1    0    0  502    0 -0.00000000000E+00 -0.00000000000E+00 -0.78654129793E+03  0.78654129793E+03  0.00000000000E+00 0. -1.
         23    2    1    2    0    0 -0.31498428622E+03 -0.29538540833E+03 -0.36498761845E+03  0.57394057255E+03  0.98611252776E+02 0.  0.
        -24    2    1    2    0    0  0.33339066047E+03  0.27683669029E+03 -0.81905280131E+02  0.44819648413E+03  0.79898234640E+02 0.  0.
         13    1    4    4    0    0  0.18003600287E+03  0.19647791197E+03 -0.34669148223E+02  0.26873496621E+03  0.00000000000E+00 0. -1.
        -14    1    4    4    0    0  0.15335465760E+03  0.80358778313E+02 -0.47236131908E+02  0.17946151793E+03  0.00000000000E+00 0.  1.
        -13    1    3    3    0    0 -0.23654707013E+03 -0.25197545608E+03 -0.32954092845E+03  0.47753886792E+03  0.00000000000E+00 0. -1.
         13    1    3    3    0    0 -0.78437216097E+02 -0.43409952254E+02 -0.35446690004E+02  0.96401704633E+02  0.00000000000E+00 0.  1.
          2    1    1    2  501    0 -0.18406374247E+02  0.18548718044E+02 -0.48745050599E+02  0.55307590002E+02  0.00000000000E+00 0. -1.
<scales pt_clust_5="13000.00000" pt_clust_6="13000.00000" pt_clust_7="13000.00000" pt_clust_8="13000.00000" pt_clust_9="26.13140"></scales>
<clustering>
<clus scale="   26.131">  1  9  2 -1</clus>
<clus scale="   79.898">  5  6 -1 -1</clus>
<clus scale="   98.611">  7  8 -1 -1</clus>
<clus scale="  439.514">  1  5  2 -1</clus>
<clus scale="   26.131">  1  5  2 -1</clus>
</clustering>
</event>
<event>
 9    1  0.7719620E-005  0.8505636E+02  0.7546771E-02  0.1316463E+00
          1   -1    0    0  502    0 -0.00000000000E+00  0.00000000000E+00  0.14293527500E+03  0.14293527500E+03  0.00000000000E+00 0. -1.
         21   -1    0    0  501  502  0.00000000000E+00 -0.00000000000E+00 -0.14210329114E+03  0.14210329114E+03  0.00000000000E+00 0.  1.
        -24    2    1    2    0    0  0.26979768229E+02 -0.15736203140E+01  0.10081556326E+03  0.13103642051E+03  0.79223617259E+02 0.  0.
         23    2    1    2    0    0 -0.14025896820E+02  0.27831981105E+02 -0.65740098559E+02  0.10894750906E+03  0.81095340295E+02 0.  0.
         11    1    3    3    0    0  0.30931363169E+02 -0.29081841416E+02  0.92898241305E+02  0.10214003116E+03  0.00000000000E+00 0. -1.
        -12    1    3    3    0    0 -0.39515949400E+01  0.27508221102E+02  0.79173219504E+01  0.28896389353E+02  0.00000000000E+00 0.  1.
        -11    1    4    4    0    0  0.33204927281E+02  0.20226586880E+02 -0.32757892185E+02  0.50840549889E+02  0.00000000000E+00 0. -1.
         11    1    4    4    0    0 -0.47230824101E+02  0.76053942250E+01 -0.32982206374E+02  0.58106959169E+02  0.00000000000E+00 0.  1.
          2    1    1    2  501    0 -0.12953871409E+02 -0.26258360791E+02 -0.34243480843E+02  0.45054636567E+02  0.00000000000E+00 0. -1.
<scales pt_clust_5="13000.00000" pt_clust_6="13000.00000" pt_clust_7="13000.00000" pt_clust_8="13000.00000" pt_clust_9="29.27976"></scales>
<clustering>
<clus scale="   29.280">  2  9  1 -1</clus>
<clus scale="   79.224">  5  6 -1 -1</clus>
<clus scale="   81.095">  7  8 -1 -1</clus>
<clus scale="   83.274">  1  5  2 -1</clus>
<clus scale="   29.280">  2  5  1 -1</clus>
</clustering>
</event>
<event>
 9    1  0.7719620E-005  0.1193572E+03  0.7546771E-02  0.1248336E+00
         21   -1    0    0  501  502  0.00000000000E+00  0.00000000000E+00  0.63853095036E+02  0.63853095036E+02  0.00000000000E+00 0.  1.
          1   -1    0    0  502    0 -0.00000000000E+00 -0.00000000000E+00 -0.58260611919E+03  0.58260611919E+03  0.00000000000E+00 0. -1.
         23    2    1    2    0    0 -0.70444762949E+02 -0.41811480802E+01 -0.42784242483E+03  0.44326848395E+03  0.91966633923E+02 0.  0.
        -24    2    1    2    0    0  0.94822257253E+02  0.23366276539E+02 -0.10978964057E+03  0.16687613843E+03  0.79098906760E+02 0.  0.
         13    1    4    4    0    0  0.15545931448E+02  0.25143306978E+02 -0.74368375496E+02  0.80028227172E+02  0.00000000000E+00 0. -1.
        -14    1    4    4    0    0  0.79276325805E+02 -0.17770304395E+01 -0.35421265075E+02  0.86847911258E+02  0.00000000000E+00 0.  1.
        -13    1    3    3    0    0 -0.63640657067E+02 -0.39108150378E+02 -0.34688128108E+03  0.35483264199E+03  0.00000000000E+00 0. -1.
         13    1    3    3    0    0 -0.68041058820E+01  0.34927002297E+02 -0.80961143748E+02  0.88435841961E+02  0.00000000000E+00 0.  1.
          2    1    1    2  501    0 -0.24377494304E+02 -0.19185128458E+02  0.18879041246E+02  0.36314591845E+02  0.00000000000E+00 0. -1.
<scales pt_clust_5="13000.00000" pt_clust_6="13000.00000" pt_clust_7="13000.00000" pt_clust_8="13000.00000" pt_clust_9="31.02147"></scales>
<clustering>
<clus scale="   31.021">  1  9  2 -1</clus>
<clus scale="   79.099">  5  6 -1 -1</clus>
<clus scale="   91.967">  7  8 -1 -1</clus>
<clus scale="  109.749">  1  5  2 -1</clus>
<clus scale="   31.021">  1  5  2 -1</clus>
</clustering>
</event>
<event>
 9    1  0.7719620E-005  0.9332038E+02  0.7546771E-02  0.1296678E+00
          1   -1    0    0  502    0 -0.00000000000E+00  0.00000000000E+00  0.35040670954E+02  0.35040670954E+02  0.00000000000E+00 0. -1.
         21   -1    0    0  501  502  0.00000000000E+00 -0.00000000000E+00 -0.51870304674E+03  0.51870304674E+03  0.00000000000E+00 0.  1.
         23    2    1    2    0    0  0.26505667405E+02 -0.17972300502E+01 -0.62142826878E+02  0.11355311354E+03  0.91251291612E+02 0.  0.
        -24    2    1    2    0    0  0.81399833699E+00 -0.13666895993E+02 -0.24270660589E+03  0.25864289164E+03  0.88330075361E+02 0.  0.
         13    1    4    4    0    0  0.26878829046E+02  0.14719601837E+02 -0.31494017797E+02  0.43943273503E+02  0.00000000000E+00 0. -1.
        -14    1    4    4    0    0 -0.26064830709E+02 -0.28386497830E+02 -0.21121258809E+03  0.21469961814E+03  0.00000000000E+00 0.  1.
        -11    1    3    3    0    0  0.49132682192E+02 -0.22378476587E+02 -0.12778495311E+02  0.55480686875E+02  0.00000000000E+00 0.  1.
         11    1    3    3    0    0 -0.22627014787E+02  0.20581246536E+02 -0.49364331567E+02  0.58072426660E+02  0.00000000000E+00 0. -1.
          2    1    1    2  501    0 -0.27319665742E+02  0.15464126043E+02 -0.17881294302E+03  0.18154771252E+03  0.00000000000E+00 0. -1.
<scales pt_clust_5="13000.00000" pt_clust_6="13000.00000" pt_clust_7="13000.00000" pt_clust_8="13000.00000" pt_clust_9="31.39273"></scales>
<clustering>
<clus scale="   31.393">  2  9  1 -1</clus>
<clus scale="   88.330">  5  6 -1 -1</clus>
<clus scale="   90.466">  2  5  1 -1</clus>
<clus scale="   91.251">  7  8 -1 -1</clus>
<clus scale="   31.393">  2  5  1 -1</clus>
</clustering>
</event>
<event>
 9    1  0.7719620E-005  0.1026375E+03  0.7546771E-02  0.1279532E+00
         21   -1    0    0  501  502  0.00000000000E+00  0.00000000000E+00  0.30660148802E+02  0.30660148802E+02  0.00000000000E+00 0.  1.
          3   -1    0    0  502    0 -0.00000000000E+00 -0.00000000000E+00 -0.61895062998E+03  0.61895062998E+03  0.00000000000E+00 0. -1.
         23    2    1    2    0    0  0.66469282503E+02  0.93103469769E+01 -0.35120338779E+03  0.36865311227E+03  0.89757726744E+02 0.  0.
        -24    2    1    2    0    0 -0.19523357740E+02  0.27187913463E+02 -0.10370167668E+03  0.13491756155E+03  0.79551031002E+02 0.  0.
         13    1    4    4    0    0 -0.39294162391E+02  0.82069187424E+01 -0.99367765187E+02  0.10716966675E+03  0.00000000000E+00 0. -1.
        -14    1    4    4    0    0  0.19770804651E+02  0.18980994721E+02 -0.43339114917E+01  0.27747894802E+02  0.00000000000E+00 0.  1.
        -13    1    3    3    0    0 -0.82346164839E+01  0.22719533509E+02 -0.29583214392E+02  0.38198857120E+02  0.00000000000E+00 0.  1.
         13    1    3    3    0    0  0.74703898987E+02 -0.13409186532E+02 -0.32162017340E+03  0.33045425515E+03  0.00000000000E+00 0. -1.
          4    1    1    2  501    0 -0.46945924763E+02 -0.36498260440E+02 -0.13338541670E+03  0.14604010496E+03  0.00000000000E+00 0. -1.
<scales pt_clust_5="13000.00000" pt_clust_6="13000.00000" pt_clust_7="13000.00000" pt_clust_8="13000.00000" pt_clust_9="59.46467"></scales>
<clustering>
<clus scale="   59.465">  1  9  2 -1</clus>
<clus scale="   79.551">  5  6 -1 -1</clus>
<clus scale="   89.758">  7  8 -1 -1</clus>
<clus scale="   93.842">  1  5  2 -1</clus>
<clus scale="   59.465">  1  5  2 -1</clus>
</clustering>
</event>
<event>
 9    1  0.7719620E-005  0.1873171E+03  0.7546771E-02  0.1194828E+00
          1   -1    0    0  502    0 -0.00000000000E+00  0.00000000000E+00  0.36214091649E+03  0.36214091649E+03  0.00000000000E+00 0. -1.
         21   -1    0    0  501  502  0.00000000000E+00 -0.00000000000E+00 -0.16204883485E+03  0.16204883485E+03  0.00000000000E+00 0. -1.
        -24    2    1    2    0    0  0.33436798801E+02  0.41056198179E+01  0.11853239384E+03  0.14710209865E+03  0.80338181530E+02 0.  0.
         23    2    1    2    0    0  0.12217330765E+03  0.87484455420E+02 -0.31744028865E+01  0.17763060659E+03  0.94671582426E+02 0.  0.
         13    1    3    3    0    0  0.31237198771E+02  0.27976109991E+02  0.11557692386E+03  0.12294897579E+03  0.00000000000E+00 0. -1.
        -14    1    3    3    0    0  0.21996000299E+01 -0.23870490173E+02  0.29554699721E+01  0.24153122866E+02  0.00000000000E+00 0.  1.
        -11    1    4    4    0    0  0.12508670744E+03  0.42573738707E+02 -0.79535339294E+01  0.13237245298E+03  0.00000000000E+00 0. -1.
         11    1    4    4    0    0 -0.29133997903E+01  0.44910716713E+02  0.47791310428E+01  0.45258153603E+02  0.00000000000E+00 0.  1.
          2    1    1    2  501    0 -0.15561010646E+03 -0.91590075238E+02  0.84734090695E+02  0.19945704610E+03  0.00000000000E+00 0. -1.
<scales pt_clust_5="13000.00000" pt_clust_6="13000.00000" pt_clust_7="13000.00000" pt_clust_8="13000.00000" pt_clust_9="161.63232"></scales>
<clustering>
<clus scale="   80.338">  5  6 -1 -1</clus>
<clus scale="   87.115">  1  5  2 -1</clus>
<clus scale="   94.672">  7  8 -1 -1</clus>
<clus scale="  161.632">  2  9  1 -1</clus>
<clus scale="  161.632">  2  5  1 -1</clus>
</clustering>
</event>
<event>
 9    1  0.7719620E-005  0.1682492E+03  0.7546771E-02  0.1181332E+00
         21   -1    0    0  501  502  0.00000000000E+00  0.00000000000E+00  0.62573151518E+02  0.62573151518E+02  0.00000000000E+00 0.  1.
          1   -1    0    0  502    0 -0.00000000000E+00 -0.00000000000E+00 -0.88967115774E+03  0.88967115774E+03  0.00000000000E+00 0. -1.
         23    2    1    2    0    0 -0.59023299264E+02 -0.13837907304E+03 -0.71161985319E+03  0.73300369758E+03  0.90879521887E+02 0.  0.
        -24    2    1    2    0    0  0.65793244348E+02  0.93388205442E+02 -0.10013402091E+03  0.17122548162E+03  0.79001490468E+02 0.  0.
         11    1    4    4    0    0  0.31359550487E+02  0.22786193494E+02 -0.81863302525E+02  0.90577217450E+02  0.00000000000E+00 0. -1.
        -12    1    4    4    0    0  0.34433693860E+02  0.70602011948E+02 -0.18270718386E+02  0.80648264174E+02  0.00000000000E+00 0.  1.
        -13    1    3    3    0    0 -0.83152345554E+02 -0.10134748879E+03 -0.55446493613E+03  0.56975169281E+03  0.00000000000E+00 0.  1.
         13    1    3    3    0    0  0.24129046290E+02 -0.37031584244E+02 -0.15715491706E+03  0.16325200478E+03  0.00000000000E+00 0. -1.
          2    1    1    2  501    0 -0.67699450835E+01  0.44990867597E+02 -0.15344132119E+02  0.48015130053E+02  0.00000000000E+00 0. -1.
<scales pt_clust_5="13000.00000" pt_clust_6="13000.00000" pt_clust_7="13000.00000" pt_clust_8="13000.00000" pt_clust_9="45.49737"></scales>
<clustering>
<clus scale="   45.497">  1  9  2 -1</clus>
<clus scale="   79.001">  5  6 -1 -1</clus>
<clus scale="   90.880">  7  8 -1 -1</clus>
<clus scale="  162.142">  1  5  2 -1</clus>
<clus scale="   45.497">  1  5  2 -1</clus>
</clustering>
</event>
<event>
 9    1  0.7719620E-005  0.1638520E+03  0.7546771E-02  0.1199718E+00
         21   -1    0    0  501  502  0.00000000000E+00  0.00000000000E+00  0.34078299486E+03  0.34078299486E+03  0.00000000000E+00 0. -1.
          3   -1    0    0  502    0 -0.00000000000E+00 -0.00000000000E+00 -0.68684706687E+03  0.68684706687E+03  0.00000000000E+00 0. -1.
        -24    2    1    2    0    0 -0.70543613266E+02 -0.46634197858E+02  0.23447130035E+02  0.11931073157E+03  0.80833984055E+02 0.  0.
         23    2    1    2    0    0 -0.52996490332E+02  0.99854682085E+02 -0.61276251603E+03  0.63035210387E+03  0.95322024079E+02 0.  0.
         13    1    3    3    0    0 -0.87126536925E+02 -0.45274100617E+02  0.11567615805E+02  0.98866512828E+02  0.00000000000E+00 0. -1.
        -14    1    3    3    0    0  0.16582923660E+02 -0.13600972406E+01  0.11879514230E+02  0.20444218741E+02  0.00000000000E+00 0.  1.
        -11    1    4    4    0    0 -0.22341058926E+02 -0.86054759690E+01 -0.40097579264E+02  0.46701102700E+02  0.00000000000E+00 0.  1.
         11    1    4    4    0    0 -0.30655431405E+02  0.10846015805E+03 -0.57266493677E+03  0.58365100117E+03  0.00000000000E+00 0. -1.
          4    1    1    2  501    0  0.12354010360E+03 -0.53220484227E+02  0.24325131398E+03  0.27796722629E+03  0.00000000000E+00 0. -1.
<scales pt_clust_5="13000.00000" pt_clust_6="13000.00000" pt_clust_7="13000.00000" pt_clust_8="13000.00000" pt_clust_9="133.27107"></scales>
<clustering>
<clus scale="   80.834">  5  6 -1 -1</clus>
<clus scale="   95.322">  7  8 -1 -1</clus>
<clus scale="  116.984">  2  5  1 -1</clus>
<clus scale="  133.271">  1  9  2 -1</clus>
<clus scale="  133.271">  1  5  2 -1</clus>
</clustering>
</event>
<event>
 9    1  0.7719620E-005  0.1026262E+03  0.7546771E-02  0.1281379E+00
          3   -1    0    0  502    0 -0.00000000000E+00  0.00000000000E+00  0.17257188519E+03  0.17257188519E+03  0.00000000000E+00 0. -1.
         21   -1    0    0  501  502  0.00000000000E+00 -0.00000000000E+00 -0.71611346921E+02  0.71611346921E+02  0.00000000000E+00 0. -1.
        -24    2    1    2    0    0 -0.28905807440E+02 -0.44909240204E+02  0.49846609832E+02  0.10755458711E+03  0.78936171290E+02 0.  0.
         23    2    1    2    0    0  0.30218886471E+01  0.36923809031E+02  0.41026023669E+02  0.10772345194E+03  0.92459223422E+02 0.  0.
         11    1    3    3    0    0 -0.55496647804E+02 -0.20631930839E+02  0.28690320648E+02  0.65792773056E+02  0.00000000000E+00 0. -1.
        -12    1    3    3    0    0  0.26590840364E+02 -0.24277309365E+02  0.21156289184E+02  0.41761814056E+02  0.00000000000E+00 0.  1.
        -11    1    4    4    0    0 -0.89258676125E+01 -0.30129802032E+02  0.11067664332E+02  0.33316201418E+02  0.00000000000E+00 0.  1.
         11    1    4    4    0    0  0.11947756260E+02  0.67053611064E+02  0.29958359337E+02  0.74407250524E+02  0.00000000000E+00 0. -1.
          4    1    1    2  501    0  0.25883918793E+02  0.79854311722E+01  0.10087904770E+02  0.28905193058E+02  0.00000000000E+00 0. -1.
<scales pt_clust_5="13000.00000" pt_clust_6="13000.00000" pt_clust_7="13000.00000" pt_clust_8="13000.00000" pt_clust_9="27.08772"></scales>
<clustering>
<clus scale="   27.088">  2  9  1 -1</clus>
<clus scale="   78.936">  5  6 -1 -1</clus>
<clus scale="   90.633">  1  5  2 -1</clus>
<clus scale="   92.459">  7  8 -1 -1</clus>
<clus scale="   27.088">  2  5  1 -1</clus>
</clustering>
</event>
<event>
 9    1  0.7719620E-005  0.9592016E+02  0.7546771E-02  0.1290463E+00
         21   -1    0    0  501  502  0.00000000000E+00  0.00000000000E+00  0.83567544090E+02  0.83567544090E+02  0.00000000000E+00 0.  1.
          1   -1    0    0  502    0 -0.00000000000E+00 -0.00000000000E+00 -0.23215893004E+03  0.23215893004E+03  0.00000000000E+00 0. -1.
         23    2    1    2    0    0 -0.11541645595E+02 -0.43186074762E+02 -0.11568480247E+03  0.15364184313E+03  0.90689557292E+02 0.  0.
        -24    2    1    2    0    0  0.30435209209E+02 -0.17071764640E+01 -0.55338259816E+02  0.10846046802E+03  0.88159705717E+02 0.  0.
         11    1    4    4    0    0 -0.26292760364E+02 -0.62330936628E+01 -0.42111463985E+02  0.50035348536E+02  0.00000000000E+00 0. -1.
        -12    1    4    4    0    0  0.56727969574E+02  0.45259171988E+01 -0.13226795831E+02  0.58425119481E+02  0.00000000000E+00 0.  1.
        -13    1    3    3    0    0  0.35092584829E+02  0.20562501439E+01 -0.30745723016E+02  0.46701361420E+02  0.00000000000E+00 0.  1.
         13    1    3    3    0    0 -0.46634230425E+02 -0.45242324906E+02 -0.84939079452E+02  0.10694048171E+03  0.00000000000E+00 0. -1.
          2    1    1    2  501    0 -0.18893563614E+02  0.44893251227E+02  0.22431676338E+02  0.53624162978E+02  0.00000000000E+00 0. -1.
<scales pt_clust_5="13000.00000" pt_clust_6="13000.00000" pt_clust_7="13000.00000" pt_clust_8="13000.00000" pt_clust_9="48.70699"></scales>
<clustering>
<clus scale="   48.707">  1  9  2 -1</clus>
<clus scale="   88.160">  5  6 -1 -1</clus>
<clus scale="   90.690">  7  8 -1 -1</clus>
<clus scale="   93.532">  1  5  2 -1</clus>
<clus scale="   48.707">  1  5  2 -1</clus>
</clustering>
</event>
<event>
 9    1  0.7719620E-005  0.1153928E+03  0.7546771E-02  0.1262915E+00
         21   -1    0    0  501  502  0.00000000000E+00  0.00000000000E+00  0.14575373703E+03  0.14575373703E+03  0.00000000000E+00 0.  1.
          1   -1    0    0  502    0 -0.00000000000E+00 -0.00000000000E+00 -0.20691822230E+03  0.20691822230E+03  0.00000000000E+00 0. -1.
         23    2    1    2    0    0 -0.27344269407E+01  0.19822776260E+02 -0.54341446629E+02  0.10599658223E+03  0.88779857358E+02 0.  0.
        -24    2    1    2    0    0 -0.26755097728E+01  0.77202628044E+02  0.61807792833E+02  0.12770736659E+03  0.80756201595E+02 0.  0.
         11    1    4    4    0    0  0.45541290114E+01  0.39311853145E+02 -0.14545521814E+02  0.42163184102E+02  0.00000000000E+00 0. -1.
        -12    1    4    4    0    0 -0.72296387842E+01  0.37890774898E+02  0.76353314647E+02  0.85544182485E+02  0.00000000000E+00 0.  1.
        -13    1    3    3    0    0 -0.30000594221E+02  0.44712373964E+02 -0.28395607036E+02  0.60873167637E+02  0.00000000000E+00 0.  1.
         13    1    3    3    0    0  0.27266167280E+02 -0.24889597704E+02 -0.25945839592E+02  0.45123414589E+02  0.00000000000E+00 0. -1.
          2    1    1    2  501    0  0.54099367136E+01 -0.97025404304E+02 -0.68630831477E+02  0.11896801051E+03  0.00000000000E+00 0. -1.
<scales pt_clust_5="13000.00000" pt_clust_6="13000.00000" pt_clust_7="13000.00000" pt_clust_8="13000.00000" pt_clust_9="82.42540"></scales>
<clustering>
<clus scale="   80.756">  5  6 -1 -1</clus>
<clus scale="   88.780">  7  8 -1 -1</clus>
<clus scale="   91.007">  2  7  1 -1</clus>
<clus scale="   82.425">  1  9  2 -1</clus>
<clus scale="   82.425">  1  5  2 -1</clus>
</clustering>
</event>
<event>
 9    1  0.7719620E-005  0.9745832E+02  0.7546771E-02  0.1291027E+00
          3   -1    0    0  502    0 -0.00000000000E+00  0.00000000000E+00  0.79541843348E+02  0.79541843348E+02  0.00000000000E+00 0. -1.
         21   -1    0    0  501  502  0.00000000000E+00 -0.00000000000E+00 -0.16908033892E+03  0.16908033892E+03  0.00000000000E+00 0.  1.
         23    2    1    2    0    0 -0.34452972882E+02  0.35132032141E+01  0.62485042155E+01  0.97044830707E+02  0.90439512520E+02 0.  0.
        -24    2    1    2    0    0  0.39122014153E+02  0.17156961892E+02 -0.57140912866E+02  0.10750269097E+03  0.80416735258E+02 0.  0.
         11    1    4    4    0    0  0.17917176573E+02  0.90110144034E+01  0.19254180966E+02  0.27801925861E+02  0.00000000000E+00 0. -1.
        -12    1    4    4    0    0  0.21204837581E+02  0.81459474885E+01 -0.76395093831E+02  0.79700765108E+02  0.00000000000E+00 0.  1.
        -11    1    3    3    0    0 -0.11619079635E+02  0.31996655667E+02 -0.30164792548E+02  0.45483004462E+02  0.00000000000E+00 0.  1.
         11    1    3    3    0    0 -0.22833893247E+02 -0.28483452453E+02  0.36413296764E+02  0.51561826244E+02  0.00000000000E+00 0. -1.
          4    1    1    2  501    0 -0.46690412717E+01 -0.20670165106E+02 -0.38646086924E+02  0.44074660593E+02  0.00000000000E+00 0. -1.
<scales pt_clust_5="13000.00000" pt_clust_6="13000.00000" pt_clust_7="13000.00000" pt_clust_8="13000.00000" pt_clust_9="21.19093"></scales>
<clustering>
<clus scale="   21.191">  2  9  1 -1</clus>
<clus scale="   80.417">  5  6 -1 -1</clus>
<clus scale="   88.236">  2  5  1 -1</clus>
<clus scale="   90.440">  7  8 -1 -1</clus>
<clus scale="   21.191">  2  5  1 -1</clus>
</clustering>
</event>
<event>
 9    1  0.7719620E-005  0.3647652E+03  0.7546771E-02  0.1057009E+00
         21   -1    0    0  501  502  0.00000000000E+00  0.00000000000E+00  0.11634663854E+04  0.11634663854E+04  0.00000000000E+00 0.  1.
          1   -1    0    0  502    0 -0.00000000000E+00 -0.00000000000E+00 -0.22096574756E+03  0.22096574756E+03  0.00000000000E+00 0. -1.
         23    2    1    2    0    0 -0.32982278996E+03 -0.14109398839E+03  0.75073546733E+01  0.37080451138E+03  0.93536297471E+02 0.  0.
        -24    2    1    2    0    0  0.28315605513E+03  0.16555047059E+03  0.78348631907E+03  0.85322106364E+03  0.80938627377E+02 0.  0.
         13    1    4    4    0    0  0.58220019604E+01  0.25789433541E+02  0.46831760405E+02  0.53779218773E+02  0.00000000000E+00 0. -1.
        -14    1    4    4    0    0  0.27733405317E+03  0.13976103705E+03  0.73665455866E+03  0.79944184487E+03  0.00000000000E+00 0.  1.
        -13    1    3    3    0    0 -0.62350319223E+02 -0.33481796934E+02 -0.35717129256E+02  0.79273617020E+02  0.00000000000E+00 0. -1.
         13    1    3    3    0    0 -0.26747247074E+03 -0.10761219146E+03  0.43224483929E+02  0.29153089436E+03  0.00000000000E+00 0.  1.
          2    1    1    2  501    0  0.46666734826E+02 -0.24456482199E+02  0.15150696408E+03  0.16040655792E+03  0.00000000000E+00 0. -1.
<scales pt_clust_5="13000.00000" pt_clust_6="13000.00000" pt_clust_7="13000.00000" pt_clust_8="13000.00000" pt_clust_9="52.68685"></scales>
<clustering>
<clus scale="   52.687">  1  9  2 -1</clus>
<clus scale="   80.939">  5  6 -1 -1</clus>
<clus scale="   93.536">  7  8 -1 -1</clus>
<clus scale="  361.740">  1  5  2 -1</clus>
<clus scale="   52.687">  1  5  2 -1</clus>
</clustering>
</event>
<event>
 9    1  0.7719620E-005  0.9005378E+02  0.7546771E-02  0.1307920E+00
         21   -1    0    0  501  502  0.00000000000E+00  0.00000000000E+00  0.25288371508E+03  0.25288371508E+03  0.00000000000E+00 0. -1.
          1   -1    0    0  502    0 -0.00000000000E+00 -0.00000000000E+00 -0.79777122686E+02  0.79777122686E+02  0.00000000000E+00 0. -1.
         23    2    1    2    0    0  0.14401524889E+02  0.13268183095E+02 -0.35574131279E+02  0.96251201894E+02  0.87265837806E+02 0.  0.
        -24    2    1    2    0    0 -0.34741908975E+02 -0.14040404743E+02  0.14181620856E+03  0.16651549497E+03  0.78812688386E+02 0.  0.
         11    1    4    4    0    0 -0.56190471515E+02  0.30894609336E+01  0.71216668309E+02  0.90767437460E+02  0.00000000000E+00 0. -1.
        -12    1    4    4    0    0  0.21448562540E+02 -0.17129865677E+02  0.70599540255E+02  0.75748057515E+02  0.00000000000E+00 0.  1.
        -13    1    3    3    0    0  0.20604495235E+02  0.47567375466E+02 -0.32671405072E+02  0.61274963419E+02  0.00000000000E+00 0. -1.
         13    1    3    3    0    0 -0.62029703463E+01 -0.34299192371E+02 -0.29027262068E+01  0.34976238475E+02  0.00000000000E+00 0.  1.
          2    1    1    2  501    0  0.20340384086E+02  0.77222164852E+00  0.66864515106E+02  0.69894140894E+02  0.00000000000E+00 0. -1.
<scales pt_clust_5="13000.00000" pt_clust_6="13000.00000" pt_clust_7="13000.00000" pt_clust_8="13000.00000" pt_clust_9="20.35504"></scales>
<clustering>
<clus scale="   20.355">  1  9  2 -1</clus>
<clus scale="   78.813">  5  6 -1 -1</clus>
<clus scale="   81.889">  1  5  2 -1</clus>
<clus scale="   87.266">  7  8 -1 -1</clus>
<clus scale="   20.355">  1  5  2 -1</clus>
</clustering>
</event>
<event>
 9    1  0.7719620E-005  0.1078239E+03  0.7546771E-02  0.1272129E+00
          1   -1    0    0  502    0 -0.00000000000E+00  0.00000000000E+00  0.20596950226E+03  0.20596950226E+03  0.00000000000E+00 0. -1.
         21   -1    0    0  501  502  0.00000000000E+00 -0.00000000000E+00 -0.20273083889E+03  0.20273083889E+03  0.00000000000E+00 0. -1.
        -24    2    1    2    0    0 -0.54404801900E+02 -0.15745592247E+02  0.14577364645E+03  0.17235319781E+03  0.72442133111E+02 0.  0.
         23    2    1    2    0    0  0.73752053425E+02 -0.28997634791E+01 -0.29801612522E+02  0.12045590868E+03  0.90408604754E+02 0.  0.
         13    1    3    3    0    0 -0.14466501532E+02 -0.36634616646E+02  0.10276333762E+03  0.11005307066E+03  0.00000000000E+00 0. -1.
        -14    1    3    3    0    0 -0.39938300368E+02  0.20889024399E+02  0.43010308836E+02  0.62300127149E+02  0.00000000000E+00 0.  1.
        -13    1    4    4    0    0  0.16846729702E+02  0.37706542101E+02  0.63001750855E+01  0.41776642098E+02  0.00000000000E+00 0. -1.
         13    1    4    4    0    0  0.56905323724E+02 -0.40606305580E+02 -0.36101787608E+02  0.78679266579E+02  0.00000000000E+00 0.  1.
          2    1    1    2  501    0 -0.19347251526E+02  0.18645355726E+02 -0.11273337057E+03  0.11589123466E+03  0.00000000000E+00 0. -1.
<scales pt_clust_5="13000.00000" pt_clust_6="13000.00000" pt_clust_7="13000.00000" pt_clust_8="13000.00000" pt_clust_9="26.86941"></scales>
<clustering>
<clus scale="   26.869">  2  9  1 -1</clus>
<clus scale="   72.442">  5  6 -1 -1</clus>
<clus scale="   90.409">  7  8 -1 -1</clus>
<clus scale="   93.275">  1  5  2 -1</clus>
<clus scale="   26.869">  2  5  1 -1</clus>
</clustering>
</event>
<event>
 9    1  0.7719620E-005  0.9606258E+02  0.7546771E-02  0.1295230E+00
         21   -1    0    0  501  502  0.00000000000E+00  0.00000000000E+00  0.28279301956E+02  0.28279301956E+02  0.00000000000E+00 0.  1.
          1   -1    0    0  502    0 -0.00000000000E+00 -0.00000000000E+00 -0.41868004281E+03  0.41868004281E+03  0.00000000000E+00 0. -1.
        -24    2    1    2    0    0  0.29464333617E+02  0.75005912779E+01 -0.14521456270E+03  0.16832728759E+03  0.79513525276E+02 0.  0.
         23    2    1    2    0    0 -0.29834453050E+02  0.25013496668E+02 -0.17051334655E+03  0.19718677074E+03  0.91060702821E+02 0.  0.
         13    1    3    3    0    0  0.39374855973E+01 -0.35123358050E+02 -0.56339258718E+02  0.66507639760E+02  0.00000000000E+00 0. -1.
        -14    1    3    3    0    0  0.25526848019E+02  0.42623949328E+02 -0.88875303978E+02  0.10181964783E+03  0.00000000000E+00 0.  1.
        -11    1    4    4    0    0 -0.15441473874E+01 -0.20631494499E+02 -0.25477397397E+01  0.20845477548E+02  0.00000000000E+00 0.  1.
         11    1    4    4    0    0 -0.28290305662E+02  0.45644991166E+02 -0.16796560681E+03  0.17634129319E+03  0.00000000000E+00 0. -1.
          2    1    1    2  501    0  0.37011943306E+00 -0.32514087946E+02 -0.74672831606E+02  0.81445286441E+02  0.00000000000E+00 0. -1.
<scales pt_clust_5="13000.00000" pt_clust_6="13000.00000" pt_clust_7="13000.00000" pt_clust_8="13000.00000" pt_clust_9="32.51621"></scales>
<clustering>
<clus scale="   32.516">  1  9  2 -1</clus>
<clus scale="   79.514">  5  6 -1 -1</clus>
<clus scale="   85.196">  2  5  1 -1</clus>
<clus scale="   91.061">  7  8 -1 -1</clus>
<clus scale="   32.516">  1  5  2 -1</clus>
</clustering>
</event>
<event>
 9    1  0.7719620E-005  0.9500176E+02  0.7546771E-02  0.1297887E+00
         21   -1    0    0  501  502  0.00000000000E+00  0.00000000000E+00  0.97345013323E+02  0.97345013323E+02  0.00000000000E+00 0. -1.
          1   -1    0    0  502    0 -0.00000000000E+00 -0.00000000000E+00 -0.57682266278E+03  0.57682266278E+03  0.00000000000E+00 0. -1.
         23    2    1    2    0    0 -0.11819732482E+02  0.11642589249E+02 -0.42284700637E+03  0.43313379914E+03  0.92358222137E+02 0.  0.
        -24    2    1    2    0    0  0.35208145979E+02 -0.15780541230E+02 -0.13339396493E+03  0.16067998400E+03  0.80842243625E+02 0.  0.
         13    1    4    4    0    0  0.20774527559E+02  0.27708311484E+02 -0.94263648197E+02  0.10042393585E+03  0.00000000000E+00 0. -1.
        -14    1    4    4    0    0  0.14433618419E+02 -0.43488852714E+02 -0.39130316734E+02  0.60256048151E+02  0.00000000000E+00 0.  1.
        -11    1    3    3    0    0 -0.17978530958E+02 -0.38242123803E+02 -0.15763122528E+03  0.16319709186E+03  0.00000000000E+00 0.  1.
         11    1    3    3    0    0  0.61587984765E+01  0.49884713052E+02 -0.26521578109E+03  0.26993670727E+03  0.00000000000E+00 0. -1.
          2    1    1    2  501    0 -0.23388413497E+02  0.41379519816E+01  0.76763321850E+02  0.80353892960E+02  0.00000000000E+00 0. -1.
<scales pt_clust_5="13000.00000" pt_clust_6="13000.00000" pt_clust_7="13000.00000" pt_clust_8="13000.00000" pt_clust_9="23.75164"></scales>
<clustering>
<clus scale="   23.752">  1  9  2 -1</clus>
<clus scale="   80.842">  5  6 -1 -1</clus>
<clus scale="   83.850">  1  5  2 -1</clus>
<clus scale="   92.358">  7  8 -1 -1</clus>
<clus scale="   23.752">  1  5  2 -1</clus>
</clustering>
</event>
<event>
 9    1  0.7719620E-005  0.9534593E+02  0.7546771E-02  0.1295734E+00
         21   -1    0    0  501  502  0.00000000000E+00  0.00000000000E+00  0.61636984189E+02  0.61636984189E+02  0.00000000000E+00 0. -1.
          1   -1    0    0  502    0 -0.00000000000E+00 -0.00000000000E+00 -0.34504658084E+03  0.34504658084E+03  0.00000000000E+00 0. -1.
        -24    2    1    2    0    0  0.30632645867E+02  0.56608315480E+00 -0.10641091959E+03  0.13761311116E+03  0.81703152393E+02 0.  0.
         23    2    1    2    0    0  0.76815455589E+01  0.67351287495E+02 -0.60070603015E+02  0.12852536858E+03  0.91187120537E+02 0.  0.
         11    1    3    3    0    0  0.46685984561E+02  0.13990166631E+02 -0.10601702372E+03  0.11668296891E+03  0.00000000000E+00 0. -1.
        -12    1    3    3    0    0 -0.16053338694E+02 -0.13424083476E+02 -0.39389587585E+00  0.20930142244E+02  0.00000000000E+00 0.  1.
        -11    1    4    4    0    0  0.18148373903E+02  0.87859605437E+02 -0.54005038696E+02  0.10471493660E+03  0.00000000000E+00 0.  1.
         11    1    4    4    0    0 -0.10466828344E+02 -0.20508317942E+02 -0.60655643195E+01  0.23810431976E+02  0.00000000000E+00 0. -1.
          2    1    1    2  501    0 -0.38314191426E+02 -0.67917370650E+02 -0.11692807405E+03  0.14054508530E+03  0.00000000000E+00 0. -1.
<scales pt_clust_5="13000.00000" pt_clust_6="13000.00000" pt_clust_7="13000.00000" pt_clust_8="13000.00000" pt_clust_9="77.97918"></scales>
<clustering>
<clus scale="   77.979">  1  9  2 -1</clus>
<clus scale="   81.703">  5  6 -1 -1</clus>
<clus scale="   86.320">  2  5  1 -1</clus>
<clus scale="   91.187">  7  8 -1 -1</clus>
<clus scale="   77.979">  1  5  2 -1</clus>
</clustering>
</event>
<event>
 9    1  0.7719620E-005  0.1329394E+03  0.7546771E-02  0.1224558E+00
         21   -1    0    0  501  502  0.00000000000E+00  0.00000000000E+00  0.72523715911E+03  0.72523715911E+03  0.00000000000E+00 0.  1.
          1   -1    0    0  502    0 -0.00000000000E+00 -0.00000000000E+00 -0.19248259139E+03  0.19248259139E+03  0.00000000000E+00 0. -1.
         23    2    1    2    0    0 -0.82686977089E+02  0.50394550459E+02 -0.14847703731E+03  0.19823549905E+03  0.88741960649E+02 0.  0.
        -24    2    1    2    0    0  0.14213268795E+03 -0.34255140515E+02  0.45621380548E+03  0.48618769511E+03  0.82899474821E+02 0.  0.
         11    1    4    4    0    0  0.86731074570E+02 -0.25996061684E+01  0.14905658301E+03  0.17247290276E+03  0.00000000000E+00 0. -1.
        -12    1    4    4    0    0  0.55401613383E+02 -0.31655534346E+02  0.30715722247E+03  0.31371479235E+03  0.00000000000E+00 0.  1.
        -13    1    3    3    0    0  0.78306067288E+00  0.29380334234E+02 -0.88692779929E+02  0.93435680740E+02  0.00000000000E+00 0.  1.
         13    1    3    3    0    0 -0.83470037762E+02  0.21014216225E+02 -0.59784257377E+02  0.10479981831E+03  0.00000000000E+00 0. -1.
          2    1    1    2  501    0 -0.59445710864E+02 -0.16139409944E+02  0.22501779954E+03  0.23329655635E+03  0.00000000000E+00 0. -1.
<scales pt_clust_5="13000.00000" pt_clust_6="13000.00000" pt_clust_7="13000.00000" pt_clust_8="13000.00000" pt_clust_9="61.59767"></scales>
<clustering>
<clus scale="   61.598">  1  9  2 -1</clus>
<clus scale="   82.899">  5  6 -1 -1</clus>
<clus scale="   88.742">  7  8 -1 -1</clus>
<clus scale="  129.113">  1  5  2 -1</clus>
<clus scale="   61.598">  1  5  2 -1</clus>
</clustering>
</event>
<event>
 9    1  0.7719620E-005  0.1683000E+03  0.7546771E-02  0.1206650E+00
         21   -1    0    0  501  502  0.00000000000E+00  0.00000000000E+00  0.69521524049E+03  0.69521524049E+03  0.00000000000E+00 0. -1.
          1   -1    0    0  502    0 -0.00000000000E+00 -0.00000000000E+00 -0.17881302667E+03  0.17881302667E+03  0.00000000000E+00 0. -1.
        -24    2    1    2    0    0 -0.29392804043E+02  0.30507394513E+02 -0.11873314246E+03  0.15078223801E+03  0.82722948035E+02 0.  0.
         23    2    1    2    0    0 -0.38496517195E+02  0.10520225955E+03  0.12453336254E+03  0.19057308432E+03  0.90884788772E+02 0.  0.
         13    1    3    3    0    0 -0.16061735557E+02 -0.22407172991E+02 -0.77880593253E+02  0.82616266897E+02  0.00000000000E+00 0. -1.
        -14    1    3    3    0    0 -0.13331068486E+02  0.52914567504E+02 -0.40852549206E+02  0.68165971112E+02  0.00000000000E+00 0.  1.
        -13    1    4    4    0    0 -0.18062857476E+02 -0.88177878005E+01 -0.52866371912E+00  0.20107204858E+02  0.00000000000E+00 0.  1.
         13    1    4    4    0    0 -0.20433659719E+02  0.11402004735E+03  0.12506202626E+03  0.17046587946E+03  0.00000000000E+00 0. -1.
          2    1    1    2  501    0  0.67889321237E+02 -0.13570965407E+03  0.51060199373E+03  0.53267294482E+03  0.00000000000E+00 0. -1.
<scales pt_clust_5="13000.00000" pt_clust_6="13000.00000" pt_clust_7="13000.00000" pt_clust_8="13000.00000" pt_clust_9="141.65043"></scales>
<clustering>
<clus scale="   82.723">  5  6 -1 -1</clus>
<clus scale="   90.885">  7  8 -1 -1</clus>
<clus scale="   92.939">  2  5  1 -1</clus>
<clus scale="  141.650">  1  9  2 -1</clus>
<clus scale="  141.650">  1  5  2 -1</clus>
</clustering>
</event>
<event>
 9    1  0.7719620E-005  0.1006080E+03  0.7546771E-02  0.1281584E+00
         21   -1    0    0  501  502  0.00000000000E+00  0.00000000000E+00  0.23373764066E+03  0.23373764066E+03  0.00000000000E+00 0. -1.
          3   -1    0    0  502    0 -0.00000000000E+00 -0.00000000000E+00 -0.74642398677E+02  0.74642398677E+02  0.00000000000E+00 0. -1.
        -24    2    1    2    0    0 -0.45712849942E+02 -0.27045337848E+02  0.33015570631E+02  0.10210380599E+03  0.80709629815E+02 0.  0.
         23    2    1    2    0    0  0.39797021619E+02  0.70351689431E+02  0.11886497417E+03  0.16197624500E+03  0.74660958491E+02 0.  0.
         11    1    3    3    0    0 -0.30026289840E+02 -0.56071300197E+02  0.20744531515E+02  0.66902200077E+02  0.00000000000E+00 0. -1.
        -12    1    3    3    0    0 -0.15686560102E+02  0.29025962348E+02  0.12271039116E+02  0.35201605916E+02  0.00000000000E+00 0.  1.
        -11    1    4    4    0    0  0.18149627789E+02  0.82204599446E+02  0.10113654083E+03  0.13158877251E+03  0.00000000000E+00 0. -1.
         11    1    4    4    0    0  0.21647393830E+02 -0.11852910016E+02  0.17728433338E+02  0.30387472486E+02  0.00000000000E+00 0.  1.
          4    1    1    2  501    0  0.59158283235E+01 -0.43306351583E+02  0.72146971803E+01  0.44299988347E+02  0.00000000000E+00 0. -1.
<scales pt_clust_5="13000.00000" pt_clust_6="13000.00000" pt_clust_7="13000.00000" pt_clust_8="13000.00000" pt_clust_9="43.70857"></scales>
<clustering>
<clus scale="   43.709">  1  9  2 -1</clus>
<clus scale="   74.661">  7  8 -1 -1</clus>
<clus scale="   80.710">  5  6 -1 -1</clus>
<clus scale="   95.824">  1  7  2 -1</clus>
<clus scale="   43.709">  1  5  2 -1</clus>
</clustering>
</event>
<event>
 9    1  0.7719620E-005  0.9075655E+02  0.7546771E-02  0.1307973E+00
         -2   -1    0    0    0  501 -0.00000000000E+00  0.00000000000E+00  0.11484362298E+03  0.11484362298E+03  0.00000000000E+00 0.  1.
         21   -1    0    0  501  502  0.00000000000E+00 -0.00000000000E+00 -0.11831187822E+03  0.11831187822E+03  0.00000000000E+00 0. -1.
         23    2    1    2    0    0  0.42438500704E+01  0.87795307576E+01  0.10475364643E+02  0.91822578626E+02  0.90700398331E+02 0.  0.
        -24    2    1    2    0    0 -0.12814029377E+01  0.16056119477E+02 -0.51374567095E+02  0.96314466075E+02  0.79860436169E+02 0.  0.
         11    1    4    4    0    0  0.20403705247E+02  0.79268166726E+01 -0.65586348120E+02  0.69142712342E+02  0.00000000000E+00 0. -1.
        -12    1    4    4    0    0 -0.21685108184E+02  0.81293028049E+01  0.14211781025E+02  0.27171753733E+02  0.00000000000E+00 0.  1.
        -13    1    3    3    0    0  0.15529551014E+02 -0.33333505397E+02  0.26548246576E+02  0.45355252540E+02  0.00000000000E+00 0.  1.
         13    1    3    3    0    0 -0.11285700943E+02  0.42113036154E+02 -0.16072881933E+02  0.46467326086E+02  0.00000000000E+00 0. -1.
         -1    1    1    2    0  502 -0.29624471327E+01 -0.24835650235E+02  0.37430947218E+02  0.45018456496E+02  0.00000000000E+00 0.  1.
<scales pt_clust_5="13000.00000" pt_clust_6="13000.00000" pt_clust_7="13000.00000" pt_clust_8="13000.00000" pt_clust_9="25.01172"></scales>
<clustering>
<clus scale="   25.012">  2  9  1 -1</clus>
<clus scale="   79.860">  5  6 -1 -1</clus>
<clus scale="   79.924">  2  5  1 -1</clus>
<clus scale="   90.700">  7  8 -1 -1</clus>
<clus scale="   25.012">  2  5  1 -1</clus>
</clustering>
</event>
<event>
 9    1  0.7719620E-005  0.9061862E+02  0.7546771E-02  0.1313032E+00
          1   -1    0    0  502    0 -0.00000000000E+00  0.00000000000E+00  0.71072843507E+02  0.71072843507E+02  0.00000000000E+00 0. -1.
         21   -1    0    0  501  502  0.00000000000E+00 -0.00000000000E+00 -0.34200969319E+03  0.34200969319E+03  0.00000000000E+00 0. -1.
         23    2    1    2    0    0  0.40656447517E+02  0.29236500652E+01 -0.92440130506E+01  0.98989066712E+02  0.89732319132E+02 0.  0.
        -24    2    1    2    0    0  0.22517408241E+02  0.83991427996E+01 -0.45605676925E+02  0.88676517917E+02  0.72153085786E+02 0.  0.
         13    1    4    4    0    0  0.27451189966E+02 -0.19253987802E+02 -0.50043645467E+02  0.60238279594E+02  0.00000000000E+00 0. -1.
        -14    1    4    4    0    0 -0.49337817254E+01  0.27653130601E+02  0.44379685418E+01  0.28438238323E+02  0.00000000000E+00 0.  1.
        -13    1    3    3    0    0  0.71930905498E+01 -0.40166337430E+02  0.83769997408E+01  0.41656324116E+02  0.00000000000E+00 0.  1.
         13    1    3    3    0    0  0.33463356967E+02  0.43089987495E+02 -0.17621012791E+02  0.57332742596E+02  0.00000000000E+00 0. -1.
          2    1    1    2  501    0 -0.63173855758E+02 -0.11322792865E+02 -0.21608715971E+03  0.22541695207E+03  0.00000000000E+00 0. -1.
<scales pt_clust_5="13000.00000" pt_clust_6="13000.00000" pt_clust_7="13000.00000" pt_clust_8="13000.00000" pt_clust_9="64.18054"></scales>
<clustering>
<clus scale="   64.181">  2  9  1 -1</clus>
<clus scale="   72.153">  5  6 -1 -1</clus>
<clus scale="   73.252">  2  5  1 -1</clus>
<clus scale="   89.732">  7  8 -1 -1</clus>
<clus scale="   64.181">  2  5  1 -1</clus>
</clustering>
</event>
<event>
 9    1  0.7719620E-005  0.1310960E+03  0.7546771E-02  0.1233684E+00
         21   -1    0    0  501  502  0.00000000000E+00  0.00000000000E+00  0.12865958667E+03  0.12865958667E+03  0.00000000000E+00 0. -1.
          3   -1    0    0  502    0 -0.00000000000E+00 -0.00000000000E+00 -0.43936551275E+03  0.43936551275E+03  0.00000000000E+00 0. -1.
         23    2    1    2    0    0 -0.10965790749E+02 -0.58393845873E+02 -0.30214451459E+03  0.32205500743E+03  0.94329371436E+02 0.  0.
        -24    2    1    2    0    0 -0.68710226620E+02 -0.44551205288E+02 -0.13108854055E+01  0.11559171406E+03  0.81570955637E+02 0.  0.
         13    1    4    4    0    0 -0.34860734904E+02 -0.66518402373E+02 -0.34837895383E+01  0.75180486045E+02  0.00000000000E+00 0. -1.
        -14    1    4    4    0    0 -0.33849491716E+02  0.21967197085E+02  0.21729041328E+01  0.40411228014E+02  0.00000000000E+00 0.  1.
        -11    1    3    3    0    0 -0.35033285498E+02 -0.37512092296E+01 -0.40485813462E+02  0.53670324717E+02  0.00000000000E+00 0. -1.
         11    1    3    3    0    0  0.24067494749E+02 -0.54642636644E+02 -0.26165870113E+03  0.26838468272E+03  0.00000000000E+00 0.  1.
          4    1    1    2  501    0  0.79676017369E+02  0.10294505116E+03 -0.72505260899E+01  0.13037837793E+03  0.00000000000E+00 0. -1.
<scales pt_clust_5="13000.00000" pt_clust_6="13000.00000" pt_clust_7="13000.00000" pt_clust_8="13000.00000" pt_clust_9="102.62723"></scales>
<clustering>
<clus scale="   81.571">  5  6 -1 -1</clus>
<clus scale="   94.329">  7  8 -1 -1</clus>
<clus scale="  111.481">  2  7  1 -1</clus>
<clus scale="  102.627">  1  9  2 -1</clus>
<clus scale="  102.627">  1  5  2 -1</clus>
</clustering>
</event>
<event>
 9    1  0.7719620E-005  0.1452725E+03  0.7546771E-02  0.1208418E+00
         -2   -1    0    0    0  501 -0.00000000000E+00  0.00000000000E+00  0.64336654559E+02  0.64336654559E+02  0.00000000000E+00 0.  1.
         21   -1    0    0  501  502  0.00000000000E+00 -0.00000000000E+00 -0.51361247360E+03  0.51361247360E+03  0.00000000000E+00 0. -1.
        -24    2    1    2    0    0 -0.10340790731E+03 -0.13741286598E+02 -0.95453437706E+02  0.16243714201E+03  0.79952786594E+02 0.  0.
         23    2    1    2    0    0  0.13893838383E+03 -0.21146315748E+02 -0.28886832120E+03  0.33366707496E+03  0.90209582354E+02 0.  0.
         13    1    3    3    0    0 -0.64098693307E+01  0.25516722389E+02 -0.24964026034E+02  0.36268335254E+02  0.00000000000E+00 0. -1.
        -14    1    3    3    0    0 -0.96998037974E+02 -0.39258008987E+02 -0.70489411672E+02  0.12616880676E+03  0.00000000000E+00 0.  1.
        -13    1    4    4    0    0  0.71407948254E+01 -0.32791946240E+02 -0.75214025998E+02  0.82361716810E+02  0.00000000000E+00 0.  1.
         13    1    4    4    0    0  0.13179758901E+03  0.11645630492E+02 -0.21365429520E+03  0.25130535815E+03  0.00000000000E+00 0. -1.
         -1    1    1    2    0  502 -0.35530476525E+02  0.34887602345E+02 -0.64954060140E+02  0.81844911193E+02  0.00000000000E+00 0.  1.
<scales pt_clust_5="13000.00000" pt_clust_6="13000.00000" pt_clust_7="13000.00000" pt_clust_8="13000.00000" pt_clust_9="49.79518"></scales>
<clustering>
<clus scale="   49.795">  2  9  1 -1</clus>
<clus scale="   79.953">  5  6 -1 -1</clus>
<clus scale="   90.210">  7  8 -1 -1</clus>
<clus scale="  139.136">  1  5  2 -1</clus>
<clus scale="   49.795">  2  5  1 -1</clus>
</clustering>
</event>
<event>
 9    1  0.7719620E-005  0.9143235E+02  0.7546771E-02  0.1306373E+00
          1   -1    0    0  502    0 -0.00000000000E+00  0.00000000000E+00  0.21639276860E+03  0.21639276860E+03  0.00000000000E+00 0. -1.
         21   -1    0    0  501  502  0.00000000000E+00 -0.00000000000E+00 -0.53993733710E+02  0.53993733710E+02  0.00000000000E+00 0. -1.
         23    2    1    2    0    0 -0.83156361349E+01  0.10796603362E+02  0.79872859561E+02  0.12216052838E+03  0.91421029048E+02 0.  0.
        -24    2    1    2    0    0 -0.10224510656E+02  0.17292616011E+02  0.35067543075E+02  0.90044679136E+02  0.80465747226E+02 0.  0.
         13    1    4    4    0    0 -0.20501330966E+02 -0.14230324860E+02 -0.15645532638E+02  0.29454870710E+02  0.00000000000E+00 0. -1.
        -14    1    4    4    0    0  0.10276820310E+02  0.31522940871E+02  0.50713075713E+02  0.60589808426E+02  0.00000000000E+00 0.  1.
        -11    1    3    3    0    0  0.25069288594E+02 -0.12521326541E+02 -0.45878530784E+01  0.28395444085E+02  0.00000000000E+00 0.  1.
         11    1    3    3    0    0 -0.33384924728E+02  0.23317929903E+02  0.84460712639E+02  0.93765084299E+02  0.00000000000E+00 0. -1.
          2    1    1    2  501    0  0.18540146791E+02 -0.28089219373E+02  0.47458632254E+02  0.58181294790E+02  0.00000000000E+00 0. -1.
<scales pt_clust_5="13000.00000" pt_clust_6="13000.00000" pt_clust_7="13000.00000" pt_clust_8="13000.00000" pt_clust_9="33.65624"></scales>
<clustering>
<clus scale="   33.656">  2  9  1 -1</clus>
<clus scale="   80.466">  5  6 -1 -1</clus>
<clus scale="   80.479">  2  5  1 -1</clus>
<clus scale="   91.421">  7  8 -1 -1</clus>
<clus scale="   33.656">  2  5  1 -1</clus>
</clustering>
</event>
<event>
 9    1  0.7719620E-005  0.9217312E+02  0.7546771E-02  0.1303454E+00
         -4   -1    0    0    0  501 -0.00000000000E+00  0.00000000000E+00  0.30982004705E+02  0.30982004705E+02  0.00000000000E+00 0.  1.
         21   -1    0    0  501  502  0.00000000000E+00 -0.00000000000E+00 -0.55262250568E+03  0.55262250568E+03  0.00000000000E+00 0.  1.
        -24    2    1    2    0    0 -0.38295530691E+02  0.15183574386E+02 -0.15412449696E+03  0.17873765761E+03  0.80595912321E+02 0.  0.
         23    2    1    2    0    0 -0.31631196775E+02 -0.21719472603E+02 -0.18569697556E+03  0.20995501555E+03  0.90141409602E+02 0.  0.
         11    1    3    3    0    0 -0.42689428949E+02  0.27134059084E+02 -0.41591478772E+02  0.65486606362E+02  0.00000000000E+00 0. -1.
        -12    1    3    3    0    0  0.43938982582E+01 -0.11950484698E+02 -0.11253301819E+03  0.11325105125E+03  0.00000000000E+00 0.  1.
        -11    1    4    4    0    0 -0.62762622172E+02 -0.22574619308E+02 -0.12154596360E+03  0.13864408191E+03  0.00000000000E+00 0.  1.
         11    1    4    4    0    0  0.31131425397E+02  0.85514670472E+00 -0.64151011953E+02  0.71310933648E+02  0.00000000000E+00 0. -1.
         -3    1    1    2    0  502  0.69926727466E+02  0.65358982173E+01 -0.18181902846E+03  0.19491183722E+03  0.00000000000E+00 0.  1.
<scales pt_clust_5="13000.00000" pt_clust_6="13000.00000" pt_clust_7="13000.00000" pt_clust_8="13000.00000" pt_clust_9="70.23151"></scales>
<clustering>
<clus scale="   70.232">  2  9  1 -1</clus>
<clus scale="   80.596">  5  6 -1 -1</clus>
<clus scale="   82.862">  1  5  2 -1</clus>
<clus scale="   90.141">  7  8 -1 -1</clus>
<clus scale="   70.232">  2  5  1 -1</clus>
</clustering>
</event>
<event>
 9    1  0.7719620E-005  0.1593670E+03  0.7546771E-02  0.1189765E+00
         21   -1    0    0  501  502  0.00000000000E+00  0.00000000000E+00  0.11458757557E+03  0.11458757557E+03  0.00000000000E+00 0.  1.
          1   -1    0    0  502    0 -0.00000000000E+00 -0.00000000000E+00 -0.52669061894E+03  0.52669061894E+03  0.00000000000E+00 0. -1.
         23    2    1    2    0    0 -0.13773503850E+03 -0.22345615887E+02 -0.39438779143E+03  0.42711890689E+03  0.86131081565E+02 0.  0.
        -24    2    1    2    0    0  0.11308848848E+03  0.38627905537E+02 -0.63892795599E+02  0.15934203738E+03  0.83824067161E+02 0.  0.
         13    1    4    4    0    0  0.64372690070E+02 -0.90096231345E+01 -0.63980070278E+02  0.91205624435E+02  0.00000000000E+00 0. -1.
        -14    1    4    4    0    0  0.48715798410E+02  0.47637528672E+02  0.87274678683E-01  0.68136412949E+02  0.00000000000E+00 0.  1.
        -13    1    3    3    0    0 -0.18547426309E+02 -0.12391330800E+02 -0.98018513139E+01  0.24364490367E+02  0.00000000000E+00 0.  1.
         13    1    3    3    0    0 -0.11918761219E+03 -0.99542850870E+01 -0.38458594012E+03  0.40275441652E+03  0.00000000000E+00 0. -1.
          2    1    1    2  501    0  0.24646550020E+02 -0.16282289650E+02  0.46177543666E+02  0.54817250233E+02  0.00000000000E+00 0. -1.
<scales pt_clust_5="13000.00000" pt_clust_6="13000.00000" pt_clust_7="13000.00000" pt_clust_8="13000.00000" pt_clust_9="29.53922"></scales>
<clustering>
<clus scale="   29.539">  1  9  2 -1</clus>
<clus scale="   83.824">  5  6 -1 -1</clus>
<clus scale="   86.131">  7  8 -1 -1</clus>
<clus scale="  158.132">  1  5  2 -1</clus>
<clus scale="   29.539">  1  5  2 -1</clus>
</clustering>
</event>
<event>
 9    1  0.7719620E-005  0.9156494E+02  0.7546771E-02  0.1301502E+00
         21   -1    0    0  501  502  0.00000000000E+00  0.00000000000E+00  0.89325079468E+02  0.89325079468E+02  0.00000000000E+00 0. -1.
          1   -1    0    0  502    0 -0.00000000000E+00 -0.00000000000E+00 -0.22738315348E+03  0.22738315348E+03  0.00000000000E+00 0. -1.
         23    2    1    2    0    0  0.11274410645E+02  0.13206467901E+02  0.59588029903E-01  0.87033024596E+02  0.85283179407E+02 0.  0.
        -24    2    1    2    0    0  0.33107563215E+01 -0.52465836572E+02 -0.12655868873E+02  0.97407726826E+02  0.81021411453E+02 0.  0.
         13    1    4    4    0    0 -0.99250348518E+01 -0.69194218328E+02 -0.23148348218E+02  0.73635536204E+02  0.00000000000E+00 0. -1.
        -14    1    4    4    0    0  0.13235791173E+02  0.16728381756E+02  0.10492479345E+02  0.23772190622E+02  0.00000000000E+00 0.  1.
        -11    1    3    3    0    0 -0.35784957953E+02 -0.54575759755E+01  0.29962513474E+01  0.36322525702E+02  0.00000000000E+00 0.  1.
         11    1    3    3    0    0  0.47059368598E+02  0.18664043877E+02 -0.29366633175E+01  0.50710498894E+02  0.00000000000E+00 0. -1.
          2    1    1    2  501    0 -0.14585166966E+02  0.39259368671E+02 -0.12546179317E+03  0.13226748152E+03  0.00000000000E+00 0. -1.
<scales pt_clust_5="13000.00000" pt_clust_6="13000.00000" pt_clust_7="13000.00000" pt_clust_8="13000.00000" pt_clust_9="41.88110"></scales>
<clustering>
<clus scale="   41.881">  1  9  2 -1</clus>
<clus scale="   81.021">  5  6 -1 -1</clus>
<clus scale="   85.283">  7  8 -1 -1</clus>
<clus scale="   87.609">  1  5  2 -1</clus>
<clus scale="   41.881">  1  5  2 -1</clus>
</clustering>
</event>
<event>
 9    1  0.7719620E-005  0.9934321E+02  0.7546771E-02  0.1287339E+00
          1   -1    0    0  502    0 -0.00000000000E+00  0.00000000000E+00  0.25334911985E+03  0.25334911985E+03  0.00000000000E+00 0. -1.
         21   -1    0    0  501  502  0.00000000000E+00 -0.00000000000E+00 -0.92201176918E+02  0.92201176918E+02  0.00000000000E+00 0. -1.
         23    2    1    2    0    0 -0.33233086679E+02 -0.24276315006E+02  0.81773851171E+02  0.12898941573E+03  0.90870947577E+02 0.  0.
        -24    2    1    2    0    0  0.45196545138E+02 -0.64193626486E+02  0.58008140131E+02  0.12476459149E+03  0.77702700047E+02 0.  0.
         11    1    4    4    0    0  0.21168618073E+02 -0.79293642422E+02  0.43832262309E+02  0.93042244915E+02  0.00000000000E+00 0. -1.
        -12    1    4    4    0    0  0.24027927065E+02  0.15100015935E+02  0.14175877822E+02  0.31722346576E+02  0.00000000000E+00 0.  1.
        -13    1    3    3    0    0 -0.47164053387E+02  0.20495907951E+02  0.31804852285E+02  0.60465517475E+02  0.00000000000E+00 0.  1.
         13    1    3    3    0    0  0.13930966708E+02 -0.44772222957E+02  0.49968998887E+02  0.68523898252E+02  0.00000000000E+00 0. -1.
          2    1    1    2  501    0 -0.11963458459E+02  0.88469941492E+02  0.21365951628E+02  0.91796289549E+02  0.00000000000E+00 0. -1.
<scales pt_clust_5="13000.00000" pt_clust_6="13000.00000" pt_clust_7="13000.00000" pt_clust_8="13000.00000" pt_clust_9="89.27516"></scales>
<clustering>
<clus scale="   77.703">  5  6 -1 -1</clus>
<clus scale="   89.275">  2  9  1 -1</clus>
<clus scale="   89.275">  2  5  1 -1</clus>
<clus scale="   90.871">  7  8 -1 -1</clus>
<clus scale="   89.275">  2  5  1 -1</clus>
</clustering>
</event>
<event>
 9    1  0.7719620E-005  0.1079927E+03  0.7546771E-02  0.1268719E+00
         21   -1    0    0  501  502  0.00000000000E+00  0.00000000000E+00  0.19162289001E+03  0.19162289001E+03  0.00000000000E+00 0. -1.
          1   -1    0    0  502    0 -0.00000000000E+00 -0.00000000000E+00 -0.68263912965E+03  0.68263912965E+03  0.00000000000E+00 0. -1.
         23    2    1    2    0    0 -0.26110067465E+02 -0.13501934089E+02 -0.39006344371E+03  0.40543751051E+03  0.10661166430E+03 0.  0.
        -24    2    1    2    0    0 -0.72906767476E+02  0.81089531201E+01 -0.25879243120E+03  0.28241965860E+03  0.86059219440E+02 0.  0.
         13    1    4    4    0    0 -0.87324520959E+02 -0.75237581381E+00 -0.24647589642E+03  0.26148901611E+03  0.00000000000E+00 0. -1.
        -14    1    4    4    0    0  0.14417753483E+02  0.88613289339E+01 -0.12316534785E+02  0.20930642490E+02  0.00000000000E+00 0.  1.
        -13    1    3    3    0    0  0.18902271690E+02 -0.44816572799E+02 -0.11337825671E+03  0.12337118857E+03  0.00000000000E+00 0.  1.
         13    1    3    3    0    0 -0.45012339156E+02  0.31314638710E+02 -0.27668518700E+03  0.28206632195E+03  0.00000000000E+00 0. -1.
          2    1    1    2  501    0  0.99016834941E+02  0.53929809685E+01  0.15783963527E+03  0.18640485055E+03  0.00000000000E+00 0. -1.
<scales pt_clust_5="13000.00000" pt_clust_6="13000.00000" pt_clust_7="13000.00000" pt_clust_8="13000.00000" pt_clust_9="99.16359"></scales>
<clustering>
<clus scale="   86.059">  5  6 -1 -1</clus>
<clus scale="   99.164">  1  9  2 -1</clus>
<clus scale="   99.164">  1  5  2 -1</clus>
<clus scale="  106.612">  7  8 -1 -1</clus>
<clus scale="   99.164">  1  5  2 -1</clus>
</clustering>
</event>
<event>
 9    1  0.7719620E-005  0.9349259E+02  0.7546771E-02  0.1301532E+00
         21   -1    0    0  501  502  0.00000000000E+00  0.00000000000E+00  0.47997075018E+02  0.47997075018E+02  0.00000000000E+00 0.  1.
          1   -1    0    0  502    0 -0.00000000000E+00 -0.00000000000E+00 -0.31962714654E+03  0.31962714654E+03  0.00000000000E+00 0. -1.
         23    2    1    2    0    0  0.24594866364E+02  0.19814710819E+02 -0.10310054347E+03  0.14055214018E+03  0.90153490380E+02 0.  0.
        -24    2    1    2    0    0 -0.17267633471E+02  0.85025810879E-02 -0.28147575309E+02  0.85108209968E+02  0.78440743050E+02 0.  0.
         11    1    4    4    0    0 -0.20732478433E+02 -0.34659118120E+02 -0.29858805359E+02  0.50225873694E+02  0.00000000000E+00 0. -1.
        -12    1    4    4    0    0  0.34648449626E+01  0.34667620701E+02  0.17112300509E+01  0.34882336274E+02  0.00000000000E+00 0.  1.
        -11    1    3    3    0    0 -0.34016082355E+02  0.10426677727E+02 -0.46346960233E+02  0.58428162645E+02  0.00000000000E+00 0. -1.
         11    1    3    3    0    0  0.58610948719E+02  0.93880330915E+01 -0.56753583238E+02  0.82123977531E+02  0.00000000000E+00 0.  1.
          2    1    1    2  501    0 -0.73272328928E+01 -0.19823213400E+02 -0.14038195274E+03  0.14196387141E+03  0.00000000000E+00 0. -1.
<scales pt_clust_5="13000.00000" pt_clust_6="13000.00000" pt_clust_7="13000.00000" pt_clust_8="13000.00000" pt_clust_9="21.13406"></scales>
<clustering>
<clus scale="   21.134">  1  9  2 -1</clus>
<clus scale="   78.441">  5  6 -1 -1</clus>
<clus scale="   82.257">  1  5  2 -1</clus>
<clus scale="   90.153">  7  8 -1 -1</clus>
<clus scale="   21.134">  1  5  2 -1</clus>
</clustering>
</event>
<event>
 9    1  0.7719620E-005  0.9430502E+02  0.7546771E-02  0.1295324E+00
          3   -1    0    0  502    0 -0.00000000000E+00  0.00000000000E+00  0.22671089833E+03  0.22671089833E+03  0.00000000000E+00 0. -1.
         21   -1    0    0  501  502  0.00000000000E+00 -0.00000000000E+00 -0.10272605082E+03  0.10272605082E+03  0.00000000000E+00 0.  1.
         23    2    1    2    0    0 -0.12433074154E+02 -0.35861757921E+02  0.15803496650E+03  0.18348516918E+03  0.85153447704E+02 0.  0.
        -24    2    1    2    0    0 -0.64357790531E+00  0.51189341842E+02  0.11763075509E+02  0.95903978333E+02  0.80239891600E+02 0.  0.
         11    1    4    4    0    0 -0.26345254611E+02 -0.25708225987E+01 -0.15173000354E+02  0.30510678607E+02  0.00000000000E+00 0. -1.
        -12    1    4    4    0    0  0.25701676706E+02  0.53760164441E+02  0.26936075863E+02  0.65393299726E+02  0.00000000000E+00 0.  1.
        -13    1    3    3    0    0  0.22016457792E+02 -0.14238090129E+02  0.70966571976E+01  0.27162661276E+02  0.00000000000E+00 0.  1.
         13    1    3    3    0    0 -0.34449531947E+02 -0.21623667792E+02  0.15093830931E+03  0.15632250790E+03  0.00000000000E+00 0. -1.
          4    1    1    2  501    0  0.13076652060E+02 -0.15327583921E+02 -0.45813194503E+02  0.50047801636E+02  0.00000000000E+00 0. -1.
<scales pt_clust_5="13000.00000" pt_clust_6="13000.00000" pt_clust_7="13000.00000" pt_clust_8="13000.00000" pt_clust_9="20.14780"></scales>
<clustering>
<clus scale="   20.148">  2  9  1 -1</clus>
<clus scale="   80.240">  5  6 -1 -1</clus>
<clus scale="   85.153">  7  8 -1 -1</clus>
<clus scale="   89.893">  2  5  1 -1</clus>
<clus scale="   20.148">  2  5  1 -1</clus>
</clustering>
</event>
<event>
 9    1  0.7719620E-005  0.1244446E+03  0.7546771E-02  0.1237906E+00
         21   -1    0    0  501  502  0.00000000000E+00  0.00000000000E+00  0.13284109068E+03  0.13284109068E+03  0.00000000000E+00 0.  1.
         -2   -1    0    0    0  501 -0.00000000000E+00 -0.00000000000E+00 -0.17111001266E+03  0.17111001266E+03  0.00000000000E+00 0.  1.
         23    2    1    2    0    0  0.55379687241E+02  0.81433219406E+02 -0.30994673595E+02  0.13586072157E+03  0.88313005230E+02 0.  0.
        -24    2    1    2    0    0 -0.57945918725E+02 -0.46862607779E+02  0.32860502661E+02  0.11505726972E+03  0.81268254417E+02 0.  0.
         13    1    4    4    0    0  0.15573491102E+02 -0.12846406989E+02  0.27171283970E+02  0.33850294979E+02  0.00000000000E+00 0. -1.
        -14    1    4    4    0    0 -0.73519409827E+02 -0.34016200791E+02  0.56892186917E+01  0.81206974743E+02  0.00000000000E+00 0.  1.
        -13    1    3    3    0    0  0.73613403533E+02  0.58508522849E+02 -0.43992219189E+02  0.10381471849E+03  0.00000000000E+00 0.  1.
         13    1    3    3    0    0 -0.18233716293E+02  0.22924696557E+02  0.12997545594E+02  0.32046003082E+02  0.00000000000E+00 0. -1.
         -1    1    1    2    0  502  0.25662314845E+01 -0.34570611626E+02 -0.40134751049E+02  0.53033112053E+02  0.00000000000E+00 0.  1.
<scales pt_clust_5="13000.00000" pt_clust_6="13000.00000" pt_clust_7="13000.00000" pt_clust_8="13000.00000" pt_clust_9="34.66575"></scales>
<clustering>
<clus scale="   34.666">  1  9  2 -1</clus>
<clus scale="   81.268">  5  6 -1 -1</clus>
<clus scale="   88.313">  7  8 -1 -1</clus>
<clus scale="  119.548">  1  5  2 -1</clus>
<clus scale="   34.666">  1  5  2 -1</clus>
</clustering>
</event>
<event>
 9    1  0.7719620E-005  0.9257295E+02  0.7546771E-02  0.1302503E+00
         21   -1    0    0  501  502  0.00000000000E+00  0.00000000000E+00  0.31327412442E+02  0.31327412442E+02  0.00000000000E+00 0. -1.
         -4   -1    0    0    0  501 -0.00000000000E+00 -0.00000000000E+00 -0.40061138993E+03  0.40061138993E+03  0.00000000000E+00 0.  1.
        -24    2    1    2    0    0 -0.23590953115E+02  0.15702902739E+01 -0.19463780735E+03  0.21231816283E+03  0.81462428995E+02 0.  0.
         23    2    1    2    0    0  0.56085866646E-01  0.20384460844E+02 -0.92256182404E+02  0.13116719895E+03  0.90984072781E+02 0.  0.
         13    1    3    3    0    0  0.74404577193E+01 -0.20527781905E+02 -0.10403508188E+02  0.24186426434E+02  0.00000000000E+00 0. -1.
        -14    1    3    3    0    0 -0.31031410834E+02  0.22098072179E+02 -0.18423429916E+03  0.18813173639E+03  0.00000000000E+00 0.  1.
        -13    1    4    4    0    0 -0.42870888887E+02  0.73029636509E+00 -0.27170634851E+02  0.50761105632E+02  0.00000000000E+00 0.  1.
         13    1    4    4    0    0  0.42926974754E+02  0.19654164479E+02 -0.65085547553E+02  0.80406093321E+02  0.00000000000E+00 0. -1.
         -3    1    1    2    0  502  0.23534867248E+02 -0.21954751118E+02 -0.82389987732E+02  0.88453440586E+02  0.00000000000E+00 0.  1.
<scales pt_clust_5="13000.00000" pt_clust_6="13000.00000" pt_clust_7="13000.00000" pt_clust_8="13000.00000" pt_clust_9="32.18543"></scales>
<clustering>
<clus scale="   32.185">  1  9  2 -1</clus>
<clus scale="   81.462">  5  6 -1 -1</clus>
<clus scale="   83.233">  2  5  1 -1</clus>
<clus scale="   90.984">  7  8 -1 -1</clus>
<clus scale="   32.185">  1  5  2 -1</clus>
</clustering>
</event>
<event>
 9    1  0.7719620E-005  0.1567617E+03  0.7546771E-02  0.1202954E+00
         21   -1    0    0  501  502  0.00000000000E+00  0.00000000000E+00  0.27315422758E+03  0.27315422758E+03  0.00000000000E+00 0. -1.
          1   -1    0    0  502    0 -0.00000000000E+00 -0.00000000000E+00 -0.26661343606E+03  0.26661343606E+03  0.00000000000E+00 0. -1.
         23    2    1    2    0    0  0.41695537264E+02 -0.91684278613E+02 -0.18223891121E+03  0.24328318716E+03  0.12582195208E+03 0.  0.
        -24    2    1    2    0    0 -0.77110778096E+02  0.43456309767E+02  0.26756635478E+02  0.12376606234E+03  0.82265410034E+02 0.  0.
         13    1    4    4    0    0 -0.18262280093E+02 -0.99412305344E+01 -0.22212374583E+02  0.30425787144E+02  0.00000000000E+00 0. -1.
        -14    1    4    4    0    0 -0.58848498003E+02  0.53397540301E+02  0.48969010060E+02  0.93340275197E+02  0.00000000000E+00 0.  1.
        -13    1    3    3    0    0  0.43302746035E+02 -0.12247820309E+03 -0.15395522432E+03  0.20144043571E+03  0.00000000000E+00 0. -1.
         13    1    3    3    0    0 -0.16072087709E+01  0.30793924478E+02 -0.28283686889E+02  0.41842751449E+02  0.00000000000E+00 0.  1.
          2    1    1    2  501    0  0.35415240832E+02  0.48227968846E+02  0.16202306725E+03  0.17271841414E+03  0.00000000000E+00 0. -1.
<scales pt_clust_5="13000.00000" pt_clust_6="13000.00000" pt_clust_7="13000.00000" pt_clust_8="13000.00000" pt_clust_9="59.83457"></scales>
<clustering>
<clus scale="   59.835">  1  9  2 -1</clus>
<clus scale="   82.265">  5  6 -1 -1</clus>
<clus scale="  124.542">  1  5  2 -1</clus>
<clus scale="  125.822">  7  8 -1 -1</clus>
<clus scale="   59.835">  1  5  2 -1</clus>
</clustering>
</event>
<event>
 9    1  0.7719620E-005  0.1004028E+03  0.7546771E-02  0.1284946E+00
         21   -1    0    0  501  502  0.00000000000E+00  0.00000000000E+00  0.22648435911E+03  0.22648435911E+03  0.00000000000E+00 0.  1.
         -4   -1    0    0    0  501 -0.00000000000E+00 -0.00000000000E+00 -0.52054004312E+02  0.52054004312E+02  0.00000000000E+00 0.  1.
         23    2    1    2    0    0 -0.41438120589E+02 -0.12484964040E+02  0.69214996905E+02  0.12371643674E+03  0.92962620222E+02 0.  0.
        -24    2    1    2    0    0  0.34375809179E+02 -0.95706184196E+01  0.75373052834E+02  0.11704775387E+03  0.82132737682E+02 0.  0.
         13    1    4    4    0    0  0.53815959920E+02 -0.98595848356E+01  0.80134931042E+02  0.97030799895E+02  0.00000000000E+00 0. -1.
        -14    1    4    4    0    0 -0.19440150741E+02  0.28896641599E+00 -0.47618782073E+01  0.20016953976E+02  0.00000000000E+00 0.  1.
        -13    1    3    3    0    0 -0.11595273737E+02 -0.23098455711E+02 -0.17623210838E+02  0.31282048998E+02  0.00000000000E+00 0. -1.
         13    1    3    3    0    0 -0.29842846853E+02  0.10613491671E+02  0.86838207743E+02  0.92434387744E+02  0.00000000000E+00 0.  1.
         -3    1    1    2    0  502  0.70623114098E+01  0.22055582459E+02  0.29842305057E+02  0.37774172806E+02  0.00000000000E+00 0.  1.
<scales pt_clust_5="13000.00000" pt_clust_6="13000.00000" pt_clust_7="13000.00000" pt_clust_8="13000.00000" pt_clust_9="23.15869"></scales>
<clustering>
<clus scale="   23.159">  1  9  2 -1</clus>
<clus scale="   82.133">  5  6 -1 -1</clus>
<clus scale="   90.468">  1  5  2 -1</clus>
<clus scale="   92.963">  7  8 -1 -1</clus>
<clus scale="   23.159">  1  5  2 -1</clus>
</clustering>
</event>
<event>
 9    1  0.1196401E-004  0.1572142E+03  0.7546771E-02  0.1203291E+00
         21   -1    0    0  501  502  0.00000000000E+00  0.00000000000E+00  0.23931142950E+03  0.23931142950E+03  0.00000000000E+00 0.  1.
          1   -1    0    0  502    0 -0.00000000000E+00 -0.00000000000E+00 -0.42687066145E+03  0.42687066145E+03  0.00000000000E+00 0. -1.
        -24    2    1    2    0    0  0.89273956439E+02 -0.26986348245E+02 -0.36755483138E+03  0.38761664234E+03  0.80324373976E+02 0.  0.
         23    2    1    2    0    0 -0.90498047949E+02 -0.13255236833E+02  0.91481265347E+02  0.18132517450E+03  0.12706061157E+03 0.  0.
         13    1    3    3    0    0  0.10114458918E+03 -0.26561782944E+02 -0.27342777309E+03  0.29274306709E+03  0.00000000000E+00 0. -1.
        -14    1    3    3    0    0 -0.11870632738E+02 -0.42456530071E+00 -0.94127058288E+02  0.94873575243E+02  0.00000000000E+00 0.  1.
        -13    1    4    4    0    0 -0.91420444364E+02 -0.43143947819E+02  0.10736422623E+03  0.14746584335E+03  0.00000000000E+00 0.  1.
         13    1    4    4    0    0  0.92239641553E+00  0.29888710986E+02 -0.15882960884E+02  0.33859331151E+02  0.00000000000E+00 0. -1.
          2    1    1    2  501    0  0.12240915097E+01  0.40241585078E+02  0.88514334090E+02  0.97240274111E+02  0.00000000000E+00 0. -1.
<scales pt_clust_5="13000.00000" pt_clust_6="13000.00000" pt_clust_7="13000.00000" pt_clust_8="13000.00000" pt_clust_9="40.26020"></scales>
<clustering>
<clus scale="   40.260">  1  9  2 -1</clus>
<clus scale="   80.324">  5  6 -1 -1</clus>
<clus scale="  122.572">  2  5  1 -1</clus>
<clus scale="  127.061">  7  8 -1 -1</clus>
<clus scale="   40.260">  1  5  2 -1</clus>
</clustering>
</event>
<event>
 9    1  0.7719620E-005  0.1435113E+03  0.7546771E-02  0.1210570E+00
         -4   -1    0    0    0  501 -0.00000000000E+00  0.00000000000E+00  0.11012775946E+03  0.11012775946E+03  0.00000000000E+00 0.  1.
         21   -1    0    0  501  502  0.00000000000E+00 -0.00000000000E+00 -0.40713279632E+03  0.40713279632E+03  0.00000000000E+00 0.  1.
        -24    2    1    2    0    0  0.88565472153E+02 -0.55383920066E+02 -0.16231032652E+02  0.13347458838E+03  0.81491090693E+02 0.  0.
         23    2    1    2    0    0 -0.57932593458E+02  0.12947970232E+03 -0.12898800973E+03  0.21212482933E+03  0.90762645763E+02 0.  0.
         13    1    3    3    0    0  0.71558373094E+02 -0.54301608174E+02 -0.44668264443E+02  0.10032207762E+03  0.00000000000E+00 0. -1.
        -14    1    3    3    0    0  0.17007099059E+02 -0.10823118916E+01  0.28437231792E+02  0.33152510756E+02  0.00000000000E+00 0.  1.
        -13    1    4    4    0    0  0.12013568792E+02  0.19482950724E+02  0.68179308395E+01  0.23882951764E+02  0.00000000000E+00 0. -1.
         13    1    4    4    0    0 -0.69946162250E+02  0.10999675160E+03 -0.13580594057E+03  0.18824187756E+03  0.00000000000E+00 0.  1.
         -3    1    1    2    0  502 -0.30632878695E+02 -0.74095782255E+02 -0.15178599448E+03  0.17166113807E+03  0.00000000000E+00 0.  1.
<scales pt_clust_5="13000.00000" pt_clust_6="13000.00000" pt_clust_7="13000.00000" pt_clust_8="13000.00000" pt_clust_9="80.17829"></scales>
<clustering>
<clus scale="   80.178">  2  9  1 -1</clus>
<clus scale="   81.491">  5  6 -1 -1</clus>
<clus scale="   90.763">  7  8 -1 -1</clus>
<clus scale="  137.835">  1  5  2 -1</clus>
<clus scale="   80.178">  2  5  1 -1</clus>
</clustering>
</event>
<event>
 9    1  0.7719620E-005  0.1140581E+03  0.7546771E-02  0.1256814E+00
          1   -1    0    0  502    0 -0.00000000000E+00  0.00000000000E+00  0.31455737821E+03  0.31455737821E+03  0.00000000000E+00 0. -1.
         21   -1    0    0  501  502  0.00000000000E+00 -0.00000000000E+00 -0.12247088118E+03  0.12247088118E+03  0.00000000000E+00 0. -1.
         23    2    1    2    0    0  0.24923435910E+02 -0.59812174761E+02  0.22939881637E+03  0.25508700917E+03  0.90812396655E+02 0.  0.
        -24    2    1    2    0    0 -0.38763020874E+02  0.75930452011E+02  0.21508574688E+02  0.11940141854E+03  0.80784123647E+02 0.  0.
         11    1    4    4    0    0 -0.87347636408E+01  0.81889232032E+02  0.29973704647E+02  0.87638834936E+02  0.00000000000E+00 0. -1.
        -12    1    4    4    0    0 -0.30028257233E+02 -0.59587800202E+01 -0.84651299589E+01  0.31762583601E+02  0.00000000000E+00 0.  1.
        -13    1    3    3    0    0  0.50616848663E+02 -0.40411080391E+02  0.20413057281E+03  0.21415978040E+03  0.00000000000E+00 0. -1.
         13    1    3    3    0    0 -0.25693412753E+02 -0.19401094370E+02  0.25268243563E+02  0.40927228765E+02  0.00000000000E+00 0.  1.
          2    1    1    2  501    0  0.13839584963E+02 -0.16118277251E+02 -0.58820894024E+02  0.62539831686E+02  0.00000000000E+00 0. -1.
<scales pt_clust_5="13000.00000" pt_clust_6="13000.00000" pt_clust_7="13000.00000" pt_clust_8="13000.00000" pt_clust_9="21.24460"></scales>
<clustering>
<clus scale="   21.245">  2  9  1 -1</clus>
<clus scale="   80.784">  5  6 -1 -1</clus>
<clus scale="   90.812">  7  8 -1 -1</clus>
<clus scale="  106.247">  2  5  1 -1</clus>
<clus scale="   21.245">  2  5  1 -1</clus>
</clustering>
</event>
<event>
 9    1  0.7719620E-005  0.9499170E+02  0.7546771E-02  0.1295709E+00
          1   -1    0    0  502    0 -0.00000000000E+00  0.00000000000E+00  0.31717597909E+03  0.31717597909E+03  0.00000000000E+00 0. -1.
         21   -1    0    0  501  502  0.00000000000E+00 -0.00000000000E+00 -0.16197801671E+03  0.16197801671E+03  0.00000000000E+00 0.  1.
         23    2    1    2    0    0  0.28066101191E+02 -0.92247380802E+01  0.16055214493E+03  0.18551337687E+03  0.88121620109E+02 0.  0.
        -24    2    1    2    0    0 -0.10480866406E+03 -0.33835109111E+01 -0.10410879121E+03  0.16793914070E+03  0.79803573638E+02 0.  0.
         13    1    4    4    0    0 -0.21017227027E+02 -0.16778168257E+02  0.73273653948E+01  0.27873303457E+02  0.00000000000E+00 0. -1.
        -14    1    4    4    0    0 -0.83791437031E+02  0.13394657346E+02 -0.11143615660E+03  0.14006583724E+03  0.00000000000E+00 0.  1.
        -13    1    3    3    0    0  0.57715712604E+02 -0.20343399242E+02  0.10941196182E+03  0.12536321137E+03  0.00000000000E+00 0.  1.
         13    1    3    3    0    0 -0.29649611413E+02  0.11118661162E+02  0.51140183101E+02  0.60150165508E+02  0.00000000000E+00 0. -1.
          2    1    1    2  501    0  0.76742562867E+02  0.12608248991E+02  0.98754608651E+02  0.12570147822E+03  0.00000000000E+00 0. -1.
<scales pt_clust_5="13000.00000" pt_clust_6="13000.00000" pt_clust_7="13000.00000" pt_clust_8="13000.00000" pt_clust_9="77.77143"></scales>
<clustering>
<clus scale="   77.771">  2  9  1 -1</clus>
<clus scale="   79.804">  5  6 -1 -1</clus>
<clus scale="   87.330">  2  5  1 -1</clus>
<clus scale="   88.122">  7  8 -1 -1</clus>
<clus scale="   77.771">  2  5  1 -1</clus>
</clustering>
</event>
<event>
 9    1  0.7719620E-005  0.9367597E+02  0.7546771E-02  0.1296344E+00
          3   -1    0    0  502    0 -0.00000000000E+00  0.00000000000E+00  0.31075107918E+03  0.31075107918E+03  0.00000000000E+00 0. -1.
         21   -1    0    0  501  502  0.00000000000E+00 -0.00000000000E+00 -0.70243423095E+02  0.70243423095E+02  0.00000000000E+00 0.  1.
        -24    2    1    2    0    0  0.17598094569E+02 -0.24323677051E+02  0.24788256267E+03  0.26391468036E+03  0.85462620093E+02 0.  0.
         23    2    1    2    0    0 -0.24549535485E+02  0.15642334820E+01 -0.97382566302E+01  0.93165386406E+02  0.89329888968E+02 0.  0.
         11    1    3    3    0    0  0.14282341261E+01 -0.55458454330E+02  0.14898103338E+03  0.15897492983E+03  0.00000000000E+00 0. -1.
        -12    1    3    3    0    0  0.16169860443E+02  0.31134777280E+02  0.98901529296E+02  0.10493975052E+03  0.00000000000E+00 0.  1.
        -13    1    4    4    0    0 -0.36565199043E+02  0.29089361820E+02 -0.31259546431E+02  0.56217114789E+02  0.00000000000E+00 0.  1.
         13    1    4    4    0    0  0.12015663558E+02 -0.27525128338E+02  0.21521289801E+02  0.36948271617E+02  0.00000000000E+00 0. -1.
          4    1    1    2  501    0  0.69514409164E+01  0.22759443569E+02  0.23633500418E+01  0.23914435511E+02  0.00000000000E+00 0. -1.
<scales pt_clust_5="13000.00000" pt_clust_6="13000.00000" pt_clust_7="13000.00000" pt_clust_8="13000.00000" pt_clust_9="23.79737"></scales>
<clustering>
<clus scale="   23.797">  2  9  1 -1</clus>
<clus scale="   85.463">  5  6 -1 -1</clus>
<clus scale="   89.330">  7  8 -1 -1</clus>
<clus scale="   89.996">  1  5  2 -1</clus>
<clus scale="   23.797">  2  5  1 -1</clus>
</clustering>
</event>
<event>
 9    1  0.7719620E-005  0.1261597E+03  0.7546771E-02  0.1247424E+00
         21   -1    0    0  501  502  0.00000000000E+00  0.00000000000E+00  0.17139582072E+03  0.17139582072E+03  0.00000000000E+00 0.  1.
         -2   -1    0    0    0  501 -0.00000000000E+00 -0.00000000000E+00 -0.16115073466E+03  0.16115073466E+03  0.00000000000E+00 0.  1.
         23    2    1    2    0    0 -0.41296316993E+01 -0.33859806445E+02 -0.45642654677E+02  0.10508103205E+03  0.88290605509E+02 0.  0.
        -24    2    1    2    0    0 -0.87533556501E+02  0.33691494059E+01  0.23196841792E+02  0.12548260754E+03  0.86800441500E+02 0.  0.
         11    1    4    4    0    0 -0.17157793222E+02  0.17046419338E+02  0.44537774357E+02  0.50681195972E+02  0.00000000000E+00 0. -1.
        -12    1    4    4    0    0 -0.70375763278E+02 -0.13677269932E+02 -0.21340932565E+02  0.74801411568E+02  0.00000000000E+00 0.  1.
        -11    1    3    3    0    0 -0.25165300826E+02 -0.46312860788E+02 -0.57422324430E+02  0.77945473140E+02  0.00000000000E+00 0. -1.
         11    1    3    3    0    0  0.21035669126E+02  0.12453054344E+02  0.11779669754E+02  0.27135558914E+02  0.00000000000E+00 0.  1.
         -1    1    1    2    0  502  0.91663188200E+02  0.30490657039E+02  0.32690898944E+02  0.10198291578E+03  0.00000000000E+00 0.  1.
<scales pt_clust_5="13000.00000" pt_clust_6="13000.00000" pt_clust_7="13000.00000" pt_clust_8="13000.00000" pt_clust_9="91.55307"></scales>
<clustering>
<clus scale="   86.800">  5  6 -1 -1</clus>
<clus scale="   88.291">  7  8 -1 -1</clus>
<clus scale="   94.651">  2  7  1 -1</clus>
<clus scale="   91.553">  1  9  2 -1</clus>
<clus scale="   91.553">  1  5  2 -1</clus>
</clustering>
</event>
<event>
 9    1  0.7719620E-005  0.1424968E+03  0.7546771E-02  0.1233746E+00
         21   -1    0    0  501  502  0.00000000000E+00  0.00000000000E+00  0.26950304867E+03  0.26950304867E+03  0.00000000000E+00 0. -1.
          3   -1    0    0  502    0 -0.00000000000E+00 -0.00000000000E+00 -0.21129073971E+03  0.21129073971E+03  0.00000000000E+00 0. -1.
        -24    2    1    2    0    0 -0.26729904121E+02  0.81602819439E+01 -0.48506324427E+02  0.99344747885E+02  0.82069710901E+02 0.  0.
         23    2    1    2    0    0 -0.81421058653E+02  0.80160383708E+01 -0.91546941867E+02  0.15502567063E+03  0.94649196124E+02 0.  0.
         13    1    3    3    0    0 -0.52843527251E+02 -0.11388449322E+02 -0.31305540918E+02  0.62467367821E+02  0.00000000000E+00 0. -1.
        -14    1    3    3    0    0  0.26113623130E+02  0.19548731266E+02 -0.17200783508E+02  0.36877380064E+02  0.00000000000E+00 0.  1.
        -11    1    4    4    0    0 -0.92194828894E+02  0.32970074872E+02 -0.70653712292E+02  0.12074294751E+03  0.00000000000E+00 0. -1.
         11    1    4    4    0    0  0.10773770242E+02 -0.24954036501E+02 -0.20893229575E+02  0.34282723127E+02  0.00000000000E+00 0.  1.
          4    1    1    2  501    0  0.10815096277E+03 -0.16176320315E+02  0.19826557525E+03  0.22642336986E+03  0.00000000000E+00 0. -1.
<scales pt_clust_5="13000.00000" pt_clust_6="13000.00000" pt_clust_7="13000.00000" pt_clust_8="13000.00000" pt_clust_9="106.52167"></scales>
<clustering>
<clus scale="   82.070">  5  6 -1 -1</clus>
<clus scale="   86.698">  2  5  1 -1</clus>
<clus scale="   94.649">  7  8 -1 -1</clus>
<clus scale="  106.522">  1  9  2 -1</clus>
<clus scale="  106.522">  1  5  2 -1</clus>
</clustering>
</event>
<event>
 9    1  0.7719620E-005  0.3945532E+03  0.7546771E-02  0.1046054E+00
          1   -1    0    0  502    0 -0.00000000000E+00  0.00000000000E+00  0.13867580722E+04  0.13867580722E+04  0.00000000000E+00 0. -1.
         21   -1    0    0  501  502  0.00000000000E+00 -0.00000000000E+00 -0.21792917971E+03  0.21792917971E+03  0.00000000000E+00 0. -1.
         23    2    1    2    0    0  0.36931960606E+03  0.16757976042E+03  0.84434004687E+03  0.94170532029E+03  0.97050749507E+02 0.  0.
        -24    2    1    2    0    0 -0.35083791981E+03  0.23312096119E+02  0.11309714989E+03  0.37755642006E+03  0.78276338796E+02 0.  0.
         11    1    4    4    0    0 -0.27741322479E+03  0.48013026155E+02  0.10123473936E+03  0.29918526103E+03  0.00000000000E+00 0. -1.
        -12    1    4    4    0    0 -0.73424695023E+02 -0.24700930036E+02  0.11862410532E+02  0.78371159029E+02  0.00000000000E+00 0.  1.
        -13    1    3    3    0    0  0.68629164907E+02  0.75921116777E+02  0.22356261236E+03  0.24587439861E+03  0.00000000000E+00 0.  1.
         13    1    3    3    0    0  0.30069044116E+03  0.91658643642E+02  0.62077743452E+03  0.69583092168E+03  0.00000000000E+00 0. -1.
          2    1    1    2  501    0 -0.18481686255E+02 -0.19089185654E+03  0.21139169570E+03  0.28542551152E+03  0.00000000000E+00 0. -1.
<scales pt_clust_5="13000.00000" pt_clust_6="13000.00000" pt_clust_7="13000.00000" pt_clust_8="13000.00000" pt_clust_9="191.78454"></scales>
<clustering>
<clus scale="   78.276">  5  6 -1 -1</clus>
<clus scale="   97.051">  7  8 -1 -1</clus>
<clus scale="  191.785">  2  9  1 -1</clus>
<clus scale="  390.360">  2  5  1 -1</clus>
<clus scale="  191.785">  2  5  1 -1</clus>
</clustering>
</event>
<event>
 9    1  0.7719620E-005  0.9578673E+02  0.7546771E-02  0.1301211E+00
         21   -1    0    0  501  502  0.00000000000E+00  0.00000000000E+00  0.15867010425E+03  0.15867010425E+03  0.00000000000E+00 0.  1.
         -2   -1    0    0    0  501 -0.00000000000E+00 -0.00000000000E+00 -0.20391230600E+03  0.20391230600E+03  0.00000000000E+00 0.  1.
         23    2    1    2    0    0 -0.31356036340E+02 -0.32421472676E+02 -0.13008242942E+03  0.16553944064E+03  0.91910364264E+02 0.  0.
        -24    2    1    2    0    0 -0.12446094980E+02  0.90607932765E+01 -0.23937326935E+02  0.77473306077E+02  0.72056327124E+02 0.  0.
         11    1    4    4    0    0  0.22520369538E+02  0.26310655589E+02 -0.97006383666E+01  0.35965539429E+02  0.00000000000E+00 0. -1.
        -12    1    4    4    0    0 -0.34966464519E+02 -0.17249862313E+02 -0.14236688569E+02  0.41507766649E+02  0.00000000000E+00 0.  1.
        -13    1    3    3    0    0 -0.63953361716E+02 -0.17226305496E+02 -0.88964507943E+02  0.11091195494E+03  0.00000000000E+00 0.  1.
         13    1    3    3    0    0  0.32597325376E+02 -0.15195167180E+02 -0.41117921472E+02  0.54627485696E+02  0.00000000000E+00 0. -1.
         -1    1    1    2    0  502  0.43802131320E+02  0.23360679400E+02  0.10877755460E+03  0.11956966352E+03  0.00000000000E+00 0.  1.
<scales pt_clust_5="13000.00000" pt_clust_6="13000.00000" pt_clust_7="13000.00000" pt_clust_8="13000.00000" pt_clust_9="49.64220"></scales>
<clustering>
<clus scale="   49.642">  1  9  2 -1</clus>
<clus scale="   72.056">  5  6 -1 -1</clus>
<clus scale="   76.940">  1  5  2 -1</clus>
<clus scale="   91.910">  7  8 -1 -1</clus>
<clus scale="   49.642">  1  5  2 -1</clus>
</clustering>
</event>
<event>
 9    1  0.7719620E-005  0.9686671E+02  0.7546771E-02  0.1289523E+00
         21   -1    0    0  501  502  0.00000000000E+00  0.00000000000E+00  0.20772000521E+03  0.20772000521E+03  0.00000000000E+00 0. -1.
         -2   -1    0    0    0  501 -0.00000000000E+00 -0.00000000000E+00 -0.70669997819E+02  0.70669997819E+02  0.00000000000E+00 0.  1.
         23    2    1    2    0    0  0.20965235158E+02 -0.52444060201E+02  0.20655621447E+01  0.94589215866E+02  0.75848089466E+02 0.  0.
        -24    2    1    2    0    0 -0.39567409505E+02  0.29481369157E+02  0.98649397968E+02  0.13696531203E+03  0.81197672114E+02 0.  0.
         13    1    4    4    0    0 -0.58131275960E+02  0.36029922212E+02  0.94820068588E+02  0.11691127382E+03  0.00000000000E+00 0. -1.
        -14    1    4    4    0    0  0.18563866455E+02 -0.65485530542E+01  0.38293293807E+01  0.20054038206E+02  0.00000000000E+00 0.  1.
        -11    1    3    3    0    0 -0.24440797682E+02 -0.25708309871E+01  0.10290133555E+02  0.26642984290E+02  0.00000000000E+00 0. -1.
         11    1    3    3    0    0  0.45406032840E+02 -0.49873229214E+02 -0.82245714099E+01  0.67946231576E+02  0.00000000000E+00 0.  1.
         -1    1    1    2    0  502  0.18602174347E+02  0.22962691044E+02  0.36335047276E+02  0.46835475134E+02  0.00000000000E+00 0.  1.
<scales pt_clust_5="13000.00000" pt_clust_6="13000.00000" pt_clust_7="13000.00000" pt_clust_8="13000.00000" pt_clust_9="29.55209"></scales>
<clustering>
<clus scale="   29.552">  1  9  2 -1</clus>
<clus scale="   75.848">  7  8 -1 -1</clus>
<clus scale="   81.198">  5  6 -1 -1</clus>
<clus scale="   92.429">  2  7  1 -1</clus>
<clus scale="   29.552">  1  5  2 -1</clus>
</clustering>
</event>
<event>
 9    1  0.7719620E-005  0.9155121E+02  0.7546771E-02  0.1305573E+00
          3   -1    0    0  502    0 -0.00000000000E+00  0.00000000000E+00  0.74285037398E+02  0.74285037398E+02  0.00000000000E+00 0. -1.
         21   -1    0    0  501  502  0.00000000000E+00 -0.00000000000E+00 -0.46975755013E+03  0.46975755013E+03  0.00000000000E+00 0.  1.
         23    2    1    2    0    0 -0.12484672985E+02 -0.93428879354E+01  0.30568549778E+02  0.96630904081E+02  0.90332379430E+02 0.  0.
        -24    2    1    2    0    0 -0.12132175254E+02  0.23734414247E+02 -0.40003004696E+03  0.40881533418E+03  0.79971412987E+02 0.  0.
         13    1    4    4    0    0  0.10277327479E+02  0.26482862966E+02 -0.45988784451E+02  0.54054914543E+02  0.00000000000E+00 0. -1.
        -14    1    4    4    0    0 -0.22409502733E+02 -0.27484487191E+01 -0.35404126251E+03  0.35476041964E+03  0.00000000000E+00 0.  1.
        -13    1    3    3    0    0 -0.17801748249E+02 -0.47827279014E+02  0.26681638269E+02  0.57586983593E+02  0.00000000000E+00 0. -1.
         13    1    3    3    0    0  0.53170752636E+01  0.38484391078E+02  0.38869115083E+01  0.39043920488E+02  0.00000000000E+00 0.  1.
          4    1    1    2  501    0  0.24616848239E+02 -0.14391526312E+02 -0.26011015553E+02  0.38596349269E+02  0.00000000000E+00 0. -1.
<scales pt_clust_5="13000.00000" pt_clust_6="13000.00000" pt_clust_7="13000.00000" pt_clust_8="13000.00000" pt_clust_9="28.51501"></scales>
<clustering>
<clus scale="   28.515">  2  9  1 -1</clus>
<clus scale="   79.971">  5  6 -1 -1</clus>
<clus scale="   81.346">  2  5  1 -1</clus>
<clus scale="   90.332">  7  8 -1 -1</clus>
<clus scale="   28.515">  2  5  1 -1</clus>
</clustering>
</event>
<event>
 9    1  0.7719620E-005  0.9239146E+02  0.7546771E-02  0.1301881E+00
         21   -1    0    0  501  502  0.00000000000E+00  0.00000000000E+00  0.21218733023E+03  0.21218733023E+03  0.00000000000E+00 0.  1.
          3   -1    0    0  502    0 -0.00000000000E+00 -0.00000000000E+00 -0.68912304287E+02  0.68912304287E+02  0.00000000000E+00 0. -1.
        -24    2    1    2    0    0 -0.19678762831E+02  0.79772012225E+01 -0.12491912343E+02  0.84415559782E+02  0.80740630499E+02 0.  0.
         23    2    1    2    0    0  0.37547530482E+02 -0.18026963472E+02  0.11566670625E+03  0.15164720997E+03  0.88787954699E+02 0.  0.
         11    1    3    3    0    0  0.35316463863E+01 -0.32957751232E+02 -0.16801133734E+02  0.37161323808E+02  0.00000000000E+00 0. -1.
        -12    1    3    3    0    0 -0.23210409218E+02  0.40934952454E+02  0.43092213901E+01  0.47254235974E+02  0.00000000000E+00 0.  1.
        -11    1    4    4    0    0 -0.25806286840E+02  0.29579460634E+01  0.12625921475E+02  0.28881270375E+02  0.00000000000E+00 0.  1.
         11    1    4    4    0    0  0.63353817322E+02 -0.20984909536E+02  0.10304078477E+03  0.12276593959E+03  0.00000000000E+00 0. -1.
          4    1    1    2  501    0 -0.17868767650E+02  0.10049762250E+02  0.40100232043E+02  0.45036864772E+02  0.00000000000E+00 0. -1.
<scales pt_clust_5="13000.00000" pt_clust_6="13000.00000" pt_clust_7="13000.00000" pt_clust_8="13000.00000" pt_clust_9="20.50099"></scales>
<clustering>
<clus scale="   20.501">  1  9  2 -1</clus>
<clus scale="   80.741">  5  6 -1 -1</clus>
<clus scale="   84.687">  2  5  1 -1</clus>
<clus scale="   88.788">  7  8 -1 -1</clus>
<clus scale="   20.501">  1  5  2 -1</clus>
</clustering>
</event>
<event>
 9    1  0.7719620E-005  0.1838194E+03  0.7546771E-02  0.1164672E+00
         21   -1    0    0  501  502  0.00000000000E+00  0.00000000000E+00  0.36071486236E+02  0.36071486236E+02  0.00000000000E+00 0. -1.
          1   -1    0    0  502    0 -0.00000000000E+00 -0.00000000000E+00 -0.16566961586E+04  0.16566961586E+04  0.00000000000E+00 0. -1.
         23    2    1    2    0    0  0.74620108594E+02 -0.13668214750E+03 -0.69489397343E+03  0.71804676434E+03  0.91996475099E+02 0.  0.
        -24    2    1    2    0    0 -0.19543973070E+02  0.17290488910E+03 -0.40041522278E+03  0.44528550464E+03  0.87571470525E+02 0.  0.
         11    1    4    4    0    0 -0.40042343227E+02  0.15263894372E+03 -0.27939154442E+03  0.32087641154E+03  0.00000000000E+00 0. -1.
        -12    1    4    4    0    0  0.20498370157E+02  0.20265945379E+02 -0.12102367836E+03  0.12440909310E+03  0.00000000000E+00 0.  1.
        -13    1    3    3    0    0  0.26989367646E+02  0.74673545851E+01 -0.13915506902E+03  0.14194478005E+03  0.00000000000E+00 0.  1.
         13    1    3    3    0    0  0.47630740949E+02 -0.14414950208E+03 -0.55573890441E+03  0.57610198429E+03  0.00000000000E+00 0. -1.
          2    1    1    2  501    0 -0.55076135525E+02 -0.36222741602E+02 -0.52531547617E+03  0.52943537587E+03  0.00000000000E+00 0. -1.
<scales pt_clust_5="13000.00000" pt_clust_6="13000.00000" pt_clust_7="13000.00000" pt_clust_8="13000.00000" pt_clust_9="65.92019"></scales>
<clustering>
<clus scale="   65.920">  1  9  2 -1</clus>
<clus scale="   87.571">  5  6 -1 -1</clus>
<clus scale="   91.996">  7  8 -1 -1</clus>
<clus scale="  181.645">  1  5  2 -1</clus>
<clus scale="   65.920">  1  5  2 -1</clus>
</clustering>
</event>
<event>
 9    1  0.7719620E-005  0.2459390E+03  0.7546771E-02  0.1116616E+00
         -4   -1    0    0    0  501 -0.00000000000E+00  0.00000000000E+00  0.25292089247E+03  0.25292089247E+03  0.00000000000E+00 0.  1.
         21   -1    0    0  501  502  0.00000000000E+00 -0.00000000000E+00 -0.56220241375E+03  0.56220241375E+03  0.00000000000E+00 0. -1.
        -24    2    1    2    0    0  0.61622124735E+02  0.22476503677E+03  0.11326833025E+03  0.27127782269E+03  0.80282840219E+02 0.  0.
         23    2    1    2    0    0  0.37182996593E+02 -0.21716171414E+03 -0.33553413237E+03  0.41196675933E+03  0.92691269735E+02 0.  0.
         13    1    3    3    0    0 -0.30884797183E+00  0.32549067803E+02 -0.10762921479E+02  0.34283781599E+02  0.00000000000E+00 0. -1.
        -14    1    3    3    0    0  0.61930972707E+02  0.19221596896E+03  0.12403125173E+03  0.23699404109E+03  0.00000000000E+00 0.  1.
        -13    1    4    4    0    0  0.13000134331E+00 -0.17383415962E+03 -0.20034255163E+03  0.26524605548E+03  0.00000000000E+00 0. -1.
         13    1    4    4    0    0  0.37052995250E+02 -0.43327554521E+02 -0.13519158074E+03  0.14672070386E+03  0.00000000000E+00 0.  1.
         -3    1    1    2    0  502 -0.98805121329E+02 -0.76033226282E+01 -0.87015719162E+02  0.13187872420E+03  0.00000000000E+00 0.  1.
<scales pt_clust_5="13000.00000" pt_clust_6="13000.00000" pt_clust_7="13000.00000" pt_clust_8="13000.00000" pt_clust_9="99.09724"></scales>
<clustering>
<clus scale="   80.283">  5  6 -1 -1</clus>
<clus scale="   92.691">  7  8 -1 -1</clus>
<clus scale="   99.097">  2  9  1 -1</clus>
<clus scale="  241.536">  1  5  2 -1</clus>
<clus scale="   99.097">  2  5  1 -1</clus>
</clustering>
</event>
<event>
 9    1  0.7719620E-005  0.1864684E+03  0.7546771E-02  0.1182640E+00
         21   -1    0    0  501  502  0.00000000000E+00  0.00000000000E+00  0.54280339433E+03  0.54280339433E+03  0.00000000000E+00 0. -1.
         -2   -1    0    0    0  501 -0.00000000000E+00 -0.00000000000E+00 -0.11546292637E+03  0.11546292637E+03  0.00000000000E+00 0.  1.
         23    2    1    2    0    0  0.49443184784E+00 -0.68005366100E+02  0.19742874823E+03  0.22881704082E+03  0.93563632131E+02 0.  0.
        -24    2    1    2    0    0 -0.48204361950E+02  0.20019027067E+03  0.15763917410E+03  0.27142267682E+03  0.80127119607E+02 0.  0.
         11    1    4    4    0    0 -0.68514044764E+02  0.16246533675E+03  0.13977648477E+03  0.22500361257E+03  0.00000000000E+00 0. -1.
        -12    1    4    4    0    0  0.20309682814E+02  0.37724933922E+02  0.17862689334E+02  0.46419064248E+02  0.00000000000E+00 0.  1.
        -11    1    3    3    0    0 -0.46487286129E+02 -0.35356235877E+02  0.10312813725E+03  0.11851811625E+03  0.00000000000E+00 0.  1.
         11    1    3    3    0    0  0.46981717977E+02 -0.32649130223E+02  0.94300610985E+02  0.11029892457E+03  0.00000000000E+00 0. -1.
         -1    1    1    2    0  502  0.47709930102E+02 -0.13218490457E+03  0.72272545619E+02  0.15802660307E+03  0.00000000000E+00 0.  1.
<scales pt_clust_5="13000.00000" pt_clust_6="13000.00000" pt_clust_7="13000.00000" pt_clust_8="13000.00000" pt_clust_9="168.37494"></scales>
<clustering>
<clus scale="   80.127">  5  6 -1 -1</clus>
<clus scale="   93.564">  7  8 -1 -1</clus>
<clus scale="  115.668">  2  7  1 -1</clus>
<clus scale="  168.375">  1  9  2 -1</clus>
<clus scale="  168.375">  1  5  2 -1</clus>
</clustering>
</event>
<event>
 9    1  0.7719620E-005  0.1083740E+03  0.7546771E-02  0.1268514E+00
         21   -1    0    0  501  502  0.00000000000E+00  0.00000000000E+00  0.30491647357E+03  0.30491647357E+03  0.00000000000E+00 0. -1.
          1   -1    0    0  502    0 -0.00000000000E+00 -0.00000000000E+00 -0.10302895094E+03  0.10302895094E+03  0.00000000000E+00 0. -1.
         23    2    1    2    0    0 -0.59594394484E+02  0.20826169756E+02 -0.49739486784E+02  0.12268721343E+03  0.92697975133E+02 0.  0.
        -24    2    1    2    0    0  0.25475410745E+02  0.12603501398E+02  0.17624615435E+03  0.19601740609E+03  0.80946104087E+02 0.  0.
         13    1    4    4    0    0 -0.35708488706E+01  0.41467499393E+02  0.62183872431E+02  0.74827391095E+02  0.00000000000E+00 0. -1.
        -14    1    4    4    0    0  0.29046259616E+02 -0.28863997995E+02  0.11406228192E+03  0.12119001499E+03  0.00000000000E+00 0.  1.
        -13    1    3    3    0    0 -0.45980034949E+02  0.36324872098E+02  0.10037362805E+02  0.59450892330E+02  0.00000000000E+00 0.  1.
         13    1    3    3    0    0 -0.13614359536E+02 -0.15498702342E+02 -0.59776849589E+02  0.63236321102E+02  0.00000000000E+00 0. -1.
          2    1    1    2  501    0  0.34118983739E+02 -0.33429671154E+02  0.75380855064E+02  0.89240804988E+02  0.00000000000E+00 0. -1.
<scales pt_clust_5="13000.00000" pt_clust_6="13000.00000" pt_clust_7="13000.00000" pt_clust_8="13000.00000" pt_clust_9="47.76660"></scales>
<clustering>
<clus scale="   47.767">  1  9  2 -1</clus>
<clus scale="   80.946">  5  6 -1 -1</clus>
<clus scale="   92.698">  7  8 -1 -1</clus>
<clus scale="   98.510">  1  5  2 -1</clus>
<clus scale="   47.767">  1  5  2 -1</clus>
</clustering>
</event>
<event>
 9    1  0.7719620E-005  0.1139272E+03  0.7546771E-02  0.1260632E+00
          3   -1    0    0  502    0 -0.00000000000E+00  0.00000000000E+00  0.18356465313E+03  0.18356465313E+03  0.00000000000E+00 0. -1.
         21   -1    0    0  501  502  0.00000000000E+00 -0.00000000000E+00 -0.25135274694E+03  0.25135274694E+03  0.00000000000E+00 0. -1.
         23    2    1    2    0    0 -0.56810877370E+02  0.37692482836E+02  0.13024534010E+03  0.17766150057E+03  0.99757511576E+02 0.  0.
        -24    2    1    2    0    0  0.73413639118E+01 -0.16943075942E+02 -0.45840452811E+02  0.95885288341E+02  0.82168594729E+02 0.  0.
         11    1    4    4    0    0  0.26634409481E+02  0.25912440428E+02 -0.22042028666E+02  0.43205293253E+02  0.00000000000E+00 0. -1.
        -12    1    4    4    0    0 -0.19293045569E+02 -0.42855516370E+02 -0.23798424146E+02  0.52679995088E+02  0.00000000000E+00 0.  1.
        -11    1    3    3    0    0 -0.35512504865E+02  0.71796557497E+02  0.78744268681E+02  0.11232338813E+03  0.00000000000E+00 0. -1.
         11    1    3    3    0    0 -0.21298372504E+02 -0.34104074661E+02  0.51501071420E+02  0.65338112440E+02  0.00000000000E+00 0.  1.
          4    1    1    2  501    0  0.49469513458E+02 -0.20749406893E+02 -0.15219298111E+03  0.16137061116E+03  0.00000000000E+00 0. -1.
<scales pt_clust_5="13000.00000" pt_clust_6="13000.00000" pt_clust_7="13000.00000" pt_clust_8="13000.00000" pt_clust_9="53.64486"></scales>
<clustering>
<clus scale="   53.645">  2  9  1 -1</clus>
<clus scale="   82.169">  5  6 -1 -1</clus>
<clus scale="   98.891">  2  5  1 -1</clus>
<clus scale="   99.758">  7  8 -1 -1</clus>
<clus scale="   53.645">  2  5  1 -1</clus>
</clustering>
</event>
<event>
 9    1  0.7719620E-005  0.1456719E+03  0.7546771E-02  0.1208256E+00
         21   -1    0    0  501  502  0.00000000000E+00  0.00000000000E+00  0.71538415223E+03  0.71538415223E+03  0.00000000000E+00 0. -1.
          3   -1    0    0  502    0 -0.00000000000E+00 -0.00000000000E+00 -0.11614047723E+03  0.11614047723E+03  0.00000000000E+00 0. -1.
         23    2    1    2    0    0  0.41109944542E+02  0.12129465247E+03 -0.42422389105E+02  0.16334949769E+03  0.92092231171E+02 0.  0.
        -24    2    1    2    0    0 -0.21054930591E+01 -0.53483673709E+02  0.23440369647E+03  0.25346762983E+03  0.80223500275E+02 0.  0.
         13    1    4    4    0    0 -0.37491393056E+02 -0.74177602266E+01  0.86550412853E+02  0.94612904432E+02  0.00000000000E+00 0. -1.
        -14    1    4    4    0    0  0.35385899997E+02 -0.46065913482E+02  0.14785328362E+03  0.15885472540E+03  0.00000000000E+00 0.  1.
        -11    1    3    3    0    0  0.30240349988E+02  0.61912498271E+01  0.14931983556E+02  0.34289568016E+02  0.00000000000E+00 0.  1.
         11    1    3    3    0    0  0.10869594554E+02  0.11510340264E+03 -0.57354372661E+02  0.12905992968E+03  0.00000000000E+00 0. -1.
          4    1    1    2  501    0 -0.39004451483E+02 -0.67810978757E+02  0.40726236763E+03  0.41470750194E+03  0.00000000000E+00 0. -1.
<scales pt_clust_5="13000.00000" pt_clust_6="13000.00000" pt_clust_7="13000.00000" pt_clust_8="13000.00000" pt_clust_9="78.22836"></scales>
<clustering>
<clus scale="   78.228">  1  9  2 -1</clus>
<clus scale="   80.224">  5  6 -1 -1</clus>
<clus scale="   92.092">  7  8 -1 -1</clus>
<clus scale="  138.474">  1  5  2 -1</clus>
<clus scale="   78.228">  1  5  2 -1</clus>
</clustering>
</event>
<event>
 9    1  0.7719620E-005  0.1553823E+03  0.7546771E-02  0.1206424E+00
          1   -1    0    0  502    0 -0.00000000000E+00  0.00000000000E+00  0.16958502546E+04  0.16958502546E+04  0.00000000000E+00 0. -1.
         21   -1    0    0  501  502  0.00000000000E+00 -0.00000000000E+00 -0.26002491122E+02  0.26002491122E+02  0.00000000000E+00 0.  1.
        -24    2    1    2    0    0 -0.68631603729E+02  0.55025793110E+02  0.62472604484E+03  0.63589795291E+03  0.79658273126E+02 0.  0.
         23    2    1    2    0    0  0.13487371144E+03  0.50523551470E+02  0.59773780188E+03  0.62154005365E+03  0.90983576557E+02 0.  0.
         13    1    3    3    0    0 -0.15088900807E+02 -0.20000696515E+02  0.97023999104E+02  0.10020658257E+03  0.00000000000E+00 0. -1.
        -14    1    3    3    0    0 -0.53542702922E+02  0.75026489626E+02  0.52770204574E+03  0.53569137034E+03  0.00000000000E+00 0.  1.
        -13    1    4    4    0    0  0.87216637144E+02 -0.14954321049E+02  0.34353393239E+03  0.35474770784E+03  0.00000000000E+00 0. -1.
         13    1    4    4    0    0  0.47657074299E+02  0.65477872518E+02  0.25420386949E+03  0.26679234582E+03  0.00000000000E+00 0.  1.
          2    1    1    2  501    0 -0.66242107713E+02 -0.10554934458E+03  0.44738391671E+03  0.46441473912E+03  0.00000000000E+00 0. -1.
<scales pt_clust_5="13000.00000" pt_clust_6="13000.00000" pt_clust_7="13000.00000" pt_clust_8="13000.00000" pt_clust_9="125.95890"></scales>
<clustering>
<clus scale="   79.658">  5  6 -1 -1</clus>
<clus scale="   90.984">  7  8 -1 -1</clus>
<clus scale="  118.674">  1  5  2 -1</clus>
<clus scale="  125.959">  2  9  1 -1</clus>
<clus scale="  125.959">  2  5  1 -1</clus>
</clustering>
</event>
<event>
 9    1  0.7719620E-005  0.1265219E+03  0.7546771E-02  0.1238191E+00
         21   -1    0    0  501  502  0.00000000000E+00  0.00000000000E+00  0.11402001410E+03  0.11402001410E+03  0.00000000000E+00 0. -1.
          1   -1    0    0  502    0 -0.00000000000E+00 -0.00000000000E+00 -0.19146794129E+03  0.19146794129E+03  0.00000000000E+00 0. -1.
         23    2    1    2    0    0 -0.78120879405E+02 -0.21670801985E+02 -0.28387048126E+02  0.13015272793E+03  0.97782476080E+02 0.  0.
        -24    2    1    2    0    0  0.82398693734E+02 -0.13772200821E+02 -0.95964895521E+00  0.11543335369E+03  0.79653750524E+02 0.  0.
         11    1    4    4    0    0  0.84260456590E+02  0.10492833695E+02  0.15144332123E+02  0.86251231290E+02  0.00000000000E+00 0. -1.
        -12    1    4    4    0    0 -0.18617628554E+01 -0.24265034515E+02 -0.16103981078E+02  0.29182122396E+02  0.00000000000E+00 0.  1.
        -11    1    3    3    0    0 -0.58058139986E+02  0.34388294656E+02 -0.14992713060E+02  0.69123685325E+02  0.00000000000E+00 0.  1.
         11    1    3    3    0    0 -0.20062739420E+02 -0.56059096642E+02 -0.13394335066E+02  0.61029042604E+02  0.00000000000E+00 0. -1.
          2    1    1    2  501    0 -0.42778143292E+01  0.35443002806E+02 -0.48101230111E+02  0.59901873773E+02  0.00000000000E+00 0. -1.
<scales pt_clust_5="13000.00000" pt_clust_6="13000.00000" pt_clust_7="13000.00000" pt_clust_8="13000.00000" pt_clust_9="35.70024"></scales>
<clustering>
<clus scale="   35.700">  1  9  2 -1</clus>
<clus scale="   79.654">  5  6 -1 -1</clus>
<clus scale="   97.782">  7  8 -1 -1</clus>
<clus scale="  113.098">  1  5  2 -1</clus>
<clus scale="   35.700">  1  5  2 -1</clus>
</clustering>
</event>
<event>
 9    1  0.7719620E-005  0.1662142E+03  0.7546771E-02  0.1198670E+00
          3   -1    0    0  502    0 -0.00000000000E+00  0.00000000000E+00  0.14775222154E+03  0.14775222154E+03  0.00000000000E+00 0. -1.
         21   -1    0    0  501  502  0.00000000000E+00 -0.00000000000E+00 -0.58673181191E+03  0.58673181191E+03  0.00000000000E+00 0. -1.
         23    2    1    2    0    0 -0.81262043846E+02 -0.26399472514E+02  0.40050813451E+02  0.12144593178E+03  0.76449949428E+02 0.  0.
        -24    2    1    2    0    0 -0.12174288002E+03  0.41151174010E+02 -0.32321654339E+03  0.35670517185E+03  0.79087911506E+02 0.  0.
         11    1    4    4    0    0 -0.12772983546E+03  0.20473005987E+02 -0.27841660051E+03  0.30700139784E+03  0.00000000000E+00 0. -1.
        -12    1    4    4    0    0  0.59869554388E+01  0.20678168023E+02 -0.44799942886E+02  0.49703774010E+02  0.00000000000E+00 0.  1.
        -11    1    3    3    0    0 -0.50626134880E+02 -0.51658276359E+01  0.60398424123E+02  0.78978863910E+02  0.00000000000E+00 0. -1.
         11    1    3    3    0    0 -0.30635908966E+02 -0.21233644879E+02 -0.20347610672E+02  0.42467067865E+02  0.00000000000E+00 0.  1.
          4    1    1    2  501    0  0.20300492387E+03 -0.14751701496E+02 -0.15581386042E+03  0.25633292982E+03  0.00000000000E+00 0. -1.
<scales pt_clust_5="13000.00000" pt_clust_6="13000.00000" pt_clust_7="13000.00000" pt_clust_8="13000.00000" pt_clust_9="146.19265"></scales>
<clustering>
<clus scale="   76.450">  7  8 -1 -1</clus>
<clus scale="   79.088">  5  6 -1 -1</clus>
<clus scale="  114.652">  1  7  2 -1</clus>
<clus scale="  146.193">  2  9  1 -1</clus>
<clus scale="  146.193">  2  5  1 -1</clus>
</clustering>
</event>
<event>
 9    1  0.7719620E-005  0.9961713E+02  0.7546771E-02  0.1287866E+00
         21   -1    0    0  501  502  0.00000000000E+00  0.00000000000E+00  0.51316408890E+02  0.51316408890E+02  0.00000000000E+00 0.  1.
         -4   -1    0    0    0  501 -0.00000000000E+00 -0.00000000000E+00 -0.37479429567E+03  0.37479429567E+03  0.00000000000E+00 0.  1.
        -24    2    1    2    0    0 -0.62354229979E+01  0.83942275771E+01 -0.11113289590E+03  0.13758562576E+03  0.80435939167E+02 0.  0.
         23    2    1    2    0    0 -0.68849903308E+00 -0.80057173117E+02 -0.14256715681E+03  0.18826309903E+03  0.93316532593E+02 0.  0.
         11    1    3    3    0    0 -0.19309497878E+02  0.32896691294E+02 -0.21582465754E+02  0.43827523708E+02  0.00000000000E+00 0. -1.
        -12    1    3    3    0    0  0.13074074880E+02 -0.24502463717E+02 -0.89550430144E+02  0.93758102056E+02  0.00000000000E+00 0.  1.
        -11    1    4    4    0    0  0.19306640377E+02  0.15787712384E+02 -0.25879361134E+02  0.35940778479E+02  0.00000000000E+00 0. -1.
         11    1    4    4    0    0 -0.19995139410E+02 -0.95844885501E+02 -0.11668779568E+03  0.15232232055E+03  0.00000000000E+00 0.  1.
         -3    1    1    2    0  502  0.69239220310E+01  0.71662945540E+02 -0.69777834070E+02  0.10026197977E+03  0.00000000000E+00 0.  1.
<scales pt_clust_5="13000.00000" pt_clust_6="13000.00000" pt_clust_7="13000.00000" pt_clust_8="13000.00000" pt_clust_9="71.99666"></scales>
<clustering>
<clus scale="   71.997">  1  9  2 -1</clus>
<clus scale="   80.436">  5  6 -1 -1</clus>
<clus scale="   87.667">  2  5  1 -1</clus>
<clus scale="   93.317">  7  8 -1 -1</clus>
<clus scale="   71.997">  1  5  2 -1</clus>
</clustering>
</event>
<event>
 9    1  0.7719620E-005  0.9251557E+02  0.7546771E-02  0.1303754E+00
          1   -1    0    0  502    0 -0.00000000000E+00  0.00000000000E+00  0.61395360922E+02  0.61395360922E+02  0.00000000000E+00 0. -1.
         21   -1    0    0  501  502  0.00000000000E+00 -0.00000000000E+00 -0.43480130077E+03  0.43480130077E+03  0.00000000000E+00 0. -1.
         23    2    1    2    0    0  0.13576887504E+02 -0.77760252595E+01  0.48425640605E+01  0.93074403197E+02  0.91622026068E+02 0.  0.
        -24    2    1    2    0    0 -0.99656390513E+01 -0.21255209181E+02 -0.14072442741E+03  0.16380334866E+03  0.80480275117E+02 0.  0.
         13    1    4    4    0    0  0.31994214141E+02 -0.24358744364E+01 -0.30074828171E+02  0.43977932106E+02  0.00000000000E+00 0. -1.
        -14    1    4    4    0    0 -0.41959853193E+02 -0.18819334744E+02 -0.11064959924E+03  0.11982541655E+03  0.00000000000E+00 0.  1.
        -11    1    3    3    0    0  0.15381541523E+01 -0.44185433620E+02  0.23892764649E+02  0.50255175504E+02  0.00000000000E+00 0.  1.
         11    1    3    3    0    0  0.12038733352E+02  0.36409408360E+02 -0.19050200588E+02  0.42819227694E+02  0.00000000000E+00 0. -1.
          2    1    1    2  501    0 -0.36112484527E+01  0.29031234440E+02 -0.23752407649E+03  0.23931890983E+03  0.00000000000E+00 0. -1.
<scales pt_clust_5="13000.00000" pt_clust_6="13000.00000" pt_clust_7="13000.00000" pt_clust_8="13000.00000" pt_clust_9="29.25498"></scales>
<clustering>
<clus scale="   29.255">  2  9  1 -1</clus>
<clus scale="   80.480">  5  6 -1 -1</clus>
<clus scale="   81.496">  2  5  1 -1</clus>
<clus scale="   91.622">  7  8 -1 -1</clus>
<clus scale="   29.255">  2  5  1 -1</clus>
</clustering>
</event>
<event>
 9    1  0.7719620E-005  0.2186680E+03  0.7546771E-02  0.1135648E+00
         21   -1    0    0  501  502  0.00000000000E+00  0.00000000000E+00  0.50188245534E+02  0.50188245534E+02  0.00000000000E+00 0. -1.
          1   -1    0    0  502    0 -0.00000000000E+00 -0.00000000000E+00 -0.18576346996E+04  0.18576346996E+04  0.00000000000E+00 0. -1.
        -24    2    1    2    0    0 -0.11046509411E+03  0.18220953406E+03 -0.12225279263E+04  0.12435412635E+04  0.80109250309E+02 0.  0.
         23    2    1    2    0    0  0.11332339866E+02 -0.17136663083E+03 -0.26028761668E+03  0.32467882548E+03  0.90397744599E+02 0.  0.
         11    1    3    3    0    0 -0.54410959237E+02  0.57283333836E+02 -0.27336879475E+03  0.28455655108E+03  0.00000000000E+00 0. -1.
        -12    1    3    3    0    0 -0.56054134872E+02  0.12492620023E+03 -0.94915913160E+03  0.95898471242E+03  0.00000000000E+00 0.  1.
        -13    1    4    4    0    0 -0.28736211661E+02 -0.12244969693E+03 -0.20588584739E+03  0.24126475145E+03  0.00000000000E+00 0. -1.
         13    1    4    4    0    0  0.40068551527E+02 -0.48916933901E+02 -0.54401769293E+02  0.83414074028E+02  0.00000000000E+00 0.  1.
          2    1    1    2  501    0  0.99132754243E+02 -0.10842903231E+02 -0.32463091106E+03  0.33960285619E+03  0.00000000000E+00 0. -1.
<scales pt_clust_5="13000.00000" pt_clust_6="13000.00000" pt_clust_7="13000.00000" pt_clust_8="13000.00000" pt_clust_9="99.72403"></scales>
<clustering>
<clus scale="   80.109">  5  6 -1 -1</clus>
<clus scale="   90.398">  7  8 -1 -1</clus>
<clus scale="   99.724">  1  9  2 -1</clus>
<clus scale="  214.619">  2  5  1 -1</clus>
<clus scale="   99.724">  1  5  2 -1</clus>
</clustering>
</event>
<event>
 9    1  0.7719620E-005  0.1538716E+03  0.7546771E-02  0.1220870E+00
         21   -1    0    0  501  502  0.00000000000E+00  0.00000000000E+00  0.66643505417E+03  0.66643505417E+03  0.00000000000E+00 0. -1.
          1   -1    0    0  502    0 -0.00000000000E+00 -0.00000000000E+00 -0.10266703152E+03  0.10266703152E+03  0.00000000000E+00 0. -1.
        -24    2    1    2    0    0  0.15933417434E+02  0.34541920636E+02  0.46406625114E+02  0.10120309441E+03  0.81495235385E+02 0.  0.
         23    2    1    2    0    0  0.10337082636E+03  0.88909700509E+01  0.27740425663E+01  0.13788006286E+03  0.90766950667E+02 0.  0.
         13    1    3    3    0    0  0.43440329191E+02  0.41467643699E+02  0.39898239135E+02  0.72100604437E+02  0.00000000000E+00 0. -1.
        -14    1    3    3    0    0 -0.27506911757E+02 -0.69257230624E+01  0.65083859795E+01  0.29102489969E+02  0.00000000000E+00 0.  1.
        -11    1    4    4    0    0  0.32899749996E+02  0.43090151810E+01  0.44763380959E+02  0.55720027249E+02  0.00000000000E+00 0.  1.
         11    1    4    4    0    0  0.70471076359E+02  0.45819548698E+01 -0.41989338393E+02  0.82160035615E+02  0.00000000000E+00 0. -1.
          2    1    1    2  501    0 -0.11930424379E+03 -0.43432890687E+02  0.51458735498E+03  0.53001892842E+03  0.00000000000E+00 0. -1.
<scales pt_clust_5="13000.00000" pt_clust_6="13000.00000" pt_clust_7="13000.00000" pt_clust_8="13000.00000" pt_clust_9="124.24901"></scales>
<clustering>
<clus scale="   81.495">  5  6 -1 -1</clus>
<clus scale="   89.936">  2  5  1 -1</clus>
<clus scale="   90.767">  7  8 -1 -1</clus>
<clus scale="  124.249">  1  9  2 -1</clus>
<clus scale="  124.249">  1  5  2 -1</clus>
</clustering>
</event>
<event>
 9    1  0.7719620E-005  0.3402930E+03  0.7546771E-02  0.1066952E+00
         -2   -1    0    0    0  501 -0.00000000000E+00  0.00000000000E+00  0.22701384001E+04  0.22701384001E+04  0.00000000000E+00 0.  1.
         21   -1    0    0  501  502  0.00000000000E+00 -0.00000000000E+00 -0.87724208584E+02  0.87724208584E+02  0.00000000000E+00 0.  1.
         23    2    1    2    0    0  0.23257666728E+03  0.16965360204E+03  0.69063490262E+03  0.75357548982E+03  0.89583476673E+02 0.  0.
        -24    2    1    2    0    0 -0.17992679502E+03 -0.34455906794E+03  0.11542457914E+04  0.12204996868E+04  0.79003390611E+02 0.  0.
         13    1    4    4    0    0 -0.88677357918E+01 -0.24665637594E+02  0.33668757657E+02  0.42668673030E+02  0.00000000000E+00 0. -1.
        -14    1    4    4    0    0 -0.17105905923E+03 -0.31989343034E+03  0.11205770337E+04  0.11778310138E+04  0.00000000000E+00 0.  1.
        -11    1    3    3    0    0  0.10984390242E+03  0.10217650698E+03  0.45894524760E+03  0.48284206711E+03  0.00000000000E+00 0.  1.
         11    1    3    3    0    0  0.12273276486E+03  0.67477095059E+02  0.23168965501E+03  0.27073342271E+03  0.00000000000E+00 0. -1.
         -1    1    1    2    0  502 -0.52649872265E+02  0.17490546590E+03  0.33753349749E+03  0.38378743202E+03  0.00000000000E+00 0.  1.
<scales pt_clust_5="13000.00000" pt_clust_6="13000.00000" pt_clust_7="13000.00000" pt_clust_8="13000.00000" pt_clust_9="182.65796"></scales>
<clustering>
<clus scale="   79.003">  5  6 -1 -1</clus>
<clus scale="   89.583">  7  8 -1 -1</clus>
<clus scale="  182.658">  2  9  1 -1</clus>
<clus scale="  337.662">  2  5  1 -1</clus>
<clus scale="  182.658">  2  5  1 -1</clus>
</clustering>
</event>
<event>
 9    1  0.7719620E-005  0.1338594E+03  0.7546771E-02  0.1222854E+00
         21   -1    0    0  501  502  0.00000000000E+00  0.00000000000E+00  0.11338518311E+04  0.11338518311E+04  0.00000000000E+00 0. -1.
          3   -1    0    0  502    0 -0.00000000000E+00 -0.00000000000E+00 -0.71731180690E+02  0.71731180690E+02  0.00000000000E+00 0. -1.
         23    2    1    2    0    0 -0.94676450144E+02 -0.27016339586E+02  0.65815062372E+02  0.14985729455E+03  0.91826322364E+02 0.  0.
        -24    2    1    2    0    0  0.33378108839E+02  0.14284371756E+03  0.27360824006E+03  0.32124295712E+03  0.82565989824E+02 0.  0.
         11    1    4    4    0    0  0.31770212059E+02  0.14235570085E+03  0.19959029804E+03  0.24720594453E+03  0.00000000000E+00 0. -1.
        -12    1    4    4    0    0  0.16078967801E+01  0.48801670475E+00  0.74017942021E+02  0.74037012591E+02  0.00000000000E+00 0.  1.
        -11    1    3    3    0    0 -0.26526403619E+02 -0.49067759926E+02  0.53286354013E+02  0.77140979233E+02  0.00000000000E+00 0.  1.
         11    1    3    3    0    0 -0.68150046525E+02  0.22051420339E+02  0.12528708359E+02  0.72716315319E+02  0.00000000000E+00 0. -1.
          4    1    1    2  501    0  0.61298341305E+02 -0.11582737797E+03  0.72269734802E+03  0.73448276016E+03  0.00000000000E+00 0. -1.
<scales pt_clust_5="13000.00000" pt_clust_6="13000.00000" pt_clust_7="13000.00000" pt_clust_8="13000.00000" pt_clust_9="131.04758"></scales>
<clustering>
<clus scale="   82.566">  5  6 -1 -1</clus>
<clus scale="   91.826">  7  8 -1 -1</clus>
<clus scale="  131.048">  1  9  2 -1</clus>
<clus scale="  131.048">  1  5  2 -1</clus>
<clus scale="  131.048">  1  5  2 -1</clus>
</clustering>
</event>
<event>
 9    1  0.7719620E-005  0.9211190E+02  0.7546771E-02  0.1301848E+00
         21   -1    0    0  501  502  0.00000000000E+00  0.00000000000E+00  0.41032509134E+02  0.41032509134E+02  0.00000000000E+00 0.  1.
          1   -1    0    0  502    0 -0.00000000000E+00 -0.00000000000E+00 -0.35619126516E+03  0.35619126516E+03  0.00000000000E+00 0. -1.
        -24    2    1    2    0    0  0.19386278259E+02 -0.23904637788E+02 -0.12663268866E+03  0.15531830858E+03  0.84502542276E+02 0.  0.
         23    2    1    2    0    0  0.12471168027E+02 -0.87815870654E+01 -0.73325218739E+02  0.11799210201E+03  0.91175117936E+02 0.  0.
         11    1    3    3    0    0  0.39325565398E+02  0.18077130575E+02 -0.65914313365E+02  0.78854165712E+02  0.00000000000E+00 0. -1.
        -12    1    3    3    0    0 -0.19939287139E+02 -0.41981768363E+02 -0.60718375297E+02  0.76464142872E+02  0.00000000000E+00 0.  1.
        -13    1    4    4    0    0  0.90808877883E+01  0.40884312913E+02 -0.41175310620E+02  0.58731556850E+02  0.00000000000E+00 0.  1.
         13    1    4    4    0    0  0.33902802384E+01 -0.49665899979E+02 -0.32149908119E+02  0.59260545161E+02  0.00000000000E+00 0. -1.
          2    1    1    2  501    0 -0.31857446286E+02  0.32686224853E+02 -0.11520084862E+03  0.12391336369E+03  0.00000000000E+00 0. -1.
<scales pt_clust_5="13000.00000" pt_clust_6="13000.00000" pt_clust_7="13000.00000" pt_clust_8="13000.00000" pt_clust_9="45.64305"></scales>
<clustering>
<clus scale="   45.643">  1  9  2 -1</clus>
<clus scale="   84.503">  5  6 -1 -1</clus>
<clus scale="   85.512">  2  5  1 -1</clus>
<clus scale="   91.175">  7  8 -1 -1</clus>
<clus scale="   45.643">  1  5  2 -1</clus>
</clustering>
</event>
<event>
 9    1  0.7719620E-005  0.9073714E+02  0.7546771E-02  0.1306494E+00
          1   -1    0    0  502    0 -0.00000000000E+00  0.00000000000E+00  0.22177981899E+03  0.22177981899E+03  0.00000000000E+00 0. -1.
         21   -1    0    0  501  502  0.00000000000E+00 -0.00000000000E+00 -0.74626427286E+02  0.74626427286E+02  0.00000000000E+00 0.  1.
         23    2    1    2    0    0 -0.12286601379E+01 -0.13290220432E+02  0.11640051129E+03  0.14816237076E+03  0.90691066350E+02 0.  0.
        -24    2    1    2    0    0 -0.57574266859E+01 -0.26082687368E+02  0.54144397100E+02  0.10191683881E+03  0.82109510736E+02 0.  0.
         11    1    4    4    0    0  0.34228600765E+02 -0.36477360896E+01  0.51338042700E+01  0.34803146915E+02  0.00000000000E+00 0. -1.
        -12    1    4    4    0    0 -0.39986027451E+02 -0.22434951278E+02  0.49010592830E+02  0.67113691895E+02  0.00000000000E+00 0.  1.
        -13    1    3    3    0    0 -0.29615737240E+01 -0.45730387594E+02  0.27340652235E+02  0.53362444969E+02  0.00000000000E+00 0.  1.
         13    1    3    3    0    0  0.17329135860E+01  0.32440167162E+02  0.89059859055E+02  0.94799925791E+02  0.00000000000E+00 0. -1.
          2    1    1    2  501    0  0.69860868238E+01  0.39372907800E+02 -0.23391516682E+02  0.46327036711E+02  0.00000000000E+00 0. -1.
<scales pt_clust_5="13000.00000" pt_clust_6="13000.00000" pt_clust_7="13000.00000" pt_clust_8="13000.00000" pt_clust_9="39.98789"></scales>
<clustering>
<clus scale="   39.988">  2  9  1 -1</clus>
<clus scale="   82.110">  5  6 -1 -1</clus>
<clus scale="   82.160">  2  5  1 -1</clus>
<clus scale="   90.691">  7  8 -1 -1</clus>
<clus scale="   39.988">  2  5  1 -1</clus>
</clustering>
</event>
<event>
 9    1  0.7719620E-005  0.9742000E+02  0.7546771E-02  0.1291010E+00
         21   -1    0    0  501  502  0.00000000000E+00  0.00000000000E+00  0.71287873292E+03  0.71287873292E+03  0.00000000000E+00 0.  1.
          3   -1    0    0  502    0 -0.00000000000E+00 -0.00000000000E+00 -0.18799424515E+02  0.18799424515E+02  0.00000000000E+00 0. -1.
        -24    2    1    2    0    0  0.21271568148E+02  0.41676568214E+02  0.29537569560E+03  0.30988020401E+03  0.81175879055E+02 0.  0.
         23    2    1    2    0    0 -0.16085686361E+02 -0.13994852853E+02  0.36990476315E+03  0.38151713321E+03  0.90946049507E+02 0.  0.
         13    1    3    3    0    0  0.15412788874E+01 -0.22940134632E+02  0.44791182972E+02  0.50347546013E+02  0.00000000000E+00 0. -1.
        -14    1    3    3    0    0  0.19730289261E+02  0.64616702846E+02  0.25058451263E+03  0.25953265800E+03  0.00000000000E+00 0.  1.
        -11    1    4    4    0    0  0.77149830064E+01  0.31332143092E+02  0.67582419423E+02  0.74890637389E+02  0.00000000000E+00 0.  1.
         11    1    4    4    0    0 -0.23800669367E+02 -0.45326995945E+02  0.30232234372E+03  0.30662649582E+03  0.00000000000E+00 0. -1.
          4    1    1    2  501    0 -0.51858817878E+01 -0.27681715361E+02  0.28798849661E+02  0.40280820213E+02  0.00000000000E+00 0. -1.
<scales pt_clust_5="13000.00000" pt_clust_6="13000.00000" pt_clust_7="13000.00000" pt_clust_8="13000.00000" pt_clust_9="28.16330"></scales>
<clustering>
<clus scale="   28.163">  1  9  2 -1</clus>
<clus scale="   81.176">  5  6 -1 -1</clus>
<clus scale="   88.369">  2  5  1 -1</clus>
<clus scale="   90.946">  7  8 -1 -1</clus>
<clus scale="   28.163">  1  5  2 -1</clus>
</clustering>
</event>
<event>
 9    1  0.7719620E-005  0.9796124E+02  0.7546771E-02  0.1292883E+00
         21   -1    0    0  501  502  0.00000000000E+00  0.00000000000E+00  0.74807498018E+02  0.74807498018E+02  0.00000000000E+00 0. -1.
         -2   -1    0    0    0  501 -0.00000000000E+00 -0.00000000000E+00 -0.19357576263E+03  0.19357576263E+03  0.00000000000E+00 0.  1.
         23    2    1    2    0    0 -0.28836641585E+02  0.16089653862E+00 -0.10886264702E+03  0.14701634340E+03  0.94504769850E+02 0.  0.
        -24    2    1    2    0    0  0.17647857025E+02 -0.20730609836E+02 -0.30960024003E+02  0.89877394634E+02  0.79863746082E+02 0.  0.
         11    1    4    4    0    0 -0.24193070047E+02 -0.28613563986E+02 -0.28774717418E+02  0.47244312301E+02  0.00000000000E+00 0. -1.
        -12    1    4    4    0    0  0.41840927072E+02  0.78829541499E+01 -0.21853065853E+01  0.42633082334E+02  0.00000000000E+00 0.  1.
        -11    1    3    3    0    0 -0.15136142797E+02 -0.46763357197E+02 -0.63744012980E+02  0.80493562388E+02  0.00000000000E+00 0. -1.
         11    1    3    3    0    0 -0.13700498788E+02  0.46924253736E+02 -0.45118634040E+02  0.66522781011E+02  0.00000000000E+00 0.  1.
         -1    1    1    2    0  502  0.11188784559E+02  0.20569713297E+02  0.21054406413E+02  0.31489522614E+02  0.00000000000E+00 0.  1.
<scales pt_clust_5="13000.00000" pt_clust_6="13000.00000" pt_clust_7="13000.00000" pt_clust_8="13000.00000" pt_clust_9="23.41585"></scales>
<clustering>
<clus scale="   23.416">  1  9  2 -1</clus>
<clus scale="   79.864">  5  6 -1 -1</clus>
<clus scale="   83.925">  1  5  2 -1</clus>
<clus scale="   94.505">  7  8 -1 -1</clus>
<clus scale="   23.416">  1  5  2 -1</clus>
</clustering>
</event>
<event>
 9    1  0.7719620E-005  0.1669816E+03  0.7546771E-02  0.1181582E+00
         21   -1    0    0  501  502  0.00000000000E+00  0.00000000000E+00  0.41965301719E+03  0.41965301719E+03  0.00000000000E+00 0.  1.
         -2   -1    0    0    0  501 -0.00000000000E+00 -0.00000000000E+00 -0.17139072046E+03  0.17139072046E+03  0.00000000000E+00 0.  1.
        -24    2    1    2    0    0  0.13391798523E+03 -0.58164330908E+02  0.86504083183E+02  0.18897547025E+03  0.83136368632E+02 0.  0.
         23    2    1    2    0    0  0.10999412473E+02  0.14629449172E+03  0.15529795101E+03  0.23233402692E+03  0.91315831544E+02 0.  0.
         13    1    3    3    0    0  0.54947716035E+02  0.16907823668E+02  0.17879080191E+02  0.60206208211E+02  0.00000000000E+00 0. -1.
        -14    1    3    3    0    0  0.78970269199E+02 -0.75072154576E+02  0.68625002993E+02  0.12876926204E+03  0.00000000000E+00 0.  1.
        -13    1    4    4    0    0  0.36388898204E+02  0.62832581268E+02  0.11554537962E+03  0.13646545326E+03  0.00000000000E+00 0. -1.
         13    1    4    4    0    0 -0.25389485731E+02  0.83461910456E+02  0.39752571390E+02  0.95868573656E+02  0.00000000000E+00 0.  1.
         -1    1    1    2    0  502 -0.14491739771E+03 -0.88130160816E+02  0.64602625333E+01  0.16973424049E+03  0.00000000000E+00 0.  1.
<scales pt_clust_5="13000.00000" pt_clust_6="13000.00000" pt_clust_7="13000.00000" pt_clust_8="13000.00000" pt_clust_9="138.57350"></scales>
<clustering>
<clus scale="   83.136">  5  6 -1 -1</clus>
<clus scale="   91.316">  7  8 -1 -1</clus>
<clus scale="  168.014">  2  5  1 -1</clus>
<clus scale="  138.573">  1  9  2 -1</clus>
<clus scale="  138.573">  1  5  2 -1</clus>
</clustering>
</event>
<event>
 9    1  0.7719620E-005  0.1314976E+03  0.7546771E-02  0.1230990E+00
         21   -1    0    0  501  502  0.00000000000E+00  0.00000000000E+00  0.65656782726E+03  0.65656782726E+03  0.00000000000E+00 0. -1.
          1   -1    0    0  502    0 -0.00000000000E+00 -0.00000000000E+00 -0.41486674786E+02  0.41486674786E+02  0.00000000000E+00 0. -1.
        -24    2    1    2    0    0  0.75346488976E+02 -0.58127717520E+02  0.13184334539E+03  0.18133269791E+03  0.80268017678E+02 0.  0.
         23    2    1    2    0    0 -0.56703381566E+02  0.16197873863E+02  0.43418591205E+03  0.44955212609E+03  0.10050902073E+03 0.  0.
         13    1    3    3    0    0  0.48989218481E+02 -0.27767282978E+01  0.18438949610E+02  0.52418017991E+02  0.00000000000E+00 0. -1.
        -14    1    3    3    0    0  0.26357270496E+02 -0.55350989222E+02  0.11340439578E+03  0.12891467992E+03  0.00000000000E+00 0.  1.
        -13    1    4    4    0    0 -0.82613814507E+02  0.23141959445E+02  0.27344025311E+03  0.28658360849E+03  0.00000000000E+00 0. -1.
         13    1    4    4    0    0  0.25910432941E+02 -0.69440855821E+01  0.16074565894E+03  0.16296851760E+03  0.00000000000E+00 0.  1.
          2    1    1    2  501    0 -0.18643107410E+02  0.41929843657E+02  0.49051895032E+02  0.67169678049E+02  0.00000000000E+00 0. -1.
<scales pt_clust_5="13000.00000" pt_clust_6="13000.00000" pt_clust_7="13000.00000" pt_clust_8="13000.00000" pt_clust_9="45.88768"></scales>
<clustering>
<clus scale="   45.888">  1  9  2 -1</clus>
<clus scale="   80.268">  5  6 -1 -1</clus>
<clus scale="  100.509">  7  8 -1 -1</clus>
<clus scale="  116.758">  2  5  1 -1</clus>
<clus scale="   45.888">  1  5  2 -1</clus>
</clustering>
</event>
<event>
 9    1  0.7719620E-005  0.1256694E+03  0.7546771E-02  0.1237043E+00
         21   -1    0    0  501  502  0.00000000000E+00  0.00000000000E+00  0.45311382398E+03  0.45311382398E+03  0.00000000000E+00 0. -1.
          1   -1    0    0  502    0 -0.00000000000E+00 -0.00000000000E+00 -0.10728879339E+03  0.10728879339E+03  0.00000000000E+00 0. -1.
        -24    2    1    2    0    0 -0.57129495039E+02  0.72467509754E+02 -0.20140203253E+02  0.12321400700E+03  0.79124866884E+02 0.  0.
         23    2    1    2    0    0 -0.24856544944E+02 -0.10070655115E+03  0.14441134367E+03  0.19926996784E+03  0.89967920011E+02 0.  0.
         11    1    3    3    0    0 -0.68346216820E+02  0.32903186871E+02 -0.28890990249E+02  0.81169664145E+02  0.00000000000E+00 0. -1.
        -12    1    3    3    0    0  0.11216721781E+02  0.39564322882E+02  0.87507869959E+01  0.42044342850E+02  0.00000000000E+00 0.  1.
        -13    1    4    4    0    0  0.19964231169E+02 -0.42607410653E+02  0.10703495478E+03  0.11692067188E+03  0.00000000000E+00 0.  1.
         13    1    4    4    0    0 -0.44820776113E+02 -0.58099140500E+02  0.37376388886E+02  0.82349295955E+02  0.00000000000E+00 0. -1.
          2    1    1    2  501    0  0.81986039984E+02  0.28239041398E+02  0.22155389018E+03  0.23791864254E+03  0.00000000000E+00 0. -1.
<scales pt_clust_5="13000.00000" pt_clust_6="13000.00000" pt_clust_7="13000.00000" pt_clust_8="13000.00000" pt_clust_9="86.71306"></scales>
<clustering>
<clus scale="   79.125">  5  6 -1 -1</clus>
<clus scale="   86.713">  1  9  2 -1</clus>
<clus scale="   89.968">  7  8 -1 -1</clus>
<clus scale="  118.150">  2  5  1 -1</clus>
<clus scale="   86.713">  1  5  2 -1</clus>
</clustering>
</event>
<event>
 9    1  0.7719620E-005  0.1541568E+03  0.7546771E-02  0.1198817E+00
         21   -1    0    0  501  502  0.00000000000E+00  0.00000000000E+00  0.42538642954E+02  0.42538642954E+02  0.00000000000E+00 0. -1.
          1   -1    0    0  502    0 -0.00000000000E+00 -0.00000000000E+00 -0.67136231424E+03  0.67136231424E+03  0.00000000000E+00 0. -1.
         23    2    1    2    0    0  0.48393128296E+02 -0.10146278226E+03 -0.34116799634E+03  0.37489646337E+03  0.10730873903E+03 0.  0.
        -24    2    1    2    0    0 -0.76237675315E+02  0.81262996283E+02 -0.21582832321E+03  0.25936456283E+03  0.90951930416E+02 0.  0.
         13    1    4    4    0    0 -0.92560591918E+02  0.79818556811E+02 -0.16098394555E+03  0.20212445649E+03  0.00000000000E+00 0. -1.
        -14    1    4    4    0    0  0.16322916602E+02  0.14444394722E+01 -0.54844377664E+02  0.57240106334E+02  0.00000000000E+00 0.  1.
        -13    1    3    3    0    0 -0.31084382439E+02 -0.35287689717E+02 -0.15444294932E+03  0.16144375018E+03  0.00000000000E+00 0.  1.
         13    1    3    3    0    0  0.79477510735E+02 -0.66175092539E+02 -0.18672504702E+03  0.21345271320E+03  0.00000000000E+00 0. -1.
          2    1    1    2  501    0  0.27844547019E+02  0.20199785973E+02 -0.71827351733E+02  0.79639930996E+02  0.00000000000E+00 0. -1.
<scales pt_clust_5="13000.00000" pt_clust_6="13000.00000" pt_clust_7="13000.00000" pt_clust_8="13000.00000" pt_clust_9="34.39987"></scales>
<clustering>
<clus scale="   34.400">  1  9  2 -1</clus>
<clus scale="   90.952">  5  6 -1 -1</clus>
<clus scale="  107.309">  7  8 -1 -1</clus>
<clus scale="  143.253">  1  5  2 -1</clus>
<clus scale="   34.400">  1  5  2 -1</clus>
</clustering>
</event>
<event>
 9    1  0.7719620E-005  0.1016272E+03  0.7546771E-02  0.1281967E+00
         21   -1    0    0  501  502  0.00000000000E+00  0.00000000000E+00  0.45466428529E+02  0.45466428529E+02  0.00000000000E+00 0.  1.
          1   -1    0    0  502    0 -0.00000000000E+00 -0.00000000000E+00 -0.37581594252E+03  0.37581594252E+03  0.00000000000E+00 0. -1.
        -24    2    1    2    0    0  0.38241999123E+02  0.30391242344E+02 -0.26666821643E+03  0.28284818112E+03  0.80654062533E+02 0.  0.
         23    2    1    2    0    0 -0.12673395424E+02 -0.31259035362E+02 -0.47996823324E+02  0.10842570293E+03  0.91184953601E+02 0.  0.
         11    1    3    3    0    0  0.46928069828E+02  0.48183376474E+02 -0.24223786279E+03  0.25140219505E+03  0.00000000000E+00 0. -1.
        -12    1    3    3    0    0 -0.86860707050E+01 -0.17792134130E+02 -0.24430353631E+02  0.31445986067E+02  0.00000000000E+00 0.  1.
        -11    1    4    4    0    0  0.24720959069E+02  0.17409072594E+02 -0.33952689477E+02  0.45464125952E+02  0.00000000000E+00 0. -1.
         11    1    4    4    0    0 -0.37394354493E+02 -0.48668107956E+02 -0.14044133847E+02  0.62961576977E+02  0.00000000000E+00 0.  1.
          2    1    1    2  501    0 -0.25568603699E+02  0.86779301824E+00 -0.15684474244E+02  0.30008487002E+02  0.00000000000E+00 0. -1.
<scales pt_clust_5="13000.00000" pt_clust_6="13000.00000" pt_clust_7="13000.00000" pt_clust_8="13000.00000" pt_clust_9="25.58333"></scales>
<clustering>
<clus scale="   25.583">  1  9  2 -1</clus>
<clus scale="   80.654">  5  6 -1 -1</clus>
<clus scale="   91.185">  7  8 -1 -1</clus>
<clus scale="   92.296">  2  5  1 -1</clus>
<clus scale="   25.583">  1  5  2 -1</clus>
</clustering>
</event>
<event>
 9    1  0.7719620E-005  0.3270281E+03  0.7546771E-02  0.1104109E+00
         21   -1    0    0  501  502  0.00000000000E+00  0.00000000000E+00  0.13037670120E+03  0.13037670120E+03  0.00000000000E+00 0. -1.
          1   -1    0    0  502    0 -0.00000000000E+00 -0.00000000000E+00 -0.13244152685E+04  0.13244152685E+04  0.00000000000E+00 0. -1.
         23    2    1    2    0    0  0.42271645373E+02 -0.10990638694E+03 -0.22342698068E+03  0.26432913011E+03  0.77999791265E+02 0.  0.
        -24    2    1    2    0    0  0.28895396579E+03  0.66216684353E+02 -0.68606672393E+03  0.75161779348E+03  0.79766623087E+02 0.  0.
         11    1    4    4    0    0  0.29432441207E+03  0.64561944218E+02 -0.67516053199E+03  0.73934893530E+03  0.00000000000E+00 0. -1.
        -12    1    4    4    0    0 -0.53704462842E+01  0.16547401350E+01 -0.10906191940E+02  0.12268858172E+02  0.00000000000E+00 0.  1.
        -11    1    3    3    0    0  0.64756478534E+02 -0.70016373124E+02 -0.14665071206E+03  0.17493463169E+03  0.00000000000E+00 0. -1.
         11    1    3    3    0    0 -0.22484833161E+02 -0.39890013819E+02 -0.76776268619E+02  0.89394498421E+02  0.00000000000E+00 0.  1.
          2    1    1    2  501    0 -0.33122561116E+03  0.43689702590E+02 -0.28454486267E+03  0.43884504609E+03  0.00000000000E+00 0. -1.
<scales pt_clust_5="13000.00000" pt_clust_6="13000.00000" pt_clust_7="13000.00000" pt_clust_8="13000.00000" pt_clust_9="317.15083"></scales>
<clustering>
<clus scale="   78.000">  7  8 -1 -1</clus>
<clus scale="   79.767">  5  6 -1 -1</clus>
<clus scale="  141.245">  2  7  1 -1</clus>
<clus scale="  317.151">  1  9  2 -1</clus>
<clus scale="  317.151">  1  5  2 -1</clus>
</clustering>
</event>
<event>
 9    1  0.7719620E-005  0.2396463E+03  0.7546771E-02  0.1120029E+00
          1   -1    0    0  502    0 -0.00000000000E+00  0.00000000000E+00  0.82391703178E+03  0.82391703178E+03  0.00000000000E+00 0. -1.
         21   -1    0    0  501  502  0.00000000000E+00 -0.00000000000E+00 -0.49429845437E+02  0.49429845437E+02  0.00000000000E+00 0. -1.
        -24    2    1    2    0    0  0.10423548515E+03 -0.23733102070E+02  0.28917226184E+03  0.31799688272E+03  0.77930250232E+02 0.  0.
         23    2    1    2    0    0  0.52642250832E+02 -0.18289760658E+02  0.20952840298E+03  0.23529570146E+03  0.91412217743E+02 0.  0.
         13    1    3    3    0    0  0.73980604259E+02 -0.49207878430E+02  0.23240000043E+03  0.24880575819E+03  0.00000000000E+00 0. -1.
        -14    1    3    3    0    0  0.30254880893E+02  0.25474776360E+02  0.56772261413E+02  0.69191124535E+02  0.00000000000E+00 0.  1.
        -13    1    4    4    0    0 -0.20255376638E+02 -0.26156501221E+02  0.77690843324E+02  0.84441162802E+02  0.00000000000E+00 0.  1.
         13    1    4    4    0    0  0.72897627471E+02  0.78667405628E+01  0.13183755965E+03  0.15085453866E+03  0.00000000000E+00 0. -1.
          2    1    1    2  501    0 -0.15687773598E+03  0.42022862728E+02  0.27578652152E+03  0.32005429304E+03  0.00000000000E+00 0. -1.
<scales pt_clust_5="13000.00000" pt_clust_6="13000.00000" pt_clust_7="13000.00000" pt_clust_8="13000.00000" pt_clust_9="162.40857"></scales>
<clustering>
<clus scale="   77.930">  5  6 -1 -1</clus>
<clus scale="   91.412">  7  8 -1 -1</clus>
<clus scale="   91.828">  5  7 -1 -1</clus>
<clus scale="  162.409">  2  9  1 -1</clus>
<clus scale="  162.409">  2  5  1 -1</clus>
</clustering>
</event>
<event>
 9    1  0.7719620E-005  0.1481634E+03  0.7546771E-02  0.1204093E+00
          3   -1    0    0  502    0 -0.00000000000E+00  0.00000000000E+00  0.73322286553E+03  0.73322286553E+03  0.00000000000E+00 0. -1.
         21   -1    0    0  501  502  0.00000000000E+00 -0.00000000000E+00 -0.12174265251E+03  0.12174265251E+03  0.00000000000E+00 0. -1.
        -24    2    1    2    0    0 -0.13345331417E+03 -0.14277301588E+02  0.94023286283E+02  0.18429727241E+03  0.84329578734E+02 0.  0.
         23    2    1    2    0    0  0.84158841629E+02 -0.82317962317E+02  0.74001823436E+01  0.14921021997E+03  0.91378167519E+02 0.  0.
         11    1    3    3    0    0 -0.11999573172E+03 -0.36068451788E+02  0.97075740247E+02  0.15850428445E+03  0.00000000000E+00 0. -1.
        -12    1    3    3    0    0 -0.13457582455E+02  0.21791150199E+02 -0.30524539649E+01  0.25792987957E+02  0.00000000000E+00 0.  1.
        -13    1    4    4    0    0  0.60210884072E+02 -0.80277936766E+02 -0.30013982975E+02  0.10474128539E+03  0.00000000000E+00 0. -1.
         13    1    4    4    0    0  0.23947957557E+02 -0.20400255515E+01  0.37414165319E+02  0.44468934571E+02  0.00000000000E+00 0.  1.
          4    1    1    2  501    0  0.49294472545E+02  0.96595263906E+02  0.51005674439E+03  0.52145802566E+03  0.00000000000E+00 0. -1.
<scales pt_clust_5="13000.00000" pt_clust_6="13000.00000" pt_clust_7="13000.00000" pt_clust_8="13000.00000" pt_clust_9="108.44631"></scales>
<clustering>
<clus scale="   84.330">  5  6 -1 -1</clus>
<clus scale="   91.378">  7  8 -1 -1</clus>
<clus scale="  108.446">  2  9  1 -1</clus>
<clus scale="  143.923">  1  5  2 -1</clus>
<clus scale="  108.446">  2  5  1 -1</clus>
</clustering>
</event>
<event>
 9    1  0.7719620E-005  0.1275359E+03  0.7546771E-02  0.1232223E+00
         21   -1    0    0  501  502  0.00000000000E+00  0.00000000000E+00  0.55144982045E+02  0.55144982045E+02  0.00000000000E+00 0. -1.
          1   -1    0    0  502    0 -0.00000000000E+00 -0.00000000000E+00 -0.54460954334E+03  0.54460954334E+03  0.00000000000E+00 0. -1.
        -24    2    1    2    0    0  0.29164191883E+02  0.89557878552E+02 -0.41892510828E+03  0.43929496942E+03  0.92793642614E+02 0.  0.
         23    2    1    2    0    0 -0.18827522268E+02 -0.65011256222E+02 -0.73324909338E+02  0.13368004564E+03  0.88954332339E+02 0.  0.
         13    1    3    3    0    0  0.14760690684E+02  0.91014583842E+02 -0.41378363704E+03  0.42393210629E+03  0.00000000000E+00 0. -1.
        -14    1    3    3    0    0  0.14403501199E+02 -0.14567052901E+01 -0.51414712460E+01  0.15362863134E+02  0.00000000000E+00 0.  1.
        -13    1    4    4    0    0  0.78504761038E+01 -0.26617668037E+02 -0.81609940007E+02  0.86199260639E+02  0.00000000000E+00 0.  1.
         13    1    4    4    0    0 -0.26677998372E+02 -0.38393588185E+02  0.82850306693E+01  0.47480784998E+02  0.00000000000E+00 0. -1.
          2    1    1    2  501    0 -0.10336669615E+02 -0.24546622330E+02  0.27854563238E+01  0.26779510329E+02  0.00000000000E+00 0. -1.
<scales pt_clust_5="13000.00000" pt_clust_6="13000.00000" pt_clust_7="13000.00000" pt_clust_8="13000.00000" pt_clust_9="26.63425"></scales>
<clustering>
<clus scale="   26.634">  1  9  2 -1</clus>
<clus scale="   88.954">  7  8 -1 -1</clus>
<clus scale="   92.794">  5  6 -1 -1</clus>
<clus scale="  124.770">  1  7  2 -1</clus>
<clus scale="   26.634">  1  5  2 -1</clus>
</clustering>
</event>
<event>
 9    1  0.7719620E-005  0.1249759E+03  0.7546771E-02  0.1251139E+00
         21   -1    0    0  501  502  0.00000000000E+00  0.00000000000E+00  0.54719574078E+02  0.54719574078E+02  0.00000000000E+00 0. -1.
          1   -1    0    0  502    0 -0.00000000000E+00 -0.00000000000E+00 -0.45000181969E+03  0.45000181969E+03  0.00000000000E+00 0. -1.
        -24    2    1    2    0    0 -0.19273223358E+02 -0.39981055841E+02 -0.10400237822E+03  0.13779533166E+03  0.78747170025E+02 0.  0.
         23    2    1    2    0    0  0.52079572662E+02 -0.45271188820E+02 -0.22852398912E+03  0.25609961205E+03  0.92747157726E+02 0.  0.
         11    1    3    3    0    0  0.16556804171E+02  0.11277433704E+02 -0.49225260055E+01  0.20628609686E+02  0.00000000000E+00 0. -1.
        -12    1    3    3    0    0 -0.35830027529E+02 -0.51258489545E+02 -0.99079852216E+02  0.11716672197E+03  0.00000000000E+00 0.  1.
        -13    1    4    4    0    0  0.97943919963E+01 -0.38260250213E+02 -0.22068141556E+02  0.45241349811E+02  0.00000000000E+00 0.  1.
         13    1    4    4    0    0  0.42285180666E+02 -0.70109386063E+01 -0.20645584756E+03  0.21085826224E+03  0.00000000000E+00 0. -1.
          2    1    1    2  501    0 -0.32806349304E+02  0.85252244661E+02 -0.62755878279E+02  0.11082645006E+03  0.00000000000E+00 0. -1.
<scales pt_clust_5="13000.00000" pt_clust_6="13000.00000" pt_clust_7="13000.00000" pt_clust_8="13000.00000" pt_clust_9="83.76713"></scales>
<clustering>
<clus scale="   78.747">  5  6 -1 -1</clus>
<clus scale="   90.394">  2  5  1 -1</clus>
<clus scale="   83.767">  1  9  2 -1</clus>
<clus scale="   92.747">  7  8 -1 -1</clus>
<clus scale="   83.767">  1  5  2 -1</clus>
</clustering>
</event>
<event>
 9    1  0.7719620E-005  0.1860095E+03  0.7546771E-02  0.1163467E+00
         21   -1    0    0  501  502  0.00000000000E+00  0.00000000000E+00  0.92221391923E+02  0.92221391923E+02  0.00000000000E+00 0.  1.
          1   -1    0    0  502    0 -0.00000000000E+00 -0.00000000000E+00 -0.14033677821E+04  0.14033677821E+04  0.00000000000E+00 0. -1.
        -24    2    1    2    0    0 -0.10453961451E+03 -0.11146726035E+03 -0.85351776272E+03  0.87063681530E+03  0.78501030193E+02 0.  0.
         23    2    1    2    0    0  0.11412573034E+03  0.14493043717E+03 -0.51684542887E+03  0.55626242210E+03  0.90934981965E+02 0.  0.
         11    1    3    3    0    0 -0.62976506673E+02 -0.11224287602E+03 -0.69120577015E+03  0.70308599780E+03  0.00000000000E+00 0. -1.
        -12    1    3    3    0    0 -0.41563107840E+02  0.77561567352E+00 -0.16231199257E+03  0.16755081750E+03  0.00000000000E+00 0.  1.
        -13    1    4    4    0    0  0.32433473542E+02  0.79040869566E+02 -0.13100333039E+03  0.15640096496E+03  0.00000000000E+00 0.  1.
         13    1    4    4    0    0  0.81692256801E+02  0.65889567606E+02 -0.38584209848E+03  0.39986145713E+03  0.00000000000E+00 0. -1.
          2    1    1    2  501    0 -0.95861158300E+01 -0.33463176826E+02  0.59216801432E+02  0.68689936613E+02  0.00000000000E+00 0. -1.
<scales pt_clust_5="13000.00000" pt_clust_6="13000.00000" pt_clust_7="13000.00000" pt_clust_8="13000.00000" pt_clust_9="34.80916"></scales>
<clustering>
<clus scale="   34.809">  1  9  2 -1</clus>
<clus scale="   78.501">  5  6 -1 -1</clus>
<clus scale="   90.935">  7  8 -1 -1</clus>
<clus scale="  180.258">  2  5  1 -1</clus>
<clus scale="   34.809">  1  5  2 -1</clus>
</clustering>
</event>
<event>
 9    1  0.7719620E-005  0.1032227E+03  0.7546771E-02  0.1279878E+00
         21   -1    0    0  501  502  0.00000000000E+00  0.00000000000E+00  0.45687042777E+02  0.45687042777E+02  0.00000000000E+00 0. -1.
          1   -1    0    0  502    0 -0.00000000000E+00 -0.00000000000E+00 -0.28863877544E+03  0.28863877544E+03  0.00000000000E+00 0. -1.
        -24    2    1    2    0    0  0.53500401754E+02 -0.19725149342E+02 -0.12574832430E+03  0.15983172163E+03  0.80511885281E+02 0.  0.
         23    2    1    2    0    0 -0.22113591134E+02  0.17928935615E+02 -0.91854562414E+02  0.13410941811E+03  0.93475225296E+02 0.  0.
         13    1    3    3    0    0  0.46134025509E+02 -0.38000512065E+02 -0.40169312095E+02  0.72013615803E+02  0.00000000000E+00 0. -1.
        -14    1    3    3    0    0  0.73663762454E+01  0.18275362723E+02 -0.85579012204E+02  0.87818105830E+02  0.00000000000E+00 0.  1.
        -13    1    4    4    0    0 -0.90180272566E+01  0.43051056579E+02 -0.68594268370E+01  0.44517075653E+02  0.00000000000E+00 0. -1.
         13    1    4    4    0    0 -0.13095563878E+02 -0.25122120964E+02 -0.84995135577E+02  0.89592342456E+02  0.00000000000E+00 0.  1.
          2    1    1    2  501    0 -0.31386810620E+02  0.17962137269E+01 -0.25348845950E+02  0.40384678476E+02  0.00000000000E+00 0. -1.
<scales pt_clust_5="13000.00000" pt_clust_6="13000.00000" pt_clust_7="13000.00000" pt_clust_8="13000.00000" pt_clust_9="31.43817"></scales>
<clustering>
<clus scale="   31.438">  1  9  2 -1</clus>
<clus scale="   80.512">  5  6 -1 -1</clus>
<clus scale="   91.649">  2  5  1 -1</clus>
<clus scale="   93.475">  7  8 -1 -1</clus>
<clus scale="   31.438">  1  5  2 -1</clus>
</clustering>
</event>
<event>
 9    1  0.7719620E-005  0.1164511E+03  0.7546771E-02  0.1255393E+00
         -4   -1    0    0    0  501 -0.00000000000E+00  0.00000000000E+00  0.14085113500E+03  0.14085113500E+03  0.00000000000E+00 0.  1.
         21   -1    0    0  501  502  0.00000000000E+00 -0.00000000000E+00 -0.28792744378E+03  0.28792744378E+03  0.00000000000E+00 0. -1.
         23    2    1    2    0    0  0.49040008904E+02 -0.64409458008E+02  0.90114035238E+02  0.15174964030E+03  0.91399744143E+02 0.  0.
        -24    2    1    2    0    0 -0.40070413066E+02  0.19028633153E+02 -0.96365423428E+02  0.12880096820E+03  0.73045654852E+02 0.  0.
         13    1    4    4    0    0 -0.54895792245E+02  0.28861659169E+02 -0.91174222047E+02  0.11026913504E+03  0.00000000000E+00 0. -1.
        -14    1    4    4    0    0  0.14825379179E+02 -0.98330260160E+01 -0.51912013818E+01  0.18531833159E+02  0.00000000000E+00 0.  1.
        -13    1    3    3    0    0  0.34903065160E+02 -0.19485554229E+02  0.96283289185E+02  0.10425153504E+03  0.00000000000E+00 0.  1.
         13    1    3    3    0    0  0.14136943744E+02 -0.44923903779E+02 -0.61692539468E+01  0.47498105261E+02  0.00000000000E+00 0. -1.
         -3    1    1    2    0  502 -0.89695958378E+01  0.45380824855E+02 -0.14082492059E+03  0.14822797028E+03  0.00000000000E+00 0.  1.
<scales pt_clust_5="13000.00000" pt_clust_6="13000.00000" pt_clust_7="13000.00000" pt_clust_8="13000.00000" pt_clust_9="46.25876"></scales>
<clustering>
<clus scale="   46.259">  2  9  1 -1</clus>
<clus scale="   73.046">  5  6 -1 -1</clus>
<clus scale="   91.400">  7  8 -1 -1</clus>
<clus scale="  102.677">  2  5  1 -1</clus>
<clus scale="   46.259">  2  5  1 -1</clus>
</clustering>
</event>
<event>
 9    1  0.7719620E-005  0.1152031E+03  0.7546771E-02  0.1254920E+00
          1   -1    0    0  502    0 -0.00000000000E+00  0.00000000000E+00  0.58130467768E+03  0.58130467768E+03  0.00000000000E+00 0. -1.
         21   -1    0    0  501  502  0.00000000000E+00 -0.00000000000E+00 -0.13707483643E+03  0.13707483643E+03  0.00000000000E+00 0. -1.
        -24    2    1    2    0    0  0.25117428083E+02  0.61894725094E+02  0.40885190127E+03  0.42192213929E+03  0.79978573780E+02 0.  0.
         23    2    1    2    0    0 -0.40086673636E+02 -0.77737651025E+02  0.14074504750E+03  0.18885949396E+03  0.90601635044E+02 0.  0.
         13    1    3    3    0    0  0.45229734002E+02  0.49020767129E+02  0.18236275917E+03  0.19417760010E+03  0.00000000000E+00 0. -1.
        -14    1    3    3    0    0 -0.20112305919E+02  0.12873957965E+02  0.22648914210E+03  0.22774453919E+03  0.00000000000E+00 0.  1.
        -11    1    4    4    0    0  0.28253403353E+02 -0.11453336525E+02  0.29277523713E+02  0.42268275495E+02  0.00000000000E+00 0.  1.
         11    1    4    4    0    0 -0.68340076989E+02 -0.66284314499E+02  0.11146752379E+03  0.14659121847E+03  0.00000000000E+00 0. -1.
          2    1    1    2  501    0  0.14969245553E+02  0.15842925931E+02 -0.10536710752E+03  0.10759788085E+03  0.00000000000E+00 0. -1.
<scales pt_clust_5="13000.00000" pt_clust_6="13000.00000" pt_clust_7="13000.00000" pt_clust_8="13000.00000" pt_clust_9="21.79625"></scales>
<clustering>
<clus scale="   21.796">  2  9  1 -1</clus>
<clus scale="   79.979">  5  6 -1 -1</clus>
<clus scale="   90.602">  7  8 -1 -1</clus>
<clus scale="  107.050">  1  5  2 -1</clus>
<clus scale="   21.796">  2  5  1 -1</clus>
</clustering>
</event>
<event>
 9    1  0.7719620E-005  0.1669874E+03  0.7546771E-02  0.1205500E+00
          3   -1    0    0  502    0 -0.00000000000E+00  0.00000000000E+00  0.11860441228E+04  0.11860441228E+04  0.00000000000E+00 0. -1.
         21   -1    0    0  501  502  0.00000000000E+00 -0.00000000000E+00 -0.51507525635E+02  0.51507525635E+02  0.00000000000E+00 0.  1.
         23    2    1    2    0    0  0.42977370496E+01 -0.35485324313E+02  0.17682365826E+03  0.20193695644E+03  0.90742765390E+02 0.  0.
        -24    2    1    2    0    0 -0.12985995027E+03 -0.59752036166E+02  0.18811617801E+03  0.25004789115E+03  0.81867813747E+02 0.  0.
         11    1    4    4    0    0 -0.28916613608E+02  0.20756717882E+02  0.39115452523E+02  0.52886959696E+02  0.00000000000E+00 0. -1.
        -12    1    4    4    0    0 -0.10094333666E+03 -0.80508754048E+02  0.14900072549E+03  0.19716093145E+03  0.00000000000E+00 0.  1.
        -13    1    3    3    0    0  0.30187840308E+02 -0.50995934041E+02  0.74162422317E+02  0.94931321887E+02  0.00000000000E+00 0. -1.
         13    1    3    3    0    0 -0.25890103259E+02  0.15510609729E+02  0.10266123595E+03  0.10700563456E+03  0.00000000000E+00 0.  1.
          4    1    1    2  501    0  0.12556221322E+03  0.95237360479E+02  0.76959676090E+03  0.78556680085E+03  0.00000000000E+00 0. -1.
<scales pt_clust_5="13000.00000" pt_clust_6="13000.00000" pt_clust_7="13000.00000" pt_clust_8="13000.00000" pt_clust_9="145.54198"></scales>
<clustering>
<clus scale="   81.868">  5  6 -1 -1</clus>
<clus scale="   90.743">  7  8 -1 -1</clus>
<clus scale="   97.529">  1  7  2 -1</clus>
<clus scale="  145.542">  2  9  1 -1</clus>
<clus scale="  145.542">  2  5  1 -1</clus>
</clustering>
</event>
<event>
 9    1  0.7719620E-005  0.1745640E+03  0.7546771E-02  0.1193077E+00
          1   -1    0    0  502    0 -0.00000000000E+00  0.00000000000E+00  0.22452133375E+03  0.22452133375E+03  0.00000000000E+00 0. -1.
         21   -1    0    0  501  502  0.00000000000E+00 -0.00000000000E+00 -0.23495458637E+03  0.23495458637E+03  0.00000000000E+00 0. -1.
         23    2    1    2    0    0 -0.51693781143E+02 -0.39902931341E+02  0.29132231672E+02  0.11558504202E+03  0.90811475480E+02 0.  0.
        -24    2    1    2    0    0 -0.11230076358E+03  0.92700632587E+02 -0.39956321363E+02  0.17160634393E+03  0.81531349048E+02 0.  0.
         11    1    4    4    0    0 -0.11179206053E+03  0.98530102976E+02 -0.19447727502E+02  0.15027927367E+03  0.00000000000E+00 0. -1.
        -12    1    4    4    0    0 -0.50870305540E+00 -0.58294703896E+01 -0.20508593862E+02  0.21327070263E+02  0.00000000000E+00 0.  1.
        -13    1    3    3    0    0 -0.47702994784E+02  0.19937636590E+02  0.10238994309E+02  0.52705996515E+02  0.00000000000E+00 0.  1.
         13    1    3    3    0    0 -0.39907863587E+01 -0.59840567930E+02  0.18893237364E+02  0.62879045509E+02  0.00000000000E+00 0. -1.
          2    1    1    2  501    0  0.16399454472E+03 -0.52797701246E+02  0.39083706989E+00  0.17228453416E+03  0.00000000000E+00 0. -1.
<scales pt_clust_5="13000.00000" pt_clust_6="13000.00000" pt_clust_7="13000.00000" pt_clust_8="13000.00000" pt_clust_9="154.35426"></scales>
<clustering>
<clus scale="   81.531">  5  6 -1 -1</clus>
<clus scale="   90.811">  7  8 -1 -1</clus>
<clus scale="  111.854">  1  7  2 -1</clus>
<clus scale="  154.354">  2  9  1 -1</clus>
<clus scale="  154.354">  2  5  1 -1</clus>
</clustering>
</event>
<event>
 9    1  0.7719620E-005  0.1946967E+03  0.7546771E-02  0.1169072E+00
         21   -1    0    0  501  502  0.00000000000E+00  0.00000000000E+00  0.65456176747E+03  0.65456176747E+03  0.00000000000E+00 0. -1.
          1   -1    0    0  502    0 -0.00000000000E+00 -0.00000000000E+00 -0.20465718059E+03  0.20465718059E+03  0.00000000000E+00 0. -1.
         23    2    1    2    0    0  0.76786301074E+02 -0.64464626593E+02 -0.41090014416E+02  0.14413978290E+03  0.95058211727E+02 0.  0.
        -24    2    1    2    0    0  0.16047113259E+03  0.40815816959E+02  0.43112875367E+03  0.46924532750E+03  0.83079840108E+02 0.  0.
         13    1    4    4    0    0  0.46415820313E+02  0.53089013762E+02  0.16063259415E+03  0.17543004891E+03  0.00000000000E+00 0. -1.
        -14    1    4    4    0    0  0.11405531228E+03 -0.12273196803E+02  0.27049615952E+03  0.29381527859E+03  0.00000000000E+00 0.  1.
        -11    1    3    3    0    0 -0.34181938344E+01  0.19965056903E+02  0.10874935318E+01  0.20284727960E+02  0.00000000000E+00 0.  1.
         11    1    3    3    0    0  0.80204494909E+02 -0.84429683496E+02 -0.42177507947E+02  0.12385505494E+03  0.00000000000E+00 0. -1.
          2    1    1    2  501    0 -0.23725743366E+03  0.23648809634E+02  0.59865847619E+02  0.24583383766E+03  0.00000000000E+00 0. -1.
<scales pt_clust_5="13000.00000" pt_clust_6="13000.00000" pt_clust_7="13000.00000" pt_clust_8="13000.00000" pt_clust_9="176.08117"></scales>
<clustering>
<clus scale="   83.080">  5  6 -1 -1</clus>
<clus scale="   95.058">  7  8 -1 -1</clus>
<clus scale="  138.159">  2  7  1 -1</clus>
<clus scale="  176.081">  1  9  2 -1</clus>
<clus scale="  176.081">  1  5  2 -1</clus>
</clustering>
</event>
<event>
 9    1  0.7719620E-005  0.9600478E+02  0.7546771E-02  0.1296439E+00
         21   -1    0    0  501  502  0.00000000000E+00  0.00000000000E+00  0.10176185392E+03  0.10176185392E+03  0.00000000000E+00 0. -1.
          1   -1    0    0  502    0 -0.00000000000E+00 -0.00000000000E+00 -0.58427524780E+03  0.58427524780E+03  0.00000000000E+00 0. -1.
         23    2    1    2    0    0 -0.13135183779E+02 -0.23577890038E+02 -0.43629822877E+03  0.44659609473E+03  0.91452050017E+02 0.  0.
        -24    2    1    2    0    0 -0.54009617745E+01  0.40068003707E+02 -0.12723407599E+03  0.15470862557E+03  0.78176936652E+02 0.  0.
         11    1    4    4    0    0 -0.33532607253E+02  0.76707350030E+01 -0.95020324472E+02  0.10105512351E+03  0.00000000000E+00 0. -1.
        -12    1    4    4    0    0  0.28131645478E+02  0.32397268704E+02 -0.32213751518E+02  0.53653502063E+02  0.00000000000E+00 0.  1.
        -13    1    3    3    0    0 -0.30246803667E+02 -0.52039772244E+02 -0.32171322455E+03  0.32729559404E+03  0.00000000000E+00 0. -1.
         13    1    3    3    0    0  0.17111619887E+02  0.28461882206E+02 -0.11458500422E+03  0.11930050069E+03  0.00000000000E+00 0.  1.
          2    1    1    2  501    0  0.18536145554E+02 -0.16490113669E+02  0.81018910878E+02  0.84732381417E+02  0.00000000000E+00 0. -1.
<scales pt_clust_5="13000.00000" pt_clust_6="13000.00000" pt_clust_7="13000.00000" pt_clust_8="13000.00000" pt_clust_9="24.80953"></scales>
<clustering>
<clus scale="   24.810">  1  9  2 -1</clus>
<clus scale="   78.177">  5  6 -1 -1</clus>
<clus scale="   83.457">  1  5  2 -1</clus>
<clus scale="   91.452">  7  8 -1 -1</clus>
<clus scale="   24.810">  1  5  2 -1</clus>
</clustering>
</event>
<event>
 9    1  0.7719620E-005  0.9140394E+02  0.7546771E-02  0.1305298E+00
          1   -1    0    0  502    0 -0.00000000000E+00  0.00000000000E+00  0.37836503481E+02  0.37836503481E+02  0.00000000000E+00 0. -1.
         21   -1    0    0  501  502  0.00000000000E+00 -0.00000000000E+00 -0.60302822194E+03  0.60302822194E+03  0.00000000000E+00 0.  1.
        -24    2    1    2    0    0 -0.12041611795E+02 -0.91164851464E+01 -0.56083175483E+02  0.98569005027E+02  0.79639283421E+02 0.  0.
         23    2    1    2    0    0 -0.32938412843E+02  0.50589594787E+02 -0.19949814761E+03  0.22669816280E+03  0.89153238729E+02 0.  0.
         11    1    3    3    0    0 -0.18493561610E+02  0.32740172840E+02 -0.18323279269E+02  0.41829096354E+02  0.00000000000E+00 0. -1.
        -12    1    3    3    0    0  0.64519498141E+01 -0.41856657987E+02 -0.37759896214E+02  0.56739908674E+02  0.00000000000E+00 0.  1.
        -13    1    4    4    0    0 -0.51754487858E+02  0.63901995168E+02 -0.17319475504E+03  0.19172484234E+03  0.00000000000E+00 0.  1.
         13    1    4    4    0    0  0.18816075015E+02 -0.13312400380E+02 -0.26303392573E+02  0.34973320455E+02  0.00000000000E+00 0. -1.
          2    1    1    2  501    0  0.44980024639E+02 -0.41473109641E+02 -0.30961039537E+03  0.31559755759E+03  0.00000000000E+00 0. -1.
<scales pt_clust_5="13000.00000" pt_clust_6="13000.00000" pt_clust_7="13000.00000" pt_clust_8="13000.00000" pt_clust_9="61.18187"></scales>
<clustering>
<clus scale="   61.182">  2  9  1 -1</clus>
<clus scale="   79.639">  5  6 -1 -1</clus>
<clus scale="   82.151">  1  5  2 -1</clus>
<clus scale="   89.153">  7  8 -1 -1</clus>
<clus scale="   61.182">  2  5  1 -1</clus>
</clustering>
</event>
<event>
 9    1  0.7719620E-005  0.1604458E+03  0.7546771E-02  0.1207682E+00
         21   -1    0    0  501  502  0.00000000000E+00  0.00000000000E+00  0.51723938616E+02  0.51723938616E+02  0.00000000000E+00 0.  1.
          1   -1    0    0  502    0 -0.00000000000E+00 -0.00000000000E+00 -0.12922328954E+04  0.12922328954E+04  0.00000000000E+00 0. -1.
        -24    2    1    2    0    0 -0.61403689276E+02 -0.27427168055E+02 -0.52882985557E+02  0.11749142428E+03  0.80529261847E+02 0.  0.
         23    2    1    2    0    0 -0.92762293865E+02  0.66103134578E+02 -0.52323049383E+03  0.54332242973E+03  0.91949145791E+02 0.  0.
         13    1    3    3    0    0 -0.44483138013E+02  0.13098674879E+02 -0.56887472104E+02  0.73392842521E+02  0.00000000000E+00 0. -1.
        -14    1    3    3    0    0 -0.16920551263E+02 -0.40525842934E+02  0.40044865468E+01  0.44098581758E+02  0.00000000000E+00 0.  1.
        -11    1    4    4    0    0 -0.55024162083E+02  0.86492408131E+02 -0.33876324348E+03  0.35393379354E+03  0.00000000000E+00 0.  1.
         11    1    4    4    0    0 -0.37738131782E+02 -0.20389273553E+02 -0.18446725035E+03  0.18938863619E+03  0.00000000000E+00 0. -1.
          2    1    1    2  501    0  0.15416598314E+03 -0.38675966523E+02 -0.66439547744E+03  0.68314298005E+03  0.00000000000E+00 0. -1.
<scales pt_clust_5="13000.00000" pt_clust_6="13000.00000" pt_clust_7="13000.00000" pt_clust_8="13000.00000" pt_clust_9="131.48475"></scales>
<clustering>
<clus scale="   80.529">  5  6 -1 -1</clus>
<clus scale="   91.949">  7  8 -1 -1</clus>
<clus scale="  104.917">  2  5  1 -1</clus>
<clus scale="  131.485">  1  9  2 -1</clus>
<clus scale="  131.485">  1  5  2 -1</clus>
</clustering>
</event>
<event>
 9    1  0.7719620E-005  0.1057273E+03  0.7546771E-02  0.1275585E+00
         21   -1    0    0  501  502  0.00000000000E+00  0.00000000000E+00  0.30005427927E+03  0.30005427927E+03  0.00000000000E+00 0.  1.
         -2   -1    0    0    0  501 -0.00000000000E+00 -0.00000000000E+00 -0.15103565532E+03  0.15103565532E+03  0.00000000000E+00 0.  1.
        -24    2    1    2    0    0  0.51236969291E+02  0.48922330624E+02 -0.65467523549E+02  0.12485801090E+03  0.79277391421E+02 0.  0.
         23    2    1    2    0    0  0.47390001453E+02 -0.28176641464E+02  0.25685297210E+02  0.11221457849E+03  0.94300804716E+02 0.  0.
         11    1    3    3    0    0  0.46593832474E+02 -0.95830477708E+01 -0.31390532433E+02  0.56992855304E+02  0.00000000000E+00 0. -1.
        -12    1    3    3    0    0  0.46431368165E+01  0.58505378395E+02 -0.34076991115E+02  0.67865155596E+02  0.00000000000E+00 0.  1.
        -13    1    4    4    0    0  0.26751363651E+02 -0.48511866612E+02 -0.19335575158E+02  0.58676239877E+02  0.00000000000E+00 0.  1.
         13    1    4    4    0    0  0.20638637802E+02  0.20335225148E+02  0.45020872369E+02  0.53538338609E+02  0.00000000000E+00 0. -1.
         -1    1    1    2    0  502 -0.98626970744E+02 -0.20745689160E+02  0.18880085029E+03  0.21401734520E+03  0.00000000000E+00 0.  1.
<scales pt_clust_5="13000.00000" pt_clust_6="13000.00000" pt_clust_7="13000.00000" pt_clust_8="13000.00000" pt_clust_9="100.78523"></scales>
<clustering>
<clus scale="   79.277">  5  6 -1 -1</clus>
<clus scale="   94.301">  7  8 -1 -1</clus>
<clus scale="  100.785">  1  9  2 -1</clus>
<clus scale="   92.577">  2  5  1 -1</clus>
<clus scale="  100.785">  1  5  2 -1</clus>
</clustering>
</event>
<event>
 9    1  0.7719620E-005  0.9548030E+02  0.7546771E-02  0.1296618E+00
         21   -1    0    0  501  502  0.00000000000E+00  0.00000000000E+00  0.12675148356E+03  0.12675148356E+03  0.00000000000E+00 0. -1.
         -2   -1    0    0    0  501 -0.00000000000E+00 -0.00000000000E+00 -0.11977353456E+03  0.11977353456E+03  0.00000000000E+00 0.  1.
         23    2    1    2    0    0 -0.24714421499E+02 -0.10470310901E+02 -0.65028251871E+02  0.11535556863E+03  0.91421024019E+02 0.  0.
        -24    2    1    2    0    0  0.17579509782E+02  0.30538416858E+02  0.64459630852E+02  0.10857328697E+03  0.79946735798E+02 0.  0.
         11    1    4    4    0    0  0.32334204371E+02  0.50065624768E+02  0.58218264869E+02  0.83315268229E+02  0.00000000000E+00 0. -1.
        -12    1    4    4    0    0 -0.14754694589E+02 -0.19527207910E+02  0.62413659828E+01  0.25258018737E+02  0.00000000000E+00 0.  1.
        -11    1    3    3    0    0  0.27448441794E+01 -0.30405068519E+02 -0.74175187100E+02  0.80211973810E+02  0.00000000000E+00 0.  1.
         11    1    3    3    0    0 -0.27459265679E+02  0.19934757619E+02  0.91469352288E+01  0.35143594822E+02  0.00000000000E+00 0. -1.
         -1    1    1    2    0  502  0.71349117177E+01 -0.20068105957E+02  0.75465700167E+01  0.22596162527E+02  0.00000000000E+00 0.  1.
<scales pt_clust_5="13000.00000" pt_clust_6="13000.00000" pt_clust_7="13000.00000" pt_clust_8="13000.00000" pt_clust_9="21.29873"></scales>
<clustering>
<clus scale="   21.299">  1  9  2 -1</clus>
<clus scale="   79.947">  5  6 -1 -1</clus>
<clus scale="   84.559">  1  5  2 -1</clus>
<clus scale="   91.421">  7  8 -1 -1</clus>
<clus scale="   21.299">  1  5  2 -1</clus>
</clustering>
</event>
<event>
 9    1  0.7719620E-005  0.1300925E+03  0.7546771E-02  0.1231921E+00
         21   -1    0    0  501  502  0.00000000000E+00  0.00000000000E+00  0.13949831495E+03  0.13949831495E+03  0.00000000000E+00 0.  1.
          1   -1    0    0  502    0 -0.00000000000E+00 -0.00000000000E+00 -0.51532679561E+03  0.51532679561E+03  0.00000000000E+00 0. -1.
        -24    2    1    2    0    0 -0.31412147189E+02  0.79064219401E+02 -0.41882163588E+03  0.43492674163E+03  0.80695936223E+02 0.  0.
         23    2    1    2    0    0  0.72186390787E+02 -0.86918700847E+02  0.75597821651E+02  0.16710351982E+03  0.97174174177E+02 0.  0.
         13    1    3    3    0    0 -0.31976267441E+02  0.84470888463E+02 -0.41979738992E+03  0.42940384402E+03  0.00000000000E+00 0. -1.
        -14    1    3    3    0    0  0.56412025177E+00 -0.54066690626E+01  0.97575404213E+00  0.55228976056E+01  0.00000000000E+00 0.  1.
        -13    1    4    4    0    0  0.17947522961E+02 -0.88217682157E+02  0.26276209321E+02  0.93781193220E+02  0.00000000000E+00 0. -1.
         13    1    4    4    0    0  0.54238867826E+02  0.12989813098E+01  0.49321612331E+02  0.73322326602E+02  0.00000000000E+00 0.  1.
          2    1    1    2  501    0 -0.40774243598E+02  0.78544814460E+01 -0.32604666434E+02  0.52794849115E+02  0.00000000000E+00 0. -1.
<scales pt_clust_5="13000.00000" pt_clust_6="13000.00000" pt_clust_7="13000.00000" pt_clust_8="13000.00000" pt_clust_9="41.52389"></scales>
<clustering>
<clus scale="   41.524">  1  9  2 -1</clus>
<clus scale="   80.696">  5  6 -1 -1</clus>
<clus scale="   97.174">  7  8 -1 -1</clus>
<clus scale="  118.292">  2  5  1 -1</clus>
<clus scale="   41.524">  1  5  2 -1</clus>
</clustering>
</event>
<event>
 9    1  0.7719620E-005  0.1033588E+03  0.7546771E-02  0.1278842E+00
         21   -1    0    0  501  502  0.00000000000E+00  0.00000000000E+00  0.38958389047E+03  0.38958389047E+03  0.00000000000E+00 0.  1.
         -2   -1    0    0    0  501 -0.00000000000E+00 -0.00000000000E+00 -0.52730054474E+02  0.52730054474E+02  0.00000000000E+00 0.  1.
        -24    2    1    2    0    0  0.44446865036E+02 -0.12977514183E+02  0.10278509850E+03  0.13908249724E+03  0.81456889693E+02 0.  0.
         23    2    1    2    0    0 -0.45014996341E+02 -0.43320597988E+02  0.21730592566E+03  0.24448800494E+03  0.93002661926E+02 0.  0.
         13    1    3    3    0    0  0.29163265133E+02  0.30611959181E+02  0.72247133992E+02  0.83709237532E+02  0.00000000000E+00 0. -1.
        -14    1    3    3    0    0  0.15283599903E+02 -0.43589473364E+02  0.30537964505E+02  0.55373259704E+02  0.00000000000E+00 0.  1.
        -13    1    4    4    0    0 -0.73706697045E+02 -0.29886433412E+02  0.16808234216E+03  0.18595039617E+03  0.00000000000E+00 0.  1.
         13    1    4    4    0    0  0.28691700703E+02 -0.13434164576E+02  0.49223583506E+02  0.58537608768E+02  0.00000000000E+00 0. -1.
         -1    1    1    2    0  502  0.56813130506E+00  0.56298112172E+02  0.16762811832E+02  0.58743442764E+02  0.00000000000E+00 0.  1.
<scales pt_clust_5="13000.00000" pt_clust_6="13000.00000" pt_clust_7="13000.00000" pt_clust_8="13000.00000" pt_clust_9="56.30101"></scales>
<clustering>
<clus scale="   56.301">  1  9  2 -1</clus>
<clus scale="   81.457">  5  6 -1 -1</clus>
<clus scale="   93.003">  7  8 -1 -1</clus>
<clus scale="   93.106">  2  5  1 -1</clus>
<clus scale="   56.301">  1  5  2 -1</clus>
</clustering>
</event>
<event>
 9    1  0.7719620E-005  0.9729398E+02  0.7546771E-02  0.1287868E+00
         21   -1    0    0  501  502  0.00000000000E+00  0.00000000000E+00  0.24817430603E+02  0.24817430603E+02  0.00000000000E+00 0.  1.
          1   -1    0    0  502    0 -0.00000000000E+00 -0.00000000000E+00 -0.61114644138E+03  0.61114644138E+03  0.00000000000E+00 0. -1.
         23    2    1    2    0    0  0.12012198716E+01  0.14570375244E+02 -0.29541729905E+03  0.30931527614E+03  0.90503153036E+02 0.  0.
        -24    2    1    2    0    0  0.10746751605E+02 -0.39793234153E+02 -0.27723237712E+03  0.29556691588E+03  0.93824392799E+02 0.  0.
         11    1    4    4    0    0  0.37033894254E+00 -0.53436840150E+02 -0.27263117209E+03  0.27781898608E+03  0.00000000000E+00 0. -1.
        -12    1    4    4    0    0  0.10376412662E+02  0.13643605997E+02 -0.46012050398E+01  0.17747929799E+02  0.00000000000E+00 0.  1.
        -13    1    3    3    0    0 -0.96808290430E+01 -0.37270826512E+02 -0.11442884665E+03  0.12073439405E+03  0.00000000000E+00 0.  1.
         13    1    3    3    0    0  0.10882048915E+02  0.51841201757E+02 -0.18098845240E+03  0.18858088209E+03  0.00000000000E+00 0. -1.
          2    1    1    2  501    0 -0.11947971476E+02  0.25222858908E+02 -0.13679334595E+02  0.31081679956E+02  0.00000000000E+00 0. -1.
<scales pt_clust_5="13000.00000" pt_clust_6="13000.00000" pt_clust_7="13000.00000" pt_clust_8="13000.00000" pt_clust_9="27.90962"></scales>
<clustering>
<clus scale="   27.910">  1  9  2 -1</clus>
<clus scale="   90.503">  7  8 -1 -1</clus>
<clus scale="   93.824">  5  6 -1 -1</clus>
<clus scale="   94.095">  2  7  1 -1</clus>
<clus scale="   27.910">  1  5  2 -1</clus>
</clustering>
</event>
<event>
 9    1  0.7719620E-005  0.1102696E+03  0.7546771E-02  0.1263466E+00
          1   -1    0    0  502    0 -0.00000000000E+00  0.00000000000E+00  0.47781643524E+03  0.47781643524E+03  0.00000000000E+00 0. -1.
         21   -1    0    0  501  502  0.00000000000E+00 -0.00000000000E+00 -0.38172461237E+02  0.38172461237E+02  0.00000000000E+00 0.  1.
         23    2    1    2    0    0  0.28620212285E+02  0.64508075299E+02  0.34196694204E+03  0.36075660939E+03  0.90683699969E+02 0.  0.
        -24    2    1    2    0    0 -0.20371402311E+02 -0.40977390608E+02  0.87524848200E+02  0.12831012479E+03  0.81906950236E+02 0.  0.
         13    1    4    4    0    0 -0.22156463239E+02  0.71396485501E+00  0.83493560971E+02  0.86386302923E+02  0.00000000000E+00 0. -1.
        -14    1    4    4    0    0  0.17850609278E+01 -0.41691355463E+02  0.40312872290E+01  0.41923821862E+02  0.00000000000E+00 0.  1.
        -11    1    3    3    0    0 -0.57380157209E+01  0.73221339901E+02  0.27892840136E+03  0.28843602848E+03  0.00000000000E+00 0. -1.
         11    1    3    3    0    0  0.34358228006E+02 -0.87132646011E+01  0.63038540676E+02  0.72320580904E+02  0.00000000000E+00 0.  1.
          2    1    1    2  501    0 -0.82488099740E+01 -0.23530684692E+02  0.10152183769E+02  0.26922162308E+02  0.00000000000E+00 0. -1.
<scales pt_clust_5="13000.00000" pt_clust_6="13000.00000" pt_clust_7="13000.00000" pt_clust_8="13000.00000" pt_clust_9="24.93463"></scales>
<clustering>
<clus scale="   24.935">  2  9  1 -1</clus>
<clus scale="   81.907">  5  6 -1 -1</clus>
<clus scale="   90.684">  7  8 -1 -1</clus>
<clus scale="  103.173">  2  5  1 -1</clus>
<clus scale="   24.935">  2  5  1 -1</clus>
</clustering>
</event>
<event>
 9    1  0.7719620E-005  0.9715755E+02  0.7546771E-02  0.1294334E+00
         21   -1    0    0  501  502  0.00000000000E+00  0.00000000000E+00  0.18390789753E+03  0.18390789753E+03  0.00000000000E+00 0.  1.
         -2   -1    0    0    0  501 -0.00000000000E+00 -0.00000000000E+00 -0.18731400167E+03  0.18731400167E+03  0.00000000000E+00 0.  1.
        -24    2    1    2    0    0  0.31427505378E+02 -0.62718371017E+01 -0.13472428947E+03  0.15935465395E+03  0.78843183137E+02 0.  0.
         23    2    1    2    0    0  0.18114418688E+01  0.31855100033E+02  0.30901295805E+02  0.10304223590E+03  0.92977328292E+02 0.  0.
         13    1    3    3    0    0 -0.14212306783E+02 -0.29122498760E+02 -0.68186723047E+02  0.75495289906E+02  0.00000000000E+00 0. -1.
        -14    1    3    3    0    0  0.45639812160E+02  0.22850661658E+02 -0.66537566427E+02  0.83859364046E+02  0.00000000000E+00 0.  1.
        -13    1    4    4    0    0 -0.13419604647E+02 -0.19867402391E+02 -0.18212653514E+02  0.30108141999E+02  0.00000000000E+00 0. -1.
         13    1    4    4    0    0  0.15231046516E+02  0.51722502424E+02  0.49113949318E+02  0.72934093897E+02  0.00000000000E+00 0.  1.
         -1    1    1    2    0  502 -0.33238947246E+02 -0.25583262931E+02  0.10041688954E+03  0.10882500935E+03  0.00000000000E+00 0.  1.
<scales pt_clust_5="13000.00000" pt_clust_6="13000.00000" pt_clust_7="13000.00000" pt_clust_8="13000.00000" pt_clust_9="41.94438"></scales>
<clustering>
<clus scale="   41.944">  1  9  2 -1</clus>
<clus scale="   78.843">  5  6 -1 -1</clus>
<clus scale="   83.732">  2  5  1 -1</clus>
<clus scale="   92.977">  7  8 -1 -1</clus>
<clus scale="   41.944">  1  5  2 -1</clus>
</clustering>
</event>
<event>
 9    1  0.7719620E-005  0.1139896E+03  0.7546771E-02  0.1257138E+00
         -2   -1    0    0    0  501 -0.00000000000E+00  0.00000000000E+00  0.13506342797E+03  0.13506342797E+03  0.00000000000E+00 0.  1.
         21   -1    0    0  501  502  0.00000000000E+00 -0.00000000000E+00 -0.17747626730E+03  0.17747626730E+03  0.00000000000E+00 0. -1.
        -24    2    1    2    0    0 -0.19667878948E+02  0.47423497729E+02  0.69948931330E+02  0.13342194618E+03  0.10135457133E+03 0.  0.
         23    2    1    2    0    0  0.46279888907E+02 -0.39112732247E+02 -0.99370351625E+02  0.14835990674E+03  0.92003049980E+02 0.  0.
         11    1    3    3    0    0 -0.14536909374E+02 -0.30938413223E+02  0.13704772936E+02  0.36828357934E+02  0.00000000000E+00 0. -1.
        -12    1    3    3    0    0 -0.51309695737E+01  0.78361910952E+02  0.56244158394E+02  0.96593588246E+02  0.00000000000E+00 0.  1.
        -13    1    4    4    0    0  0.21204365062E+02 -0.45782649726E+02 -0.10945300600E+03  0.12052234912E+03  0.00000000000E+00 0. -1.
         13    1    4    4    0    0  0.25075523845E+02  0.66699174784E+01  0.10082654378E+02  0.27837557626E+02  0.00000000000E+00 0.  1.
         -1    1    1    2    0  502 -0.26612009959E+02 -0.83107654815E+01 -0.12991419038E+02  0.30757842342E+02  0.00000000000E+00 0.  1.
<scales pt_clust_5="13000.00000" pt_clust_6="13000.00000" pt_clust_7="13000.00000" pt_clust_8="13000.00000" pt_clust_9="27.87952"></scales>
<clustering>
<clus scale="   27.880">  2  9  1 -1</clus>
<clus scale="   92.003">  7  8 -1 -1</clus>
<clus scale="  101.355">  5  6 -1 -1</clus>
<clus scale="  105.761">  2  7  1 -1</clus>
<clus scale="   27.880">  2  5  1 -1</clus>
</clustering>
</event>
<event>
 9    1  0.7719620E-005  0.1388907E+03  0.7546771E-02  0.1217119E+00
         21   -1    0    0  501  502  0.00000000000E+00  0.00000000000E+00  0.81728996719E+02  0.81728996719E+02  0.00000000000E+00 0. -1.
          1   -1    0    0  502    0 -0.00000000000E+00 -0.00000000000E+00 -0.42541040123E+03  0.42541040123E+03  0.00000000000E+00 0. -1.
         23    2    1    2    0    0  0.80035952485E+02 -0.10765090693E+03 -0.19657206108E+03  0.25500581615E+03  0.91612879104E+02 0.  0.
        -24    2    1    2    0    0  0.13847852998E+01  0.79793370793E+02 -0.56523743761E+02  0.12718907521E+03  0.81321753489E+02 0.  0.
         11    1    4    4    0    0  0.62826850244E+00  0.96587614746E+02 -0.43548987872E+02  0.10595318017E+03  0.00000000000E+00 0. -1.
        -12    1    4    4    0    0  0.75651679738E+00 -0.16794243953E+02 -0.12974755889E+02  0.21235895036E+02  0.00000000000E+00 0.  1.
        -13    1    3    3    0    0  0.78041804109E+02 -0.51251926403E+02 -0.70871055846E+02  0.11721770218E+03  0.00000000000E+00 0.  1.
         13    1    3    3    0    0  0.19941483763E+01 -0.56398980528E+02 -0.12570100524E+03  0.13778811396E+03  0.00000000000E+00 0. -1.
          2    1    1    2  501    0 -0.81420737785E+02  0.27857536138E+02 -0.90585599672E+02  0.12494450660E+03  0.00000000000E+00 0. -1.
<scales pt_clust_5="13000.00000" pt_clust_6="13000.00000" pt_clust_7="13000.00000" pt_clust_8="13000.00000" pt_clust_9="86.05455"></scales>
<clustering>
<clus scale="   81.322">  5  6 -1 -1</clus>
<clus scale="   86.055">  1  9  2 -1</clus>
<clus scale="   91.613">  7  8 -1 -1</clus>
<clus scale="  132.329">  1  5  2 -1</clus>
<clus scale="   86.055">  1  5  2 -1</clus>
</clustering>
</event>
<event>
 9    1  0.7719620E-005  0.1034477E+03  0.7546771E-02  0.1277791E+00
          1   -1    0    0  502    0 -0.00000000000E+00  0.00000000000E+00  0.19438554837E+03  0.19438554837E+03  0.00000000000E+00 0. -1.
         21   -1    0    0  501  502  0.00000000000E+00 -0.00000000000E+00 -0.15156501005E+03  0.15156501005E+03  0.00000000000E+00 0. -1.
         23    2    1    2    0    0 -0.78894282885E+01  0.49200091215E+02  0.14672030815E+03  0.18006123160E+03  0.91718625407E+02 0.  0.
        -24    2    1    2    0    0 -0.11818797635E+02 -0.40913960870E+02 -0.43759679121E+02  0.10206218029E+03  0.81781067230E+02 0.  0.
         11    1    4    4    0    0 -0.32017246328E+02 -0.22406297322E+02  0.11200913230E+02  0.40652265365E+02  0.00000000000E+00 0. -1.
        -12    1    4    4    0    0  0.20198448693E+02 -0.18507663548E+02 -0.54960592351E+02  0.61409914925E+02  0.00000000000E+00 0.  1.
        -11    1    3    3    0    0 -0.36438651898E+02 -0.79376347864E+01  0.33816898938E+02  0.50342467678E+02  0.00000000000E+00 0.  1.
         11    1    3    3    0    0  0.28549223609E+02  0.57137726001E+02  0.11290340921E+03  0.12971876392E+03  0.00000000000E+00 0. -1.
          2    1    1    2  501    0  0.19708225924E+02 -0.82861303445E+01 -0.60140090706E+02  0.63827146539E+02  0.00000000000E+00 0. -1.
<scales pt_clust_5="13000.00000" pt_clust_6="13000.00000" pt_clust_7="13000.00000" pt_clust_8="13000.00000" pt_clust_9="21.37929"></scales>
<clustering>
<clus scale="   21.379">  2  9  1 -1</clus>
<clus scale="   81.781">  5  6 -1 -1</clus>
<clus scale="   91.719">  7  8 -1 -1</clus>
<clus scale="   94.748">  2  5  1 -1</clus>
<clus scale="   21.379">  2  5  1 -1</clus>
</clustering>
</event>
<event>
 9    1  0.7719620E-005  0.1270043E+03  0.7546771E-02  0.1233788E+00
         21   -1    0    0  501  502  0.00000000000E+00  0.00000000000E+00  0.30105599073E+03  0.30105599073E+03  0.00000000000E+00 0. -1.
         -4   -1    0    0    0  501 -0.00000000000E+00 -0.00000000000E+00 -0.19713297838E+03  0.19713297838E+03  0.00000000000E+00 0.  1.
         23    2    1    2    0    0 -0.81618087641E+02 -0.33156904494E+02 -0.12788081022E+03  0.18008119615E+03  0.91185761152E+02 0.  0.
        -24    2    1    2    0    0  0.10737174207E+03 -0.30012530124E+02  0.19666747186E+03  0.24137322188E+03  0.84578335266E+02 0.  0.
         11    1    4    4    0    0  0.51641972194E+02 -0.17490156877E+02  0.16963132374E+03  0.17817851967E+03  0.00000000000E+00 0. -1.
        -12    1    4    4    0    0  0.55729769879E+02 -0.12522373246E+02  0.27036148118E+02  0.63194702211E+02  0.00000000000E+00 0.  1.
        -11    1    3    3    0    0 -0.28187535167E+02 -0.54386874140E+02 -0.97255257620E+02  0.11493935076E+03  0.00000000000E+00 0.  1.
         11    1    3    3    0    0 -0.53430552474E+02  0.21229969646E+02 -0.30625552605E+02  0.65141845393E+02  0.00000000000E+00 0. -1.
         -3    1    1    2    0  502 -0.25753654432E+02  0.63169434618E+02  0.35136350720E+02  0.76734551074E+02  0.00000000000E+00 0.  1.
<scales pt_clust_5="13000.00000" pt_clust_6="13000.00000" pt_clust_7="13000.00000" pt_clust_8="13000.00000" pt_clust_9="68.21751"></scales>
<clustering>
<clus scale="   68.218">  1  9  2 -1</clus>
<clus scale="   84.578">  5  6 -1 -1</clus>
<clus scale="   91.186">  7  8 -1 -1</clus>
<clus scale="  122.347">  1  5  2 -1</clus>
<clus scale="   68.218">  1  5  2 -1</clus>
</clustering>
</event>
<event>
 9    1  0.7719620E-005  0.1091242E+03  0.7546771E-02  0.1277790E+00
         21   -1    0    0  501  502  0.00000000000E+00  0.00000000000E+00  0.77884679013E+02  0.77884679013E+02  0.00000000000E+00 0. -1.
          1   -1    0    0  502    0 -0.00000000000E+00 -0.00000000000E+00 -0.26174745672E+03  0.26174745672E+03  0.00000000000E+00 0. -1.
         23    2    1    2    0    0 -0.63998967837E+02  0.58125622557E+01 -0.15655240362E+03  0.19139834255E+03  0.89414857198E+02 0.  0.
        -24    2    1    2    0    0  0.57785447643E+02  0.20111589973E+02  0.29921690953E+02  0.85097600942E+02  0.51016272757E+02 0.  0.
         13    1    4    4    0    0  0.42072933842E+02  0.30442088567E+02  0.38284171639E+02  0.64517674450E+02  0.00000000000E+00 0. -1.
        -14    1    4    4    0    0  0.15712513801E+02 -0.10330498594E+02 -0.83624806862E+01  0.20579926491E+02  0.00000000000E+00 0.  1.
        -13    1    3    3    0    0 -0.35783120799E+02 -0.15144488652E+02 -0.15087172238E+03  0.15579494178E+03  0.00000000000E+00 0.  1.
         13    1    3    3    0    0 -0.28215847037E+02  0.20957050907E+02 -0.56806812352E+01  0.35603400765E+02  0.00000000000E+00 0. -1.
          2    1    1    2  501    0  0.62135201934E+01 -0.25924152228E+02 -0.57232065047E+02  0.63136192248E+02  0.00000000000E+00 0. -1.
<scales pt_clust_5="13000.00000" pt_clust_6="13000.00000" pt_clust_7="13000.00000" pt_clust_8="13000.00000" pt_clust_9="26.65840"></scales>
<clustering>
<clus scale="   26.658">  1  9  2 -1</clus>
<clus scale="   51.016">  5  6 -1 -1</clus>
<clus scale="   80.720">  1  5  2 -1</clus>
<clus scale="   89.415">  7  8 -1 -1</clus>
<clus scale="   26.658">  1  5  2 -1</clus>
</clustering>
</event>
<event>
 9    1  0.7719620E-005  0.9978565E+02  0.7546771E-02  0.1283574E+00
          1   -1    0    0  502    0 -0.00000000000E+00  0.00000000000E+00  0.41940409459E+03  0.41940409459E+03  0.00000000000E+00 0. -1.
         21   -1    0    0  501  502  0.00000000000E+00 -0.00000000000E+00 -0.47225285985E+02  0.47225285985E+02  0.00000000000E+00 0. -1.
        -24    2    1    2    0    0 -0.44781291662E+02 -0.48434881180E+02  0.26493665607E+03  0.28484649727E+03  0.81208333802E+02 0.  0.
         23    2    1    2    0    0 -0.36016179404E+00  0.20119076437E+02  0.86871040691E+02  0.12473450194E+03  0.87219328768E+02 0.  0.
         13    1    3    3    0    0  0.10432788788E+02 -0.29805913926E+02  0.32893731394E+02  0.45598609100E+02  0.00000000000E+00 0. -1.
        -14    1    3    3    0    0 -0.55214080449E+02 -0.18628967254E+02  0.23204292468E+03  0.23924788817E+03  0.00000000000E+00 0.  1.
        -13    1    4    4    0    0  0.41199211749E+02  0.21831714073E+02  0.35309935121E+02  0.58487522656E+02  0.00000000000E+00 0.  1.
         13    1    4    4    0    0 -0.41559373543E+02 -0.17126376362E+01  0.51561105570E+02  0.66246979286E+02  0.00000000000E+00 0. -1.
          2    1    1    2  501    0  0.45141453456E+02  0.28315804743E+02  0.20371111840E+02  0.57048381361E+02  0.00000000000E+00 0. -1.
<scales pt_clust_5="13000.00000" pt_clust_6="13000.00000" pt_clust_7="13000.00000" pt_clust_8="13000.00000" pt_clust_9="53.28729"></scales>
<clustering>
<clus scale="   53.287">  2  9  1 -1</clus>
<clus scale="   81.208">  5  6 -1 -1</clus>
<clus scale="   87.219">  7  8 -1 -1</clus>
<clus scale="   94.577">  1  5  2 -1</clus>
<clus scale="   53.287">  2  5  1 -1</clus>
</clustering>
</event>
<event>
 9    1  0.7719620E-005  0.2298253E+03  0.7546771E-02  0.1127550E+00
         21   -1    0    0  501  502  0.00000000000E+00  0.00000000000E+00  0.14659046601E+03  0.14659046601E+03  0.00000000000E+00 0.  1.
         -2   -1    0    0    0  501 -0.00000000000E+00 -0.00000000000E+00 -0.12001779742E+04  0.12001779742E+04  0.00000000000E+00 0.  1.
        -24    2    1    2    0    0  0.20836947177E+03 -0.76038718944E+02 -0.92812385568E+03  0.95755124746E+03  0.79314415416E+02 0.  0.
         23    2    1    2    0    0 -0.18158819749E+03  0.24466390594E+02 -0.20569457429E+03  0.29015184817E+03  0.91131549788E+02 0.  0.
         11    1    3    3    0    0  0.34610822945E+02 -0.48513536352E+02 -0.22682236802E+03  0.23452048718E+03  0.00000000000E+00 0. -1.
        -12    1    3    3    0    0  0.17375864883E+03 -0.27525182593E+02 -0.70130148766E+03  0.72303076028E+03  0.00000000000E+00 0.  1.
        -11    1    4    4    0    0 -0.39953603737E+02  0.13686797904E+02 -0.11275309099E+03  0.12040298342E+03  0.00000000000E+00 0.  1.
         11    1    4    4    0    0 -0.14163459376E+03  0.10779592690E+02 -0.92941483309E+02  0.16974886476E+03  0.00000000000E+00 0. -1.
         -1    1    1    2    0  502 -0.26781274279E+02  0.51572328350E+02  0.80230921736E+02  0.99065344627E+02  0.00000000000E+00 0.  1.
<scales pt_clust_5="13000.00000" pt_clust_6="13000.00000" pt_clust_7="13000.00000" pt_clust_8="13000.00000" pt_clust_9="58.11146"></scales>
<clustering>
<clus scale="   58.111">  1  9  2 -1</clus>
<clus scale="   79.314">  5  6 -1 -1</clus>
<clus scale="   91.132">  7  8 -1 -1</clus>
<clus scale="  225.401">  2  5  1 -1</clus>
<clus scale="   58.111">  1  5  2 -1</clus>
</clustering>
</event>
<event>
 9    1  0.7719620E-005  0.1015213E+03  0.7546771E-02  0.1283864E+00
         21   -1    0    0  501  502  0.00000000000E+00  0.00000000000E+00  0.25585235468E+03  0.25585235468E+03  0.00000000000E+00 0.  1.
         -4   -1    0    0    0  501 -0.00000000000E+00 -0.00000000000E+00 -0.11981450705E+03  0.11981450705E+03  0.00000000000E+00 0.  1.
         23    2    1    2    0    0 -0.60376747825E+01  0.45801330725E+02 -0.71056182648E+02  0.12598247815E+03  0.93211524476E+02 0.  0.
        -24    2    1    2    0    0 -0.15902645729E+02 -0.21607730095E+02  0.72128165092E+02  0.11082296798E+03  0.79746284501E+02 0.  0.
         11    1    4    4    0    0 -0.24824381760E+02 -0.47478511606E+02  0.32498218512E+02  0.62662534265E+02  0.00000000000E+00 0. -1.
        -12    1    4    4    0    0  0.89217360309E+01  0.25870781512E+02  0.39629946580E+02  0.48160433717E+02  0.00000000000E+00 0.  1.
        -11    1    3    3    0    0 -0.40557186561E+02  0.42540380889E+02 -0.69849726258E+02  0.91288299613E+02  0.00000000000E+00 0.  1.
         11    1    3    3    0    0  0.34519511779E+02  0.32609498368E+01 -0.12064563897E+01  0.34694178536E+02  0.00000000000E+00 0. -1.
         -3    1    1    2    0  502  0.21940320512E+02 -0.24193600631E+02  0.13496586519E+03  0.13886141560E+03  0.00000000000E+00 0.  1.
<scales pt_clust_5="13000.00000" pt_clust_6="13000.00000" pt_clust_7="13000.00000" pt_clust_8="13000.00000" pt_clust_9="32.66050"></scales>
<clustering>
<clus scale="   32.660">  1  9  2 -1</clus>
<clus scale="   79.746">  5  6 -1 -1</clus>
<clus scale="   89.318">  1  5  2 -1</clus>
<clus scale="   93.212">  7  8 -1 -1</clus>
<clus scale="   32.660">  1  5  2 -1</clus>
</clustering>
</event>
<event>
 9    1  0.7719620E-005  0.1013765E+03  0.7546771E-02  0.1285247E+00
         21   -1    0    0  501  502  0.00000000000E+00  0.00000000000E+00  0.44725055398E+03  0.44725055398E+03  0.00000000000E+00 0. -1.
          1   -1    0    0  502    0 -0.00000000000E+00 -0.00000000000E+00 -0.56477800005E+02  0.56477800005E+02  0.00000000000E+00 0. -1.
         23    2    1    2    0    0 -0.72905718554E+01  0.35693110582E+02  0.12977040655E+02  0.10318915684E+03  0.95668426994E+02 0.  0.
        -24    2    1    2    0    0  0.33028194644E+02 -0.14438026692E+02  0.18685428362E+03  0.20670206605E+03  0.80696360168E+02 0.  0.
         13    1    4    4    0    0  0.27204870612E+02 -0.41337741867E+02  0.64534733158E+02  0.81324323984E+02  0.00000000000E+00 0. -1.
        -14    1    4    4    0    0  0.58233240323E+01  0.26899715175E+02  0.12231955047E+03  0.12537774206E+03  0.00000000000E+00 0.  1.
        -11    1    3    3    0    0 -0.25454304708E+02  0.63125319297E+02  0.68571463331E+00  0.68067597056E+02  0.00000000000E+00 0. -1.
         11    1    3    3    0    0  0.18163732852E+02 -0.27432208714E+02  0.12291326021E+02  0.35121559781E+02  0.00000000000E+00 0.  1.
          2    1    1    2  501    0 -0.25737622789E+02 -0.21255083890E+02  0.19094142970E+03  0.19383713110E+03  0.00000000000E+00 0. -1.
<scales pt_clust_5="13000.00000" pt_clust_6="13000.00000" pt_clust_7="13000.00000" pt_clust_8="13000.00000" pt_clust_9="33.37969"></scales>
<clustering>
<clus scale="   33.380">  1  9  2 -1</clus>
<clus scale="   80.696">  5  6 -1 -1</clus>
<clus scale="   87.388">  1  5  2 -1</clus>
<clus scale="   95.668">  7  8 -1 -1</clus>
<clus scale="   33.380">  1  5  2 -1</clus>
</clustering>
</event>
<event>
 9    1  0.7719620E-005  0.9539358E+02  0.7546771E-02  0.1294728E+00
          1   -1    0    0  502    0 -0.00000000000E+00  0.00000000000E+00  0.51593072000E+03  0.51593072000E+03  0.00000000000E+00 0. -1.
         21   -1    0    0  501  502  0.00000000000E+00 -0.00000000000E+00 -0.30516202654E+02  0.30516202654E+02  0.00000000000E+00 0. -1.
         23    2    1    2    0    0 -0.32224362668E+02 -0.32359253692E+01  0.35920615094E+03  0.37223392413E+03  0.92087755079E+02 0.  0.
        -24    2    1    2    0    0  0.99642319277E+01 -0.67595697813E+01  0.12306973687E+03  0.14961067467E+03  0.84215296350E+02 0.  0.
         13    1    4    4    0    0  0.10579692810E+02  0.34886550023E+02  0.28494727792E+02  0.46270409382E+02  0.00000000000E+00 0. -1.
        -14    1    4    4    0    0 -0.61546088202E+00 -0.41646119804E+02  0.94575009081E+02  0.10334026529E+03  0.00000000000E+00 0.  1.
        -11    1    3    3    0    0 -0.61317614264E+02 -0.12062073483E+02  0.18178542344E+03  0.19222716669E+03  0.00000000000E+00 0. -1.
         11    1    3    3    0    0  0.29093251596E+02  0.88261481134E+01  0.17742072749E+03  0.18000675744E+03  0.00000000000E+00 0.  1.
          2    1    1    2  501    0  0.22260130740E+02  0.99954951505E+01  0.31386295330E+01  0.24602323858E+02  0.00000000000E+00 0. -1.
<scales pt_clust_5="13000.00000" pt_clust_6="13000.00000" pt_clust_7="13000.00000" pt_clust_8="13000.00000" pt_clust_9="24.40130"></scales>
<clustering>
<clus scale="   24.401">  2  9  1 -1</clus>
<clus scale="   84.215">  5  6 -1 -1</clus>
<clus scale="   87.818">  2  5  1 -1</clus>
<clus scale="   92.088">  7  8 -1 -1</clus>
<clus scale="   24.401">  2  5  1 -1</clus>
</clustering>
</event>
<event>
 9    1  0.7719620E-005  0.9550155E+02  0.7546771E-02  0.1296016E+00
         -2   -1    0    0    0  501 -0.00000000000E+00  0.00000000000E+00  0.23795358358E+03  0.23795358358E+03  0.00000000000E+00 0.  1.
         21   -1    0    0  501  502  0.00000000000E+00 -0.00000000000E+00 -0.19728822344E+03  0.19728822344E+03  0.00000000000E+00 0. -1.
         23    2    1    2    0    0  0.10075780963E+01  0.26684833675E+02  0.20827017352E+03  0.22914660427E+03  0.91752959125E+02 0.  0.
        -24    2    1    2    0    0 -0.24562893685E+02 -0.21579450400E+02 -0.15698179227E+03  0.17975575688E+03  0.81239402998E+02 0.  0.
         13    1    4    4    0    0 -0.30274062087E+02 -0.18012682088E+02 -0.16532379232E+03  0.16903529767E+03  0.00000000000E+00 0. -1.
        -14    1    4    4    0    0  0.57111684017E+01 -0.35667683122E+01  0.83420000504E+01  0.10720459204E+02  0.00000000000E+00 0.  1.
        -11    1    3    3    0    0 -0.38262269351E+02 -0.11978042810E+02  0.78046341829E+02  0.87742271673E+02  0.00000000000E+00 0. -1.
         11    1    3    3    0    0  0.39269847447E+02  0.38662876485E+02  0.13022383169E+03  0.14140433260E+03  0.00000000000E+00 0.  1.
         -1    1    1    2    0  502  0.23555315589E+02 -0.51053832746E+01 -0.10623021107E+02  0.26339445862E+02  0.00000000000E+00 0.  1.
<scales pt_clust_5="13000.00000" pt_clust_6="13000.00000" pt_clust_7="13000.00000" pt_clust_8="13000.00000" pt_clust_9="24.10224"></scales>
<clustering>
<clus scale="   24.102">  2  9  1 -1</clus>
<clus scale="   81.239">  5  6 -1 -1</clus>
<clus scale="   85.450">  2  5  1 -1</clus>
<clus scale="   91.753">  7  8 -1 -1</clus>
<clus scale="   24.102">  2  5  1 -1</clus>
</clustering>
</event>
<event>
 9    1  0.7719620E-005  0.1030601E+03  0.7546771E-02  0.1276833E+00
         21   -1    0    0  501  502  0.00000000000E+00  0.00000000000E+00  0.39389328374E+02  0.39389328374E+02  0.00000000000E+00 0. -1.
         -2   -1    0    0    0  501 -0.00000000000E+00 -0.00000000000E+00 -0.77572619724E+03  0.77572619724E+03  0.00000000000E+00 0.  1.
         23    2    1    2    0    0 -0.13860547164E+02 -0.27979973023E+02 -0.21841886634E+03  0.23719020788E+03  0.87048261805E+02 0.  0.
        -24    2    1    2    0    0  0.52759725206E+02  0.10522798206E+03 -0.18290952941E+03  0.23193243051E+03  0.80499935146E+02 0.  0.
         11    1    4    4    0    0  0.44351191046E+02  0.10944763681E+03 -0.12014064267E+03  0.16846242124E+03  0.00000000000E+00 0. -1.
        -12    1    4    4    0    0  0.84085341596E+01 -0.42196547467E+01 -0.62768886745E+02  0.63470009265E+02  0.00000000000E+00 0.  1.
        -11    1    3    3    0    0 -0.38110213142E+02 -0.44377194143E+02 -0.10650783084E+03  0.12151395696E+03  0.00000000000E+00 0.  1.
         11    1    3    3    0    0  0.24249665978E+02  0.16397221120E+02 -0.11191103550E+03  0.11567625092E+03  0.00000000000E+00 0. -1.
         -1    1    1    2    0  502 -0.38899178042E+02 -0.77248009041E+02 -0.33500847311E+03  0.34599288722E+03  0.00000000000E+00 0.  1.
<scales pt_clust_5="13000.00000" pt_clust_6="13000.00000" pt_clust_7="13000.00000" pt_clust_8="13000.00000" pt_clust_9="86.48935"></scales>
<clustering>
<clus scale="   80.500">  5  6 -1 -1</clus>
<clus scale="   86.489">  1  9  2 -1</clus>
<clus scale="   87.048">  7  8 -1 -1</clus>
<clus scale="   97.592">  1  5  2 -1</clus>
<clus scale="   86.489">  1  5  2 -1</clus>
</clustering>
</event>
<event>
 9    1  0.7719620E-005  0.9272118E+02  0.7546771E-02  0.1299776E+00
         21   -1    0    0  501  502  0.00000000000E+00  0.00000000000E+00  0.31120179812E+03  0.31120179812E+03  0.00000000000E+00 0.  1.
          1   -1    0    0  502    0 -0.00000000000E+00 -0.00000000000E+00 -0.37670685638E+02  0.37670685638E+02  0.00000000000E+00 0. -1.
         23    2    1    2    0    0 -0.15390000272E+01  0.19204369047E+02  0.87769313695E+02  0.12631376854E+03  0.88772402158E+02 0.  0.
        -24    2    1    2    0    0  0.36554647534E+01 -0.39868840184E+02  0.17798697271E+03  0.20037882092E+03  0.82881979837E+02 0.  0.
         13    1    4    4    0    0 -0.20070126364E+02 -0.18568123048E+02  0.95672252163E+01  0.28967515670E+02  0.00000000000E+00 0. -1.
        -14    1    4    4    0    0  0.23725591117E+02 -0.21300717137E+02  0.16841974749E+03  0.17141130525E+03  0.00000000000E+00 0.  1.
        -11    1    3    3    0    0 -0.34306524642E+02  0.26805301408E+02  0.14832795720E+02  0.45994278400E+02  0.00000000000E+00 0. -1.
         11    1    3    3    0    0  0.32767524615E+02 -0.76009323617E+01  0.72936517975E+02  0.80319490141E+02  0.00000000000E+00 0.  1.
          2    1    1    2  501    0 -0.21164647262E+01  0.20664471137E+02  0.77748260817E+01  0.22179894295E+02  0.00000000000E+00 0. -1.
<scales pt_clust_5="13000.00000" pt_clust_6="13000.00000" pt_clust_7="13000.00000" pt_clust_8="13000.00000" pt_clust_9="20.77258"></scales>
<clustering>
<clus scale="   20.773">  1  9  2 -1</clus>
<clus scale="   82.882">  5  6 -1 -1</clus>
<clus scale="   87.098">  1  5  2 -1</clus>
<clus scale="   88.772">  7  8 -1 -1</clus>
<clus scale="   20.773">  1  5  2 -1</clus>
</clustering>
</event>
<event>
 9    1  0.7719620E-005  0.9151754E+02  0.7546771E-02  0.1304649E+00
         21   -1    0    0  501  502  0.00000000000E+00  0.00000000000E+00  0.17401625168E+03  0.17401625168E+03  0.00000000000E+00 0.  1.
         -2   -1    0    0    0  501 -0.00000000000E+00 -0.00000000000E+00 -0.10972580895E+03  0.10972580895E+03  0.00000000000E+00 0.  1.
         23    2    1    2    0    0 -0.40286116028E+02 -0.68518513085E+01 -0.82208571757E+01  0.98876161054E+02  0.89660435650E+02 0.  0.
        -24    2    1    2    0    0 -0.31149514475E+02  0.76749073846E+01  0.72887938032E+02  0.11342453492E+03  0.80766807270E+02 0.  0.
         11    1    4    4    0    0  0.24734673469E+02  0.15115219167E+02  0.15073480494E+02  0.32672369615E+02  0.00000000000E+00 0. -1.
        -12    1    4    4    0    0 -0.55884187944E+02 -0.74403117825E+01  0.57814457538E+02  0.80752165308E+02  0.00000000000E+00 0.  1.
        -13    1    3    3    0    0 -0.21055208172E+02 -0.17135941435E+02  0.38620467811E+02  0.47207020812E+02  0.00000000000E+00 0. -1.
         13    1    3    3    0    0 -0.19230907857E+02  0.10284090127E+02 -0.46841324987E+02  0.51669140241E+02  0.00000000000E+00 0.  1.
         -1    1    1    2    0  502  0.71435630504E+02 -0.82305607617E+00 -0.37663813270E+00  0.71441364650E+02  0.00000000000E+00 0.  1.
<scales pt_clust_5="13000.00000" pt_clust_6="13000.00000" pt_clust_7="13000.00000" pt_clust_8="13000.00000" pt_clust_9="71.44041"></scales>
<clustering>
<clus scale="   71.440">  1  9  2 -1</clus>
<clus scale="   80.767">  5  6 -1 -1</clus>
<clus scale="   82.824">  1  5  2 -1</clus>
<clus scale="   89.660">  7  8 -1 -1</clus>
<clus scale="   71.440">  1  5  2 -1</clus>
</clustering>
</event>
<event>
 9    1  0.7719620E-005  0.1147612E+03  0.7546771E-02  0.1253403E+00
         21   -1    0    0  501  502  0.00000000000E+00  0.00000000000E+00  0.29035987931E+02  0.29035987931E+02  0.00000000000E+00 0.  1.
          1   -1    0    0  502    0 -0.00000000000E+00 -0.00000000000E+00 -0.67459986999E+03  0.67459986999E+03  0.00000000000E+00 0. -1.
         23    2    1    2    0    0  0.87680880632E+02 -0.11893248399E+02 -0.36746866825E+03  0.38746492322E+03  0.85243524055E+02 0.  0.
        -24    2    1    2    0    0 -0.65968816423E+02 -0.46735707214E+01 -0.26693408956E+03  0.28666764807E+03  0.80937045116E+02 0.  0.
         13    1    4    4    0    0 -0.35674374926E+02  0.31497784635E+02 -0.19438571949E+03  0.20012640856E+03  0.00000000000E+00 0. -1.
        -14    1    4    4    0    0 -0.30294441498E+02 -0.36171355356E+02 -0.72548370077E+02  0.86541239503E+02  0.00000000000E+00 0.  1.
        -13    1    3    3    0    0  0.80667351137E+02  0.18587123900E+02 -0.32062682947E+03  0.33114085597E+03  0.00000000000E+00 0. -1.
         13    1    3    3    0    0  0.70135294947E+01 -0.30480372299E+02 -0.46841838778E+02  0.56324067249E+02  0.00000000000E+00 0.  1.
          2    1    1    2  501    0 -0.21712064208E+02  0.16566819120E+02 -0.11161124243E+02  0.29503286636E+02  0.00000000000E+00 0. -1.
<scales pt_clust_5="13000.00000" pt_clust_6="13000.00000" pt_clust_7="13000.00000" pt_clust_8="13000.00000" pt_clust_9="27.31068"></scales>
<clustering>
<clus scale="   27.311">  1  9  2 -1</clus>
<clus scale="   80.937">  5  6 -1 -1</clus>
<clus scale="   85.244">  7  8 -1 -1</clus>
<clus scale="  111.600">  1  5  2 -1</clus>
<clus scale="   27.311">  1  5  2 -1</clus>
</clustering>
</event>
<event>
 9    1  0.7719620E-005  0.9120237E+02  0.7546771E-02  0.1301299E+00
         21   -1    0    0  501  502  0.00000000000E+00  0.00000000000E+00  0.97645498323E+02  0.97645498323E+02  0.00000000000E+00 0.  1.
          1   -1    0    0  502    0 -0.00000000000E+00 -0.00000000000E+00 -0.27016248212E+03  0.27016248212E+03  0.00000000000E+00 0. -1.
         23    2    1    2    0    0 -0.81335006144E+01  0.27999523723E+02 -0.17858160506E+03  0.20081786421E+03  0.87099355683E+02 0.  0.
        -24    2    1    2    0    0 -0.44332999482E+02 -0.22559035796E+02 -0.30371477422E+02  0.10288144421E+03  0.84781129875E+02 0.  0.
         11    1    4    4    0    0  0.24555168414E+02 -0.12768728470E+02 -0.15529153423E+02  0.31735647600E+02  0.00000000000E+00 0. -1.
        -12    1    4    4    0    0 -0.68888167896E+02 -0.97903073255E+01 -0.14842324000E+02  0.71145796610E+02  0.00000000000E+00 0.  1.
        -11    1    3    3    0    0  0.14868064711E+02 -0.23216849650E+02 -0.24707066853E+02  0.37020543059E+02  0.00000000000E+00 0. -1.
         11    1    3    3    0    0 -0.23001565325E+02  0.51216373373E+02 -0.15387453821E+03  0.16379732116E+03  0.00000000000E+00 0.  1.
          2    1    1    2  501    0  0.52466500096E+02 -0.54404879269E+01  0.36436098684E+02  0.64108672023E+02  0.00000000000E+00 0. -1.
<scales pt_clust_5="13000.00000" pt_clust_6="13000.00000" pt_clust_7="13000.00000" pt_clust_8="13000.00000" pt_clust_9="52.74782"></scales>
<clustering>
<clus scale="   52.748">  1  9  2 -1</clus>
<clus scale="   84.781">  5  6 -1 -1</clus>
<clus scale="   87.099">  7  8 -1 -1</clus>
<clus scale="   88.991">  1  5  2 -1</clus>
<clus scale="   52.748">  1  5  2 -1</clus>
</clustering>
</event>
<event>
 9    1  0.7719620E-005  0.2272412E+03  0.7546771E-02  0.1161912E+00
         21   -1    0    0  501  502  0.00000000000E+00  0.00000000000E+00  0.21476448702E+03  0.21476448702E+03  0.00000000000E+00 0.  1.
          1   -1    0    0  502    0 -0.00000000000E+00 -0.00000000000E+00 -0.37144352340E+03  0.37144352340E+03  0.00000000000E+00 0. -1.
         23    2    1    2    0    0 -0.29855096345E+02 -0.43473372811E+02 -0.41374927406E+02  0.11052618603E+03  0.87879987823E+02 0.  0.
        -24    2    1    2    0    0  0.12934706805E+03 -0.16007466297E+03  0.54373595669E+00  0.22121929576E+03  0.81136424805E+02 0.  0.
         13    1    4    4    0    0  0.35448016484E+01 -0.27974321812E+02  0.24345979618E+02  0.37253926278E+02  0.00000000000E+00 0. -1.
        -14    1    4    4    0    0  0.12580226640E+03 -0.13210034116E+03 -0.23802243661E+02  0.18396536948E+03  0.00000000000E+00 0.  1.
        -11    1    3    3    0    0 -0.51141823511E+02 -0.35001646383E+02 -0.55850327543E+02  0.83425778079E+02  0.00000000000E+00 0.  1.
         11    1    3    3    0    0  0.21286727166E+02 -0.84717264279E+01  0.14475400136E+02  0.27100407953E+02  0.00000000000E+00 0. -1.
          2    1    1    2  501    0 -0.99491971704E+02  0.20354803578E+03 -0.11584784493E+03  0.25446252863E+03  0.00000000000E+00 0. -1.
<scales pt_clust_5="13000.00000" pt_clust_6="13000.00000" pt_clust_7="13000.00000" pt_clust_8="13000.00000" pt_clust_9="212.26278"></scales>
<clustering>
<clus scale="   81.136">  5  6 -1 -1</clus>
<clus scale="   87.880">  7  8 -1 -1</clus>
<clus scale="  102.490">  2  7  1 -1</clus>
<clus scale="  212.263">  1  9  2 -1</clus>
<clus scale="  212.263">  1  5  2 -1</clus>
</clustering>
</event>
<event>
 9    1  0.7719620E-005  0.9699437E+02  0.7546771E-02  0.1293491E+00
         -2   -1    0    0    0  501 -0.00000000000E+00  0.00000000000E+00  0.10732089569E+03  0.10732089569E+03  0.00000000000E+00 0.  1.
         21   -1    0    0  501  502  0.00000000000E+00 -0.00000000000E+00 -0.12345435462E+03  0.12345435462E+03  0.00000000000E+00 0. -1.
        -24    2    1    2    0    0 -0.39572508972E+01 -0.31373808265E+02  0.36987028402E+02  0.92732929714E+02  0.78939092367E+02 0.  0.
         23    2    1    2    0    0  0.30131527597E+02  0.29341128243E+02 -0.36259261826E+02  0.10684095084E+03  0.91276743733E+02 0.  0.
         13    1    3    3    0    0  0.34044332173E+02 -0.23158454186E+02  0.34597222278E+02  0.53780092439E+02  0.00000000000E+00 0. -1.
        -14    1    3    3    0    0 -0.38001583070E+02 -0.82153540787E+01  0.23898061237E+01  0.38952837275E+02  0.00000000000E+00 0.  1.
        -11    1    4    4    0    0  0.15997657330E+02  0.57241760862E+02 -0.63951360199E+00  0.59438650761E+02  0.00000000000E+00 0.  1.
         11    1    4    4    0    0  0.14133870266E+02 -0.27900632620E+02 -0.35619748224E+02  0.47402300080E+02  0.00000000000E+00 0. -1.
         -1    1    1    2    0  502 -0.26174276700E+02  0.20326800219E+01 -0.16861225505E+02  0.31201369751E+02  0.00000000000E+00 0.  1.
<scales pt_clust_5="13000.00000" pt_clust_6="13000.00000" pt_clust_7="13000.00000" pt_clust_8="13000.00000" pt_clust_9="26.25309"></scales>
<clustering>
<clus scale="   26.253">  2  9  1 -1</clus>
<clus scale="   78.939">  5  6 -1 -1</clus>
<clus scale="   85.486">  1  5  2 -1</clus>
<clus scale="   91.277">  7  8 -1 -1</clus>
<clus scale="   26.253">  2  5  1 -1</clus>
</clustering>
</event>
<event>
 9    1  0.7719620E-005  0.2043916E+03  0.7546771E-02  0.1150528E+00
          1   -1    0    0  502    0 -0.00000000000E+00  0.00000000000E+00  0.13434824939E+04  0.13434824939E+04  0.00000000000E+00 0. -1.
         21   -1    0    0  501  502  0.00000000000E+00 -0.00000000000E+00 -0.10882712493E+03  0.10882712493E+03  0.00000000000E+00 0. -1.
        -24    2    1    2    0    0  0.32230379872E+02 -0.16380704593E+03  0.50349631748E+02  0.19068291056E+03  0.77157898360E+02 0.  0.
         23    2    1    2    0    0 -0.19246419656E+03  0.26544635488E+02  0.46172111262E+03  0.50886885541E+03  0.89521179267E+02 0.  0.
         11    1    3    3    0    0  0.75651479689E+01 -0.91874757187E+02  0.65575766741E+02  0.11312994146E+03  0.00000000000E+00 0. -1.
        -12    1    3    3    0    0  0.24665231903E+02 -0.71932288745E+02 -0.15226134994E+02  0.77552969097E+02  0.00000000000E+00 0.  1.
        -13    1    4    4    0    0 -0.52353275562E+01 -0.19946780916E+02  0.36253321207E+02  0.41708344753E+02  0.00000000000E+00 0. -1.
         13    1    4    4    0    0 -0.18722886900E+03  0.46491416404E+02  0.42546779142E+03  0.46716051066E+03  0.00000000000E+00 0.  1.
          2    1    1    2  501    0  0.16023381669E+03  0.13726241044E+03  0.72258462462E+03  0.75275785288E+03  0.00000000000E+00 0. -1.
<scales pt_clust_5="13000.00000" pt_clust_6="13000.00000" pt_clust_7="13000.00000" pt_clust_8="13000.00000" pt_clust_9="183.74421"></scales>
<clustering>
<clus scale="   77.158">  5  6 -1 -1</clus>
<clus scale="   89.521">  7  8 -1 -1</clus>
<clus scale="  183.916">  1  5  2 -1</clus>
<clus scale="  183.744">  2  9  1 -1</clus>
<clus scale="  183.744">  2  5  1 -1</clus>
</clustering>
</event>
<event>
 9    1  0.7719620E-005  0.1223956E+03  0.7546771E-02  0.1243521E+00
         -4   -1    0    0    0  501 -0.00000000000E+00  0.00000000000E+00  0.21591125002E+03  0.21591125002E+03  0.00000000000E+00 0.  1.
         21   -1    0    0  501  502  0.00000000000E+00 -0.00000000000E+00 -0.88271028834E+02  0.88271028834E+02  0.00000000000E+00 0. -1.
         23    2    1    2    0    0  0.58873041812E+02 -0.45615487126E+02  0.94285398007E+02  0.15226345278E+03  0.93528685747E+02 0.  0.
        -24    2    1    2    0    0 -0.51995737151E+02  0.69961710605E+02  0.41814350913E+02  0.12524300319E+03  0.79618919071E+02 0.  0.
         13    1    4    4    0    0 -0.22317857068E+02  0.70981624980E+02  0.55639548405E+00  0.74409592156E+02  0.00000000000E+00 0. -1.
        -14    1    4    4    0    0 -0.29677880082E+02 -0.10199143748E+01  0.41257955429E+02  0.50833411037E+02  0.00000000000E+00 0.  1.
        -11    1    3    3    0    0  0.26178961363E+02 -0.33542507100E+02 -0.87966844818E+01  0.43449044390E+02  0.00000000000E+00 0. -1.
         11    1    3    3    0    0  0.32694080449E+02 -0.12072980027E+02  0.10308208249E+03  0.10881440839E+03  0.00000000000E+00 0.  1.
         -3    1    1    2    0  502 -0.68773046612E+01 -0.24346223479E+02 -0.84595277303E+01  0.26675822884E+02  0.00000000000E+00 0.  1.
<scales pt_clust_5="13000.00000" pt_clust_6="13000.00000" pt_clust_7="13000.00000" pt_clust_8="13000.00000" pt_clust_9="25.29893"></scales>
<clustering>
<clus scale="   25.299">  2  9  1 -1</clus>
<clus scale="   79.619">  5  6 -1 -1</clus>
<clus scale="   93.529">  7  8 -1 -1</clus>
<clus scale="  112.126">  2  5  1 -1</clus>
<clus scale="   25.299">  2  5  1 -1</clus>
</clustering>
</event>
<event>
 9    1  0.7719620E-005  0.9641027E+02  0.7546771E-02  0.1293798E+00
          1   -1    0    0  502    0 -0.00000000000E+00  0.00000000000E+00  0.25384353517E+03  0.25384353517E+03  0.00000000000E+00 0. -1.
         21   -1    0    0  501  502  0.00000000000E+00 -0.00000000000E+00 -0.85654850206E+02  0.85654850206E+02  0.00000000000E+00 0. -1.
        -24    2    1    2    0    0  0.45482858138E+01  0.87099820952E+01  0.14175741711E+02  0.83839577784E+02  0.82046160532E+02 0.  0.
         23    2    1    2    0    0 -0.13146892701E+02 -0.50451106905E+02  0.11256766615E+02  0.10667698484E+03  0.92385655407E+02 0.  0.
         11    1    3    3    0    0  0.38815930792E+02 -0.10242930367E+02 -0.46072777395E+01  0.40408181274E+02  0.00000000000E+00 0. -1.
        -12    1    3    3    0    0 -0.34267644978E+02  0.18952912462E+02  0.18783019450E+02  0.43431396510E+02  0.00000000000E+00 0.  1.
        -11    1    4    4    0    0  0.36338010086E+02 -0.33528605761E+02  0.20577970798E+02  0.53554376697E+02  0.00000000000E+00 0.  1.
         11    1    4    4    0    0 -0.49484902787E+02 -0.16922501144E+02 -0.93212041831E+01  0.53122608146E+02  0.00000000000E+00 0. -1.
          2    1    1    2  501    0  0.85986068872E+01  0.41741124810E+02  0.14275617664E+03  0.14898182275E+03  0.00000000000E+00 0. -1.
<scales pt_clust_5="13000.00000" pt_clust_6="13000.00000" pt_clust_7="13000.00000" pt_clust_8="13000.00000" pt_clust_9="42.61759"></scales>
<clustering>
<clus scale="   42.618">  2  9  1 -1</clus>
<clus scale="   82.046">  5  6 -1 -1</clus>
<clus scale="   86.553">  1  5  2 -1</clus>
<clus scale="   92.386">  7  8 -1 -1</clus>
<clus scale="   42.618">  2  5  1 -1</clus>
</clustering>
</event>
<event>
 9    1  0.7719620E-005  0.1031049E+03  0.7546771E-02  0.1278808E+00
          1   -1    0    0  502    0 -0.00000000000E+00  0.00000000000E+00  0.29826821134E+03  0.29826821134E+03  0.00000000000E+00 0. -1.
         21   -1    0    0  501  502  0.00000000000E+00 -0.00000000000E+00 -0.21193412239E+03  0.21193412239E+03  0.00000000000E+00 0. -1.
         23    2    1    2    0    0 -0.40970735630E+02  0.22153376245E+02  0.23813021910E+03  0.25898855010E+03  0.90552164976E+02 0.  0.
        -24    2    1    2    0    0  0.33259352664E+02 -0.78910116970E+02 -0.36798976808E+02  0.12274145852E+03  0.79864321475E+02 0.  0.
         11    1    4    4    0    0  0.56532634255E+02 -0.50542980741E+02 -0.40311847161E+02  0.85881177562E+02  0.00000000000E+00 0. -1.
        -12    1    4    4    0    0 -0.23273281591E+02 -0.28367136229E+02  0.35128703536E+01  0.36860280954E+02  0.00000000000E+00 0.  1.
        -11    1    3    3    0    0 -0.20785688408E+02  0.53474012092E+02  0.18778930980E+03  0.19635768303E+03  0.00000000000E+00 0.  1.
         11    1    3    3    0    0 -0.20185047222E+02 -0.31320635848E+02  0.50340909299E+02  0.62630867073E+02  0.00000000000E+00 0. -1.
          2    1    1    2  501    0  0.77113829660E+01  0.56756740725E+02 -0.11499715333E+03  0.12847232511E+03  0.00000000000E+00 0. -1.
<scales pt_clust_5="13000.00000" pt_clust_6="13000.00000" pt_clust_7="13000.00000" pt_clust_8="13000.00000" pt_clust_9="57.27821"></scales>
<clustering>
<clus scale="   57.278">  2  9  1 -1</clus>
<clus scale="   79.864">  5  6 -1 -1</clus>
<clus scale="   90.552">  7  8 -1 -1</clus>
<clus scale="   93.858">  2  5  1 -1</clus>
<clus scale="   57.278">  2  5  1 -1</clus>
</clustering>
</event>
<event>
 9    1  0.7719620E-005  0.1547101E+03  0.7546771E-02  0.1214055E+00
         -4   -1    0    0    0  501 -0.00000000000E+00  0.00000000000E+00  0.12427362556E+03  0.12427362556E+03  0.00000000000E+00 0.  1.
         21   -1    0    0  501  502  0.00000000000E+00 -0.00000000000E+00 -0.33373239128E+03  0.33373239128E+03  0.00000000000E+00 0.  1.
         23    2    1    2    0    0 -0.49872070260E+02 -0.32576398489E+01 -0.74478336018E+01  0.10242729689E+03  0.89095708726E+02 0.  0.
        -24    2    1    2    0    0 -0.42486628305E+02  0.11318755204E+03 -0.72138322354E+02  0.16197704237E+03  0.80100494267E+02 0.  0.
         11    1    4    4    0    0  0.15327720606E+02  0.25426572896E+02  0.68990866844E+01  0.30480272723E+02  0.00000000000E+00 0. -1.
        -12    1    4    4    0    0 -0.57814348911E+02  0.87760979147E+02 -0.79037409038E+02  0.13149676965E+03  0.00000000000E+00 0.  1.
        -11    1    3    3    0    0 -0.24584846523E+02  0.17602373259E+02 -0.43962489437E+02  0.53356899276E+02  0.00000000000E+00 0. -1.
         11    1    3    3    0    0 -0.25287223737E+02 -0.20860013108E+02  0.36514655835E+02  0.49070397613E+02  0.00000000000E+00 0.  1.
         -3    1    1    2    0  502  0.92358698565E+02 -0.10992991219E+03 -0.12987260976E+03  0.19360167758E+03  0.00000000000E+00 0.  1.
<scales pt_clust_5="13000.00000" pt_clust_6="13000.00000" pt_clust_7="13000.00000" pt_clust_8="13000.00000" pt_clust_9="132.35983"></scales>
<clustering>
<clus scale="   80.100">  5  6 -1 -1</clus>
<clus scale="   89.096">  7  8 -1 -1</clus>
<clus scale="  102.156">  1  7  2 -1</clus>
<clus scale="  132.360">  2  9  1 -1</clus>
<clus scale="  132.360">  2  5  1 -1</clus>
</clustering>
</event>
<event>
 9    1  0.7719620E-005  0.1329621E+03  0.7546771E-02  0.1225415E+00
         -2   -1    0    0    0  501 -0.00000000000E+00  0.00000000000E+00  0.34085232133E+03  0.34085232133E+03  0.00000000000E+00 0.  1.
         21   -1    0    0  501  502  0.00000000000E+00 -0.00000000000E+00 -0.10905363528E+03  0.10905363528E+03  0.00000000000E+00 0.  1.
         23    2    1    2    0    0 -0.39215983713E+02 -0.59992335270E+02  0.92218405778E+02  0.14689481368E+03  0.89089159008E+02 0.  0.
        -24    2    1    2    0    0  0.27496919634E+02  0.15321937960E+03  0.95952392028E+02  0.19941572368E+03  0.79545650043E+02 0.  0.
         13    1    4    4    0    0 -0.26524563781E+02  0.63479503736E+02  0.49923143493E+02  0.85003059560E+02  0.00000000000E+00 0. -1.
        -14    1    4    4    0    0  0.54021483415E+02  0.89739875864E+02  0.46029248535E+02  0.11441266412E+03  0.00000000000E+00 0.  1.
        -11    1    3    3    0    0 -0.60278759794E+02 -0.29389726065E+02  0.86272722704E+02  0.10927153135E+03  0.00000000000E+00 0.  1.
         11    1    3    3    0    0  0.21062776081E+02 -0.30602609204E+02  0.59456830745E+01  0.37623282334E+02  0.00000000000E+00 0. -1.
         -1    1    1    2    0  502  0.11719064079E+02 -0.93227044330E+02  0.43627888245E+02  0.10359541925E+03  0.00000000000E+00 0.  1.
<scales pt_clust_5="13000.00000" pt_clust_6="13000.00000" pt_clust_7="13000.00000" pt_clust_8="13000.00000" pt_clust_9="93.96073"></scales>
<clustering>
<clus scale="   79.546">  5  6 -1 -1</clus>
<clus scale="   89.089">  7  8 -1 -1</clus>
<clus scale="   93.961">  2  9  1 -1</clus>
<clus scale="  126.766">  2  5  1 -1</clus>
<clus scale="   93.961">  2  5  1 -1</clus>
</clustering>
</event>
<event>
 9    1  0.7719620E-005  0.1515074E+03  0.7546771E-02  0.1220802E+00
         21   -1    0    0  501  502  0.00000000000E+00  0.00000000000E+00  0.53515774847E+03  0.53515774847E+03  0.00000000000E+00 0. -1.
          1   -1    0    0  502    0 -0.00000000000E+00 -0.00000000000E+00 -0.14948237379E+03  0.14948237379E+03  0.00000000000E+00 0. -1.
        -24    2    1    2    0    0 -0.51716306089E+02  0.18677082163E+01  0.37268920084E+02  0.10144198738E+03  0.78888780884E+02 0.  0.
         23    2    1    2    0    0  0.16212425320E+03 -0.44727765255E+02 -0.24376254506E+02  0.19205385526E+03  0.89474214594E+02 0.  0.
         13    1    3    3    0    0 -0.66327931746E+00  0.31694173544E+02  0.26551133250E+02  0.41351218277E+02  0.00000000000E+00 0. -1.
        -14    1    3    3    0    0 -0.51053026772E+02 -0.29826465328E+02  0.10717786834E+02  0.60090769101E+02  0.00000000000E+00 0.  1.
        -13    1    4    4    0    0  0.58932235758E+02 -0.10200764573E+02 -0.52589076939E+02  0.79640912994E+02  0.00000000000E+00 0. -1.
         13    1    4    4    0    0  0.10319201744E+03 -0.34527000683E+02  0.28212822433E+02  0.11241294227E+03  0.00000000000E+00 0.  1.
          2    1    1    2  501    0 -0.11040794711E+03  0.42860057039E+02  0.37278270910E+03  0.39114427962E+03  0.00000000000E+00 0. -1.
<scales pt_clust_5="13000.00000" pt_clust_6="13000.00000" pt_clust_7="13000.00000" pt_clust_8="13000.00000" pt_clust_9="122.26556"></scales>
<clustering>
<clus scale="   78.889">  5  6 -1 -1</clus>
<clus scale="   89.474">  7  8 -1 -1</clus>
<clus scale="   94.348">  2  5  1 -1</clus>
<clus scale="  122.266">  1  9  2 -1</clus>
<clus scale="  122.266">  1  5  2 -1</clus>
</clustering>
</event>
<event>
 9    1  0.7719620E-005  0.1384700E+03  0.7546771E-02  0.1218109E+00
         21   -1    0    0  501  502  0.00000000000E+00  0.00000000000E+00  0.14813242292E+03  0.14813242292E+03  0.00000000000E+00 0.  1.
          1   -1    0    0  502    0 -0.00000000000E+00 -0.00000000000E+00 -0.25749605467E+03  0.25749605467E+03  0.00000000000E+00 0. -1.
        -24    2    1    2    0    0  0.46657922310E+02  0.86864513515E+02 -0.45331141394E+02  0.13489460349E+03  0.80120136346E+02 0.  0.
         23    2    1    2    0    0 -0.11458317276E+03 -0.56261943891E+02  0.19697202390E+02  0.15865792502E+03  0.92139283584E+02 0.  0.
         11    1    3    3    0    0  0.56649939465E+02  0.29659550547E+02 -0.42449738773E+02  0.76752100310E+02  0.00000000000E+00 0. -1.
        -12    1    3    3    0    0 -0.99920171546E+01  0.57204962968E+02 -0.28814026207E+01  0.58142503180E+02  0.00000000000E+00 0.  1.
        -13    1    4    4    0    0 -0.10400466541E+03 -0.73417475328E+01 -0.15719561883E+01  0.10427532177E+03  0.00000000000E+00 0. -1.
         13    1    4    4    0    0 -0.10578507349E+02 -0.48920196358E+02  0.21269158578E+02  0.54382603248E+02  0.00000000000E+00 0.  1.
          2    1    1    2  501    0  0.67925250450E+02 -0.30602569624E+02 -0.83729692742E+02  0.11207594908E+03  0.00000000000E+00 0. -1.
<scales pt_clust_5="13000.00000" pt_clust_6="13000.00000" pt_clust_7="13000.00000" pt_clust_8="13000.00000" pt_clust_9="74.50075"></scales>
<clustering>
<clus scale="   74.501">  1  9  2 -1</clus>
<clus scale="   80.120">  5  6 -1 -1</clus>
<clus scale="   92.139">  7  8 -1 -1</clus>
<clus scale="  130.780">  2  5  1 -1</clus>
<clus scale="   74.501">  1  5  2 -1</clus>
</clustering>
</event>
<event>
 9    1  0.7719620E-005  0.1145986E+03  0.7546771E-02  0.1256684E+00
         21   -1    0    0  501  502  0.00000000000E+00  0.00000000000E+00  0.26856707983E+03  0.26856707983E+03  0.00000000000E+00 0. -1.
         -2   -1    0    0    0  501 -0.00000000000E+00 -0.00000000000E+00 -0.35303109486E+03  0.35303109486E+03  0.00000000000E+00 0.  1.
        -24    2    1    2    0    0 -0.47971583915E+02  0.45613224515E+02 -0.29968363589E+03  0.31692936991E+03  0.79070252157E+02 0.  0.
         23    2    1    2    0    0  0.81046805294E+02 -0.81250904567E+02  0.94475360297E+02  0.17450279167E+03  0.91407529546E+02 0.  0.
         11    1    3    3    0    0 -0.14835805638E+02  0.34797657951E+02 -0.40523980092E+02  0.55436189356E+02  0.00000000000E+00 0. -1.
        -12    1    3    3    0    0 -0.33135778278E+02  0.10815566564E+02 -0.25915965580E+03  0.26149318055E+03  0.00000000000E+00 0.  1.
        -11    1    4    4    0    0  0.24087121240E+02 -0.96206789643E+01 -0.16437994951E+02  0.30707565051E+02  0.00000000000E+00 0.  1.
         11    1    4    4    0    0  0.56959684054E+02 -0.71630225603E+02  0.11091335525E+03  0.14379522662E+03  0.00000000000E+00 0. -1.
         -1    1    1    2    0  502 -0.33075221378E+02  0.35637680052E+02  0.12074426057E+03  0.13016601311E+03  0.00000000000E+00 0.  1.
<scales pt_clust_5="13000.00000" pt_clust_6="13000.00000" pt_clust_7="13000.00000" pt_clust_8="13000.00000" pt_clust_9="48.62113"></scales>
<clustering>
<clus scale="   48.621">  1  9  2 -1</clus>
<clus scale="   79.070">  5  6 -1 -1</clus>
<clus scale="   91.408">  7  8 -1 -1</clus>
<clus scale="  105.022">  2  5  1 -1</clus>
<clus scale="   48.621">  1  5  2 -1</clus>
</clustering>
</event>
<event>
 9    1  0.7719620E-005  0.9166711E+02  0.7546771E-02  0.1300240E+00
          3   -1    0    0  502    0 -0.00000000000E+00  0.00000000000E+00  0.91812453783E+02  0.91812453783E+02  0.00000000000E+00 0. -1.
         21   -1    0    0  501  502  0.00000000000E+00 -0.00000000000E+00 -0.38207602131E+03  0.38207602131E+03  0.00000000000E+00 0. -1.
         23    2    1    2    0    0  0.69487847520E+01  0.15167396250E+02  0.40313337508E+02  0.98922395711E+02  0.88781415137E+02 0.  0.
        -24    2    1    2    0    0 -0.76701318056E+01  0.20617180774E+02 -0.84137784452E+02  0.12594138894E+03  0.91094278698E+02 0.  0.
         13    1    4    4    0    0  0.10775543977E+02  0.18398779832E+02  0.14360015673E+02  0.25706759761E+02  0.00000000000E+00 0. -1.
        -14    1    4    4    0    0 -0.18445675783E+02  0.22184009422E+01 -0.98497800125E+02  0.10023462918E+03  0.00000000000E+00 0.  1.
        -11    1    3    3    0    0  0.29776892948E+02  0.10918035889E+02 -0.17780740831E+02  0.36359615039E+02  0.00000000000E+00 0.  1.
         11    1    3    3    0    0 -0.22828108196E+02  0.42493603609E+01  0.58094078340E+02  0.62562780672E+02  0.00000000000E+00 0. -1.
          4    1    1    2  501    0  0.72134705365E+00 -0.35784577024E+02 -0.24643912058E+03  0.24902469043E+03  0.00000000000E+00 0. -1.
<scales pt_clust_5="13000.00000" pt_clust_6="13000.00000" pt_clust_7="13000.00000" pt_clust_8="13000.00000" pt_clust_9="35.79185"></scales>
<clustering>
<clus scale="   35.792">  2  9  1 -1</clus>
<clus scale="   88.781">  7  8 -1 -1</clus>
<clus scale="   89.369">  1  7  2 -1</clus>
<clus scale="   91.094">  5  6 -1 -1</clus>
<clus scale="   35.792">  2  5  1 -1</clus>
</clustering>
</event>
<event>
 9    1  0.7719620E-005  0.1599287E+03  0.7546771E-02  0.1190737E+00
          1   -1    0    0  502    0 -0.00000000000E+00  0.00000000000E+00  0.11796602749E+04  0.11796602749E+04  0.00000000000E+00 0. -1.
         21   -1    0    0  501  502  0.00000000000E+00 -0.00000000000E+00 -0.26590155186E+02  0.26590155186E+02  0.00000000000E+00 0.  1.
        -24    2    1    2    0    0  0.49081885665E+02 -0.11088035508E+03  0.56795797844E+03  0.58655772191E+03  0.82281293252E+02 0.  0.
         23    2    1    2    0    0 -0.64902156371E+02  0.12372477154E+03  0.56978227991E+03  0.59419242096E+03  0.94300994847E+02 0.  0.
         11    1    3    3    0    0 -0.11950840415E+02 -0.54855191826E+02  0.32625241286E+03  0.33104765753E+03  0.00000000000E+00 0. -1.
        -12    1    3    3    0    0  0.61032726080E+02 -0.56025163256E+02  0.24170556558E+03  0.25551006438E+03  0.00000000000E+00 0.  1.
        -11    1    4    4    0    0 -0.31561424834E+02  0.11413759867E+01  0.50222019348E+02  0.59326870000E+02  0.00000000000E+00 0.  1.
         11    1    4    4    0    0 -0.33340731538E+02  0.12258339555E+03  0.51956026056E+03  0.53486555096E+03  0.00000000000E+00 0. -1.
          2    1    1    2  501    0  0.15820270706E+02 -0.12844416456E+02  0.15329861398E+02  0.25500287249E+02  0.00000000000E+00 0. -1.
<scales pt_clust_5="13000.00000" pt_clust_6="13000.00000" pt_clust_7="13000.00000" pt_clust_8="13000.00000" pt_clust_9="20.37793"></scales>
<clustering>
<clus scale="   20.378">  2  9  1 -1</clus>
<clus scale="   82.281">  5  6 -1 -1</clus>
<clus scale="   94.301">  7  8 -1 -1</clus>
<clus scale="  153.149">  1  5  2 -1</clus>
<clus scale="   20.378">  2  5  1 -1</clus>
</clustering>
</event>
<event>
 9    1  0.7719620E-005  0.9617633E+02  0.7546771E-02  0.1293568E+00
         -2   -1    0    0    0  501 -0.00000000000E+00  0.00000000000E+00  0.10611110163E+03  0.10611110163E+03  0.00000000000E+00 0.  1.
         21   -1    0    0  501  502  0.00000000000E+00 -0.00000000000E+00 -0.16608486099E+03  0.16608486099E+03  0.00000000000E+00 0.  1.
         23    2    1    2    0    0  0.10810576531E+02  0.42599185326E+02 -0.38480714845E+02  0.10737152494E+03  0.90090619924E+02 0.  0.
        -24    2    1    2    0    0  0.18567016769E+02 -0.22803578006E+02 -0.65657843875E+02  0.10820784507E+03  0.80828509760E+02 0.  0.
         11    1    4    4    0    0 -0.15058637819E+02 -0.29599687557E+02 -0.66017904643E+02  0.73900391135E+02  0.00000000000E+00 0. -1.
        -12    1    4    4    0    0  0.33625654588E+02  0.67961095505E+01  0.36006076858E+00  0.34307453931E+02  0.00000000000E+00 0.  1.
        -11    1    3    3    0    0  0.32194477578E+02  0.62525001415E+02 -0.21365735572E+02  0.73500713227E+02  0.00000000000E+00 0.  1.
         11    1    3    3    0    0 -0.21383901047E+02 -0.19925816089E+02 -0.17114979273E+02  0.33870811716E+02  0.00000000000E+00 0. -1.
         -1    1    1    2    0  502 -0.29377593299E+02 -0.19795607320E+02  0.44164799352E+02  0.56616592612E+02  0.00000000000E+00 0.  1.
<scales pt_clust_5="13000.00000" pt_clust_6="13000.00000" pt_clust_7="13000.00000" pt_clust_8="13000.00000" pt_clust_9="35.42471"></scales>
<clustering>
<clus scale="   35.425">  2  9  1 -1</clus>
<clus scale="   80.829">  5  6 -1 -1</clus>
<clus scale="   87.560">  2  5  1 -1</clus>
<clus scale="   90.091">  7  8 -1 -1</clus>
<clus scale="   35.425">  2  5  1 -1</clus>
</clustering>
</event>
<event>
 9    1  0.7719620E-005  0.1064505E+03  0.7546771E-02  0.1272184E+00
          1   -1    0    0  502    0 -0.00000000000E+00  0.00000000000E+00  0.16960942216E+03  0.16960942216E+03  0.00000000000E+00 0. -1.
         21   -1    0    0  501  502  0.00000000000E+00 -0.00000000000E+00 -0.22082186374E+03  0.22082186374E+03  0.00000000000E+00 0.  1.
         23    2    1    2    0    0 -0.25831573711E+02 -0.54477450810E+02  0.12433377691E+03  0.16541197310E+03  0.90923978768E+02 0.  0.
        -24    2    1    2    0    0 -0.20649981809E+02  0.37949759216E+02 -0.10036075608E+03  0.13509404743E+03  0.79445039605E+02 0.  0.
         13    1    4    4    0    0 -0.20892880042E+02  0.28538492497E+02 -0.10980818462E+01  0.35385926217E+02  0.00000000000E+00 0. -1.
        -14    1    4    4    0    0  0.24289823274E+00  0.94112667184E+01 -0.99262674230E+02  0.99708121214E+02  0.00000000000E+00 0.  1.
        -13    1    3    3    0    0  0.28921199527E+02 -0.91071162400E+01  0.12308146342E+02  0.32724086155E+02  0.00000000000E+00 0.  1.
         13    1    3    3    0    0 -0.54752773238E+02 -0.45370334570E+02  0.11202563057E+03  0.13268788694E+03  0.00000000000E+00 0. -1.
          2    1    1    2  501    0  0.46481555521E+02  0.16527691595E+02 -0.75185462422E+02  0.89925265375E+02  0.00000000000E+00 0. -1.
<scales pt_clust_5="13000.00000" pt_clust_6="13000.00000" pt_clust_7="13000.00000" pt_clust_8="13000.00000" pt_clust_9="49.33254"></scales>
<clustering>
<clus scale="   49.333">  2  9  1 -1</clus>
<clus scale="   79.445">  5  6 -1 -1</clus>
<clus scale="   90.924">  7  8 -1 -1</clus>
<clus scale="   96.830">  2  5  1 -1</clus>
<clus scale="   49.333">  2  5  1 -1</clus>
</clustering>
</event>
<event>
 9    1  0.1081109E-004  0.1136039E+03  0.7546771E-02  0.1254503E+00
         21   -1    0    0  501  502  0.00000000000E+00  0.00000000000E+00  0.13005218826E+03  0.13005218826E+03  0.00000000000E+00 0.  1.
         -4   -1    0    0    0  501 -0.00000000000E+00 -0.00000000000E+00 -0.30400174902E+03  0.30400174902E+03  0.00000000000E+00 0.  1.
        -24    2    1    2    0    0 -0.73607506389E+02  0.46870905497E+02 -0.24620191974E+03  0.27392829175E+03  0.82500769430E+02 0.  0.
         23    2    1    2    0    0  0.32885922070E+02 -0.18873003253E+02  0.27932704950E+02  0.93745213984E+02  0.81057109601E+02 0.  0.
         11    1    3    3    0    0  0.76807445552E+01  0.18525003284E+02 -0.97631744565E+01  0.22304465003E+02  0.00000000000E+00 0. -1.
        -12    1    3    3    0    0 -0.81288250945E+02  0.28345902213E+02 -0.23643874528E+03  0.25162382674E+03  0.00000000000E+00 0.  1.
        -11    1    4    4    0    0 -0.18901416465E+02 -0.24279255686E+02 -0.63314980063E+01  0.31413908831E+02  0.00000000000E+00 0.  1.
         11    1    4    4    0    0  0.51787338535E+02  0.54062524328E+01  0.34264202956E+02  0.62331305153E+02  0.00000000000E+00 0. -1.
         -3    1    1    2    0  502  0.40721584319E+02 -0.27997902244E+02  0.44319654025E+02  0.66380431548E+02  0.00000000000E+00 0.  1.
<scales pt_clust_5="13000.00000" pt_clust_6="13000.00000" pt_clust_7="13000.00000" pt_clust_8="13000.00000" pt_clust_9="49.41791"></scales>
<clustering>
<clus scale="   49.418">  1  9  2 -1</clus>
<clus scale="   81.057">  7  8 -1 -1</clus>
<clus scale="   82.501">  5  6 -1 -1</clus>
<clus scale="  112.560">  1  7  2 -1</clus>
<clus scale="   49.418">  1  5  2 -1</clus>
</clustering>
</event>
<event>
 9    1  0.7719620E-005  0.1288480E+03  0.7546771E-02  0.1242983E+00
          1   -1    0    0  502    0 -0.00000000000E+00  0.00000000000E+00  0.28389726299E+03  0.28389726299E+03  0.00000000000E+00 0. -1.
         21   -1    0    0  501  502  0.00000000000E+00 -0.00000000000E+00 -0.16260816863E+03  0.16260816863E+03  0.00000000000E+00 0. -1.
         23    2    1    2    0    0 -0.33627503450E+02 -0.36984063611E+01  0.15661348069E+03  0.18430478403E+03  0.91082291822E+02 0.  0.
        -24    2    1    2    0    0 -0.73690297389E+02 -0.13720872167E+02  0.53356900574E+02  0.12189771716E+03  0.79959817088E+02 0.  0.
         13    1    4    4    0    0 -0.71464403393E+02 -0.40789886572E+02  0.42864173620E+02  0.92780995786E+02  0.00000000000E+00 0. -1.
        -14    1    4    4    0    0 -0.22258939956E+01  0.27069014404E+02  0.10492726954E+02  0.29116721379E+02  0.00000000000E+00 0.  1.
        -13    1    3    3    0    0 -0.13889050842E+02  0.38983928543E+02  0.11232892272E+03  0.11970981287E+03  0.00000000000E+00 0. -1.
         13    1    3    3    0    0 -0.19738452609E+02 -0.42682334904E+02  0.44284557970E+02  0.64594971158E+02  0.00000000000E+00 0.  1.
          2    1    1    2  501    0  0.10731780084E+03  0.17419278528E+02 -0.88681286906E+02  0.14030293044E+03  0.00000000000E+00 0. -1.
<scales pt_clust_5="13000.00000" pt_clust_6="13000.00000" pt_clust_7="13000.00000" pt_clust_8="13000.00000" pt_clust_9="101.03577"></scales>
<clustering>
<clus scale="   79.960">  5  6 -1 -1</clus>
<clus scale="   91.082">  7  8 -1 -1</clus>
<clus scale="   97.162">  1  7  2 -1</clus>
<clus scale="  101.036">  2  9  1 -1</clus>
<clus scale="  101.036">  2  5  1 -1</clus>
</clustering>
</event>
<event>
 9    1  0.7719620E-005  0.1425480E+03  0.7546771E-02  0.1210849E+00
          1   -1    0    0  502    0 -0.00000000000E+00  0.00000000000E+00  0.56898941531E+03  0.56898941531E+03  0.00000000000E+00 0. -1.
         21   -1    0    0  501  502  0.00000000000E+00 -0.00000000000E+00 -0.52579027583E+02  0.52579027583E+02  0.00000000000E+00 0.  1.
         23    2    1    2    0    0 -0.67061724081E+02 -0.93541378214E+02  0.36179975962E+03  0.39016725183E+03  0.89911923946E+02 0.  0.
        -24    2    1    2    0    0  0.82554946459E+02  0.62481536965E+02  0.10313253052E+03  0.16931457246E+03  0.85509320829E+02 0.  0.
         11    1    4    4    0    0  0.19031799351E+02  0.65065299264E+02  0.70678351735E+02  0.97934324722E+02  0.00000000000E+00 0. -1.
        -12    1    4    4    0    0  0.63523147108E+02 -0.25837622988E+01  0.32454178785E+02  0.71380247735E+02  0.00000000000E+00 0.  1.
        -13    1    3    3    0    0 -0.15202061116E+01 -0.58466239385E+02  0.82392055960E+02  0.10103990825E+03  0.00000000000E+00 0.  1.
         13    1    3    3    0    0 -0.65541517969E+02 -0.35075138829E+02  0.27940770366E+03  0.28912734358E+03  0.00000000000E+00 0. -1.
          2    1    1    2  501    0 -0.15493222379E+02  0.31059841249E+02  0.51478097587E+02  0.62086618600E+02  0.00000000000E+00 0. -1.
<scales pt_clust_5="13000.00000" pt_clust_6="13000.00000" pt_clust_7="13000.00000" pt_clust_8="13000.00000" pt_clust_9="34.70956"></scales>
<clustering>
<clus scale="   34.710">  2  9  1 -1</clus>
<clus scale="   85.509">  5  6 -1 -1</clus>
<clus scale="   89.912">  7  8 -1 -1</clus>
<clus scale="  139.813">  2  5  1 -1</clus>
<clus scale="   34.710">  2  5  1 -1</clus>
</clustering>
</event>
<event>
 9    1  0.8241552E-005  0.9248720E+02  0.7546771E-02  0.1304038E+00
         21   -1    0    0  501  502  0.00000000000E+00  0.00000000000E+00  0.22049224111E+03  0.22049224111E+03  0.00000000000E+00 0. -1.
          1   -1    0    0  502    0 -0.00000000000E+00 -0.00000000000E+00 -0.24359769417E+03  0.24359769417E+03  0.00000000000E+00 0. -1.
         23    2    1    2    0    0 -0.19760056261E+02  0.99406839775E+01 -0.19981762138E+03  0.22064861837E+03  0.90936538075E+02 0.  0.
        -24    2    1    2    0    0 -0.25212318484E+02 -0.14711459907E+02  0.29711328625E+02  0.89641051415E+02  0.79376740890E+02 0.  0.
         13    1    4    4    0    0 -0.19176887194E+02  0.90612257767E+01 -0.23131546058E+02  0.31383550438E+02  0.00000000000E+00 0. -1.
        -14    1    4    4    0    0 -0.60354312894E+01 -0.23772685683E+02  0.52842874683E+02  0.58257500978E+02  0.00000000000E+00 0.  1.
        -11    1    3    3    0    0  0.86065109286E+01 -0.22360608195E+02 -0.98967538720E+01  0.25923243748E+02  0.00000000000E+00 0.  1.
         11    1    3    3    0    0 -0.28366567190E+02  0.32301292172E+02 -0.18992086750E+03  0.19472537463E+03  0.00000000000E+00 0. -1.
          2    1    1    2  501    0  0.44972374745E+02  0.47707759293E+01  0.14700083969E+03  0.15380026549E+03  0.00000000000E+00 0. -1.
<scales pt_clust_5="13000.00000" pt_clust_6="13000.00000" pt_clust_7="13000.00000" pt_clust_8="13000.00000" pt_clust_9="45.22471"></scales>
<clustering>
<clus scale="   45.225">  1  9  2 -1</clus>
<clus scale="   79.377">  5  6 -1 -1</clus>
<clus scale="   81.149">  1  5  2 -1</clus>
<clus scale="   90.937">  7  8 -1 -1</clus>
<clus scale="   45.225">  1  5  2 -1</clus>
</clustering>
</event>
<event>
 9    1  0.7719620E-005  0.1722251E+03  0.7546771E-02  0.1187447E+00
         21   -1    0    0  501  502  0.00000000000E+00  0.00000000000E+00  0.29661316866E+03  0.29661316866E+03  0.00000000000E+00 0.  1.
          1   -1    0    0  502    0 -0.00000000000E+00 -0.00000000000E+00 -0.30839440117E+03  0.30839440117E+03  0.00000000000E+00 0. -1.
         23    2    1    2    0    0 -0.86866481337E+02  0.35912280692E+02  0.14847066292E+03  0.19859421799E+03  0.92523770924E+02 0.  0.
        -24    2    1    2    0    0 -0.68246948669E+02 -0.10012806172E+03 -0.18623930442E+03  0.23653342917E+03  0.81115410742E+02 0.  0.
         13    1    4    4    0    0 -0.61507033163E+02 -0.90937480881E+02 -0.19388481131E+03  0.22280947155E+03  0.00000000000E+00 0. -1.
        -14    1    4    4    0    0 -0.67399155056E+01 -0.91905808427E+01  0.76455068892E+01  0.13723957623E+02  0.00000000000E+00 0.  1.
        -11    1    3    3    0    0 -0.34066700245E+02 -0.28845838993E+02  0.75263008367E+02  0.87505102259E+02  0.00000000000E+00 0.  1.
         11    1    3    3    0    0 -0.52799781092E+02  0.64758119685E+02  0.73207654555E+02  0.11108911573E+03  0.00000000000E+00 0. -1.
          2    1    1    2  501    0  0.15511343001E+03  0.64215781032E+02  0.25987408983E+02  0.16987992267E+03  0.00000000000E+00 0. -1.
<scales pt_clust_5="13000.00000" pt_clust_6="13000.00000" pt_clust_7="13000.00000" pt_clust_8="13000.00000" pt_clust_9="151.92693"></scales>
<clustering>
<clus scale="   81.115">  5  6 -1 -1</clus>
<clus scale="   92.524">  7  8 -1 -1</clus>
<clus scale="  131.894">  2  7  1 -1</clus>
<clus scale="  151.927">  1  9  2 -1</clus>
<clus scale="  151.927">  1  5  2 -1</clus>
</clustering>
</event>
<event>
 9    1  0.7719620E-005  0.9728126E+02  0.7546771E-02  0.1288597E+00
          1   -1    0    0  502    0 -0.00000000000E+00  0.00000000000E+00  0.55381979018E+02  0.55381979018E+02  0.00000000000E+00 0. -1.
         21   -1    0    0  501  502  0.00000000000E+00 -0.00000000000E+00 -0.21208464859E+03  0.21208464859E+03  0.00000000000E+00 0. -1.
        -24    2    1    2    0    0 -0.34269775949E+02 -0.21724538357E+02 -0.58768706034E+02  0.11025388391E+03  0.83998720223E+02 0.  0.
         23    2    1    2    0    0  0.41558175296E+02  0.10505178000E+01 -0.65144652772E+02  0.11777070024E+03  0.88870279223E+02 0.  0.
         13    1    3    3    0    0 -0.20493826209E+02 -0.25895003240E+02  0.14150657564E+02  0.35927555093E+02  0.00000000000E+00 0. -1.
        -14    1    3    3    0    0 -0.13775949739E+02  0.41704648827E+01 -0.72919363598E+02  0.74326328822E+02  0.00000000000E+00 0.  1.
        -11    1    4    4    0    0  0.15215709539E+02 -0.17531743895E+02 -0.79252136652E+02  0.82581965493E+02  0.00000000000E+00 0. -1.
         11    1    4    4    0    0  0.26342465757E+02  0.18582261695E+02  0.14107483880E+02  0.35188734749E+02  0.00000000000E+00 0.  1.
          2    1    1    2  501    0 -0.72883993474E+01  0.20674020557E+02 -0.32789310762E+02  0.39442043447E+02  0.00000000000E+00 0. -1.
<scales pt_clust_5="13000.00000" pt_clust_6="13000.00000" pt_clust_7="13000.00000" pt_clust_8="13000.00000" pt_clust_9="21.92113"></scales>
<clustering>
<clus scale="   21.921">  2  9  1 -1</clus>
<clus scale="   83.999">  5  6 -1 -1</clus>
<clus scale="   88.870">  7  8 -1 -1</clus>
<clus scale="   92.852">  1  5  2 -1</clus>
<clus scale="   21.921">  2  5  1 -1</clus>
</clustering>
</event>
<event>
 9    1  0.7719620E-005  0.1172887E+03  0.7546771E-02  0.1251662E+00
         21   -1    0    0  501  502  0.00000000000E+00  0.00000000000E+00  0.62222726244E+03  0.62222726244E+03  0.00000000000E+00 0. -1.
         -4   -1    0    0    0  501 -0.00000000000E+00 -0.00000000000E+00 -0.63632857154E+02  0.63632857154E+02  0.00000000000E+00 0.  1.
         23    2    1    2    0    0 -0.28246810013E+02 -0.68672084511E+02  0.64886021415E+01  0.11903095577E+03  0.92803712247E+02 0.  0.
        -24    2    1    2    0    0  0.12456385082E+02  0.50265127718E+02  0.50239391274E+03  0.51151708896E+03  0.81045321580E+02 0.  0.
         13    1    4    4    0    0  0.21221830049E+02  0.69146079829E+02  0.43529727191E+03  0.44126552252E+03  0.00000000000E+00 0. -1.
        -14    1    4    4    0    0 -0.87654449674E+01 -0.18880952111E+02  0.67096640825E+02  0.70251566446E+02  0.00000000000E+00 0.  1.
        -13    1    3    3    0    0 -0.16564013394E+02 -0.87779327152E+02 -0.11815704609E+02  0.90106535226E+02  0.00000000000E+00 0.  1.
         13    1    3    3    0    0 -0.11682796619E+02  0.19107242642E+02  0.18304306750E+02  0.28924420544E+02  0.00000000000E+00 0. -1.
         -3    1    1    2    0  502  0.15790424931E+02  0.18406956793E+02  0.49711890406E+02  0.55312074862E+02  0.00000000000E+00 0.  1.
<scales pt_clust_5="13000.00000" pt_clust_6="13000.00000" pt_clust_7="13000.00000" pt_clust_8="13000.00000" pt_clust_9="24.25188"></scales>
<clustering>
<clus scale="   24.252">  1  9  2 -1</clus>
<clus scale="   81.045">  5  6 -1 -1</clus>
<clus scale="   92.804">  7  8 -1 -1</clus>
<clus scale="  108.224">  1  5  2 -1</clus>
<clus scale="   24.252">  1  5  2 -1</clus>
</clustering>
</event>
<event>
 9    1  0.7719620E-005  0.9910544E+02  0.7546771E-02  0.1286798E+00
         21   -1    0    0  501  502  0.00000000000E+00  0.00000000000E+00  0.27100291879E+03  0.27100291879E+03  0.00000000000E+00 0.  1.
          3   -1    0    0  502    0 -0.00000000000E+00 -0.00000000000E+00 -0.97826890570E+02  0.97826890570E+02  0.00000000000E+00 0. -1.
         23    2    1    2    0    0  0.45267034499E+02 -0.12356240202E+02 -0.45380028500E+02  0.11102917699E+03  0.89812861393E+02 0.  0.
        -24    2    1    2    0    0 -0.41295391951E+01  0.31397809194E+02  0.17337886604E+03  0.19380177748E+03  0.80597904746E+02 0.  0.
         13    1    4    4    0    0 -0.37824745529E+02  0.21218695255E+02  0.53547973261E+02  0.68908126103E+02  0.00000000000E+00 0. -1.
        -14    1    4    4    0    0  0.33695206334E+02  0.10179113939E+02  0.11983089278E+03  0.12489365138E+03  0.00000000000E+00 0.  1.
        -11    1    3    3    0    0  0.55278625732E+02  0.19415672040E+02 -0.51757180918E+01  0.58817368535E+02  0.00000000000E+00 0. -1.
         11    1    3    3    0    0 -0.10011591232E+02 -0.31771912242E+02 -0.40204310408E+02  0.52211808453E+02  0.00000000000E+00 0.  1.
          4    1    1    2  501    0 -0.41137495304E+02 -0.19041568992E+02  0.45177190677E+02  0.63998854888E+02  0.00000000000E+00 0. -1.
<scales pt_clust_5="13000.00000" pt_clust_6="13000.00000" pt_clust_7="13000.00000" pt_clust_8="13000.00000" pt_clust_9="45.33073"></scales>
<clustering>
<clus scale="   45.331">  1  9  2 -1</clus>
<clus scale="   80.598">  5  6 -1 -1</clus>
<clus scale="   89.813">  7  8 -1 -1</clus>
<clus scale="   90.838">  1  5  2 -1</clus>
<clus scale="   45.331">  1  5  2 -1</clus>
</clustering>
</event>
<event>
 9    1  0.7719620E-005  0.1108720E+03  0.7546771E-02  0.1264549E+00
         21   -1    0    0  501  502  0.00000000000E+00  0.00000000000E+00  0.29700346029E+03  0.29700346029E+03  0.00000000000E+00 0.  1.
         -2   -1    0    0    0  501 -0.00000000000E+00 -0.00000000000E+00 -0.12446305397E+03  0.12446305397E+03  0.00000000000E+00 0.  1.
        -24    2    1    2    0    0 -0.51539982119E+02  0.25602073666E+02 -0.36643239412E+02  0.10591663842E+03  0.81017105399E+02 0.  0.
         23    2    1    2    0    0 -0.46383582752E+02 -0.67605716823E+01  0.18569328326E+03  0.21310074757E+03  0.93449403894E+02 0.  0.
         11    1    3    3    0    0 -0.26391036516E+02 -0.28893297372E+02 -0.10992180399E+02  0.40646493961E+02  0.00000000000E+00 0. -1.
        -12    1    3    3    0    0 -0.25148945603E+02  0.54495371037E+02 -0.25651059013E+02  0.65270144461E+02  0.00000000000E+00 0.  1.
        -11    1    4    4    0    0  0.27740360220E+02  0.25170881024E+01  0.33537938050E+02  0.43596520575E+02  0.00000000000E+00 0. -1.
         11    1    4    4    0    0 -0.74123942972E+02 -0.92776597846E+01  0.15215534521E+03  0.16950422699E+03  0.00000000000E+00 0.  1.
         -1    1    1    2    0  502  0.97923564871E+02 -0.18841501983E+02  0.23490362477E+02  0.10244912827E+03  0.00000000000E+00 0.  1.
<scales pt_clust_5="13000.00000" pt_clust_6="13000.00000" pt_clust_7="13000.00000" pt_clust_8="13000.00000" pt_clust_9="59.66418"></scales>
<clustering>
<clus scale="   81.017">  5  6 -1 -1</clus>
<clus scale="   93.449">  7  8 -1 -1</clus>
<clus scale="   99.376">  2  5  1 -1</clus>
<clus scale="   59.664">  1  9  2 -1</clus>
<clus scale="   59.664">  1  5  2 -1</clus>
</clustering>
</event>
<event>
 9    1  0.7719620E-005  0.9348633E+02  0.7546771E-02  0.1299275E+00
         21   -1    0    0  501  502  0.00000000000E+00  0.00000000000E+00  0.39249185051E+03  0.39249185051E+03  0.00000000000E+00 0. -1.
          1   -1    0    0  502    0 -0.00000000000E+00 -0.00000000000E+00 -0.92974073647E+02  0.92974073647E+02  0.00000000000E+00 0. -1.
         23    2    1    2    0    0  0.10597377048E+02 -0.71281258077E+01 -0.24987124882E+02  0.94006992668E+02  0.89720921098E+02 0.  0.
        -24    2    1    2    0    0 -0.27967094953E+02  0.87285359952E+02  0.12239830719E+03  0.17334436332E+03  0.81645760631E+02 0.  0.
         11    1    4    4    0    0 -0.35134381699E+02  0.97401325069E+02  0.85062540494E+02  0.13400402493E+03  0.00000000000E+00 0. -1.
        -12    1    4    4    0    0  0.71672867463E+01 -0.10115965118E+02  0.37335766694E+02  0.39340338384E+02  0.00000000000E+00 0.  1.
        -11    1    3    3    0    0  0.12933637012E+02 -0.47903291131E+02 -0.16520865303E+02  0.52296684961E+02  0.00000000000E+00 0. -1.
         11    1    3    3    0    0 -0.23362599632E+01  0.40775165323E+02 -0.84662595787E+01  0.41710307707E+02  0.00000000000E+00 0.  1.
          2    1    1    2  501    0  0.17369717904E+02 -0.80157234144E+02  0.20210659456E+03  0.21811456817E+03  0.00000000000E+00 0. -1.
<scales pt_clust_5="13000.00000" pt_clust_6="13000.00000" pt_clust_7="13000.00000" pt_clust_8="13000.00000" pt_clust_9="82.01762"></scales>
<clustering>
<clus scale="   81.646">  5  6 -1 -1</clus>
<clus scale="   82.018">  1  9  2 -1</clus>
<clus scale="   85.766">  1  5  2 -1</clus>
<clus scale="   89.721">  7  8 -1 -1</clus>
<clus scale="   82.018">  1  5  2 -1</clus>
</clustering>
</event>
<event>
 9    1  0.7719620E-005  0.1464945E+03  0.7546771E-02  0.1206991E+00
          1   -1    0    0  502    0 -0.00000000000E+00  0.00000000000E+00  0.71247316973E+03  0.71247316973E+03  0.00000000000E+00 0. -1.
         21   -1    0    0  501  502  0.00000000000E+00 -0.00000000000E+00 -0.38506932931E+02  0.38506932931E+02  0.00000000000E+00 0. -1.
        -24    2    1    2    0    0 -0.11032420866E+03 -0.51682828042E+02  0.36924571792E+03  0.39675415130E+03  0.78923447952E+02 0.  0.
         23    2    1    2    0    0  0.10866499659E+03  0.13588308926E+02  0.22701321510E+03  0.26766747153E+03  0.90100787237E+02 0.  0.
         13    1    3    3    0    0 -0.21510472132E+02 -0.24284968909E+02  0.27293187669E+02  0.42395497631E+02  0.00000000000E+00 0. -1.
        -14    1    3    3    0    0 -0.88813736526E+02 -0.27397859133E+02  0.34195253025E+03  0.35435865366E+03  0.00000000000E+00 0.  1.
        -13    1    4    4    0    0  0.47222054241E+01  0.30807684121E+02  0.25487127317E+02  0.40261722316E+02  0.00000000000E+00 0.  1.
         13    1    4    4    0    0  0.10394279117E+03 -0.17219375195E+02  0.20152608778E+03  0.22740574921E+03  0.00000000000E+00 0. -1.
          2    1    1    2  501    0  0.16592120636E+01  0.38094519116E+02  0.77707303782E+02  0.86558479841E+02  0.00000000000E+00 0. -1.
<scales pt_clust_5="13000.00000" pt_clust_6="13000.00000" pt_clust_7="13000.00000" pt_clust_8="13000.00000" pt_clust_9="38.13065"></scales>
<clustering>
<clus scale="   38.131">  2  9  1 -1</clus>
<clus scale="   78.923">  5  6 -1 -1</clus>
<clus scale="   90.101">  7  8 -1 -1</clus>
<clus scale="  139.898">  1  5  2 -1</clus>
<clus scale="   38.131">  2  5  1 -1</clus>
</clustering>
</event>
<event>
 9    1  0.7719620E-005  0.9547557E+02  0.7546771E-02  0.1293577E+00
         21   -1    0    0  501  502  0.00000000000E+00  0.00000000000E+00  0.23085245487E+03  0.23085245487E+03  0.00000000000E+00 0.  1.
         -4   -1    0    0    0  501 -0.00000000000E+00 -0.00000000000E+00 -0.17324671007E+03  0.17324671007E+03  0.00000000000E+00 0.  1.
        -24    2    1    2    0    0 -0.22696452173E+02 -0.35318563389E+02  0.16816396678E+02  0.93818274635E+02  0.82198221374E+02 0.  0.
         23    2    1    2    0    0  0.47575161350E+02 -0.24531880026E+02  0.15059108622E+03  0.18277619457E+03  0.88680623242E+02 0.  0.
         13    1    3    3    0    0  0.26055559326E+02  0.73788889997E+01  0.90298011688E+01  0.28546058989E+02  0.00000000000E+00 0. -1.
        -14    1    3    3    0    0 -0.48752011499E+02 -0.42697452388E+02  0.77865955091E+01  0.65272215646E+02  0.00000000000E+00 0.  1.
        -13    1    4    4    0    0 -0.26054012857E+02 -0.89006599276E+01  0.30917859668E+02  0.41399847578E+02  0.00000000000E+00 0. -1.
         13    1    4    4    0    0  0.73629174206E+02 -0.15631220099E+02  0.11967322655E+03  0.14137634699E+03  0.00000000000E+00 0.  1.
         -3    1    1    2    0  502 -0.24878709177E+02  0.59850443415E+02 -0.10980173810E+03  0.12750469574E+03  0.00000000000E+00 0.  1.
<scales pt_clust_5="13000.00000" pt_clust_6="13000.00000" pt_clust_7="13000.00000" pt_clust_8="13000.00000" pt_clust_9="64.81535"></scales>
<clustering>
<clus scale="   64.815">  1  9  2 -1</clus>
<clus scale="   82.198">  5  6 -1 -1</clus>
<clus scale="   88.681">  7  8 -1 -1</clus>
<clus scale="   89.487">  2  5  1 -1</clus>
<clus scale="   64.815">  1  5  2 -1</clus>
</clustering>
</event>
<event>
 9    1  0.7719620E-005  0.9535278E+02  0.7546771E-02  0.1296827E+00
          1   -1    0    0  502    0 -0.00000000000E+00  0.00000000000E+00  0.63111965221E+02  0.63111965221E+02  0.00000000000E+00 0. -1.
         21   -1    0    0  501  502  0.00000000000E+00 -0.00000000000E+00 -0.20980914735E+03  0.20980914735E+03  0.00000000000E+00 0. -1.
        -24    2    1    2    0    0  0.18714594740E+02  0.41596290921E+01 -0.26390420064E+02  0.86507043151E+02  0.80121630495E+02 0.  0.
         23    2    1    2    0    0 -0.46469312998E+02  0.13982342753E+02 -0.11142950336E+03  0.15208825916E+03  0.91429762077E+02 0.  0.
         11    1    3    3    0    0  0.38744917016E+02  0.18709018717E+02 -0.39574976538E+02  0.58458316294E+02  0.00000000000E+00 0. -1.
        -12    1    3    3    0    0 -0.20030322276E+02 -0.14549389624E+02  0.13184556474E+02  0.28048726858E+02  0.00000000000E+00 0.  1.
        -13    1    4    4    0    0  0.19239752318E+02  0.16009551928E+02 -0.28948221452E+01  0.25196305631E+02  0.00000000000E+00 0.  1.
         13    1    4    4    0    0 -0.65709065317E+02 -0.20272091747E+01 -0.10853468122E+03  0.12689195352E+03  0.00000000000E+00 0. -1.
          2    1    1    2  501    0  0.27754718258E+02 -0.18141971845E+02 -0.88772586951E+01  0.34325810259E+02  0.00000000000E+00 0. -1.
<scales pt_clust_5="13000.00000" pt_clust_6="13000.00000" pt_clust_7="13000.00000" pt_clust_8="13000.00000" pt_clust_9="33.15806"></scales>
<clustering>
<clus scale="   33.158">  2  9  1 -1</clus>
<clus scale="   80.122">  5  6 -1 -1</clus>
<clus scale="   84.571">  1  5  2 -1</clus>
<clus scale="   91.430">  7  8 -1 -1</clus>
<clus scale="   33.158">  2  5  1 -1</clus>
</clustering>
</event>
<event>
 9    1  0.7719620E-005  0.9101523E+02  0.7546771E-02  0.1306293E+00
          1   -1    0    0  502    0 -0.00000000000E+00  0.00000000000E+00  0.51729911566E+03  0.51729911566E+03  0.00000000000E+00 0. -1.
         21   -1    0    0  501  502  0.00000000000E+00 -0.00000000000E+00 -0.39643243899E+02  0.39643243899E+02  0.00000000000E+00 0.  1.
         23    2    1    2    0    0 -0.24464810432E+01  0.63447513731E+01  0.39977103447E+03  0.40989564248E+03  0.90284642016E+02 0.  0.
        -24    2    1    2    0    0  0.12494679216E+02 -0.24566391386E+02  0.89056352969E+02  0.12342898616E+03  0.80895339957E+02 0.  0.
         11    1    4    4    0    0 -0.19458258054E+01 -0.53166398809E+02  0.59820871706E+02  0.80056160863E+02  0.00000000000E+00 0. -1.
        -12    1    4    4    0    0  0.14440505021E+02  0.28600007424E+02  0.29235481263E+02  0.43372825301E+02  0.00000000000E+00 0.  1.
        -13    1    3    3    0    0  0.41568888758E+02 -0.42979125882E+01  0.24859137948E+03  0.25207958766E+03  0.00000000000E+00 0. -1.
         13    1    3    3    0    0 -0.44015369802E+02  0.10642663961E+02  0.15117965499E+03  0.15781605482E+03  0.00000000000E+00 0.  1.
          2    1    1    2  501    0 -0.10048198173E+02  0.18221640013E+02 -0.11171515675E+02  0.23617730919E+02  0.00000000000E+00 0. -1.
<scales pt_clust_5="13000.00000" pt_clust_6="13000.00000" pt_clust_7="13000.00000" pt_clust_8="13000.00000" pt_clust_9="20.80852"></scales>
<clustering>
<clus scale="   20.809">  2  9  1 -1</clus>
<clus scale="   80.895">  5  6 -1 -1</clus>
<clus scale="   81.710">  2  5  1 -1</clus>
<clus scale="   90.285">  7  8 -1 -1</clus>
<clus scale="   20.809">  2  5  1 -1</clus>
</clustering>
</event>
<event>
 9    1  0.7719620E-005  0.1382455E+03  0.7546771E-02  0.1231729E+00
         21   -1    0    0  501  502  0.00000000000E+00  0.00000000000E+00  0.50459462503E+02  0.50459462503E+02  0.00000000000E+00 0. -1.
          1   -1    0    0  502    0 -0.00000000000E+00 -0.00000000000E+00 -0.65562590775E+03  0.65562590775E+03  0.00000000000E+00 0. -1.
         23    2    1    2    0    0  0.45740425335E-01  0.32277332851E+02 -0.20627453908E+03  0.22878525362E+03  0.93550406162E+02 0.  0.
        -24    2    1    2    0    0 -0.11409099418E+03 -0.40928286847E+01 -0.27005765142E+03  0.30294716605E+03  0.76238731181E+02 0.  0.
         11    1    4    4    0    0 -0.92019578094E+02  0.10049151715E+02 -0.25798150771E+03  0.27408583787E+03  0.00000000000E+00 0. -1.
        -12    1    4    4    0    0 -0.22071416082E+02 -0.14141980400E+02 -0.12076143709E+02  0.28861328181E+02  0.00000000000E+00 0.  1.
        -11    1    3    3    0    0  0.21490331504E+02  0.32358621963E+02 -0.20348539115E+03  0.20715988794E+03  0.00000000000E+00 0. -1.
         11    1    3    3    0    0 -0.21444591079E+02 -0.81289111898E-01 -0.27891479361E+01  0.21625365677E+02  0.00000000000E+00 0.  1.
          2    1    1    2  501    0  0.11404525375E+03 -0.28184504167E+02 -0.12883425474E+03  0.17435295057E+03  0.00000000000E+00 0. -1.
<scales pt_clust_5="13000.00000" pt_clust_6="13000.00000" pt_clust_7="13000.00000" pt_clust_8="13000.00000" pt_clust_9="115.32329"></scales>
<clustering>
<clus scale="   76.239">  5  6 -1 -1</clus>
<clus scale="   93.550">  7  8 -1 -1</clus>
<clus scale="   98.962">  2  7  1 -1</clus>
<clus scale="  115.323">  1  9  2 -1</clus>
<clus scale="  115.323">  1  5  2 -1</clus>
</clustering>
</event>
<event>
 9    1  0.7719620E-005  0.1047810E+03  0.7546771E-02  0.1277497E+00
          1   -1    0    0  502    0 -0.00000000000E+00  0.00000000000E+00  0.54005670287E+03  0.54005670287E+03  0.00000000000E+00 0. -1.
         21   -1    0    0  501  502  0.00000000000E+00 -0.00000000000E+00 -0.49028734310E+02  0.49028734310E+02  0.00000000000E+00 0.  1.
        -24    2    1    2    0    0  0.26533478801E+02  0.47133298760E+02  0.26386916708E+03  0.28009962821E+03  0.76832877303E+02 0.  0.
         23    2    1    2    0    0 -0.28198678554E+01 -0.47735246130E+02  0.25327958927E+03  0.27370134724E+03  0.92061239214E+02 0.  0.
         11    1    3    3    0    0 -0.18150073139E+02  0.44645573171E+02  0.15723376659E+03  0.16445397446E+03  0.00000000000E+00 0. -1.
        -12    1    3    3    0    0  0.44683551940E+02  0.24877255885E+01  0.10663540049E+03  0.11564565375E+03  0.00000000000E+00 0.  1.
        -13    1    4    4    0    0 -0.24761453613E+02 -0.11798821010E+02  0.14094012890E+02  0.30838011634E+02  0.00000000000E+00 0.  1.
         13    1    4    4    0    0  0.21941585757E+02 -0.35936425120E+02  0.23918557638E+03  0.24286333561E+03  0.00000000000E+00 0. -1.
          2    1    1    2  501    0 -0.23713610945E+02  0.60194737067E+00 -0.26120787792E+02  0.35284461730E+02  0.00000000000E+00 0. -1.
<scales pt_clust_5="13000.00000" pt_clust_6="13000.00000" pt_clust_7="13000.00000" pt_clust_8="13000.00000" pt_clust_9="23.72125"></scales>
<clustering>
<clus scale="   23.721">  2  9  1 -1</clus>
<clus scale="   76.833">  5  6 -1 -1</clus>
<clus scale="   91.690">  1  5  2 -1</clus>
<clus scale="   92.061">  7  8 -1 -1</clus>
<clus scale="   23.721">  2  5  1 -1</clus>
</clustering>
</event>
<event>
 9    1  0.7719620E-005  0.1259836E+03  0.7546771E-02  0.1239480E+00
         21   -1    0    0  501  502  0.00000000000E+00  0.00000000000E+00  0.84099625334E+02  0.84099625334E+02  0.00000000000E+00 0. -1.
          1   -1    0    0  502    0 -0.00000000000E+00 -0.00000000000E+00 -0.31641653322E+03  0.31641653322E+03  0.00000000000E+00 0. -1.
        -24    2    1    2    0    0  0.37652656937E+02 -0.82524986050E+02 -0.23203522223E+03  0.25905818175E+03  0.71011979833E+02 0.  0.
         23    2    1    2    0    0 -0.38458848996E+02  0.56414809599E+02 -0.59950205776E+01  0.11471786730E+03  0.91992037693E+02 0.  0.
         11    1    3    3    0    0  0.14335236284E+02 -0.89638828927E+02 -0.17998440179E+03  0.20158125790E+03  0.00000000000E+00 0. -1.
        -12    1    3    3    0    0  0.23317420652E+02  0.71138428765E+01 -0.52050820444E+02  0.57476923850E+02  0.00000000000E+00 0.  1.
        -11    1    4    4    0    0  0.21694546788E+02  0.31395423675E+01  0.20596505972E+02  0.30078665942E+02  0.00000000000E+00 0. -1.
         11    1    4    4    0    0 -0.60153395784E+02  0.53275267231E+02 -0.26591526550E+02  0.84639201362E+02  0.00000000000E+00 0.  1.
          2    1    1    2  501    0  0.80619205932E+00  0.26110176451E+02  0.57133349235E+01  0.26740109497E+02  0.00000000000E+00 0. -1.
<scales pt_clust_5="13000.00000" pt_clust_6="13000.00000" pt_clust_7="13000.00000" pt_clust_8="13000.00000" pt_clust_9="26.12262"></scales>
<clustering>
<clus scale="   26.123">  1  9  2 -1</clus>
<clus scale="   71.012">  5  6 -1 -1</clus>
<clus scale="   91.992">  7  8 -1 -1</clus>
<clus scale="  111.589">  2  5  1 -1</clus>
<clus scale="   26.123">  1  5  2 -1</clus>
</clustering>
</event>
<event>
 9    1  0.7719620E-005  0.3242106E+03  0.7546771E-02  0.1122111E+00
         21   -1    0    0  501  502  0.00000000000E+00  0.00000000000E+00  0.61766684990E+03  0.61766684990E+03  0.00000000000E+00 0. -1.
          1   -1    0    0  502    0 -0.00000000000E+00 -0.00000000000E+00 -0.27912565424E+03  0.27912565424E+03  0.00000000000E+00 0. -1.
         23    2    1    2    0    0  0.26963468260E+01 -0.45641832505E+00 -0.46104663202E+02  0.10280015568E+03  0.91840913729E+02 0.  0.
        -24    2    1    2    0    0 -0.25720156447E+03 -0.18340585112E+03  0.40321026050E+02  0.32801184411E+03  0.78585200542E+02 0.  0.
         11    1    4    4    0    0 -0.24573476828E+03 -0.19038966483E+03  0.44318900268E+02  0.31400313014E+03  0.00000000000E+00 0. -1.
        -12    1    4    4    0    0 -0.11466796193E+02  0.69838137130E+01 -0.39978742180E+01  0.14008713973E+02  0.00000000000E+00 0.  1.
        -11    1    3    3    0    0  0.36008896499E+02 -0.23184744844E+02 -0.17640193539E+01  0.42863560104E+02  0.00000000000E+00 0. -1.
         11    1    3    3    0    0 -0.33312549673E+02  0.22728326519E+02 -0.44340643848E+02  0.59936595573E+02  0.00000000000E+00 0.  1.
          2    1    1    2  501    0  0.25450521765E+03  0.18386226945E+03  0.34432483282E+03  0.46598050434E+03  0.00000000000E+00 0. -1.
<scales pt_clust_5="13000.00000" pt_clust_6="13000.00000" pt_clust_7="13000.00000" pt_clust_8="13000.00000" pt_clust_9="314.54238"></scales>
<clustering>
<clus scale="   78.585">  5  6 -1 -1</clus>
<clus scale="   91.841">  7  8 -1 -1</clus>
<clus scale="   91.882">  2  7  1 -1</clus>
<clus scale="  314.542">  1  9  2 -1</clus>
<clus scale="  314.542">  1  5  2 -1</clus>
</clustering>
</event>
<event>
 9    1  0.7719620E-005  0.1180422E+03  0.7546771E-02  0.1250641E+00
         -4   -1    0    0    0  501 -0.00000000000E+00  0.00000000000E+00  0.24832564193E+03  0.24832564193E+03  0.00000000000E+00 0.  1.
         21   -1    0    0  501  502  0.00000000000E+00 -0.00000000000E+00 -0.88650983582E+03  0.88650983582E+03  0.00000000000E+00 0.  1.
         23    2    1    2    0    0  0.20418930317E+02 -0.67832508409E+02  0.21763781787E+03  0.24747295712E+03  0.94119407276E+02 0.  0.
        -24    2    1    2    0    0  0.34973627577E+02  0.10560200990E+03 -0.74630745570E+03  0.75895571123E+03  0.81633412622E+02 0.  0.
         13    1    4    4    0    0  0.27266549978E+02  0.15370832445E+01 -0.80152516140E+02  0.84677347715E+02  0.00000000000E+00 0. -1.
        -14    1    4    4    0    0  0.77070775992E+01  0.10406492666E+03 -0.66615493956E+03  0.67427836351E+03  0.00000000000E+00 0.  1.
        -11    1    3    3    0    0 -0.16877637109E+02  0.17693621816E+02  0.42552170537E+02  0.49077551943E+02  0.00000000000E+00 0. -1.
         11    1    3    3    0    0  0.37296567427E+02 -0.85526130225E+02  0.17508564733E+03  0.19839540517E+03  0.00000000000E+00 0.  1.
         -3    1    1    2    0  502 -0.55392557895E+02 -0.37769501493E+02 -0.10951455606E+03  0.12840680941E+03  0.00000000000E+00 0.  1.
<scales pt_clust_5="13000.00000" pt_clust_6="13000.00000" pt_clust_7="13000.00000" pt_clust_8="13000.00000" pt_clust_9="67.04380"></scales>
<clustering>
<clus scale="   67.044">  2  9  1 -1</clus>
<clus scale="   81.633">  5  6 -1 -1</clus>
<clus scale="   94.119">  7  8 -1 -1</clus>
<clus scale="  108.349">  2  5  1 -1</clus>
<clus scale="   67.044">  2  5  1 -1</clus>
</clustering>
</event>
<event>
 9    1  0.7719620E-005  0.1171443E+03  0.7546771E-02  0.1247908E+00
         21   -1    0    0  501  502  0.00000000000E+00  0.00000000000E+00  0.22233837346E+03  0.22233837346E+03  0.00000000000E+00 0. -1.
          1   -1    0    0  502    0 -0.00000000000E+00 -0.00000000000E+00 -0.18911809819E+03  0.18911809819E+03  0.00000000000E+00 0. -1.
         23    2    1    2    0    0  0.54510156742E+02  0.36429411782E+02 -0.74262102785E+02  0.13411626634E+03  0.90409367629E+02 0.  0.
        -24    2    1    2    0    0 -0.86004999113E+02 -0.28869101314E+02 -0.33700893103E+02  0.13248924935E+03  0.90484065526E+02 0.  0.
         13    1    4    4    0    0 -0.24025198185E+02 -0.53567307284E+02 -0.29328941988E+02  0.65626621090E+02  0.00000000000E+00 0. -1.
        -14    1    4    4    0    0 -0.61979800928E+02  0.24698205971E+02 -0.43719511153E+01  0.66862628260E+02  0.00000000000E+00 0.  1.
        -11    1    3    3    0    0  0.44504263780E+02  0.58224618022E+01 -0.88250249849E+02  0.99008268112E+02  0.00000000000E+00 0. -1.
         11    1    3    3    0    0  0.10005892962E+02  0.30606949980E+02  0.13988147064E+02  0.35107998225E+02  0.00000000000E+00 0.  1.
          2    1    1    2  501    0  0.31494842370E+02 -0.75603104686E+01  0.14118327116E+03  0.14485095597E+03  0.00000000000E+00 0. -1.
<scales pt_clust_5="13000.00000" pt_clust_6="13000.00000" pt_clust_7="13000.00000" pt_clust_8="13000.00000" pt_clust_9="32.38956"></scales>
<clustering>
<clus scale="   32.390">  1  9  2 -1</clus>
<clus scale="   90.409">  7  8 -1 -1</clus>
<clus scale="   90.484">  5  6 -1 -1</clus>
<clus scale="  117.087">  2  7  1 -1</clus>
<clus scale="   32.390">  1  5  2 -1</clus>
</clustering>
</event>
<event>
 9    1  0.7719620E-005  0.1461927E+03  0.7546771E-02  0.1207390E+00
         21   -1    0    0  501  502  0.00000000000E+00  0.00000000000E+00  0.37923423574E+03  0.37923423574E+03  0.00000000000E+00 0. -1.
         -2   -1    0    0    0  501 -0.00000000000E+00 -0.00000000000E+00 -0.27712732566E+03  0.27712732566E+03  0.00000000000E+00 0.  1.
         23    2    1    2    0    0  0.46702189907E+01 -0.98734774368E+02 -0.16044894737E+03  0.20987678651E+03  0.92379836489E+02 0.  0.
        -24    2    1    2    0    0 -0.32186156480E+02  0.19250348015E+03  0.57260866140E+02  0.21911782378E+03  0.81487884784E+02 0.  0.
         11    1    4    4    0    0 -0.28268583856E+01  0.43880070445E+02  0.51215578131E+02  0.67501756672E+02  0.00000000000E+00 0. -1.
        -12    1    4    4    0    0 -0.29359298094E+02  0.14862340971E+03  0.60452880091E+01  0.15161606711E+03  0.00000000000E+00 0.  1.
        -13    1    3    3    0    0 -0.40790732214E+02 -0.61228180516E+02 -0.10978712424E+03  0.13215894435E+03  0.00000000000E+00 0. -1.
         13    1    3    3    0    0  0.45460951205E+02 -0.37506593851E+02 -0.50661823127E+02  0.77717842156E+02  0.00000000000E+00 0.  1.
         -1    1    1    2    0  502  0.27515937489E+02 -0.93768705785E+02  0.20529499131E+03  0.22736695111E+03  0.00000000000E+00 0.  1.
<scales pt_clust_5="13000.00000" pt_clust_6="13000.00000" pt_clust_7="13000.00000" pt_clust_8="13000.00000" pt_clust_9="97.72255"></scales>
<clustering>
<clus scale="   81.488">  5  6 -1 -1</clus>
<clus scale="   92.380">  7  8 -1 -1</clus>
<clus scale="   97.723">  1  9  2 -1</clus>
<clus scale="  139.566">  1  5  2 -1</clus>
<clus scale="   97.723">  1  5  2 -1</clus>
</clustering>
</event>
<event>
 9    1  0.7719620E-005  0.9446530E+02  0.7546771E-02  0.1298594E+00
          1   -1    0    0  502    0 -0.00000000000E+00  0.00000000000E+00  0.33000097663E+03  0.33000097663E+03  0.00000000000E+00 0. -1.
         21   -1    0    0  501  502  0.00000000000E+00 -0.00000000000E+00 -0.84485521835E+02  0.84485521835E+02  0.00000000000E+00 0. -1.
         23    2    1    2    0    0  0.19756722943E+02 -0.10532173146E+02  0.26807177075E+03  0.28424100293E+03  0.91810776605E+02 0.  0.
        -24    2    1    2    0    0 -0.27377314886E+02 -0.94926597678E+01  0.14523879097E+02  0.87420173349E+02  0.81189381599E+02 0.  0.
         13    1    4    4    0    0  0.25949205134E+02  0.72201816377E+01  0.16345003519E+02  0.31506370943E+02  0.00000000000E+00 0. -1.
        -14    1    4    4    0    0 -0.53326520020E+02 -0.16712841405E+02 -0.18211244215E+01  0.55913802406E+02  0.00000000000E+00 0.  1.
        -13    1    3    3    0    0 -0.65380992328E+01  0.31696240232E+02  0.43460011953E+02  0.54186446879E+02  0.00000000000E+00 0.  1.
         13    1    3    3    0    0  0.26294822176E+02 -0.42228413378E+02  0.22461175880E+03  0.23005455606E+03  0.00000000000E+00 0. -1.
          2    1    1    2  501    0  0.76205919421E+01  0.20024832913E+02 -0.37080195055E+02  0.42825322183E+02  0.00000000000E+00 0. -1.
<scales pt_clust_5="13000.00000" pt_clust_6="13000.00000" pt_clust_7="13000.00000" pt_clust_8="13000.00000" pt_clust_9="21.42586"></scales>
<clustering>
<clus scale="   21.426">  2  9  1 -1</clus>
<clus scale="   81.189">  5  6 -1 -1</clus>
<clus scale="   84.180">  2  5  1 -1</clus>
<clus scale="   91.811">  7  8 -1 -1</clus>
<clus scale="   21.426">  2  5  1 -1</clus>
</clustering>
</event>
<event>
 9    1  0.7719620E-005  0.1300920E+03  0.7546771E-02  0.1229691E+00
         21   -1    0    0  501  502  0.00000000000E+00  0.00000000000E+00  0.54219033574E+02  0.54219033574E+02  0.00000000000E+00 0. -1.
          1   -1    0    0  502    0 -0.00000000000E+00 -0.00000000000E+00 -0.81140974363E+03  0.81140974363E+03  0.00000000000E+00 0. -1.
         23    2    1    2    0    0 -0.10714653502E+03  0.34574917779E+02 -0.47371109157E+03  0.49517555029E+03  0.90115605853E+02 0.  0.
        -24    2    1    2    0    0  0.60320196943E+02  0.67913649926E+02 -0.11238447545E+03  0.16558702566E+03  0.80857916980E+02 0.  0.
         13    1    4    4    0    0  0.45415417634E+02  0.10684972724E+02 -0.10560619923E+02  0.47835713584E+02  0.00000000000E+00 0. -1.
        -14    1    4    4    0    0  0.14904779309E+02  0.57228677201E+02 -0.10182385553E+03  0.11775131207E+03  0.00000000000E+00 0.  1.
        -13    1    3    3    0    0 -0.10366344081E+03  0.58976724544E+02 -0.37998797276E+03  0.39826526643E+03  0.00000000000E+00 0. -1.
         13    1    3    3    0    0 -0.34830942153E+01 -0.24401806765E+02 -0.93723118807E+02  0.96910283859E+02  0.00000000000E+00 0.  1.
          2    1    1    2  501    0  0.46826338081E+02 -0.10248856770E+03 -0.17109514303E+03  0.20486620126E+03  0.00000000000E+00 0. -1.
<scales pt_clust_5="13000.00000" pt_clust_6="13000.00000" pt_clust_7="13000.00000" pt_clust_8="13000.00000" pt_clust_9="112.67925"></scales>
<clustering>
<clus scale="   80.858">  5  6 -1 -1</clus>
<clus scale="   90.116">  7  8 -1 -1</clus>
<clus scale="  112.679">  1  9  2 -1</clus>
<clus scale="  123.859">  1  5  2 -1</clus>
<clus scale="  112.679">  1  5  2 -1</clus>
</clustering>
</event>
<event>
 9    1  0.7719620E-005  0.1209212E+03  0.7546771E-02  0.1245075E+00
         21   -1    0    0  501  502  0.00000000000E+00  0.00000000000E+00  0.33545506481E+03  0.33545506481E+03  0.00000000000E+00 0.  1.
          3   -1    0    0  502    0 -0.00000000000E+00 -0.00000000000E+00 -0.90129239324E+02  0.90129239324E+02  0.00000000000E+00 0. -1.
         23    2    1    2    0    0 -0.75801763488E+02  0.75957343459E+02  0.20824614496E+02  0.14314920409E+03  0.92426212128E+02 0.  0.
        -24    2    1    2    0    0  0.27841174506E+02 -0.77255464194E+01  0.13359844660E+03  0.15906934793E+03  0.81361523156E+02 0.  0.
         13    1    4    4    0    0 -0.13875840093E+02  0.26152179077E+02  0.28838586925E+02  0.41329644380E+02  0.00000000000E+00 0. -1.
        -14    1    4    4    0    0  0.41717014599E+02 -0.33877725496E+02  0.10475985968E+03  0.11773970355E+03  0.00000000000E+00 0.  1.
        -11    1    3    3    0    0 -0.53293643313E+02  0.84889802324E+02 -0.13505281182E+02  0.10113794330E+03  0.00000000000E+00 0.  1.
         11    1    3    3    0    0 -0.22508120175E+02 -0.89324588651E+01  0.34329895677E+02  0.42011260781E+02  0.00000000000E+00 0. -1.
          4    1    1    2  501    0  0.47960588982E+02 -0.68231797039E+02  0.90902764390E+02  0.12336575212E+03  0.00000000000E+00 0. -1.
<scales pt_clust_5="13000.00000" pt_clust_6="13000.00000" pt_clust_7="13000.00000" pt_clust_8="13000.00000" pt_clust_9="83.40142"></scales>
<clustering>
<clus scale="   81.362">  5  6 -1 -1</clus>
<clus scale="   83.401">  1  9  2 -1</clus>
<clus scale="   92.426">  7  8 -1 -1</clus>
<clus scale="  112.690">  1  5  2 -1</clus>
<clus scale="   83.401">  1  5  2 -1</clus>
</clustering>
</event>
<event>
 9    1  0.7719620E-005  0.9021220E+02  0.7546771E-02  0.1309472E+00
          3   -1    0    0  502    0 -0.00000000000E+00  0.00000000000E+00  0.43934859950E+03  0.43934859950E+03  0.00000000000E+00 0. -1.
         21   -1    0    0  501  502  0.00000000000E+00 -0.00000000000E+00 -0.12149488973E+03  0.12149488973E+03  0.00000000000E+00 0. -1.
        -24    2    1    2    0    0  0.42735908436E+01  0.47189769002E+01  0.32443736636E+03  0.33385189855E+03  0.78466254862E+02 0.  0.
         23    2    1    2    0    0 -0.22509499889E+02 -0.19280583437E+02  0.88333430176E+02  0.12924783321E+03  0.89575605055E+02 0.  0.
         13    1    3    3    0    0  0.28630740175E+02 -0.21173521907E+02  0.90927474794E+02  0.97651640977E+02  0.00000000000E+00 0. -1.
        -14    1    3    3    0    0 -0.24357149332E+02  0.25892498807E+02  0.23350989156E+03  0.23620025757E+03  0.00000000000E+00 0.  1.
        -13    1    4    4    0    0  0.15013386863E+02 -0.45664819902E+02  0.39163641692E+02  0.62003777242E+02  0.00000000000E+00 0. -1.
         13    1    4    4    0    0 -0.37522886752E+02  0.26384236465E+02  0.49169788484E+02  0.67244055972E+02  0.00000000000E+00 0.  1.
          4    1    1    2  501    0  0.18235909046E+02  0.14561606537E+02 -0.94917086767E+02  0.97743757468E+02  0.00000000000E+00 0. -1.
<scales pt_clust_5="13000.00000" pt_clust_6="13000.00000" pt_clust_7="13000.00000" pt_clust_8="13000.00000" pt_clust_9="23.33643"></scales>
<clustering>
<clus scale="   23.336">  2  9  1 -1</clus>
<clus scale="   78.466">  5  6 -1 -1</clus>
<clus scale="   79.192">  1  5  2 -1</clus>
<clus scale="   89.576">  7  8 -1 -1</clus>
<clus scale="   23.336">  2  5  1 -1</clus>
</clustering>
</event>
<event>
 9    1  0.7719620E-005  0.1225514E+03  0.7546771E-02  0.1241655E+00
         21   -1    0    0  501  502  0.00000000000E+00  0.00000000000E+00  0.31823426025E+03  0.31823426025E+03  0.00000000000E+00 0.  1.
          1   -1    0    0  502    0 -0.00000000000E+00 -0.00000000000E+00 -0.13762607777E+03  0.13762607777E+03  0.00000000000E+00 0. -1.
         23    2    1    2    0    0  0.22698488473E+02 -0.10018571481E+03  0.42388166936E+02  0.14239677604E+03  0.89037555550E+02 0.  0.
        -24    2    1    2    0    0  0.52335587343E+01  0.43367500514E+02  0.20327010603E+03  0.22268898950E+03  0.79771672910E+02 0.  0.
         13    1    4    4    0    0 -0.12938993954E+02  0.54285346805E+02  0.79591711445E+02  0.97206774317E+02  0.00000000000E+00 0. -1.
        -14    1    4    4    0    0  0.18172552688E+02 -0.10917846291E+02  0.12367839459E+03  0.12548221518E+03  0.00000000000E+00 0.  1.
        -13    1    3    3    0    0  0.22773838362E+02 -0.74086888618E+01  0.43450848758E+02  0.49613633632E+02  0.00000000000E+00 0. -1.
         13    1    3    3    0    0 -0.75349889021E-01 -0.92777025952E+02 -0.10626818221E+01  0.92783142406E+02  0.00000000000E+00 0.  1.
          2    1    1    2  501    0 -0.27932047208E+02  0.56818214299E+02 -0.65050090488E+02  0.90774572485E+02  0.00000000000E+00 0. -1.
<scales pt_clust_5="13000.00000" pt_clust_6="13000.00000" pt_clust_7="13000.00000" pt_clust_8="13000.00000" pt_clust_9="63.31282"></scales>
<clustering>
<clus scale="   63.313">  1  9  2 -1</clus>
<clus scale="   79.772">  5  6 -1 -1</clus>
<clus scale="   89.038">  7  8 -1 -1</clus>
<clus scale="  115.994">  1  5  2 -1</clus>
<clus scale="   63.313">  1  5  2 -1</clus>
</clustering>
</event>
<event>
 9    1  0.7719620E-005  0.9758705E+02  0.7546771E-02  0.1289466E+00
         -2   -1    0    0    0  501 -0.00000000000E+00  0.00000000000E+00  0.92245511198E+02  0.92245511198E+02  0.00000000000E+00 0.  1.
         21   -1    0    0  501  502  0.00000000000E+00 -0.00000000000E+00 -0.20167113874E+03  0.20167113874E+03  0.00000000000E+00 0.  1.
        -24    2    1    2    0    0 -0.40475797843E+01  0.38513362460E+02 -0.30744337560E+02  0.95570998253E+02  0.81785936596E+02 0.  0.
         23    2    1    2    0    0 -0.26318410468E+02 -0.37873047361E+02 -0.11375132379E+03  0.15195157190E+03  0.89570587201E+02 0.  0.
         11    1    3    3    0    0 -0.38739878241E+02  0.14454641597E+02  0.30956467382E+01  0.41464416776E+02  0.00000000000E+00 0. -1.
        -12    1    3    3    0    0  0.34692298457E+02  0.24058720863E+02 -0.33839984298E+02  0.54106581477E+02  0.00000000000E+00 0.  1.
        -11    1    4    4    0    0 -0.38091167042E+01 -0.59430529121E+02 -0.10300972760E+03  0.11898529800E+03  0.00000000000E+00 0.  1.
         11    1    4    4    0    0 -0.22509293764E+02  0.21557481761E+02 -0.10741596198E+02  0.32966273894E+02  0.00000000000E+00 0. -1.
         -1    1    1    2    0  502  0.30365990252E+02 -0.64031509890E+00  0.35070033814E+02  0.46394079785E+02  0.00000000000E+00 0.  1.
<scales pt_clust_5="13000.00000" pt_clust_6="13000.00000" pt_clust_7="13000.00000" pt_clust_8="13000.00000" pt_clust_9="30.37276"></scales>
<clustering>
<clus scale="   30.373">  2  9  1 -1</clus>
<clus scale="   81.786">  5  6 -1 -1</clus>
<clus scale="   89.571">  7  8 -1 -1</clus>
<clus scale="   90.495">  1  5  2 -1</clus>
<clus scale="   30.373">  2  5  1 -1</clus>
</clustering>
</event>
<event>
 9    1  0.7719620E-005  0.9710813E+02  0.7546771E-02  0.1291447E+00
         21   -1    0    0  501  502  0.00000000000E+00  0.00000000000E+00  0.10169530172E+03  0.10169530172E+03  0.00000000000E+00 0.  1.
          1   -1    0    0  502    0 -0.00000000000E+00 -0.00000000000E+00 -0.19467312225E+03  0.19467312225E+03  0.00000000000E+00 0. -1.
         23    2    1    2    0    0  0.11911980893E+02 -0.26027000373E+02  0.26917350436E+01  0.96650612244E+02  0.92275648859E+02 0.  0.
        -24    2    1    2    0    0 -0.31430642407E+02  0.16315753246E+02  0.10804410416E+02  0.91034823621E+02  0.83165586279E+02 0.  0.
         13    1    4    4    0    0 -0.49573493120E+01 -0.33493430367E+02  0.63804404093E+01  0.34454248066E+02  0.00000000000E+00 0. -1.
        -14    1    4    4    0    0 -0.26473293095E+02  0.49809183613E+02  0.44239700071E+01  0.56580575555E+02  0.00000000000E+00 0.  1.
        -11    1    3    3    0    0 -0.31675855281E+02 -0.97085461388E+01  0.28261544804E+02  0.43546878081E+02  0.00000000000E+00 0. -1.
         11    1    3    3    0    0  0.43587836174E+02 -0.16318454235E+02 -0.25569809760E+02  0.53103734163E+02  0.00000000000E+00 0.  1.
          2    1    1    2  501    0  0.19518661514E+02  0.97112471274E+01 -0.10647396599E+03  0.10868298810E+03  0.00000000000E+00 0. -1.
<scales pt_clust_5="13000.00000" pt_clust_6="13000.00000" pt_clust_7="13000.00000" pt_clust_8="13000.00000" pt_clust_9="21.80108"></scales>
<clustering>
<clus scale="   21.801">  1  9  2 -1</clus>
<clus scale="   83.166">  5  6 -1 -1</clus>
<clus scale="   88.497">  1  5  2 -1</clus>
<clus scale="   92.276">  7  8 -1 -1</clus>
<clus scale="   21.801">  1  5  2 -1</clus>
</clustering>
</event>
<event>
 9    1  0.7719620E-005  0.2438653E+03  0.7546771E-02  0.1117244E+00
         21   -1    0    0  501  502  0.00000000000E+00  0.00000000000E+00  0.23518404389E+02  0.23518404389E+02  0.00000000000E+00 0. -1.
          3   -1    0    0  502    0 -0.00000000000E+00 -0.00000000000E+00 -0.16980404449E+04  0.16980404449E+04  0.00000000000E+00 0. -1.
        -24    2    1    2    0    0  0.99758402139E+02  0.34278301604E+01 -0.59177780352E+03  0.60543784161E+03  0.79940743682E+02 0.  0.
         23    2    1    2    0    0  0.50701995564E+02 -0.42973566838E+02 -0.40124417910E+03  0.41708987428E+03  0.92464329108E+02 0.  0.
         11    1    3    3    0    0  0.10928992217E+03  0.16009856203E+02 -0.54462842844E+03  0.55571640937E+03  0.00000000000E+00 0. -1.
        -12    1    3    3    0    0 -0.95315200276E+01 -0.12582026043E+02 -0.47149375078E+02  0.49721432237E+02  0.00000000000E+00 0.  1.
        -11    1    4    4    0    0  0.46969378535E+02 -0.70430422811E+02 -0.27032752086E+03  0.28327289936E+03  0.00000000000E+00 0.  1.
         11    1    4    4    0    0  0.37326170288E+01  0.27456855974E+02 -0.13091665825E+03  0.13381697492E+03  0.00000000000E+00 0. -1.
          4    1    1    2  501    0 -0.15046039770E+03  0.39545736677E+02 -0.68150005793E+03  0.69903113345E+03  0.00000000000E+00 0. -1.
<scales pt_clust_5="13000.00000" pt_clust_6="13000.00000" pt_clust_7="13000.00000" pt_clust_8="13000.00000" pt_clust_9="155.57063"></scales>
<clustering>
<clus scale="   79.941">  5  6 -1 -1</clus>
<clus scale="   92.464">  7  8 -1 -1</clus>
<clus scale="  107.669">  5  7 -1 -1</clus>
<clus scale="  155.571">  1  9  2 -1</clus>
<clus scale="  155.571">  1  5  2 -1</clus>
</clustering>
</event>
<event>
 9    1  0.7719620E-005  0.1323404E+03  0.7546771E-02  0.1226872E+00
         21   -1    0    0  501  502  0.00000000000E+00  0.00000000000E+00  0.34351420549E+03  0.34351420549E+03  0.00000000000E+00 0.  1.
          3   -1    0    0  502    0 -0.00000000000E+00 -0.00000000000E+00 -0.11061332026E+03  0.11061332026E+03  0.00000000000E+00 0. -1.
        -24    2    1    2    0    0 -0.15265315334E+02 -0.10709301948E+03 -0.29614120546E+02  0.13806144094E+03  0.80510997163E+02 0.  0.
         23    2    1    2    0    0 -0.36985891039E+01  0.63946300055E+02  0.11216827150E+03  0.15850527251E+03  0.91866160407E+02 0.  0.
         13    1    3    3    0    0  0.16970426667E+01 -0.81332751450E+02 -0.54929928130E+02  0.98159021066E+02  0.00000000000E+00 0. -1.
        -14    1    3    3    0    0 -0.16962358001E+02 -0.25760268031E+02  0.25315807584E+02  0.39902419871E+02  0.00000000000E+00 0.  1.
        -13    1    4    4    0    0  0.29206166125E+02  0.72209338361E+02  0.82122152642E+02  0.11318673350E+03  0.00000000000E+00 0.  1.
         13    1    4    4    0    0 -0.32904755229E+02 -0.82630383069E+01  0.30046118861E+02  0.45318539003E+02  0.00000000000E+00 0. -1.
          4    1    1    2  501    0  0.18963904438E+02  0.43146719426E+02  0.15034673428E+03  0.15756081231E+03  0.00000000000E+00 0. -1.
<scales pt_clust_5="13000.00000" pt_clust_6="13000.00000" pt_clust_7="13000.00000" pt_clust_8="13000.00000" pt_clust_9="47.13034"></scales>
<clustering>
<clus scale="   47.130">  1  9  2 -1</clus>
<clus scale="   80.511">  5  6 -1 -1</clus>
<clus scale="   91.866">  7  8 -1 -1</clus>
<clus scale="  124.726">  2  5  1 -1</clus>
<clus scale="   47.130">  1  5  2 -1</clus>
</clustering>
</event>
<event>
 9    1  0.7719620E-005  0.9386485E+02  0.7546771E-02  0.1300034E+00
          1   -1    0    0  502    0 -0.00000000000E+00  0.00000000000E+00  0.58285341125E+02  0.58285341125E+02  0.00000000000E+00 0. -1.
         21   -1    0    0  501  502  0.00000000000E+00 -0.00000000000E+00 -0.31590652215E+03  0.31590652215E+03  0.00000000000E+00 0. -1.
        -24    2    1    2    0    0 -0.52248878473E+02  0.11159810551E+01 -0.26357377594E+02  0.96767233669E+02  0.77058389828E+02 0.  0.
         23    2    1    2    0    0 -0.10870411350E+02 -0.36045620203E+01 -0.11782499941E+03  0.14758395786E+03  0.88131353220E+02 0.  0.
         11    1    3    3    0    0 -0.43952145692E+02 -0.34881401288E+02 -0.14251427004E+02  0.57893060365E+02  0.00000000000E+00 0. -1.
        -12    1    3    3    0    0 -0.82967327803E+01  0.35997382343E+02 -0.12105950590E+02  0.38874173304E+02  0.00000000000E+00 0.  1.
        -11    1    4    4    0    0  0.38937856184E+02 -0.83127351308E+00 -0.53867116194E+02  0.66471902838E+02  0.00000000000E+00 0.  1.
         11    1    4    4    0    0 -0.49808267533E+02 -0.27732885073E+01 -0.63957883217E+02  0.81112055019E+02  0.00000000000E+00 0. -1.
          2    1    1    2  501    0  0.63119289822E+02  0.24885809652E+01 -0.11343880402E+03  0.12984067175E+03  0.00000000000E+00 0. -1.
<scales pt_clust_5="13000.00000" pt_clust_6="13000.00000" pt_clust_7="13000.00000" pt_clust_8="13000.00000" pt_clust_9="63.16833"></scales>
<clustering>
<clus scale="   63.168">  2  9  1 -1</clus>
<clus scale="   77.058">  5  6 -1 -1</clus>
<clus scale="   83.555">  1  5  2 -1</clus>
<clus scale="   88.131">  7  8 -1 -1</clus>
<clus scale="   63.168">  2  5  1 -1</clus>
</clustering>
</event>
<event>
 9    1  0.7719620E-005  0.1420388E+03  0.7546771E-02  0.1212355E+00
         21   -1    0    0  501  502  0.00000000000E+00  0.00000000000E+00  0.10916686082E+03  0.10916686082E+03  0.00000000000E+00 0. -1.
         -2   -1    0    0    0  501 -0.00000000000E+00 -0.00000000000E+00 -0.31424430419E+03  0.31424430419E+03  0.00000000000E+00 0.  1.
        -24    2    1    2    0    0 -0.99762016671E+02  0.81108251709E+01 -0.97404646270E+02  0.16252205333E+03  0.83111414669E+02 0.  0.
         23    2    1    2    0    0  0.12621214306E+03  0.42852252968E+02 -0.30116265206E+02  0.16439113160E+03  0.91387275243E+02 0.  0.
         13    1    3    3    0    0 -0.57679119962E+02 -0.28120336226E+02 -0.19912468972E+02  0.67187354536E+02  0.00000000000E+00 0. -1.
        -14    1    3    3    0    0 -0.42082896709E+02  0.36231161397E+02 -0.77492177299E+02  0.95334698793E+02  0.00000000000E+00 0.  1.
        -11    1    4    4    0    0  0.74781964778E+02  0.12614391685E+02  0.28249369374E+02  0.80928931808E+02  0.00000000000E+00 0. -1.
         11    1    4    4    0    0  0.51430178285E+02  0.30237861283E+02 -0.58365634580E+02  0.83462199787E+02  0.00000000000E+00 0.  1.
         -1    1    1    2    0  502 -0.26450126392E+02 -0.50963078139E+02 -0.77556531896E+02  0.96497980079E+02  0.00000000000E+00 0.  1.
<scales pt_clust_5="13000.00000" pt_clust_6="13000.00000" pt_clust_7="13000.00000" pt_clust_8="13000.00000" pt_clust_9="57.41818"></scales>
<clustering>
<clus scale="   57.418">  1  9  2 -1</clus>
<clus scale="   83.111">  5  6 -1 -1</clus>
<clus scale="   91.387">  7  8 -1 -1</clus>
<clus scale="  136.861">  2  5  1 -1</clus>
<clus scale="   57.418">  1  5  2 -1</clus>
</clustering>
</event>
<event>
 9    1  0.7719620E-005  0.1259237E+03  0.7546771E-02  0.1248056E+00
         21   -1    0    0  501  502  0.00000000000E+00  0.00000000000E+00  0.63827022002E+02  0.63827022002E+02  0.00000000000E+00 0. -1.
          1   -1    0    0  502    0 -0.00000000000E+00 -0.00000000000E+00 -0.72719201345E+03  0.72719201345E+03  0.00000000000E+00 0. -1.
        -24    2    1    2    0    0 -0.29619763477E+02 -0.39102095284E+02 -0.30858665170E+03  0.32258191522E+03  0.80168985126E+02 0.  0.
         23    2    1    2    0    0 -0.95992492203E+02  0.56214494262E+02 -0.42592389469E+02  0.13149299945E+03  0.55692632726E+02 0.  0.
         13    1    3    3    0    0 -0.10336849282E+02  0.24194357920E+02 -0.63852145641E+02  0.69060219455E+02  0.00000000000E+00 0. -1.
        -14    1    3    3    0    0 -0.19282914195E+02 -0.63296453203E+02 -0.24473450606E+03  0.25352169576E+03  0.00000000000E+00 0.  1.
        -11    1    4    4    0    0 -0.53814821686E+02  0.60630169280E+02 -0.20248741650E+02  0.83558745792E+02  0.00000000000E+00 0. -1.
         11    1    4    4    0    0 -0.42177670517E+02 -0.44156750179E+01 -0.22343647820E+02  0.47934253661E+02  0.00000000000E+00 0.  1.
          2    1    1    2  501    0  0.12561225568E+03 -0.17112398979E+02 -0.31218595028E+03  0.33694412078E+03  0.00000000000E+00 0. -1.
<scales pt_clust_5="13000.00000" pt_clust_6="13000.00000" pt_clust_7="13000.00000" pt_clust_8="13000.00000" pt_clust_9="112.93856"></scales>
<clustering>
<clus scale="   55.693">  7  8 -1 -1</clus>
<clus scale="   80.169">  5  6 -1 -1</clus>
<clus scale="   93.986">  2  5  1 -1</clus>
<clus scale="  112.939">  1  9  2 -1</clus>
<clus scale="  112.939">  1  5  2 -1</clus>
</clustering>
</event>
<event>
 9    1  0.7719620E-005  0.2267354E+03  0.7546771E-02  0.1154866E+00
         21   -1    0    0  501  502  0.00000000000E+00  0.00000000000E+00  0.14791288896E+03  0.14791288896E+03  0.00000000000E+00 0. -1.
          1   -1    0    0  502    0 -0.00000000000E+00 -0.00000000000E+00 -0.58517498374E+03  0.58517498374E+03  0.00000000000E+00 0. -1.
         23    2    1    2    0    0 -0.20418300334E+02 -0.78356107835E+02 -0.17806267952E+03  0.21563608957E+03  0.90752513260E+02 0.  0.
        -24    2    1    2    0    0  0.38788651817E+02  0.24808026223E+03 -0.92939614080E+02  0.27915348292E+03  0.78996956563E+02 0.  0.
         13    1    4    4    0    0  0.57888148787E+02  0.14187657088E+03 -0.71693496625E+02  0.16917433787E+03  0.00000000000E+00 0. -1.
        -14    1    4    4    0    0 -0.19099496970E+02  0.10620369135E+03 -0.21246117455E+02  0.10997914505E+03  0.00000000000E+00 0.  1.
        -11    1    3    3    0    0  0.32466970954E+02 -0.12930973567E+02 -0.73876364052E+02  0.81725341516E+02  0.00000000000E+00 0.  1.
         11    1    3    3    0    0 -0.52885271288E+02 -0.65425134268E+02 -0.10418631546E+03  0.13391074805E+03  0.00000000000E+00 0. -1.
          2    1    1    2  501    0 -0.18370351483E+02 -0.16972415439E+03 -0.16625980118E+03  0.23829830022E+03  0.00000000000E+00 0. -1.
<scales pt_clust_5="13000.00000" pt_clust_6="13000.00000" pt_clust_7="13000.00000" pt_clust_8="13000.00000" pt_clust_9="212.52872"></scales>
<clustering>
<clus scale="   78.997">  5  6 -1 -1</clus>
<clus scale="   90.753">  7  8 -1 -1</clus>
<clus scale="  121.625">  2  7  1 -1</clus>
<clus scale="  212.529">  1  9  2 -1</clus>
<clus scale="  212.529">  1  5  2 -1</clus>
</clustering>
</event>
<event>
 9    1  0.7719620E-005  0.1101748E+03  0.7546771E-02  0.1264772E+00
         21   -1    0    0  501  502  0.00000000000E+00  0.00000000000E+00  0.24592216041E+03  0.24592216041E+03  0.00000000000E+00 0. -1.
          1   -1    0    0  502    0 -0.00000000000E+00 -0.00000000000E+00 -0.12433609660E+03  0.12433609660E+03  0.00000000000E+00 0. -1.
         23    2    1    2    0    0 -0.64890560831E+01  0.24189106448E+02  0.72312304346E+02  0.11873134825E+03  0.90779088882E+02 0.  0.
        -24    2    1    2    0    0  0.13306255156E+01 -0.11043860697E+03  0.82470526034E+02  0.15896551802E+03  0.79184542573E+02 0.  0.
         13    1    4    4    0    0 -0.34140428324E+02 -0.27002956834E+02  0.38896693271E+02  0.58375348147E+02  0.00000000000E+00 0. -1.
        -14    1    4    4    0    0  0.35471053840E+02 -0.83435650134E+02  0.43573832763E+02  0.10059016987E+03  0.00000000000E+00 0.  1.
        -11    1    3    3    0    0  0.20254638619E+02 -0.71219706439E+01  0.74463915583E+02  0.77497403669E+02  0.00000000000E+00 0. -1.
         11    1    3    3    0    0 -0.26743694702E+02  0.31311077092E+02 -0.21516112373E+01  0.41233944583E+02  0.00000000000E+00 0.  1.
          2    1    1    2  501    0  0.51584305675E+01  0.86249500519E+02 -0.33196766568E+02  0.92561390743E+02  0.00000000000E+00 0. -1.
<scales pt_clust_5="13000.00000" pt_clust_6="13000.00000" pt_clust_7="13000.00000" pt_clust_8="13000.00000" pt_clust_9="86.40366"></scales>
<clustering>
<clus scale="   79.185">  5  6 -1 -1</clus>
<clus scale="   86.404">  1  9  2 -1</clus>
<clus scale="   90.779">  7  8 -1 -1</clus>
<clus scale="  100.836">  1  5  2 -1</clus>
<clus scale="   86.404">  1  5  2 -1</clus>
</clustering>
</event>
<event>
 9    1  0.7719620E-005  0.1402449E+03  0.7546771E-02  0.1239996E+00
         21   -1    0    0  501  502  0.00000000000E+00  0.00000000000E+00  0.47819226479E+02  0.47819226479E+02  0.00000000000E+00 0.  1.
         -2   -1    0    0    0  501 -0.00000000000E+00 -0.00000000000E+00 -0.64438071906E+03  0.64438071906E+03  0.00000000000E+00 0.  1.
         23    2    1    2    0    0 -0.26250216898E+00 -0.19493600356E+02 -0.74199594449E+02  0.10914732007E+03  0.77636900377E+02 0.  0.
        -24    2    1    2    0    0 -0.59537440090E+02  0.11184881693E+03 -0.31325765479E+03  0.34676867826E+03  0.77867151722E+02 0.  0.
         13    1    4    4    0    0  0.18258504755E+02  0.33035293824E+02 -0.88352945636E+02  0.96077815527E+02  0.00000000000E+00 0. -1.
        -14    1    4    4    0    0 -0.77795944845E+02  0.78813523109E+02 -0.22490470916E+03  0.25069086274E+03  0.00000000000E+00 0.  1.
        -11    1    3    3    0    0 -0.84780278107E+01  0.28073917456E+02 -0.15571527989E+02  0.33203829309E+02  0.00000000000E+00 0. -1.
         11    1    3    3    0    0  0.82155256417E+01 -0.47567517812E+02 -0.58628066459E+02  0.75943490762E+02  0.00000000000E+00 0.  1.
         -1    1    1    2    0  502  0.59799942259E+02 -0.92355216576E+02 -0.20910424334E+03  0.23628394720E+03  0.00000000000E+00 0.  1.
<scales pt_clust_5="13000.00000" pt_clust_6="13000.00000" pt_clust_7="13000.00000" pt_clust_8="13000.00000" pt_clust_9="116.64191"></scales>
<clustering>
<clus scale="   77.637">  7  8 -1 -1</clus>
<clus scale="   77.867">  5  6 -1 -1</clus>
<clus scale="   80.047">  2  7  1 -1</clus>
<clus scale="  116.642">  1  9  2 -1</clus>
<clus scale="  116.642">  1  5  2 -1</clus>
</clustering>
</event>
<event>
 9    1  0.7719620E-005  0.1995629E+03  0.7546771E-02  0.1167200E+00
         21   -1    0    0  501  502  0.00000000000E+00  0.00000000000E+00  0.10247775129E+03  0.10247775129E+03  0.00000000000E+00 0.  1.
         -4   -1    0    0    0  501 -0.00000000000E+00 -0.00000000000E+00 -0.82108865853E+03  0.82108865853E+03  0.00000000000E+00 0.  1.
        -24    2    1    2    0    0 -0.35796362161E+01  0.10802033263E+03 -0.24266591363E+03  0.27716993328E+03  0.79089950167E+02 0.  0.
         23    2    1    2    0    0 -0.14719872922E+03  0.10290547336E+02 -0.40638733495E+03  0.44250962634E+03  0.94290732046E+02 0.  0.
         11    1    3    3    0    0 -0.24213113759E+02  0.69300328637E+02 -0.79501265719E+02  0.10820934192E+03  0.00000000000E+00 0. -1.
        -12    1    3    3    0    0  0.20633477543E+02  0.38720003997E+02 -0.16316464791E+03  0.16896059136E+03  0.00000000000E+00 0.  1.
        -13    1    4    4    0    0 -0.74261396666E+02  0.36987356230E+01 -0.32336298570E+03  0.33180122995E+03  0.00000000000E+00 0. -1.
         13    1    4    4    0    0 -0.72937332558E+02  0.65918117134E+01 -0.83024349251E+02  0.11070839639E+03  0.00000000000E+00 0.  1.
         -3    1    1    2    0  502  0.15077836544E+03 -0.11831087997E+03 -0.69557658661E+02  0.20388685020E+03  0.00000000000E+00 0.  1.
<scales pt_clust_5="13000.00000" pt_clust_6="13000.00000" pt_clust_7="13000.00000" pt_clust_8="13000.00000" pt_clust_9="175.88236"></scales>
<clustering>
<clus scale="   79.090">  5  6 -1 -1</clus>
<clus scale="   94.291">  7  8 -1 -1</clus>
<clus scale="  133.927">  2  5  1 -1</clus>
<clus scale="  175.882">  1  9  2 -1</clus>
<clus scale="  175.882">  1  5  2 -1</clus>
</clustering>
</event>
<event>
 9    1  0.7719620E-005  0.1714866E+03  0.7546771E-02  0.1177203E+00
         21   -1    0    0  501  502  0.00000000000E+00  0.00000000000E+00  0.78563621732E+02  0.78563621732E+02  0.00000000000E+00 0.  1.
          3   -1    0    0  502    0 -0.00000000000E+00 -0.00000000000E+00 -0.56958505020E+03  0.56958505020E+03  0.00000000000E+00 0. -1.
         23    2    1    2    0    0  0.43850275124E+02 -0.13857457789E+03 -0.33892856196E+03  0.38018751167E+03  0.92434915774E+02 0.  0.
        -24    2    1    2    0    0 -0.40319920255E+01  0.14615230838E+03 -0.85255512507E+02  0.18979371462E+03  0.85885956314E+02 0.  0.
         11    1    4    4    0    0 -0.40386510780E+02  0.48263518313E+02 -0.17513690653E+02  0.65323554812E+02  0.00000000000E+00 0. -1.
        -12    1    4    4    0    0  0.36354518755E+02  0.97888790066E+02 -0.67741821854E+02  0.12447015981E+03  0.00000000000E+00 0.  1.
        -13    1    3    3    0    0  0.24020523382E+02 -0.26863595367E+02 -0.19004095121E+02  0.40740568614E+02  0.00000000000E+00 0.  1.
         13    1    3    3    0    0  0.19829751742E+02 -0.11171098252E+03 -0.31992446683E+03  0.33944694305E+03  0.00000000000E+00 0. -1.
          4    1    1    2  501    0 -0.39818283098E+02 -0.75777304941E+01 -0.66837354009E+02  0.78167445649E+02  0.00000000000E+00 0. -1.
<scales pt_clust_5="13000.00000" pt_clust_6="13000.00000" pt_clust_7="13000.00000" pt_clust_8="13000.00000" pt_clust_9="40.53294"></scales>
<clustering>
<clus scale="   40.533">  1  9  2 -1</clus>
<clus scale="   85.886">  5  6 -1 -1</clus>
<clus scale="   92.435">  7  8 -1 -1</clus>
<clus scale="  168.047">  1  5  2 -1</clus>
<clus scale="   40.533">  1  5  2 -1</clus>
</clustering>
</event>
<event>
 9    1  0.7719620E-005  0.1137294E+03  0.7546771E-02  0.1263078E+00
          1   -1    0    0  502    0 -0.00000000000E+00  0.00000000000E+00  0.13456495386E+03  0.13456495386E+03  0.00000000000E+00 0. -1.
         21   -1    0    0  501  502  0.00000000000E+00 -0.00000000000E+00 -0.22092780478E+03  0.22092780478E+03  0.00000000000E+00 0. -1.
         23    2    1    2    0    0  0.37922610601E+02 -0.32326031185E+02  0.54320940110E+02  0.10922192261E+03  0.80595081474E+02 0.  0.
        -24    2    1    2    0    0  0.13628834699E+02 -0.50616850778E+02 -0.33724786035E+02  0.10143540553E+03  0.80024806053E+02 0.  0.
         11    1    4    4    0    0  0.44873367345E+02 -0.35537720827E+02 -0.34312418249E+02  0.66737476312E+02  0.00000000000E+00 0. -1.
        -12    1    4    4    0    0 -0.31244532646E+02 -0.15079129951E+02  0.58763221360E+00  0.34697929217E+02  0.00000000000E+00 0.  1.
        -13    1    3    3    0    0 -0.58896243040E+01  0.20706544090E+02 -0.68982928562E-01  0.21527967885E+02  0.00000000000E+00 0.  1.
         13    1    3    3    0    0  0.43812234905E+02 -0.53032575275E+02  0.54389923038E+02  0.87693954728E+02  0.00000000000E+00 0. -1.
          2    1    1    2  501    0 -0.51551445300E+02  0.82942881963E+02 -0.10695900499E+03  0.14483543051E+03  0.00000000000E+00 0. -1.
<scales pt_clust_5="13000.00000" pt_clust_6="13000.00000" pt_clust_7="13000.00000" pt_clust_8="13000.00000" pt_clust_9="80.81089"></scales>
<clustering>
<clus scale="   80.025">  5  6 -1 -1</clus>
<clus scale="   80.595">  7  8 -1 -1</clus>
<clus scale="   94.756">  1  7  2 -1</clus>
<clus scale="   80.811">  2  9  1 -1</clus>
<clus scale="   80.811">  2  5  1 -1</clus>
</clustering>
</event>
<event>
 9    1  0.7719620E-005  0.2259664E+03  0.7546771E-02  0.1130344E+00
          3   -1    0    0  502    0 -0.00000000000E+00  0.00000000000E+00  0.24055064803E+03  0.24055064803E+03  0.00000000000E+00 0. -1.
         21   -1    0    0  501  502  0.00000000000E+00 -0.00000000000E+00 -0.56291539288E+03  0.56291539288E+03  0.00000000000E+00 0.  1.
         23    2    1    2    0    0 -0.15989036829E+02  0.20539959190E+03  0.13680229327E+03  0.26395959453E+03  0.92277616189E+02 0.  0.
        -24    2    1    2    0    0 -0.29450171911E+02 -0.21032042610E+03 -0.42695238978E+03  0.48358936610E+03  0.80425975901E+02 0.  0.
         13    1    4    4    0    0  0.10515993093E+02 -0.36898297387E+02 -0.14645824249E+03  0.15140042025E+03  0.00000000000E+00 0. -1.
        -14    1    4    4    0    0 -0.39966165003E+02 -0.17342212871E+03 -0.28049414730E+03  0.33218894584E+03  0.00000000000E+00 0.  1.
        -11    1    3    3    0    0 -0.53633424878E+01  0.18630521005E+03  0.14928136974E+03  0.23879556965E+03  0.00000000000E+00 0. -1.
         11    1    3    3    0    0 -0.10625694341E+02  0.19094381849E+02 -0.12479076471E+02  0.25164024877E+02  0.00000000000E+00 0.  1.
          4    1    1    2  501    0  0.45439208740E+02  0.49208341990E+01 -0.32214648327E+02  0.55917080279E+02  0.00000000000E+00 0. -1.
<scales pt_clust_5="13000.00000" pt_clust_6="13000.00000" pt_clust_7="13000.00000" pt_clust_8="13000.00000" pt_clust_9="45.70488"></scales>
<clustering>
<clus scale="   45.705">  2  9  1 -1</clus>
<clus scale="   80.426">  5  6 -1 -1</clus>
<clus scale="   92.278">  7  8 -1 -1</clus>
<clus scale="  221.391">  2  5  1 -1</clus>
<clus scale="   45.705">  2  5  1 -1</clus>
</clustering>
</event>
<event>
 9    1  0.7719620E-005  0.1309881E+03  0.7546771E-02  0.1226970E+00
         21   -1    0    0  501  502  0.00000000000E+00  0.00000000000E+00  0.33077916926E+03  0.33077916926E+03  0.00000000000E+00 0.  1.
          1   -1    0    0  502    0 -0.00000000000E+00 -0.00000000000E+00 -0.12675176339E+03  0.12675176339E+03  0.00000000000E+00 0. -1.
         23    2    1    2    0    0  0.85936143388E+02 -0.45341754888E+02 -0.48469983002E+02  0.14153206605E+03  0.90780454893E+02 0.  0.
        -24    2    1    2    0    0 -0.80987672947E+02  0.13694752860E+02  0.25717148280E+03  0.28362808887E+03  0.86954998753E+02 0.  0.
         13    1    4    4    0    0 -0.20361967994E+02 -0.45798100248E+01  0.22863492186E+01  0.20995518407E+02  0.00000000000E+00 0. -1.
        -14    1    4    4    0    0 -0.60625704953E+02  0.18274562884E+02  0.25488513358E+03  0.26263257046E+03  0.00000000000E+00 0.  1.
        -13    1    3    3    0    0 -0.32822237257E+01 -0.38757785098E+02  0.17560954357E+01  0.38936137064E+02  0.00000000000E+00 0.  1.
         13    1    3    3    0    0  0.89218367114E+02 -0.65839697897E+01 -0.50226078438E+02  0.10259592898E+03  0.00000000000E+00 0. -1.
          2    1    1    2  501    0 -0.49484704410E+01  0.31647002028E+02 -0.46740939303E+01  0.32370777735E+02  0.00000000000E+00 0. -1.
<scales pt_clust_5="13000.00000" pt_clust_6="13000.00000" pt_clust_7="13000.00000" pt_clust_8="13000.00000" pt_clust_9="32.03156"></scales>
<clustering>
<clus scale="   32.032">  1  9  2 -1</clus>
<clus scale="   86.955">  5  6 -1 -1</clus>
<clus scale="   90.780">  7  8 -1 -1</clus>
<clus scale="  128.367">  1  5  2 -1</clus>
<clus scale="   32.032">  1  5  2 -1</clus>
</clustering>
</event>
<event>
 9    1  0.7719620E-005  0.1044577E+03  0.7546771E-02  0.1276440E+00
         21   -1    0    0  501  502  0.00000000000E+00  0.00000000000E+00  0.59254406021E+02  0.59254406021E+02  0.00000000000E+00 0. -1.
         -2   -1    0    0    0  501 -0.00000000000E+00 -0.00000000000E+00 -0.39368054963E+03  0.39368054963E+03  0.00000000000E+00 0.  1.
         23    2    1    2    0    0 -0.58508775677E+02  0.13228087078E+02 -0.10173909784E+03  0.14937608436E+03  0.91455516130E+02 0.  0.
        -24    2    1    2    0    0  0.38508786613E+02  0.95122477676E+01 -0.23477548303E+02  0.92168861542E+02  0.79815376085E+02 0.  0.
         13    1    4    4    0    0  0.37452676742E+02  0.10694843577E+02  0.23285144341E+02  0.45379297276E+02  0.00000000000E+00 0. -1.
        -14    1    4    4    0    0  0.10561098705E+01 -0.11825958093E+01 -0.46762692643E+02  0.46789564266E+02  0.00000000000E+00 0.  1.
        -11    1    3    3    0    0  0.47687663783E+01 -0.31197047942E+02 -0.36151603611E+02  0.47988908893E+02  0.00000000000E+00 0.  1.
         11    1    3    3    0    0 -0.63277542055E+02  0.44425135020E+02 -0.65587494231E+02  0.10138717547E+03  0.00000000000E+00 0. -1.
         -1    1    1    2    0  502  0.19999989064E+02 -0.22740334846E+02 -0.20920949747E+03  0.21139000975E+03  0.00000000000E+00 0.  1.
<scales pt_clust_5="13000.00000" pt_clust_6="13000.00000" pt_clust_7="13000.00000" pt_clust_8="13000.00000" pt_clust_9="30.28404"></scales>
<clustering>
<clus scale="   30.284">  1  9  2 -1</clus>
<clus scale="   79.815">  5  6 -1 -1</clus>
<clus scale="   91.456">  7  8 -1 -1</clus>
<clus scale="   94.434">  1  5  2 -1</clus>
<clus scale="   30.284">  1  5  2 -1</clus>
</clustering>
</event>
<event>
 9    1  0.7719620E-005  0.1199984E+03  0.7546771E-02  0.1246410E+00
          1   -1    0    0  502    0 -0.00000000000E+00  0.00000000000E+00  0.23580592886E+03  0.23580592886E+03  0.00000000000E+00 0. -1.
         21   -1    0    0  501  502  0.00000000000E+00 -0.00000000000E+00 -0.12202180859E+03  0.12202180859E+03  0.00000000000E+00 0. -1.
         23    2    1    2    0    0  0.13002342010E+01 -0.11233114994E+03  0.11740301762E+03  0.18577669423E+03  0.90052949529E+02 0.  0.
        -24    2    1    2    0    0 -0.57711042011E+01  0.28318005556E+02 -0.18694463192E+02  0.86579002223E+02  0.79443222427E+02 0.  0.
         13    1    4    4    0    0  0.97961411454E+01  0.25405621889E+02 -0.46900077555E+02  0.54231238964E+02  0.00000000000E+00 0. -1.
        -14    1    4    4    0    0 -0.15567245346E+02  0.29123836678E+01  0.28205614363E+02  0.32347763259E+02  0.00000000000E+00 0.  1.
        -13    1    3    3    0    0  0.37620974057E+02 -0.64931680719E+02  0.97069519808E+02  0.12269454970E+03  0.00000000000E+00 0. -1.
         13    1    3    3    0    0 -0.36320739856E+02 -0.47399469217E+02  0.20333497812E+02  0.63082144535E+02  0.00000000000E+00 0.  1.
          2    1    1    2  501    0  0.44708700001E+01  0.84013144381E+02  0.15075565844E+02  0.85472041000E+02  0.00000000000E+00 0. -1.
<scales pt_clust_5="13000.00000" pt_clust_6="13000.00000" pt_clust_7="13000.00000" pt_clust_8="13000.00000" pt_clust_9="84.13202"></scales>
<clustering>
<clus scale="   79.443">  5  6 -1 -1</clus>
<clus scale="   84.132">  2  9  1 -1</clus>
<clus scale="   90.053">  7  8 -1 -1</clus>
<clus scale="  112.256">  2  5  1 -1</clus>
<clus scale="   84.132">  2  5  1 -1</clus>
</clustering>
</event>
<event>
 9    1  0.7719620E-005  0.4294953E+03  0.7546771E-02  0.1034020E+00
          1   -1    0    0  502    0 -0.00000000000E+00  0.00000000000E+00  0.59985442103E+03  0.59985442103E+03  0.00000000000E+00 0. -1.
         21   -1    0    0  501  502  0.00000000000E+00 -0.00000000000E+00 -0.26324565033E+03  0.26324565033E+03  0.00000000000E+00 0. -1.
        -24    2    1    2    0    0 -0.10224362538E+03  0.29230419041E+03  0.18845403696E+03  0.37214371210E+03  0.84145824326E+02 0.  0.
         23    2    1    2    0    0  0.18467118957E+02  0.52115107014E+02  0.66104765581E+02  0.12712212126E+03  0.93451457020E+02 0.  0.
         13    1    3    3    0    0 -0.11647951338E+03  0.26955556614E+03  0.16719804622E+03  0.33790955437E+03  0.00000000000E+00 0. -1.
        -14    1    3    3    0    0  0.14235888004E+02  0.22748624265E+02  0.21255990744E+02  0.34234157733E+02  0.00000000000E+00 0.  1.
        -11    1    4    4    0    0  0.20663613307E+02  0.76842929020E+02  0.33983409405E+02  0.86525676941E+02  0.00000000000E+00 0.  1.
         11    1    4    4    0    0 -0.21964943500E+01 -0.24727822007E+02  0.32121356177E+02  0.40596444318E+02  0.00000000000E+00 0. -1.
          2    1    1    2  501    0  0.83776506420E+02 -0.34441929742E+03  0.82049968165E+02  0.36383423800E+03  0.00000000000E+00 0. -1.
<scales pt_clust_5="13000.00000" pt_clust_6="13000.00000" pt_clust_7="13000.00000" pt_clust_8="13000.00000" pt_clust_9="354.46178"></scales>
<clustering>
<clus scale="   84.146">  5  6 -1 -1</clus>
<clus scale="   93.451">  7  8 -1 -1</clus>
<clus scale="  100.837">  5  7 -1 -1</clus>
<clus scale="  354.462">  2  9  1 -1</clus>
<clus scale="  354.462">  2  5  1 -1</clus>
</clustering>
</event>
<event>
 9    1  0.7719620E-005  0.9916161E+02  0.7546771E-02  0.1287344E+00
         -2   -1    0    0    0  501 -0.00000000000E+00  0.00000000000E+00  0.19361029611E+03  0.19361029611E+03  0.00000000000E+00 0.  1.
         21   -1    0    0  501  502  0.00000000000E+00 -0.00000000000E+00 -0.88863882707E+02  0.88863882707E+02  0.00000000000E+00 0. -1.
         23    2    1    2    0    0 -0.10174954606E+02  0.16934071184E+02  0.52996446473E+02  0.10755031634E+03  0.91477618777E+02 0.  0.
        -24    2    1    2    0    0 -0.12209082523E+02 -0.58638473142E+02  0.71478147192E+02  0.12364517922E+03  0.81187884501E+02 0.  0.
         11    1    4    4    0    0  0.13471860497E+02 -0.59371255617E+02  0.76189073773E+02  0.97525442738E+02  0.00000000000E+00 0. -1.
        -12    1    4    4    0    0 -0.25680943021E+02  0.73278247507E+00 -0.47109265814E+01  0.26119736481E+02  0.00000000000E+00 0.  1.
        -13    1    3    3    0    0  0.23472780658E+02  0.18600145217E+02  0.65175776281E+02  0.71727391195E+02  0.00000000000E+00 0.  1.
         13    1    3    3    0    0 -0.33647735264E+02 -0.16660740330E+01 -0.12179329808E+02  0.35822925141E+02  0.00000000000E+00 0. -1.
         -1    1    1    2    0  502  0.22384037129E+02  0.41704401959E+02 -0.19728180260E+02  0.51278683264E+02  0.00000000000E+00 0.  1.
<scales pt_clust_5="13000.00000" pt_clust_6="13000.00000" pt_clust_7="13000.00000" pt_clust_8="13000.00000" pt_clust_9="47.33183"></scales>
<clustering>
<clus scale="   47.332">  2  9  1 -1</clus>
<clus scale="   81.188">  5  6 -1 -1</clus>
<clus scale="   89.757">  2  5  1 -1</clus>
<clus scale="   91.478">  7  8 -1 -1</clus>
<clus scale="   47.332">  2  5  1 -1</clus>
</clustering>
</event>
<event>
 9    1  0.7719620E-005  0.1320988E+03  0.7546771E-02  0.1227318E+00
         21   -1    0    0  501  502  0.00000000000E+00  0.00000000000E+00  0.57497975710E+03  0.57497975710E+03  0.00000000000E+00 0. -1.
         -4   -1    0    0    0  501 -0.00000000000E+00 -0.00000000000E+00 -0.13963382126E+03  0.13963382126E+03  0.00000000000E+00 0.  1.
        -24    2    1    2    0    0  0.94397522556E+02 -0.21756425257E+02 -0.99441909935E+02  0.15979700764E+03  0.79133784780E+02 0.  0.
         23    2    1    2    0    0 -0.73196675906E+02  0.30064856532E+02  0.48948529701E+03  0.50411324880E+03  0.90954178963E+02 0.  0.
         11    1    3    3    0    0  0.49112336331E+02 -0.49745015519E+02 -0.42333225440E+02  0.81723253270E+02  0.00000000000E+00 0. -1.
        -12    1    3    3    0    0  0.45285186225E+02  0.27988590262E+02 -0.57108684495E+02  0.78073754367E+02  0.00000000000E+00 0.  1.
        -11    1    4    4    0    0 -0.13747600085E+02 -0.23120427463E+02  0.44214723164E+02  0.51754153636E+02  0.00000000000E+00 0.  1.
         11    1    4    4    0    0 -0.59449075821E+02  0.53185283995E+02  0.44527057384E+03  0.45235909517E+03  0.00000000000E+00 0. -1.
         -3    1    1    2    0  502 -0.21200846650E+02 -0.83084312752E+01  0.45302548771E+02  0.50703321924E+02  0.00000000000E+00 0.  1.
<scales pt_clust_5="13000.00000" pt_clust_6="13000.00000" pt_clust_7="13000.00000" pt_clust_8="13000.00000" pt_clust_9="22.77073"></scales>
<clustering>
<clus scale="   22.771">  1  9  2 -1</clus>
<clus scale="   79.134">  5  6 -1 -1</clus>
<clus scale="   90.954">  7  8 -1 -1</clus>
<clus scale="  124.256">  2  5  1 -1</clus>
<clus scale="   22.771">  1  5  2 -1</clus>
</clustering>
</event>
<event>
 9    1  0.7719620E-005  0.9371816E+02  0.7546771E-02  0.1302104E+00
         -2   -1    0    0    0  501 -0.00000000000E+00  0.00000000000E+00  0.13597650895E+03  0.13597650895E+03  0.00000000000E+00 0.  1.
         21   -1    0    0  501  502  0.00000000000E+00 -0.00000000000E+00 -0.25086235925E+03  0.25086235925E+03  0.00000000000E+00 0.  1.
         23    2    1    2    0    0  0.13995072742E+00 -0.11172573319E+02  0.45980525104E+02  0.10412525736E+03  0.92752436894E+02 0.  0.
        -24    2    1    2    0    0 -0.25569564120E+01 -0.44283471619E+02  0.20130190145E+02  0.93396491760E+02  0.79687616560E+02 0.  0.
         11    1    4    4    0    0  0.28510253446E+01  0.23206424451E+02  0.72211130321E+01  0.24470614107E+02  0.00000000000E+00 0. -1.
        -12    1    4    4    0    0 -0.54079817566E+01 -0.67489896071E+02  0.12909077113E+02  0.68925877653E+02  0.00000000000E+00 0.  1.
        -11    1    3    3    0    0  0.41405060652E+02 -0.20034587561E+02  0.41015582547E+02  0.61628254543E+02  0.00000000000E+00 0. -1.
         11    1    3    3    0    0 -0.41265109924E+02  0.88620142414E+01  0.49649425574E+01  0.42497002813E+02  0.00000000000E+00 0.  1.
         -1    1    1    2    0  502  0.24170056845E+01  0.55456044939E+02 -0.18099656555E+03  0.18931711908E+03  0.00000000000E+00 0.  1.
<scales pt_clust_5="13000.00000" pt_clust_6="13000.00000" pt_clust_7="13000.00000" pt_clust_8="13000.00000" pt_clust_9="55.50869"></scales>
<clustering>
<clus scale="   55.509">  2  9  1 -1</clus>
<clus scale="   79.688">  5  6 -1 -1</clus>
<clus scale="   80.810">  2  5  1 -1</clus>
<clus scale="   92.752">  7  8 -1 -1</clus>
<clus scale="   55.509">  2  5  1 -1</clus>
</clustering>
</event>
<event>
 9    1  0.7719620E-005  0.1378463E+03  0.7546771E-02  0.1232065E+00
          3   -1    0    0  502    0 -0.00000000000E+00  0.00000000000E+00  0.78251118585E+02  0.78251118585E+02  0.00000000000E+00 0. -1.
         21   -1    0    0  501  502  0.00000000000E+00 -0.00000000000E+00 -0.43775161808E+03  0.43775161808E+03  0.00000000000E+00 0.  1.
         23    2    1    2    0    0 -0.53211993884E+00 -0.39116690010E+02 -0.13691234657E+03  0.16903579593E+03  0.91091772814E+02 0.  0.
        -24    2    1    2    0    0 -0.10994659437E+03 -0.87610278781E+00 -0.62777290368E+02  0.14861250649E+03  0.77818170954E+02 0.  0.
         13    1    4    4    0    0 -0.19424545954E+02  0.17837687709E+02  0.12704511919E+02  0.29272866470E+02  0.00000000000E+00 0. -1.
        -14    1    4    4    0    0 -0.90522048416E+02 -0.18713790497E+02 -0.75481802287E+02  0.11933964002E+03  0.00000000000E+00 0.  1.
        -13    1    3    3    0    0 -0.39387614118E+02 -0.42675235135E+02 -0.98102686539E+02  0.11400305674E+03  0.00000000000E+00 0. -1.
         13    1    3    3    0    0  0.38855494180E+02  0.35585451252E+01 -0.38809660027E+02  0.55032739190E+02  0.00000000000E+00 0.  1.
          4    1    1    2  501    0  0.11047871431E+03  0.39992792798E+02 -0.15981086256E+03  0.19835443424E+03  0.00000000000E+00 0. -1.
<scales pt_clust_5="13000.00000" pt_clust_6="13000.00000" pt_clust_7="13000.00000" pt_clust_8="13000.00000" pt_clust_9="113.78018"></scales>
<clustering>
<clus scale="   77.818">  5  6 -1 -1</clus>
<clus scale="   91.092">  7  8 -1 -1</clus>
<clus scale="   99.137">  1  7  2 -1</clus>
<clus scale="  113.780">  2  9  1 -1</clus>
<clus scale="  113.780">  2  5  1 -1</clus>
</clustering>
</event>
<event>
 9    1  0.7719620E-005  0.1307200E+03  0.7546771E-02  0.1237406E+00
         21   -1    0    0  501  502  0.00000000000E+00  0.00000000000E+00  0.43327738748E+03  0.43327738748E+03  0.00000000000E+00 0. -1.
          1   -1    0    0  502    0 -0.00000000000E+00 -0.00000000000E+00 -0.69469495278E+02  0.69469495278E+02  0.00000000000E+00 0. -1.
         23    2    1    2    0    0  0.49489293383E+02 -0.12922083508E+02  0.84427747276E+02  0.13411187752E+03  0.90784254027E+02 0.  0.
        -24    2    1    2    0    0  0.22327252623E+02  0.98853997789E+02  0.14468897642E+03  0.19346759661E+03  0.78893548234E+02 0.  0.
         13    1    4    4    0    0  0.39260112381E+02  0.61158763076E+02  0.44815341810E+02  0.85382466507E+02  0.00000000000E+00 0. -1.
        -14    1    4    4    0    0 -0.16932859759E+02  0.37695234712E+02  0.99873634611E+02  0.10808513011E+03  0.00000000000E+00 0.  1.
        -11    1    3    3    0    0  0.69658438485E+02 -0.31793163607E+02  0.62851346390E+02  0.99062581469E+02  0.00000000000E+00 0. -1.
         11    1    3    3    0    0 -0.20169145102E+02  0.18871080099E+02  0.21576400886E+02  0.35049296048E+02  0.00000000000E+00 0.  1.
          2    1    1    2  501    0 -0.71816546005E+02 -0.85931914280E+02  0.13469116850E+03  0.17516740862E+03  0.00000000000E+00 0. -1.
<scales pt_clust_5="13000.00000" pt_clust_6="13000.00000" pt_clust_7="13000.00000" pt_clust_8="13000.00000" pt_clust_9="104.22825"></scales>
<clustering>
<clus scale="   78.894">  5  6 -1 -1</clus>
<clus scale="   90.784">  7  8 -1 -1</clus>
<clus scale="  104.201">  2  7  1 -1</clus>
<clus scale="  104.228">  1  9  2 -1</clus>
<clus scale="  104.228">  1  5  2 -1</clus>
</clustering>
</event>
<event>
 9    1  0.7719620E-005  0.1432835E+03  0.7546771E-02  0.1225836E+00
          1   -1    0    0  502    0 -0.00000000000E+00  0.00000000000E+00  0.80960660059E+02  0.80960660059E+02  0.00000000000E+00 0. -1.
         21   -1    0    0  501  502  0.00000000000E+00 -0.00000000000E+00 -0.10541147810E+04  0.10541147810E+04  0.00000000000E+00 0. -1.
         23    2    1    2    0    0 -0.37637291258E+02  0.13917515706E+02  0.22872557029E+02  0.10298479322E+03  0.92045916978E+02 0.  0.
        -24    2    1    2    0    0 -0.67543036075E+02 -0.85484834089E+02 -0.38303637505E+03  0.40603801923E+03  0.79248279894E+02 0.  0.
         13    1    4    4    0    0 -0.83182568958E+02 -0.65619549291E+02 -0.26645197490E+03  0.28674364850E+03  0.00000000000E+00 0. -1.
        -14    1    4    4    0    0  0.15639532883E+02 -0.19865284798E+02 -0.11658440015E+03  0.11929437073E+03  0.00000000000E+00 0.  1.
        -11    1    3    3    0    0  0.87978342380E+01  0.43984350637E+02  0.67255132758E+01  0.45357000751E+02  0.00000000000E+00 0. -1.
         11    1    3    3    0    0 -0.46435125496E+02 -0.30066834931E+02  0.16147043753E+02  0.57627792467E+02  0.00000000000E+00 0.  1.
          2    1    1    2  501    0  0.10518032733E+03  0.71567318383E+02 -0.61299030290E+03  0.62605262859E+03  0.00000000000E+00 0. -1.
<scales pt_clust_5="13000.00000" pt_clust_6="13000.00000" pt_clust_7="13000.00000" pt_clust_8="13000.00000" pt_clust_9="119.37288"></scales>
<clustering>
<clus scale="   79.248">  5  6 -1 -1</clus>
<clus scale="   92.046">  7  8 -1 -1</clus>
<clus scale="  100.413">  1  7  2 -1</clus>
<clus scale="  119.373">  2  9  1 -1</clus>
<clus scale="  119.373">  2  5  1 -1</clus>
</clustering>
</event>
<event>
 9    1  0.7719620E-005  0.9371413E+02  0.7546771E-02  0.1300302E+00
         -4   -1    0    0    0  501 -0.00000000000E+00  0.00000000000E+00  0.34287156990E+03  0.34287156990E+03  0.00000000000E+00 0.  1.
         21   -1    0    0  501  502  0.00000000000E+00 -0.00000000000E+00 -0.56991609382E+02  0.56991609382E+02  0.00000000000E+00 0.  1.
         23    2    1    2    0    0  0.11597801803E+02 -0.10155106345E+01  0.13170064200E+03  0.16066595122E+03  0.91284985121E+02 0.  0.
        -24    2    1    2    0    0  0.46200443197E+02  0.51108588808E+02  0.84087444978E+02  0.13545319526E+03  0.80810277206E+02 0.  0.
         11    1    4    4    0    0  0.35202493012E+02 -0.18032426275E+01  0.71867285527E+02  0.80046073778E+02  0.00000000000E+00 0. -1.
        -12    1    4    4    0    0  0.10997950185E+02  0.52911831435E+02  0.12220159451E+02  0.55407121484E+02  0.00000000000E+00 0.  1.
        -11    1    3    3    0    0  0.29446582481E+01 -0.45417721638E+02  0.52725008810E+02  0.69651755218E+02  0.00000000000E+00 0.  1.
         11    1    3    3    0    0  0.86531435546E+01  0.44402211003E+02  0.78975633192E+02  0.91014195999E+02  0.00000000000E+00 0. -1.
         -3    1    1    2    0  502 -0.57798244999E+02 -0.50093078173E+02  0.70091873536E+02  0.10374403280E+03  0.00000000000E+00 0.  1.
<scales pt_clust_5="13000.00000" pt_clust_6="13000.00000" pt_clust_7="13000.00000" pt_clust_8="13000.00000" pt_clust_9="76.48499"></scales>
<clustering>
<clus scale="   76.485">  2  9  1 -1</clus>
<clus scale="   80.810">  5  6 -1 -1</clus>
<clus scale="   83.545">  2  5  1 -1</clus>
<clus scale="   91.285">  7  8 -1 -1</clus>
<clus scale="   76.485">  2  5  1 -1</clus>
</clustering>
</event>
<event>
 9    1  0.7719620E-005  0.9920633E+02  0.7546771E-02  0.1288939E+00
         -2   -1    0    0    0  501 -0.00000000000E+00  0.00000000000E+00  0.46705914612E+03  0.46705914612E+03  0.00000000000E+00 0.  1.
         21   -1    0    0  501  502  0.00000000000E+00 -0.00000000000E+00 -0.34192660421E+02  0.34192660421E+02  0.00000000000E+00 0.  1.
        -24    2    1    2    0    0  0.29161601161E+02  0.37380908467E+01  0.21728731459E+03  0.23392774410E+03  0.81510981283E+02 0.  0.
         23    2    1    2    0    0 -0.25396089624E+02 -0.24781515880E+02  0.22294860315E+03  0.24471182366E+03  0.94438933132E+02 0.  0.
         13    1    3    3    0    0  0.31184052757E+02  0.30793268572E+02  0.59907571687E+02  0.74226596859E+02  0.00000000000E+00 0. -1.
        -14    1    3    3    0    0 -0.20224515967E+01 -0.27055177725E+02  0.15737974290E+03  0.15970114724E+03  0.00000000000E+00 0.  1.
        -11    1    4    4    0    0  0.23213974888E+02  0.12223477492E+02  0.13562504017E+03  0.13813925421E+03  0.00000000000E+00 0.  1.
         11    1    4    4    0    0 -0.48610064512E+02 -0.37004993372E+02  0.87323562982E+02  0.10657256945E+03  0.00000000000E+00 0. -1.
         -1    1    1    2    0  502 -0.37655115365E+01  0.21043425033E+02 -0.73694320484E+01  0.22612238788E+02  0.00000000000E+00 0.  1.
<scales pt_clust_5="13000.00000" pt_clust_6="13000.00000" pt_clust_7="13000.00000" pt_clust_8="13000.00000" pt_clust_9="21.37767"></scales>
<clustering>
<clus scale="   21.378">  2  9  1 -1</clus>
<clus scale="   81.511">  5  6 -1 -1</clus>
<clus scale="   86.990">  1  5  2 -1</clus>
<clus scale="   94.439">  7  8 -1 -1</clus>
<clus scale="   21.378">  2  5  1 -1</clus>
</clustering>
</event>
<event>
 9    1  0.7719620E-005  0.2622428E+03  0.7546771E-02  0.1135024E+00
          1   -1    0    0  502    0 -0.00000000000E+00  0.00000000000E+00  0.34429383787E+03  0.34429383787E+03  0.00000000000E+00 0. -1.
         21   -1    0    0  501  502  0.00000000000E+00 -0.00000000000E+00 -0.41702942667E+03  0.41702942667E+03  0.00000000000E+00 0. -1.
        -24    2    1    2    0    0 -0.72621217219E+02  0.63189441966E+02  0.11553693929E+03  0.17119561093E+03  0.81807127413E+02 0.  0.
         23    2    1    2    0    0  0.75154073020E+02  0.21755073405E+03 -0.18189328797E+03  0.30930358682E+03  0.98015733607E+02 0.  0.
         11    1    3    3    0    0 -0.73759894820E+02  0.11581045597E+02  0.70549246224E+02  0.10272214388E+03  0.00000000000E+00 0. -1.
        -12    1    3    3    0    0  0.11386776012E+01  0.51608396369E+02  0.44987693066E+02  0.68473467050E+02  0.00000000000E+00 0.  1.
        -13    1    4    4    0    0 -0.23867013042E+02  0.41231301867E+02 -0.28823557657E+02  0.55681702931E+02  0.00000000000E+00 0.  1.
         13    1    4    4    0    0  0.99021086062E+02  0.17631943218E+03 -0.15306973031E+03  0.25362188389E+03  0.00000000000E+00 0. -1.
          2    1    1    2  501    0 -0.25328558009E+01 -0.28074017601E+03 -0.63792401199E+01  0.28082406679E+03  0.00000000000E+00 0. -1.
<scales pt_clust_5="13000.00000" pt_clust_6="13000.00000" pt_clust_7="13000.00000" pt_clust_8="13000.00000" pt_clust_9="243.23707"></scales>
<clustering>
<clus scale="   81.807">  5  6 -1 -1</clus>
<clus scale="   98.016">  7  8 -1 -1</clus>
<clus scale="  126.330">  1  5  2 -1</clus>
<clus scale="  243.237">  2  9  1 -1</clus>
<clus scale="  243.237">  2  5  1 -1</clus>
</clustering>
</event>
<event>
 9    1  0.7719620E-005  0.9901391E+02  0.7546771E-02  0.1287647E+00
         -2   -1    0    0    0  501 -0.00000000000E+00  0.00000000000E+00  0.21101419507E+03  0.21101419507E+03  0.00000000000E+00 0.  1.
         21   -1    0    0  501  502  0.00000000000E+00 -0.00000000000E+00 -0.16911880363E+03  0.16911880363E+03  0.00000000000E+00 0.  1.
         23    2    1    2    0    0 -0.35913350795E+02  0.19774030405E+02  0.13149686162E+03  0.16550659443E+03  0.91761795644E+02 0.  0.
        -24    2    1    2    0    0  0.85467391289E+00 -0.80408495427E+01 -0.13385755844E+03  0.15696029893E+03  0.81567786302E+02 0.  0.
         11    1    4    4    0    0  0.77479784848E+01 -0.29134877512E+02 -0.10964241425E+02  0.32079383540E+02  0.00000000000E+00 0. -1.
        -12    1    4    4    0    0 -0.68933045719E+01  0.21094027970E+02 -0.12289331701E+03  0.12488091539E+03  0.00000000000E+00 0.  1.
        -13    1    3    3    0    0 -0.28017453832E+02  0.55556541103E+02  0.67814458179E+02  0.92034274684E+02  0.00000000000E+00 0.  1.
         13    1    3    3    0    0 -0.78958969633E+01 -0.35782510697E+02  0.63682403440E+02  0.73472319744E+02  0.00000000000E+00 0. -1.
         -1    1    1    2    0  502  0.35058676882E+02 -0.11733180863E+02  0.44256088249E+02  0.57666105339E+02  0.00000000000E+00 0.  1.
<scales pt_clust_5="13000.00000" pt_clust_6="13000.00000" pt_clust_7="13000.00000" pt_clust_8="13000.00000" pt_clust_9="36.96998"></scales>
<clustering>
<clus scale="   36.970">  2  9  1 -1</clus>
<clus scale="   81.568">  5  6 -1 -1</clus>
<clus scale="   89.648">  2  5  1 -1</clus>
<clus scale="   91.762">  7  8 -1 -1</clus>
<clus scale="   36.970">  2  5  1 -1</clus>
</clustering>
</event>
<event>
 9    1  0.7719620E-005  0.1293808E+03  0.7546771E-02  0.1230057E+00
         21   -1    0    0  501  502  0.00000000000E+00  0.00000000000E+00  0.13080786323E+03  0.13080786323E+03  0.00000000000E+00 0.  1.
          1   -1    0    0  502    0 -0.00000000000E+00 -0.00000000000E+00 -0.42404703153E+03  0.42404703153E+03  0.00000000000E+00 0. -1.
         23    2    1    2    0    0 -0.27988663768E+02 -0.92662597454E+02 -0.34023294236E+03  0.36524413271E+03  0.90967571933E+02 0.  0.
        -24    2    1    2    0    0  0.64754804539E+02  0.39420731217E+02  0.51593249957E+02  0.12474474162E+03  0.84570729929E+02 0.  0.
         13    1    4    4    0    0  0.41079065663E+02  0.20294021878E+02 -0.17655451271E+02  0.49102463475E+02  0.00000000000E+00 0. -1.
        -14    1    4    4    0    0  0.23675738876E+02  0.19126709338E+02  0.69248701229E+02  0.75642278147E+02  0.00000000000E+00 0.  1.
        -13    1    3    3    0    0  0.39783376296E+01 -0.34253374612E+02 -0.23843449652E+02  0.41924109220E+02  0.00000000000E+00 0. -1.
         13    1    3    3    0    0 -0.31967001398E+02 -0.58409222842E+02 -0.31638949271E+03  0.32332002349E+03  0.00000000000E+00 0.  1.
          2    1    1    2  501    0 -0.36766140771E+02  0.53241866237E+02 -0.45994758935E+01  0.64866020427E+02  0.00000000000E+00 0. -1.
<scales pt_clust_5="13000.00000" pt_clust_6="13000.00000" pt_clust_7="13000.00000" pt_clust_8="13000.00000" pt_clust_9="64.70275"></scales>
<clustering>
<clus scale="   64.703">  1  9  2 -1</clus>
<clus scale="   84.571">  5  6 -1 -1</clus>
<clus scale="   90.968">  7  8 -1 -1</clus>
<clus scale="  124.966">  1  5  2 -1</clus>
<clus scale="   64.703">  1  5  2 -1</clus>
</clustering>
</event>
<event>
 9    1  0.7719620E-005  0.1203241E+03  0.7546771E-02  0.1245141E+00
          3   -1    0    0  502    0 -0.00000000000E+00  0.00000000000E+00  0.36681470619E+03  0.36681470619E+03  0.00000000000E+00 0. -1.
         21   -1    0    0  501  502  0.00000000000E+00 -0.00000000000E+00 -0.53606390608E+02  0.53606390608E+02  0.00000000000E+00 0. -1.
         23    2    1    2    0    0 -0.80335526916E+01  0.66952372739E+02  0.97475646145E+02  0.14960800626E+03  0.91290173419E+02 0.  0.
        -24    2    1    2    0    0  0.72676978695E+01 -0.89175588156E+02  0.11525939785E+03  0.16790859043E+03  0.83087068749E+02 0.  0.
         11    1    4    4    0    0  0.11165538704E+02 -0.10019842454E+03  0.11868459506E+03  0.15572548488E+03  0.00000000000E+00 0. -1.
        -12    1    4    4    0    0 -0.38978408349E+01  0.11022836380E+02 -0.34251972173E+01  0.12183105557E+02  0.00000000000E+00 0.  1.
        -11    1    3    3    0    0 -0.35068453508E+02 -0.55289355705E+01  0.38202744605E+02  0.52151848053E+02  0.00000000000E+00 0.  1.
         11    1    3    3    0    0  0.27034900816E+02  0.72481308309E+02  0.59272901539E+02  0.97456158211E+02  0.00000000000E+00 0. -1.
          4    1    1    2  501    0  0.76585482205E+00  0.22223215417E+02  0.10047327159E+03  0.10290450010E+03  0.00000000000E+00 0. -1.
<scales pt_clust_5="13000.00000" pt_clust_6="13000.00000" pt_clust_7="13000.00000" pt_clust_8="13000.00000" pt_clust_9="22.23642"></scales>
<clustering>
<clus scale="   22.236">  2  9  1 -1</clus>
<clus scale="   83.087">  5  6 -1 -1</clus>
<clus scale="   91.290">  7  8 -1 -1</clus>
<clus scale="  114.225">  2  5  1 -1</clus>
<clus scale="   22.236">  2  5  1 -1</clus>
</clustering>
</event>
<event>
 9    1  0.7719620E-005  0.2313850E+03  0.7546771E-02  0.1148630E+00
          1   -1    0    0  502    0 -0.00000000000E+00  0.00000000000E+00  0.13219590516E+03  0.13219590516E+03  0.00000000000E+00 0. -1.
         21   -1    0    0  501  502  0.00000000000E+00 -0.00000000000E+00 -0.98818656358E+03  0.98818656358E+03  0.00000000000E+00 0. -1.
         23    2    1    2    0    0 -0.78154042914E+02  0.78084200362E+02  0.14395552173E+02  0.13337910547E+03  0.73331828591E+02 0.  0.
        -24    2    1    2    0    0 -0.10593506155E+03  0.12930637090E+03 -0.30551828748E+03  0.35773758634E+03  0.81806979405E+02 0.  0.
         13    1    4    4    0    0 -0.36745055101E+02  0.99414632844E+02 -0.21683686278E+03  0.24135387579E+03  0.00000000000E+00 0. -1.
        -14    1    4    4    0    0 -0.69190006448E+02  0.29891738059E+02 -0.88681424694E+02  0.11638371055E+03  0.00000000000E+00 0.  1.
        -13    1    3    3    0    0  0.10846370345E+02  0.28944788724E+02  0.44484606418E+01  0.31228726295E+02  0.00000000000E+00 0.  1.
         13    1    3    3    0    0 -0.89000413259E+02  0.49139411638E+02  0.99470915316E+01  0.10215037918E+03  0.00000000000E+00 0. -1.
          2    1    1    2  501    0  0.18408910446E+03 -0.20739057127E+03 -0.56486792312E+03  0.62926577692E+03  0.00000000000E+00 0. -1.
<scales pt_clust_5="13000.00000" pt_clust_6="13000.00000" pt_clust_7="13000.00000" pt_clust_8="13000.00000" pt_clust_9="216.44095"></scales>
<clustering>
<clus scale="   73.332">  7  8 -1 -1</clus>
<clus scale="   81.807">  5  6 -1 -1</clus>
<clus scale="  132.600">  1  7  2 -1</clus>
<clus scale="  216.441">  2  9  1 -1</clus>
<clus scale="  216.441">  2  5  1 -1</clus>
</clustering>
</event>
<event>
 9    1  0.7719620E-005  0.8979229E+02  0.7546771E-02  0.1310571E+00
          1   -1    0    0  502    0 -0.00000000000E+00  0.00000000000E+00  0.91360061074E+02  0.91360061074E+02  0.00000000000E+00 0. -1.
         21   -1    0    0  501  502  0.00000000000E+00 -0.00000000000E+00 -0.28835793050E+03  0.28835793050E+03  0.00000000000E+00 0. -1.
        -24    2    1    2    0    0 -0.69559133019E+01 -0.37807617904E+01  0.44760348873E+02  0.90860606631E+02  0.78673261763E+02 0.  0.
         23    2    1    2    0    0 -0.15808400619E+02 -0.82510403358E+01 -0.70073456509E+02  0.11525255874E+03  0.89748970979E+02 0.  0.
         13    1    3    3    0    0  0.23590467177E+02 -0.30111858621E+02  0.16749965114E+02  0.41758777551E+02  0.00000000000E+00 0. -1.
        -14    1    3    3    0    0 -0.30546380479E+02  0.26331096830E+02  0.28010383759E+02  0.49101829080E+02  0.00000000000E+00 0.  1.
        -11    1    4    4    0    0  0.15982607318E+02 -0.32737494600E+02 -0.23160934625E+01  0.36504130975E+02  0.00000000000E+00 0. -1.
         11    1    4    4    0    0 -0.31791007937E+02  0.24486454264E+02 -0.67757363047E+02  0.78748427763E+02  0.00000000000E+00 0.  1.
          2    1    1    2  501    0  0.22764313921E+02  0.12031802126E+02 -0.17168476179E+03  0.17360482620E+03  0.00000000000E+00 0. -1.
<scales pt_clust_5="13000.00000" pt_clust_6="13000.00000" pt_clust_7="13000.00000" pt_clust_8="13000.00000" pt_clust_9="25.74836"></scales>
<clustering>
<clus scale="   25.748">  2  9  1 -1</clus>
<clus scale="   78.673">  5  6 -1 -1</clus>
<clus scale="   78.723">  1  5  2 -1</clus>
<clus scale="   89.749">  7  8 -1 -1</clus>
<clus scale="   25.748">  2  5  1 -1</clus>
</clustering>
</event>
<event>
 9    1  0.7719620E-005  0.1073927E+03  0.7546771E-02  0.1270308E+00
         21   -1    0    0  501  502  0.00000000000E+00  0.00000000000E+00  0.12117411099E+03  0.12117411099E+03  0.00000000000E+00 0.  1.
          3   -1    0    0  502    0 -0.00000000000E+00 -0.00000000000E+00 -0.17911402456E+03  0.17911402456E+03  0.00000000000E+00 0. -1.
         23    2    1    2    0    0  0.18008989342E+00  0.64161159226E+02 -0.98492454945E+02  0.14794810590E+03  0.89839810624E+02 0.  0.
        -24    2    1    2    0    0  0.29682918782E+02 -0.46408421790E+02 -0.42257386906E+01  0.95665049821E+02  0.78096911650E+02 0.  0.
         11    1    4    4    0    0  0.17635233226E+02  0.18869252387E+02 -0.12638730739E+02  0.28753915408E+02  0.00000000000E+00 0. -1.
        -12    1    4    4    0    0  0.12047685556E+02 -0.65277674177E+02  0.84129920486E+01  0.66911134413E+02  0.00000000000E+00 0.  1.
        -11    1    3    3    0    0 -0.25419764819E+02  0.52555268315E+02 -0.10403798397E+03  0.11929846092E+03  0.00000000000E+00 0. -1.
         11    1    3    3    0    0  0.25599854713E+02  0.11605890911E+02  0.55455290213E+01  0.28649644977E+02  0.00000000000E+00 0.  1.
          4    1    1    2  501    0 -0.29863008676E+02 -0.17752737435E+02  0.44778280063E+02  0.56674979832E+02  0.00000000000E+00 0. -1.
<scales pt_clust_5="13000.00000" pt_clust_6="13000.00000" pt_clust_7="13000.00000" pt_clust_8="13000.00000" pt_clust_9="34.74132"></scales>
<clustering>
<clus scale="   34.741">  1  9  2 -1</clus>
<clus scale="   78.097">  5  6 -1 -1</clus>
<clus scale="   89.840">  7  8 -1 -1</clus>
<clus scale="   97.781">  1  5  2 -1</clus>
<clus scale="   34.741">  1  5  2 -1</clus>
</clustering>
</event>
<event>
 9    1  0.7719620E-005  0.1146545E+03  0.7546771E-02  0.1256902E+00
         21   -1    0    0  501  502  0.00000000000E+00  0.00000000000E+00  0.48321169600E+03  0.48321169600E+03  0.00000000000E+00 0.  1.
         -2   -1    0    0    0  501 -0.00000000000E+00 -0.00000000000E+00 -0.52308138753E+02  0.52308138753E+02  0.00000000000E+00 0.  1.
        -24    2    1    2    0    0  0.83848908641E+02 -0.55199287557E+02  0.10072994732E+03  0.16146193314E+03  0.76458045606E+02 0.  0.
         23    2    1    2    0    0 -0.41394331402E+02 -0.24761344129E+01  0.14571719066E+03  0.17618669088E+03  0.89936802687E+02 0.  0.
         13    1    3    3    0    0  0.72292008844E+02 -0.16363652589E+02  0.95070275725E+02  0.12054982785E+03  0.00000000000E+00 0. -1.
        -14    1    3    3    0    0  0.11556899797E+02 -0.38835634968E+02  0.56596715964E+01  0.40912105285E+02  0.00000000000E+00 0.  1.
        -13    1    4    4    0    0 -0.52801318816E+02  0.32636303603E+02  0.88806471934E+02  0.10834988251E+03  0.00000000000E+00 0. -1.
         13    1    4    4    0    0  0.11406987414E+02 -0.35112438016E+02  0.56910718725E+02  0.67836808379E+02  0.00000000000E+00 0.  1.
         -1    1    1    2    0  502 -0.42454577239E+02  0.57675421969E+02  0.18445641927E+03  0.19787121074E+03  0.00000000000E+00 0.  1.
<scales pt_clust_5="13000.00000" pt_clust_6="13000.00000" pt_clust_7="13000.00000" pt_clust_8="13000.00000" pt_clust_9="71.61596"></scales>
<clustering>
<clus scale="   71.616">  1  9  2 -1</clus>
<clus scale="   76.458">  5  6 -1 -1</clus>
<clus scale="   89.937">  7  8 -1 -1</clus>
<clus scale="  104.417">  2  5  1 -1</clus>
<clus scale="   71.616">  1  5  2 -1</clus>
</clustering>
</event>
<event>
 9    1  0.7719620E-005  0.1411754E+03  0.7546771E-02  0.1213589E+00
         21   -1    0    0  501  502  0.00000000000E+00  0.00000000000E+00  0.32219245296E+03  0.32219245296E+03  0.00000000000E+00 0.  1.
          3   -1    0    0  502    0 -0.00000000000E+00 -0.00000000000E+00 -0.18386839613E+03  0.18386839613E+03  0.00000000000E+00 0. -1.
        -24    2    1    2    0    0 -0.70598124272E+02 -0.78658234651E+02 -0.11466226944E+03  0.17569456816E+03  0.80931651521E+02 0.  0.
         23    2    1    2    0    0  0.64560139475E+02  0.11333103561E+03  0.13761666307E+03  0.20974779323E+03  0.89687544097E+02 0.  0.
         13    1    3    3    0    0 -0.86987869234E+02 -0.75945111783E+02 -0.92264473124E+02  0.14780826228E+03  0.00000000000E+00 0. -1.
        -14    1    3    3    0    0  0.16389744962E+02 -0.27131228685E+01 -0.22397796319E+02  0.27886305879E+02  0.00000000000E+00 0.  1.
        -13    1    4    4    0    0  0.11870790280E+02  0.10156560222E+03  0.10552782828E+03  0.14694424031E+03  0.00000000000E+00 0.  1.
         13    1    4    4    0    0  0.52689349195E+02  0.11765433392E+02  0.32088834785E+02  0.62803552920E+02  0.00000000000E+00 0. -1.
          4    1    1    2  501    0  0.60379847969E+01 -0.34672800963E+02  0.11536966320E+03  0.12061848770E+03  0.00000000000E+00 0. -1.
<scales pt_clust_5="13000.00000" pt_clust_6="13000.00000" pt_clust_7="13000.00000" pt_clust_8="13000.00000" pt_clust_9="35.19461"></scales>
<clustering>
<clus scale="   35.195">  1  9  2 -1</clus>
<clus scale="   80.932">  5  6 -1 -1</clus>
<clus scale="   89.688">  7  8 -1 -1</clus>
<clus scale="  135.781">  2  5  1 -1</clus>
<clus scale="   35.195">  1  5  2 -1</clus>
</clustering>
</event>
<event>
 9    1  0.7719620E-005  0.1395444E+03  0.7546771E-02  0.1222789E+00
          1   -1    0    0  502    0 -0.00000000000E+00  0.00000000000E+00  0.52321831290E+03  0.52321831290E+03  0.00000000000E+00 0. -1.
         21   -1    0    0  501  502  0.00000000000E+00 -0.00000000000E+00 -0.70585742246E+02  0.70585742246E+02  0.00000000000E+00 0. -1.
         23    2    1    2    0    0  0.70251932564E+02 -0.17314641345E+02  0.97458610129E+02  0.15137856564E+03  0.90455285165E+02 0.  0.
        -24    2    1    2    0    0  0.39189815287E+02 -0.75837762778E+02  0.18946952910E+03  0.22307913061E+03  0.81107263362E+02 0.  0.
         11    1    4    4    0    0  0.43296930532E+02 -0.80408702944E+02  0.19467122890E+03  0.21502807041E+03  0.00000000000E+00 0. -1.
        -12    1    4    4    0    0 -0.41071152450E+01  0.45709401662E+01 -0.52016997946E+01  0.80510602030E+01  0.00000000000E+00 0.  1.
        -11    1    3    3    0    0  0.21077779146E+02 -0.48142321862E+02  0.24043322978E+02  0.57793055879E+02  0.00000000000E+00 0. -1.
         11    1    3    3    0    0  0.49174153419E+02  0.30827680517E+02  0.73415287151E+02  0.93585509765E+02  0.00000000000E+00 0.  1.
          2    1    1    2  501    0 -0.10944174785E+03  0.93152404123E+02  0.16570443143E+03  0.21934635890E+03  0.00000000000E+00 0. -1.
<scales pt_clust_5="13000.00000" pt_clust_6="13000.00000" pt_clust_7="13000.00000" pt_clust_8="13000.00000" pt_clust_9="113.55287"></scales>
<clustering>
<clus scale="   81.107">  5  6 -1 -1</clus>
<clus scale="   90.455">  7  8 -1 -1</clus>
<clus scale="  115.833">  1  7  2 -1</clus>
<clus scale="  113.553">  2  9  1 -1</clus>
<clus scale="  113.553">  2  5  1 -1</clus>
</clustering>
</event>
<event>
 9    1  0.7719620E-005  0.9357544E+02  0.7546771E-02  0.1301803E+00
         21   -1    0    0  501  502  0.00000000000E+00  0.00000000000E+00  0.68797403767E+02  0.68797403767E+02  0.00000000000E+00 0. -1.
         -2   -1    0    0    0  501 -0.00000000000E+00 -0.00000000000E+00 -0.19562853125E+03  0.19562853125E+03  0.00000000000E+00 0.  1.
        -24    2    1    2    0    0  0.28486321379E+02  0.10083803564E+02 -0.63026123464E+02  0.10552264255E+03  0.79054299393E+02 0.  0.
         23    2    1    2    0    0 -0.49920766823E+01  0.29083676513E+02 -0.25556673200E+02  0.99329759414E+02  0.91337158326E+02 0.  0.
         11    1    3    3    0    0 -0.24216402093E+02 -0.76120709417E+01 -0.64244516600E+01  0.26184944787E+02  0.00000000000E+00 0. -1.
        -12    1    3    3    0    0  0.52702723472E+02  0.17695874506E+02 -0.56601671804E+02  0.79337697767E+02  0.00000000000E+00 0.  1.
        -11    1    4    4    0    0  0.76650419669E+01  0.52872436878E+02 -0.41828218414E+02  0.67851656615E+02  0.00000000000E+00 0.  1.
         11    1    4    4    0    0 -0.12657118649E+02 -0.23788760364E+02  0.16271545214E+02  0.31478102799E+02  0.00000000000E+00 0. -1.
         -1    1    1    2    0  502 -0.23494244697E+02 -0.39167480077E+02 -0.38248330816E+02  0.59573533047E+02  0.00000000000E+00 0.  1.
<scales pt_clust_5="13000.00000" pt_clust_6="13000.00000" pt_clust_7="13000.00000" pt_clust_8="13000.00000" pt_clust_9="45.67355"></scales>
<clustering>
<clus scale="   45.674">  1  9  2 -1</clus>
<clus scale="   79.054">  5  6 -1 -1</clus>
<clus scale="   81.630">  2  5  1 -1</clus>
<clus scale="   91.337">  7  8 -1 -1</clus>
<clus scale="   45.674">  1  5  2 -1</clus>
</clustering>
</event>
<event>
 9    1  0.7719620E-005  0.2128042E+03  0.7546771E-02  0.1139364E+00
          3   -1    0    0  502    0 -0.00000000000E+00  0.00000000000E+00  0.19994659533E+03  0.19994659533E+03  0.00000000000E+00 0. -1.
         21   -1    0    0  501  502  0.00000000000E+00 -0.00000000000E+00 -0.22721962035E+03  0.22721962035E+03  0.00000000000E+00 0. -1.
        -24    2    1    2    0    0 -0.52828400415E+01 -0.72022053418E+02  0.31375715890E+02  0.11263487028E+03  0.80542497337E+02 0.  0.
         23    2    1    2    0    0  0.60124605243E+01 -0.48101159875E+02  0.82875174134E+02  0.12889962062E+03  0.86005502417E+02 0.  0.
         11    1    3    3    0    0 -0.38711001880E+02 -0.16326149012E+02  0.42017081938E+01  0.42222495898E+02  0.00000000000E+00 0. -1.
        -12    1    3    3    0    0  0.33428161838E+02 -0.55695904406E+02  0.27174007696E+02  0.70412374379E+02  0.00000000000E+00 0.  1.
        -11    1    4    4    0    0  0.36697775039E+02 -0.56072986677E+02  0.57014799000E+02  0.87986327533E+02  0.00000000000E+00 0.  1.
         11    1    4    4    0    0 -0.30685314515E+02  0.79718268018E+01  0.25860375134E+02  0.40913293090E+02  0.00000000000E+00 0. -1.
          4    1    1    2  501    0 -0.72962048274E+00  0.12012321329E+03 -0.14152391504E+03  0.18563172479E+03  0.00000000000E+00 0. -1.
<scales pt_clust_5="13000.00000" pt_clust_6="13000.00000" pt_clust_7="13000.00000" pt_clust_8="13000.00000" pt_clust_9="120.12543"></scales>
<clustering>
<clus scale="   80.542">  5  6 -1 -1</clus>
<clus scale="   86.006">  7  8 -1 -1</clus>
<clus scale="   97.047">  5  7 -1 -1</clus>
<clus scale="  120.125">  2  9  1 -1</clus>
<clus scale="  120.125">  2  5  1 -1</clus>
</clustering>
</event>
<event>
 9    1  0.7719620E-005  0.1034847E+03  0.7546771E-02  0.1279159E+00
          1   -1    0    0  502    0 -0.00000000000E+00  0.00000000000E+00  0.36341774629E+03  0.36341774629E+03  0.00000000000E+00 0. -1.
         21   -1    0    0  501  502  0.00000000000E+00 -0.00000000000E+00 -0.65782775221E+02  0.65782775221E+02  0.00000000000E+00 0. -1.
        -24    2    1    2    0    0  0.35976688119E+02 -0.33574792653E+02  0.25558254286E+03  0.27216525868E+03  0.79560687715E+02 0.  0.
         23    2    1    2    0    0 -0.48305315150E+02 -0.80560198382E+01  0.14393668855E+02  0.10555588286E+03  0.92393526699E+02 0.  0.
         13    1    3    3    0    0 -0.97394318191E+01 -0.31821698879E+02  0.18557003268E+03  0.18853040625E+03  0.00000000000E+00 0. -1.
        -14    1    3    3    0    0  0.45716119938E+02 -0.17530937736E+01  0.70012510181E+02  0.83634852435E+02  0.00000000000E+00 0.  1.
        -11    1    4    4    0    0 -0.58743717851E+02  0.28075410552E+02  0.18599003369E+02  0.67712450783E+02  0.00000000000E+00 0.  1.
         11    1    4    4    0    0  0.10438402701E+02 -0.36131430391E+02 -0.42053345142E+01  0.37843432077E+02  0.00000000000E+00 0. -1.
          2    1    1    2  501    0  0.12328627031E+02  0.41630812491E+02  0.27658759360E+02  0.51479379973E+02  0.00000000000E+00 0. -1.
<scales pt_clust_5="13000.00000" pt_clust_6="13000.00000" pt_clust_7="13000.00000" pt_clust_8="13000.00000" pt_clust_9="43.41796"></scales>
<clustering>
<clus scale="   43.418">  2  9  1 -1</clus>
<clus scale="   79.561">  5  6 -1 -1</clus>
<clus scale="   92.209">  1  5  2 -1</clus>
<clus scale="   92.394">  7  8 -1 -1</clus>
<clus scale="   43.418">  2  5  1 -1</clus>
</clustering>
</event>
<event>
 9    1  0.7719620E-005  0.3057793E+03  0.7546771E-02  0.1112253E+00
         -2   -1    0    0    0  501 -0.00000000000E+00  0.00000000000E+00  0.12316072401E+04  0.12316072401E+04  0.00000000000E+00 0.  1.
         21   -1    0    0  501  502  0.00000000000E+00 -0.00000000000E+00 -0.14569911188E+03  0.14569911188E+03  0.00000000000E+00 0.  1.
         23    2    1    2    0    0 -0.59329626270E+02 -0.86488718937E+02  0.80218845745E+02  0.16163066946E+03  0.93215379853E+02 0.  0.
        -24    2    1    2    0    0 -0.26420406343E+03  0.11401428988E+03  0.23803671701E+03  0.38217573250E+03  0.81202010053E+02 0.  0.
         13    1    4    4    0    0 -0.23454973258E+02 -0.12105250692E+02  0.13548891164E+02  0.29668928471E+02  0.00000000000E+00 0. -1.
        -14    1    4    4    0    0 -0.24074909017E+03  0.12611954058E+03  0.22448782585E+03  0.35250680403E+03  0.00000000000E+00 0.  1.
        -11    1    3    3    0    0 -0.49746667382E+02  0.27005896623E+01  0.37017222998E+02  0.62066890519E+02  0.00000000000E+00 0. -1.
         11    1    3    3    0    0 -0.95829588882E+01 -0.89189308599E+02  0.43201622747E+02  0.99563778943E+02  0.00000000000E+00 0.  1.
         -1    1    1    2    0  502  0.32353368970E+03 -0.27525570948E+02  0.76765256544E+03  0.83349995001E+03  0.00000000000E+00 0.  1.
<scales pt_clust_5="13000.00000" pt_clust_6="13000.00000" pt_clust_7="13000.00000" pt_clust_8="13000.00000" pt_clust_9="294.80049"></scales>
<clustering>
<clus scale="   81.202">  5  6 -1 -1</clus>
<clus scale="   93.215">  7  8 -1 -1</clus>
<clus scale="  140.319">  1  7  2 -1</clus>
<clus scale="  294.800">  2  9  1 -1</clus>
<clus scale="  294.800">  2  5  1 -1</clus>
</clustering>
</event>
