<event>
 9    2  0.1665830E-004  0.3016313E+03  0.7546771E-02  0.1084962E+00
         21   -1    0    0  501  502  0.00000000000E+00  0.00000000000E+00  0.11440531996E+04  0.11440531996E+04  0.00000000000E+00 0. -1.
          2   -1    0    0  502    0 -0.00000000000E+00 -0.00000000000E+00 -0.11134389575E+03  0.11134389575E+03  0.00000000000E+00 0. -1.
         23    2    1    2    0    0  0.20099622817E+03 -0.13997389899E+03  0.44639154284E+03  0.51727544785E+03  0.91193767868E+02 0.  0.
         24    2    1    2    0    0 -0.28668170577E+03  0.17858062155E+03  0.51323729214E+03  0.61907025092E+03  0.75881609802E+02 0.  0.
        -13    1    4    4    0    0 -0.13477257636E+03  0.40188993476E+02  0.21313149899E+03  0.25535042274E+03  0.00000000000E+00 0.  1.
         14    1    4    4    0    0 -0.15190912941E+03  0.13839162808E+03  0.30010579316E+03  0.36371982818E+03  0.00000000000E+00 0. -1.
        -13    1    3    3    0    0  0.17360302731E+03 -0.11836569644E+03  0.43028740801E+03  0.47884830863E+03  0.00000000000E+00 0. -1.
         13    1    3    3    0    0  0.27393200855E+02 -0.21608202546E+02  0.16104134832E+02  0.38427139226E+02  0.00000000000E+00 0.  1.
          1    1    1    2  501    0  0.85685477606E+02 -0.38606722566E+02  0.73080468869E+02  0.11905139659E+03  0.00000000000E+00 0. -1.
<scales pt_clust_5="13000.00000" pt_clust_6="13000.00000" pt_clust_7="13000.00000" pt_clust_8="13000.00000" pt_clust_9="93.98132"></scales>
<clustering>
<clus scale="   75.882">  5  6 -1 -1</clus>
<clus scale="   91.194">  7  8 -1 -1</clus>
<clus scale="   93.981">  1  9  2 -1</clus>
<clus scale="  297.360">  1  5  2 -1</clus>
<clus scale="   93.981">  1  5  2 -1</clus>
</clustering>
</event>
<event>
 9    2  0.1665830E-004  0.2834591E+03  0.7546771E-02  0.1095100E+00
         21   -1    0    0  501  502  0.00000000000E+00  0.00000000000E+00  0.31590750753E+03  0.31590750753E+03  0.00000000000E+00 0. -1.
          2   -1    0    0  502    0 -0.00000000000E+00 -0.00000000000E+00 -0.43985781449E+03  0.43985781449E+03  0.00000000000E+00 0. -1.
         23    2    1    2    0    0 -0.60221004388E+02  0.29937804906E+03 -0.22345555640E+03  0.39124848689E+03  0.99444492950E+02 0.  0.
         24    2    1    2    0    0  0.72995823451E+01 -0.21339093013E+03  0.20057838140E+01  0.22415798314E+03  0.68218804401E+02 0.  0.
        -11    1    4    4    0    0  0.12302481682E+02 -0.19735922979E+03 -0.17385602320E+02  0.19850510273E+03  0.00000000000E+00 0.  1.
         12    1    4    4    0    0 -0.50028993366E+01 -0.16031700333E+02  0.19391386134E+02  0.25652880414E+02  0.00000000000E+00 0. -1.
        -13    1    3    3    0    0 -0.25248592162E+02  0.86805353927E+02 -0.15308446780E+02  0.91689745443E+02  0.00000000000E+00 0.  1.
         13    1    3    3    0    0 -0.34972412226E+02  0.21257269513E+03 -0.20814710962E+03  0.29955874145E+03  0.00000000000E+00 0. -1.
          1    1    1    2  501    0  0.52921422043E+02 -0.85987118934E+02  0.97499465625E+02  0.14035885199E+03  0.00000000000E+00 0. -1.
<scales pt_clust_5="13000.00000" pt_clust_6="13000.00000" pt_clust_7="13000.00000" pt_clust_8="13000.00000" pt_clust_9="100.96763"></scales>
<clustering>
<clus scale="   68.219">  5  6 -1 -1</clus>
<clus scale="   99.444">  7  8 -1 -1</clus>
<clus scale="  100.968">  1  9  2 -1</clus>
<clus scale="  274.069">  1  5  2 -1</clus>
<clus scale="  100.968">  1  5  2 -1</clus>
</clustering>
</event>
<event>
 9    2  0.1665830E-004  0.2418460E+03  0.7546771E-02  0.1157285E+00
         21   -1    0    0  501  502  0.00000000000E+00  0.00000000000E+00  0.85026264926E+03  0.85026264926E+03  0.00000000000E+00 0. -1.
          2   -1    0    0  502    0 -0.00000000000E+00 -0.00000000000E+00 -0.35953839029E+03  0.35953839029E+03  0.00000000000E+00 0. -1.
         24    2    1    2    0    0  0.65680702613E+01 -0.55646606909E+02 -0.15337874654E+03  0.18025639435E+03  0.76339003185E+02 0.  0.
         23    2    1    2    0    0 -0.99307760183E+02 -0.15040739024E+03 -0.11711670673E+03  0.23549530785E+03  0.96214878028E+02 0.  0.
        -13    1    3    3    0    0 -0.23047302345E+01 -0.27281004849E+02 -0.14742417446E+03  0.14994483059E+03  0.00000000000E+00 0.  1.
         14    1    3    3    0    0  0.88728004958E+01 -0.28365602060E+02 -0.59545720824E+01  0.30311563759E+02  0.00000000000E+00 0. -1.
        -13    1    4    4    0    0 -0.96559894070E+02 -0.59702375033E+02 -0.62916740506E+02  0.12979484953E+03  0.00000000000E+00 0.  1.
         13    1    4    4    0    0 -0.27478661122E+01 -0.90705015205E+02 -0.54199966227E+02  0.10570045833E+03  0.00000000000E+00 0. -1.
          1    1    1    2  501    0  0.92739689921E+02  0.20605399715E+03  0.76121971224E+03  0.79404933734E+03  0.00000000000E+00 0. -1.
<scales pt_clust_5="13000.00000" pt_clust_6="13000.00000" pt_clust_7="13000.00000" pt_clust_8="13000.00000" pt_clust_9="221.88329"></scales>
<clustering>
<clus scale="   76.339">  5  6 -1 -1</clus>
<clus scale="   94.696">  2  5  1 -1</clus>
<clus scale="   96.215">  7  8 -1 -1</clus>
<clus scale="  221.883">  1  9  2 -1</clus>
<clus scale="  221.883">  1  5  2 -1</clus>
</clustering>
</event>
<event>
 9    2  0.1665830E-004  0.3321442E+03  0.7546771E-02  0.1100504E+00
         21   -1    0    0  501  502  0.00000000000E+00  0.00000000000E+00  0.20248967469E+03  0.20248967469E+03  0.00000000000E+00 0. -1.
          2   -1    0    0  502    0 -0.00000000000E+00 -0.00000000000E+00 -0.11529872425E+04  0.11529872425E+04  0.00000000000E+00 0. -1.
         24    2    1    2    0    0 -0.76757047051E+02  0.98087686877E+02 -0.59312694321E+02  0.15942214808E+03  0.79903610695E+02 0.  0.
         23    2    1    2    0    0  0.37584797347E+03 -0.26174482611E+02 -0.77635514855E+03  0.86770623941E+03  0.90774437641E+02 0.  0.
        -11    1    3    3    0    0 -0.32639960887E+01  0.32313400092E+02  0.15153818752E+02  0.35839192496E+02  0.00000000000E+00 0.  1.
         12    1    3    3    0    0 -0.73493050962E+02  0.65774286785E+02 -0.74466513073E+02  0.12358295558E+03  0.00000000000E+00 0. -1.
        -11    1    4    4    0    0  0.24339773999E+03 -0.58388496615E+02 -0.53071430756E+03  0.58677879360E+03  0.00000000000E+00 0.  1.
         11    1    4    4    0    0  0.13245023348E+03  0.32214014004E+02 -0.24564084099E+03  0.28092744581E+03  0.00000000000E+00 0. -1.
          1    1    1    2  501    0 -0.29909092642E+03 -0.71913204266E+02 -0.11482972492E+03  0.32834852967E+03  0.00000000000E+00 0. -1.
<scales pt_clust_5="13000.00000" pt_clust_6="13000.00000" pt_clust_7="13000.00000" pt_clust_8="13000.00000" pt_clust_9="319.49925"></scales>
<clustering>
<clus scale="   79.904">  5  6 -1 -1</clus>
<clus scale="   90.774">  7  8 -1 -1</clus>
<clus scale="  147.978">  2  5  1 -1</clus>
<clus scale="  319.499">  1  9  2 -1</clus>
<clus scale="  319.499">  1  5  2 -1</clus>
</clustering>
</event>
<event>
 9    2  0.1665830E-004  0.1359727E+03  0.7546771E-02  0.1221765E+00
         21   -1    0    0  501  502  0.00000000000E+00  0.00000000000E+00  0.39142288290E+02  0.39142288290E+02  0.00000000000E+00 0. -1.
          2   -1    0    0  502    0 -0.00000000000E+00 -0.00000000000E+00 -0.89220040241E+03  0.89220040241E+03  0.00000000000E+00 0. -1.
         24    2    1    2    0    0 -0.22775413886E+02  0.10315063544E+03 -0.65082513329E+03  0.66435826000E+03  0.81484786545E+02 0.  0.
         23    2    1    2    0    0 -0.14570322021E+02 -0.81768079350E+02 -0.17799614248E+03  0.21759473513E+03  0.93629743855E+02 0.  0.
        -11    1    3    3    0    0 -0.80527402595E+01  0.93101579926E+02 -0.32830069722E+03  0.34134161569E+03  0.00000000000E+00 0.  1.
         12    1    3    3    0    0 -0.14722673627E+02  0.10049055517E+02 -0.32252443607E+03  0.32301664431E+03  0.00000000000E+00 0. -1.
        -11    1    4    4    0    0  0.29886689293E+02 -0.71891042638E+02 -0.12922974694E+03  0.15087035396E+03  0.00000000000E+00 0.  1.
         11    1    4    4    0    0 -0.44457011314E+02 -0.98770367118E+01 -0.48766395538E+02  0.66724381173E+02  0.00000000000E+00 0. -1.
          1    1    1    2  501    0  0.37345735907E+02 -0.21382556093E+02 -0.24236838354E+02  0.49389695574E+02  0.00000000000E+00 0. -1.
<scales pt_clust_5="13000.00000" pt_clust_6="13000.00000" pt_clust_7="13000.00000" pt_clust_8="13000.00000" pt_clust_9="43.03391"></scales>
<clustering>
<clus scale="   43.034">  1  9  2 -1</clus>
<clus scale="   81.485">  5  6 -1 -1</clus>
<clus scale="   93.630">  7  8 -1 -1</clus>
<clus scale="  127.913">  2  5  1 -1</clus>
<clus scale="   43.034">  1  5  2 -1</clus>
</clustering>
</event>
<event>
 9    2  0.1665830E-004  0.2169609E+03  0.7546771E-02  0.1167254E+00
         21   -1    0    0  501  502  0.00000000000E+00  0.00000000000E+00  0.19720902606E+04  0.19720902606E+04  0.00000000000E+00 0. -1.
          4   -1    0    0  502    0 -0.00000000000E+00 -0.00000000000E+00 -0.41707118420E+02  0.41707118420E+02  0.00000000000E+00 0. -1.
         23    2    1    2    0    0  0.24779871223E+02 -0.43888798115E+02  0.21644587034E+03  0.24017511684E+03  0.91076908945E+02 0.  0.
         24    2    1    2    0    0 -0.20763361807E+03 -0.21279157188E+02  0.12662040823E+04  0.12856188153E+04  0.77320362073E+02 0.  0.
        -13    1    4    4    0    0 -0.92491879613E+02  0.28965137831E+02  0.56266816034E+03  0.57095462663E+03  0.00000000000E+00 0.  1.
         14    1    4    4    0    0 -0.11514173846E+03 -0.50244295019E+02  0.70353592195E+03  0.71466418869E+03  0.00000000000E+00 0. -1.
        -13    1    3    3    0    0  0.33089613117E+02 -0.22479329751E+02  0.21327206527E+03  0.21699128229E+03  0.00000000000E+00 0. -1.
         13    1    3    3    0    0 -0.83097418940E+01 -0.21409468364E+02  0.31738050684E+01  0.23183834553E+02  0.00000000000E+00 0.  1.
          3    1    1    2  501    0  0.18285374685E+03  0.65167955303E+02  0.44773318959E+03  0.48800344691E+03  0.00000000000E+00 0. -1.
<scales pt_clust_5="13000.00000" pt_clust_6="13000.00000" pt_clust_7="13000.00000" pt_clust_8="13000.00000" pt_clust_9="202.71568"></scales>
<clustering>
<clus scale="   77.320">  5  6 -1 -1</clus>
<clus scale="   91.077">  7  8 -1 -1</clus>
<clus scale="  104.093">  2  7  1 -1</clus>
<clus scale="  202.716">  1  9  2 -1</clus>
<clus scale="  202.716">  1  5  2 -1</clus>
</clustering>
</event>
<event>
 9    2  0.1665830E-004  0.3087584E+03  0.7546771E-02  0.1114013E+00
         21   -1    0    0  501  502  0.00000000000E+00  0.00000000000E+00  0.14374186680E+03  0.14374186680E+03  0.00000000000E+00 0.  1.
         -3   -1    0    0    0  501 -0.00000000000E+00 -0.00000000000E+00 -0.13326692713E+04  0.13326692713E+04  0.00000000000E+00 0.  1.
         24    2    1    2    0    0 -0.16815876405E+02  0.10030339629E+03 -0.16825915838E+03  0.21284567109E+03  0.81538888351E+02 0.  0.
         23    2    1    2    0    0  0.10393771043E+02 -0.37395933831E+03 -0.86867128208E+03  0.95046501173E+03  0.94023002613E+02 0.  0.
        -11    1    3    3    0    0 -0.34265850930E+02  0.87394548914E+02 -0.84440832947E+02  0.12626246469E+03  0.00000000000E+00 0.  1.
         12    1    3    3    0    0  0.17449974525E+02  0.12908847376E+02 -0.83818325436E+02  0.86583206400E+02  0.00000000000E+00 0. -1.
        -11    1    4    4    0    0 -0.62434263215E+01 -0.20315473074E+03 -0.35728597168E+03  0.41105241826E+03  0.00000000000E+00 0.  1.
         11    1    4    4    0    0  0.16637197364E+02 -0.17080460757E+03 -0.51138531040E+03  0.53941259347E+03  0.00000000000E+00 0. -1.
         -4    1    1    2    0  502  0.64221053624E+01  0.27365594202E+03 -0.15199696407E+03  0.31310045533E+03  0.00000000000E+00 0.  1.
<scales pt_clust_5="13000.00000" pt_clust_6="13000.00000" pt_clust_7="13000.00000" pt_clust_8="13000.00000" pt_clust_9="294.09420"></scales>
<clustering>
<clus scale="   81.539">  5  6 -1 -1</clus>
<clus scale="   94.023">  7  8 -1 -1</clus>
<clus scale="  130.354">  2  5  1 -1</clus>
<clus scale="  294.094">  1  9  2 -1</clus>
<clus scale="  294.094">  1  5  2 -1</clus>
</clustering>
</event>
<event>
 9    2  0.1665830E-004  0.1263269E+03  0.7546771E-02  0.1237515E+00
         21   -1    0    0  501  502  0.00000000000E+00  0.00000000000E+00  0.58636267058E+02  0.58636267058E+02  0.00000000000E+00 0. -1.
         -1   -1    0    0    0  501 -0.00000000000E+00 -0.00000000000E+00 -0.83228645547E+03  0.83228645547E+03  0.00000000000E+00 0.  1.
         23    2    1    2    0    0 -0.93142154067E-01  0.83935345365E+02 -0.33357896319E+03  0.35629026941E+03  0.92858389583E+02 0.  0.
         24    2    1    2    0    0 -0.51878875730E+02 -0.89424540068E+02 -0.45663742053E+02  0.13677759933E+03  0.77037446918E+02 0.  0.
        -11    1    4    4    0    0  0.18578888661E+02 -0.35966536108E+02 -0.14945965937E+02  0.43152621256E+02  0.00000000000E+00 0.  1.
         12    1    4    4    0    0 -0.70457764391E+02 -0.53458003960E+02 -0.30717776115E+02  0.93624978077E+02  0.00000000000E+00 0. -1.
        -13    1    3    3    0    0 -0.29667710623E+02  0.74911491732E+02 -0.30005204641E+03  0.31068172654E+03  0.00000000000E+00 0.  1.
         13    1    3    3    0    0  0.29574568469E+02  0.90238536331E+01 -0.33526916780E+02  0.45608542876E+02  0.00000000000E+00 0. -1.
         -2    1    1    2    0  502  0.51972017884E+02  0.54891947025E+01 -0.39440748317E+03  0.39785485379E+03  0.00000000000E+00 0.  1.
<scales pt_clust_5="13000.00000" pt_clust_6="13000.00000" pt_clust_7="13000.00000" pt_clust_8="13000.00000" pt_clust_9="52.26112"></scales>
<clustering>
<clus scale="   52.261">  1  9  2 -1</clus>
<clus scale="   77.037">  5  6 -1 -1</clus>
<clus scale="   92.858">  7  8 -1 -1</clus>
<clus scale="  115.198">  1  5  2 -1</clus>
<clus scale="   52.261">  1  5  2 -1</clus>
</clustering>
</event>
<event>
 9    2  0.1665830E-004  0.1456273E+03  0.7546771E-02  0.1220199E+00
         21   -1    0    0  501  502  0.00000000000E+00  0.00000000000E+00  0.48411898897E+02  0.48411898897E+02  0.00000000000E+00 0. -1.
          4   -1    0    0  502    0 -0.00000000000E+00 -0.00000000000E+00 -0.91804655290E+03  0.91804655290E+03  0.00000000000E+00 0. -1.
         24    2    1    2    0    0  0.71830229275E+02  0.79177775211E-01 -0.49234247877E+03  0.50396211641E+03  0.80106867798E+02 0.  0.
         23    2    1    2    0    0  0.53553537634E+02  0.62998895005E+02 -0.20773520092E+03  0.24238386457E+03  0.93590501328E+02 0.  0.
        -13    1    3    3    0    0  0.38334928676E+02 -0.39634533745E+02 -0.22913574248E+03  0.23567700674E+03  0.00000000000E+00 0.  1.
         14    1    3    3    0    0  0.33495300599E+02  0.39713711520E+02 -0.26320673629E+03  0.26828510967E+03  0.00000000000E+00 0. -1.
        -13    1    4    4    0    0 -0.18079401126E+02 -0.10252750662E+02 -0.51665379912E+02  0.55689272959E+02  0.00000000000E+00 0.  1.
         13    1    4    4    0    0  0.71632938760E+02  0.73251645667E+02 -0.15606982101E+03  0.18669459161E+03  0.00000000000E+00 0. -1.
          3    1    1    2  501    0 -0.12538376691E+03 -0.63078072780E+02 -0.16955697431E+03  0.22011247081E+03  0.00000000000E+00 0. -1.
<scales pt_clust_5="13000.00000" pt_clust_6="13000.00000" pt_clust_7="13000.00000" pt_clust_8="13000.00000" pt_clust_9="111.57124"></scales>
<clustering>
<clus scale="   80.107">  5  6 -1 -1</clus>
<clus scale="   93.591">  7  8 -1 -1</clus>
<clus scale="  107.595">  2  5  1 -1</clus>
<clus scale="  111.571">  1  9  2 -1</clus>
<clus scale="  111.571">  1  5  2 -1</clus>
</clustering>
</event>
<event>
 9    2  0.1665830E-004  0.2948749E+03  0.7546771E-02  0.1119751E+00
          2   -1    0    0  502    0 -0.00000000000E+00  0.00000000000E+00  0.44850235582E+03  0.44850235582E+03  0.00000000000E+00 0. -1.
         21   -1    0    0  501  502  0.00000000000E+00 -0.00000000000E+00 -0.43621126866E+03  0.43621126866E+03  0.00000000000E+00 0.  1.
         24    2    1    2    0    0  0.96262564219E+02 -0.33062513609E+02 -0.11645950693E+03  0.17418855985E+03  0.80120075833E+02 0.  0.
         23    2    1    2    0    0  0.17065680571E+03 -0.10878787229E+03  0.29233172209E+03  0.36683004363E+03  0.90265711515E+02 0.  0.
        -11    1    3    3    0    0  0.59524932279E+02 -0.48148266885E+02 -0.10989656615E+03  0.13393553829E+03  0.00000000000E+00 0.  1.
         12    1    3    3    0    0  0.36737631940E+02  0.15085753276E+02 -0.65629407798E+01  0.40253021553E+02  0.00000000000E+00 0. -1.
        -11    1    4    4    0    0  0.14938584436E+03 -0.11387767703E+03  0.21049579469E+03  0.28212184496E+03  0.00000000000E+00 0.  1.
         11    1    4    4    0    0  0.21270961358E+02  0.50898047347E+01  0.81835927398E+02  0.84708198673E+02  0.00000000000E+00 0. -1.
          1    1    1    2  501    0 -0.26691936993E+03  0.14185038590E+03 -0.16358112799E+03  0.34369502100E+03  0.00000000000E+00 0. -1.
<scales pt_clust_5="13000.00000" pt_clust_6="13000.00000" pt_clust_7="13000.00000" pt_clust_8="13000.00000" pt_clust_9="280.71923"></scales>
<clustering>
<clus scale="   80.120">  5  6 -1 -1</clus>
<clus scale="   90.266">  7  8 -1 -1</clus>
<clus scale="  129.533">  1  5  2 -1</clus>
<clus scale="  280.719">  2  9  1 -1</clus>
<clus scale="  280.719">  2  5  1 -1</clus>
</clustering>
</event>
<event>
 9    2  0.1665830E-004  0.9638021E+02  0.7546771E-02  0.1294937E+00
          2   -1    0    0  502    0 -0.00000000000E+00  0.00000000000E+00  0.32801590890E+03  0.32801590890E+03  0.00000000000E+00 0. -1.
         21   -1    0    0  501  502  0.00000000000E+00 -0.00000000000E+00 -0.62504729734E+02  0.62504729734E+02  0.00000000000E+00 0.  1.
         24    2    1    2    0    0 -0.19887185457E+02  0.13100404510E+02  0.14693613202E+03  0.16910570669E+03  0.80245824789E+02 0.  0.
         23    2    1    2    0    0  0.54425712116E+02  0.40868451342E+02  0.43503504287E+02  0.12271698986E+03  0.92382445631E+02 0.  0.
        -11    1    3    3    0    0 -0.36468471875E+02  0.37804691419E+02  0.10806310437E+03  0.12015314669E+03  0.00000000000E+00 0.  1.
         12    1    3    3    0    0  0.16581286418E+02 -0.24704286908E+02  0.38873027654E+02  0.48952559993E+02  0.00000000000E+00 0. -1.
        -11    1    4    4    0    0 -0.53170056403E+01  0.23692804760E+02 -0.21746300644E+02  0.32596336268E+02  0.00000000000E+00 0.  1.
         11    1    4    4    0    0  0.59742717756E+02  0.17175646582E+02  0.65249804932E+02  0.90120653593E+02  0.00000000000E+00 0. -1.
          1    1    1    2  501    0 -0.34538526659E+02 -0.53968855853E+02  0.75071542859E+02  0.98697942091E+02  0.00000000000E+00 0. -1.
<scales pt_clust_5="13000.00000" pt_clust_6="13000.00000" pt_clust_7="13000.00000" pt_clust_8="13000.00000" pt_clust_9="64.07458"></scales>
<clustering>
<clus scale="   64.075">  2  9  1 -1</clus>
<clus scale="   80.246">  5  6 -1 -1</clus>
<clus scale="   84.818">  1  5  2 -1</clus>
<clus scale="   92.382">  7  8 -1 -1</clus>
<clus scale="   64.075">  2  5  1 -1</clus>
</clustering>
</event>
<event>
 9    2  0.1665830E-004  0.2610500E+03  0.7546771E-02  0.1139893E+00
         21   -1    0    0  501  502  0.00000000000E+00  0.00000000000E+00  0.13268556413E+03  0.13268556413E+03  0.00000000000E+00 0. -1.
          2   -1    0    0  502    0 -0.00000000000E+00 -0.00000000000E+00 -0.78980680276E+03  0.78980680276E+03  0.00000000000E+00 0. -1.
         24    2    1    2    0    0 -0.59223636615E+02 -0.49768783996E+02 -0.22594426483E+03  0.25299254137E+03  0.83486790494E+02 0.  0.
         23    2    1    2    0    0  0.25250716848E+03  0.12298292681E+03 -0.18727793959E+03  0.34980376159E+03  0.91678648224E+02 0.  0.
        -11    1    3    3    0    0 -0.44349559454E+02 -0.43227359292E+02 -0.59915358462E+02  0.86170402080E+02  0.00000000000E+00 0.  1.
         12    1    3    3    0    0 -0.14874077161E+02 -0.65414247036E+01 -0.16602890637E+03  0.16682213929E+03  0.00000000000E+00 0. -1.
        -11    1    4    4    0    0  0.22856356837E+03  0.12210241930E+03 -0.19535301855E+03  0.32451981055E+03  0.00000000000E+00 0. -1.
         11    1    4    4    0    0  0.23943600112E+02  0.88050751014E+00  0.80750789544E+01  0.25283951035E+02  0.00000000000E+00 0.  1.
          1    1    1    2  501    0 -0.19328353187E+03 -0.73214142815E+02 -0.24389903420E+03  0.31969606392E+03  0.00000000000E+00 0. -1.
<scales pt_clust_5="13000.00000" pt_clust_6="13000.00000" pt_clust_7="13000.00000" pt_clust_8="13000.00000" pt_clust_9="244.42212"></scales>
<clustering>
<clus scale="   83.487">  5  6 -1 -1</clus>
<clus scale="   91.679">  7  8 -1 -1</clus>
<clus scale="  113.817">  2  5  1 -1</clus>
<clus scale="  244.422">  1  9  2 -1</clus>
<clus scale="  244.422">  1  5  2 -1</clus>
</clustering>
</event>
<event>
 9    2  0.1665830E-004  0.1962108E+03  0.7546771E-02  0.1153909E+00
          2   -1    0    0  502    0 -0.00000000000E+00  0.00000000000E+00  0.18539503626E+04  0.18539503626E+04  0.00000000000E+00 0. -1.
         21   -1    0    0  501  502  0.00000000000E+00 -0.00000000000E+00 -0.47463840436E+02  0.47463840436E+02  0.00000000000E+00 0. -1.
         24    2    1    2    0    0  0.21331920942E+03  0.28250200059E+02  0.12257510023E+04  0.12472335243E+04  0.82600156120E+02 0.  0.
         23    2    1    2    0    0 -0.10619507350E+03  0.68287324353E+02  0.32410164144E+03  0.35980672997E+03  0.92078535177E+02 0.  0.
        -13    1    3    3    0    0  0.94361206342E+02 -0.68074996609E+01  0.34278737200E+03  0.35560309577E+03  0.00000000000E+00 0.  1.
         14    1    3    3    0    0  0.11895800308E+03  0.35057699720E+02  0.88296363026E+03  0.89163042858E+03  0.00000000000E+00 0. -1.
        -13    1    4    4    0    0 -0.46357661861E+02  0.75209607257E+02  0.13497235981E+03  0.16131663197E+03  0.00000000000E+00 0. -1.
         13    1    4    4    0    0 -0.59837411635E+02 -0.69222829041E+01  0.18912928164E+03  0.19849009800E+03  0.00000000000E+00 0.  1.
          1    1    1    2  501    0 -0.10712413593E+03 -0.96537524412E+02  0.25663387848E+03  0.29437394875E+03  0.00000000000E+00 0. -1.
<scales pt_clust_5="13000.00000" pt_clust_6="13000.00000" pt_clust_7="13000.00000" pt_clust_8="13000.00000" pt_clust_9="144.20497"></scales>
<clustering>
<clus scale="   82.600">  5  6 -1 -1</clus>
<clus scale="   92.079">  7  8 -1 -1</clus>
<clus scale="  144.205">  2  9  1 -1</clus>
<clus scale="  191.945">  1  5  2 -1</clus>
<clus scale="  144.205">  2  5  1 -1</clus>
</clustering>
</event>
<event>
 9    2  0.1665830E-004  0.1185626E+03  0.7546771E-02  0.1247782E+00
         21   -1    0    0  501  502  0.00000000000E+00  0.00000000000E+00  0.11701471076E+03  0.11701471076E+03  0.00000000000E+00 0.  1.
         -1   -1    0    0    0  501 -0.00000000000E+00 -0.00000000000E+00 -0.38537919816E+03  0.38537919816E+03  0.00000000000E+00 0.  1.
         23    2    1    2    0    0  0.54918128808E+02  0.68082271114E+02 -0.20373820307E+03  0.23825142158E+03  0.87196834701E+02 0.  0.
         24    2    1    2    0    0  0.46009182208E+02 -0.87607745827E+02  0.22866823284E+02  0.12915133893E+03  0.79782296049E+02 0.  0.
        -11    1    4    4    0    0  0.67441552133E+02 -0.79360188031E+02  0.18845540324E+02  0.10583740732E+03  0.00000000000E+00 0.  1.
         12    1    4    4    0    0 -0.21432369925E+02 -0.82475577954E+01  0.40212829600E+01  0.23313931604E+02  0.00000000000E+00 0. -1.
        -13    1    3    3    0    0  0.63957472167E+02  0.46832632998E+02 -0.80908168272E+02  0.11326952570E+03  0.00000000000E+00 0.  1.
         13    1    3    3    0    0 -0.90393433585E+01  0.21249638116E+02 -0.12283003480E+03  0.12498189588E+03  0.00000000000E+00 0. -1.
         -2    1    1    2    0  502 -0.10092731102E+03  0.19525474713E+02 -0.87493107616E+02  0.13499114842E+03  0.00000000000E+00 0.  1.
<scales pt_clust_5="13000.00000" pt_clust_6="13000.00000" pt_clust_7="13000.00000" pt_clust_8="13000.00000" pt_clust_9="102.79872"></scales>
<clustering>
<clus scale="   79.782">  5  6 -1 -1</clus>
<clus scale="   87.197">  7  8 -1 -1</clus>
<clus scale="  102.799">  1  9  2 -1</clus>
<clus scale="  113.221">  1  5  2 -1</clus>
<clus scale="  102.799">  1  5  2 -1</clus>
</clustering>
</event>
<event>
 9    2  0.1665830E-004  0.9797887E+02  0.7546771E-02  0.1290300E+00
         21   -1    0    0  501  502  0.00000000000E+00  0.00000000000E+00  0.32595916829E+02  0.32595916829E+02  0.00000000000E+00 0. -1.
          2   -1    0    0  502    0 -0.00000000000E+00 -0.00000000000E+00 -0.75190144193E+03  0.75190144193E+03  0.00000000000E+00 0. -1.
         23    2    1    2    0    0  0.20729974086E+02  0.13995661895E+02 -0.48568006360E+03  0.49485880353E+03  0.91512299035E+02 0.  0.
         24    2    1    2    0    0 -0.71170946093E+02  0.10182022295E+01 -0.20015198816E+03  0.22726723818E+03  0.80766570323E+02 0.  0.
        -13    1    4    4    0    0 -0.14914074389E+02 -0.32126160715E+02 -0.35528713515E+02  0.50167811405E+02  0.00000000000E+00 0.  1.
         14    1    4    4    0    0 -0.56256871704E+02  0.33144362944E+02 -0.16462327465E+03  0.17709942678E+03  0.00000000000E+00 0. -1.
        -13    1    3    3    0    0  0.20387577731E+02 -0.37865794371E+02 -0.21912858386E+03  0.22330877272E+03  0.00000000000E+00 0.  1.
         13    1    3    3    0    0  0.34239635476E+00  0.51861456266E+02 -0.26655147973E+03  0.27155003080E+03  0.00000000000E+00 0. -1.
          1    1    1    2  501    0  0.50440972007E+02 -0.15013864125E+02 -0.33473473340E+02  0.62371317049E+02  0.00000000000E+00 0. -1.
<scales pt_clust_5="13000.00000" pt_clust_6="13000.00000" pt_clust_7="13000.00000" pt_clust_8="13000.00000" pt_clust_9="52.62801"></scales>
<clustering>
<clus scale="   52.628">  1  9  2 -1</clus>
<clus scale="   80.767">  5  6 -1 -1</clus>
<clus scale="   88.026">  1  5  2 -1</clus>
<clus scale="   91.512">  7  8 -1 -1</clus>
<clus scale="   52.628">  1  5  2 -1</clus>
</clustering>
</event>
<event>
 9    2  0.1665830E-004  0.1385069E+03  0.7546771E-02  0.1218394E+00
         -1   -1    0    0    0  501 -0.00000000000E+00  0.00000000000E+00  0.13507866911E+03  0.13507866911E+03  0.00000000000E+00 0.  1.
         21   -1    0    0  501  502  0.00000000000E+00 -0.00000000000E+00 -0.23888581514E+03  0.23888581514E+03  0.00000000000E+00 0.  1.
         23    2    1    2    0    0  0.56955027612E+02 -0.10830588415E+03  0.30471824016E+02  0.15442870548E+03  0.89138394121E+02 0.  0.
         24    2    1    2    0    0 -0.61672418531E+02  0.46759596297E+02 -0.10750276904E+03  0.15225157359E+03  0.75058305723E+02 0.  0.
        -11    1    4    4    0    0 -0.66427424275E+02  0.15741258406E+02 -0.43440839144E+02  0.80916601619E+02  0.00000000000E+00 0.  1.
         12    1    4    4    0    0  0.47550057443E+01  0.31018337890E+02 -0.64061929892E+02  0.71334971974E+02  0.00000000000E+00 0. -1.
        -11    1    3    3    0    0  0.14001950114E+01 -0.51258013644E+02  0.50868875983E+02  0.72228713491E+02  0.00000000000E+00 0. -1.
         11    1    3    3    0    0  0.55554832600E+02 -0.57047870507E+02 -0.20397051967E+02  0.82199991993E+02  0.00000000000E+00 0.  1.
         -2    1    1    2    0  502  0.47173909191E+01  0.61546287854E+02 -0.26776201013E+02  0.67284205177E+02  0.00000000000E+00 0.  1.
<scales pt_clust_5="13000.00000" pt_clust_6="13000.00000" pt_clust_7="13000.00000" pt_clust_8="13000.00000" pt_clust_9="61.72681"></scales>
<clustering>
<clus scale="   61.727">  2  9  1 -1</clus>
<clus scale="   75.058">  5  6 -1 -1</clus>
<clus scale="   89.138">  7  8 -1 -1</clus>
<clus scale="  129.893">  2  5  1 -1</clus>
<clus scale="   61.727">  2  5  1 -1</clus>
</clustering>
</event>
<event>
 9    2  0.1665830E-004  0.9320462E+02  0.7546771E-02  0.1304290E+00
          2   -1    0    0  502    0 -0.00000000000E+00  0.00000000000E+00  0.22593272853E+03  0.22593272853E+03  0.00000000000E+00 0. -1.
         21   -1    0    0  501  502  0.00000000000E+00 -0.00000000000E+00 -0.21356903622E+03  0.21356903622E+03  0.00000000000E+00 0. -1.
         24    2    1    2    0    0 -0.34948807998E+01 -0.64022506842E+01  0.18210682383E+03  0.19854729261E+03  0.78771372412E+02 0.  0.
         23    2    1    2    0    0 -0.18720776284E+02 -0.83032898174E+01 -0.31809097164E+02  0.10047107036E+03  0.93076340872E+02 0.  0.
        -11    1    3    3    0    0 -0.30347624302E+02  0.22338875341E+02  0.66529877147E+02  0.76460631736E+02  0.00000000000E+00 0.  1.
         12    1    3    3    0    0  0.26852743502E+02 -0.28741126025E+02  0.11557694668E+03  0.12208666087E+03  0.00000000000E+00 0. -1.
        -13    1    4    4    0    0  0.31275644126E+02  0.17675835571E+02 -0.24889484689E+02  0.43704548124E+02  0.00000000000E+00 0.  1.
         13    1    4    4    0    0 -0.49996420410E+02 -0.25979125389E+02 -0.69196124751E+01  0.56766522235E+02  0.00000000000E+00 0. -1.
          1    1    1    2  501    0  0.22215657084E+02  0.14705540502E+02 -0.13793403436E+03  0.14048340178E+03  0.00000000000E+00 0. -1.
<scales pt_clust_5="13000.00000" pt_clust_6="13000.00000" pt_clust_7="13000.00000" pt_clust_8="13000.00000" pt_clust_9="26.64185"></scales>
<clustering>
<clus scale="   26.642">  2  9  1 -1</clus>
<clus scale="   78.771">  5  6 -1 -1</clus>
<clus scale="   78.923">  1  5  2 -1</clus>
<clus scale="   93.076">  7  8 -1 -1</clus>
<clus scale="   26.642">  2  5  1 -1</clus>
</clustering>
</event>
<event>
 9    2  0.1665830E-004  0.1420660E+03  0.7546771E-02  0.1214492E+00
         21   -1    0    0  501  502  0.00000000000E+00  0.00000000000E+00  0.27381252510E+03  0.27381252510E+03  0.00000000000E+00 0.  1.
          4   -1    0    0  502    0 -0.00000000000E+00 -0.00000000000E+00 -0.14365671418E+03  0.14365671418E+03  0.00000000000E+00 0. -1.
         23    2    1    2    0    0  0.95035927139E+02 -0.48284515427E+02  0.98531953686E+01  0.14515134410E+03  0.98023493914E+02 0.  0.
         24    2    1    2    0    0 -0.11049319144E+03 -0.27465362761E+02  0.13438085603E+03  0.19373565851E+03  0.80698199496E+02 0.  0.
        -11    1    4    4    0    0 -0.12033433246E+03 -0.28732021258E+02  0.13580837530E+03  0.18371117390E+03  0.00000000000E+00 0.  1.
         12    1    4    4    0    0  0.98411410163E+01  0.12666584962E+01 -0.14275192742E+01  0.10024484602E+02  0.00000000000E+00 0. -1.
        -11    1    3    3    0    0  0.69417678652E+02 -0.78738015779E+02  0.54116668009E+01  0.10510839822E+03  0.00000000000E+00 0.  1.
         11    1    3    3    0    0  0.25618248488E+02  0.30453500353E+02  0.44415285677E+01  0.40042945887E+02  0.00000000000E+00 0. -1.
          3    1    1    2  501    0  0.15457264306E+02  0.75749878188E+02 -0.14078240475E+02  0.78582236671E+02  0.00000000000E+00 0. -1.
<scales pt_clust_5="13000.00000" pt_clust_6="13000.00000" pt_clust_7="13000.00000" pt_clust_8="13000.00000" pt_clust_9="77.31091"></scales>
<clustering>
<clus scale="   77.311">  1  9  2 -1</clus>
<clus scale="   80.698">  5  6 -1 -1</clus>
<clus scale="   98.023">  7  8 -1 -1</clus>
<clus scale="  130.715">  1  5  2 -1</clus>
<clus scale="   77.311">  1  5  2 -1</clus>
</clustering>
</event>
<event>
 9    2  0.1665830E-004  0.1344586E+03  0.7546771E-02  0.1245873E+00
          2   -1    0    0  502    0 -0.00000000000E+00  0.00000000000E+00  0.96203832704E+03  0.96203832704E+03  0.00000000000E+00 0. -1.
         21   -1    0    0  501  502  0.00000000000E+00 -0.00000000000E+00 -0.30587102005E+02  0.30587102005E+02  0.00000000000E+00 0.  1.
         24    2    1    2    0    0  0.60547597513E+01  0.10764077229E+02  0.11289251825E+03  0.13874701877E+03  0.79708776588E+02 0.  0.
         23    2    1    2    0    0 -0.10006444267E+03 -0.19933636733E+02  0.34904413634E+03  0.37495687896E+03  0.91381668875E+02 0.  0.
        -13    1    3    3    0    0  0.19621297997E+02  0.64181267881E+01 -0.39673349226E+01  0.21022070140E+02  0.00000000000E+00 0.  1.
         14    1    3    3    0    0 -0.13566538246E+02  0.43459504414E+01  0.11685985318E+03  0.11772494863E+03  0.00000000000E+00 0. -1.
        -11    1    4    4    0    0 -0.93918475376E+02  0.20425663606E+02  0.24126013823E+03  0.25970048527E+03  0.00000000000E+00 0.  1.
         11    1    4    4    0    0 -0.61459672896E+01 -0.40359300339E+02  0.10778399811E+03  0.11525639369E+03  0.00000000000E+00 0. -1.
          1    1    1    2  501    0  0.94009682914E+02  0.91695595034E+01  0.46951457043E+03  0.47892153131E+03  0.00000000000E+00 0. -1.
<scales pt_clust_5="13000.00000" pt_clust_6="13000.00000" pt_clust_7="13000.00000" pt_clust_8="13000.00000" pt_clust_9="98.63317"></scales>
<clustering>
<clus scale="   79.709">  5  6 -1 -1</clus>
<clus scale="   80.660">  1  5  2 -1</clus>
<clus scale="   91.382">  7  8 -1 -1</clus>
<clus scale="   98.633">  2  9  1 -1</clus>
<clus scale="   98.633">  2  5  1 -1</clus>
</clustering>
</event>
<event>
 9    2  0.1665830E-004  0.1028698E+03  0.7546771E-02  0.1278911E+00
         -1   -1    0    0    0  501 -0.00000000000E+00  0.00000000000E+00  0.66842276237E+03  0.66842276237E+03  0.00000000000E+00 0.  1.
         21   -1    0    0  501  502  0.00000000000E+00 -0.00000000000E+00 -0.32567390714E+02  0.32567390714E+02  0.00000000000E+00 0. -1.
         23    2    1    2    0    0  0.39911530498E+02 -0.31893461273E+02  0.39505788094E+03  0.40855450283E+03  0.90752021194E+02 0.  0.
         24    2    1    2    0    0 -0.55969955016E+02 -0.14728384658E+02  0.91373233947E+02  0.13508547381E+03  0.80928710439E+02 0.  0.
        -13    1    4    4    0    0 -0.31670322599E+02  0.46482020263E+00  0.10020927710E+03  0.10509578778E+03  0.00000000000E+00 0.  1.
         14    1    4    4    0    0 -0.24299632418E+02 -0.15193204860E+02 -0.88360431562E+01  0.29989686031E+02  0.00000000000E+00 0. -1.
        -13    1    3    3    0    0  0.66673572452E+02 -0.63784122084E+01  0.26615262904E+03  0.27445085416E+03  0.00000000000E+00 0.  1.
         13    1    3    3    0    0 -0.26762041954E+02 -0.25515049064E+02  0.12890525190E+03  0.13410364867E+03  0.00000000000E+00 0. -1.
         -2    1    1    2    0  502  0.16058424518E+02  0.46621845930E+02  0.14942425677E+03  0.15735017645E+03  0.00000000000E+00 0.  1.
<scales pt_clust_5="13000.00000" pt_clust_6="13000.00000" pt_clust_7="13000.00000" pt_clust_8="13000.00000" pt_clust_9="49.30996"></scales>
<clustering>
<clus scale="   49.310">  2  9  1 -1</clus>
<clus scale="   80.929">  5  6 -1 -1</clus>
<clus scale="   90.752">  7  8 -1 -1</clus>
<clus scale="   94.317">  2  5  1 -1</clus>
<clus scale="   49.310">  2  5  1 -1</clus>
</clustering>
</event>
<event>
 9    2  0.1665830E-004  0.1271927E+03  0.7546771E-02  0.1235035E+00
          4   -1    0    0  502    0 -0.00000000000E+00  0.00000000000E+00  0.12492421623E+03  0.12492421623E+03  0.00000000000E+00 0. -1.
         21   -1    0    0  501  502  0.00000000000E+00 -0.00000000000E+00 -0.21127785443E+03  0.21127785443E+03  0.00000000000E+00 0. -1.
         24    2    1    2    0    0  0.84269576926E+02  0.58059121483E+02  0.30911420521E+02  0.13340483078E+03  0.79806702564E+02 0.  0.
         23    2    1    2    0    0 -0.29901614482E+02 -0.53680619390E+02 -0.84553171286E+02  0.13919602763E+03  0.91927035662E+02 0.  0.
        -13    1    3    3    0    0  0.38937804834E+02 -0.80447814251E+01 -0.13225421854E+02  0.41902063633E+02  0.00000000000E+00 0.  1.
         14    1    3    3    0    0  0.45331772091E+02  0.66103902908E+02  0.44136842375E+02  0.91502767147E+02  0.00000000000E+00 0. -1.
        -13    1    4    4    0    0 -0.23704838885E+02 -0.20845164251E+02 -0.98164531388E+02  0.10311505943E+03  0.00000000000E+00 0. -1.
         13    1    4    4    0    0 -0.61967755968E+01 -0.32835455138E+02  0.13611360101E+02  0.36080968193E+02  0.00000000000E+00 0.  1.
          3    1    1    2  501    0 -0.54367962444E+02 -0.43785020932E+01 -0.32711887433E+02  0.63601212255E+02  0.00000000000E+00 0. -1.
<scales pt_clust_5="13000.00000" pt_clust_6="13000.00000" pt_clust_7="13000.00000" pt_clust_8="13000.00000" pt_clust_9="54.54399"></scales>
<clustering>
<clus scale="   54.544">  2  9  1 -1</clus>
<clus scale="   79.807">  5  6 -1 -1</clus>
<clus scale="   91.927">  7  8 -1 -1</clus>
<clus scale="  118.729">  1  5  2 -1</clus>
<clus scale="   54.544">  2  5  1 -1</clus>
</clustering>
</event>
<event>
 9    2  0.1665830E-004  0.1197266E+03  0.7546771E-02  0.1250304E+00
         -1   -1    0    0    0  501 -0.00000000000E+00  0.00000000000E+00  0.11901272730E+03  0.11901272730E+03  0.00000000000E+00 0.  1.
         21   -1    0    0  501  502  0.00000000000E+00 -0.00000000000E+00 -0.36716637356E+03  0.36716637356E+03  0.00000000000E+00 0.  1.
         24    2    1    2    0    0  0.67822234189E+02 -0.35316196410E+02 -0.94274771762E+02  0.14589140876E+03  0.80928866178E+02 0.  0.
         23    2    1    2    0    0  0.19000639445E+02  0.90445626179E+02 -0.18790429792E+03  0.23195858773E+03  0.99776378231E+02 0.  0.
        -11    1    3    3    0    0  0.45116096434E+02 -0.33283730396E+02 -0.79723779858E+01  0.56628859049E+02  0.00000000000E+00 0.  1.
         12    1    3    3    0    0  0.22706137755E+02 -0.20324660139E+01 -0.86302393776E+02  0.89262549714E+02  0.00000000000E+00 0. -1.
        -11    1    4    4    0    0  0.54978902086E+02  0.81786704323E+02 -0.12792847367E+03  0.16148510474E+03  0.00000000000E+00 0.  1.
         11    1    4    4    0    0 -0.35978262642E+02  0.86589218565E+01 -0.59975824245E+02  0.70473482987E+02  0.00000000000E+00 0. -1.
         -2    1    1    2    0  502 -0.86822873634E+02 -0.55129429770E+02  0.34025423419E+02  0.10832910436E+03  0.00000000000E+00 0.  1.
<scales pt_clust_5="13000.00000" pt_clust_6="13000.00000" pt_clust_7="13000.00000" pt_clust_8="13000.00000" pt_clust_9="102.84686"></scales>
<clustering>
<clus scale="   80.929">  5  6 -1 -1</clus>
<clus scale="   99.776">  7  8 -1 -1</clus>
<clus scale="  102.847">  2  9  1 -1</clus>
<clus scale="  104.540">  1  5  2 -1</clus>
<clus scale="  102.847">  2  5  1 -1</clus>
</clustering>
</event>
<event>
 9    2  0.1665830E-004  0.9089188E+02  0.7546771E-02  0.1305904E+00
         21   -1    0    0  501  502  0.00000000000E+00  0.00000000000E+00  0.97035819314E+02  0.97035819314E+02  0.00000000000E+00 0. -1.
          2   -1    0    0  502    0 -0.00000000000E+00 -0.00000000000E+00 -0.29981242764E+03  0.29981242764E+03  0.00000000000E+00 0. -1.
         24    2    1    2    0    0 -0.24970485397E+02  0.10140209294E+02 -0.19797967767E+03  0.21567206786E+03  0.81191989134E+02 0.  0.
         23    2    1    2    0    0 -0.44242629816E+02 -0.11055798746E+02 -0.33897804180E+02  0.10608853389E+03  0.89588363734E+02 0.  0.
        -13    1    3    3    0    0  0.29301516586E+02 -0.26127064885E+00 -0.84853702354E+02  0.89770807837E+02  0.00000000000E+00 0.  1.
         14    1    3    3    0    0 -0.54272001983E+02  0.10401479943E+02 -0.11312597532E+03  0.12590126002E+03  0.00000000000E+00 0. -1.
        -13    1    4    4    0    0 -0.42624350301E+02  0.34158081872E+02 -0.24570547317E+02  0.59894253407E+02  0.00000000000E+00 0. -1.
         13    1    4    4    0    0 -0.16182795158E+01 -0.45213880618E+02 -0.93272568635E+01  0.46194280487E+02  0.00000000000E+00 0.  1.
          1    1    1    2  501    0  0.69213115214E+02  0.91558945111E+00  0.29100873525E+02  0.75087645199E+02  0.00000000000E+00 0. -1.
<scales pt_clust_5="13000.00000" pt_clust_6="13000.00000" pt_clust_7="13000.00000" pt_clust_8="13000.00000" pt_clust_9="69.21917"></scales>
<clustering>
<clus scale="   69.219">  1  9  2 -1</clus>
<clus scale="   81.192">  5  6 -1 -1</clus>
<clus scale="   82.628">  2  5  1 -1</clus>
<clus scale="   89.588">  7  8 -1 -1</clus>
<clus scale="   69.219">  1  5  2 -1</clus>
</clustering>
</event>
<event>
 9    2  0.1665830E-004  0.1059645E+03  0.7546771E-02  0.1272735E+00
         21   -1    0    0  501  502  0.00000000000E+00  0.00000000000E+00  0.31220354435E+03  0.31220354435E+03  0.00000000000E+00 0. -1.
         -3   -1    0    0    0  501 -0.00000000000E+00 -0.00000000000E+00 -0.14317573893E+03  0.14317573893E+03  0.00000000000E+00 0.  1.
         23    2    1    2    0    0  0.28884609705E+02  0.52440737560E+02 -0.46659066703E+02  0.11778630831E+03  0.90067720550E+02 0.  0.
         24    2    1    2    0    0  0.31240626612E+00 -0.28588193930E+02  0.26349695809E+03  0.27670608066E+03  0.79487267664E+02 0.  0.
        -11    1    4    4    0    0 -0.11589880461E+02 -0.32818659004E+02  0.40705307166E+02  0.53556621807E+02  0.00000000000E+00 0.  1.
         12    1    4    4    0    0  0.11902286727E+02  0.42304650739E+01  0.22279165092E+03  0.22314945885E+03  0.00000000000E+00 0. -1.
        -11    1    3    3    0    0  0.32265048169E+02  0.28024431754E+02  0.19654802885E+02  0.47039487507E+02  0.00000000000E+00 0.  1.
         11    1    3    3    0    0 -0.33804384634E+01  0.24416305806E+02 -0.66313869588E+02  0.70746820799E+02  0.00000000000E+00 0. -1.
         -4    1    1    2    0  502 -0.29197015971E+02 -0.23852543630E+02 -0.47810085965E+02  0.60886894315E+02  0.00000000000E+00 0.  1.
<scales pt_clust_5="13000.00000" pt_clust_6="13000.00000" pt_clust_7="13000.00000" pt_clust_8="13000.00000" pt_clust_9="37.70160"></scales>
<clustering>
<clus scale="   37.702">  1  9  2 -1</clus>
<clus scale="   79.487">  5  6 -1 -1</clus>
<clus scale="   90.068">  7  8 -1 -1</clus>
<clus scale="   97.131">  1  5  2 -1</clus>
<clus scale="   37.702">  1  5  2 -1</clus>
</clustering>
</event>
<event>
 9    2  0.1665830E-004  0.1523784E+03  0.7546771E-02  0.1198914E+00
         -1   -1    0    0    0  501 -0.00000000000E+00  0.00000000000E+00  0.10795740463E+04  0.10795740463E+04  0.00000000000E+00 0.  1.
         21   -1    0    0  501  502  0.00000000000E+00 -0.00000000000E+00 -0.36535498180E+02  0.36535498180E+02  0.00000000000E+00 0.  1.
         24    2    1    2    0    0  0.76358718555E+02 -0.57257944170E+02  0.31734327151E+03  0.34126142611E+03  0.81507563488E+02 0.  0.
         23    2    1    2    0    0 -0.13405421070E+03  0.10426894268E+03  0.44772065052E+03  0.48708311608E+03  0.89183166884E+02 0.  0.
        -11    1    3    3    0    0  0.33344308559E+02 -0.66540441974E+02  0.14016129758E+03  0.15869676326E+03  0.00000000000E+00 0.  1.
         12    1    3    3    0    0  0.43014409997E+02  0.92824978042E+01  0.17718197393E+03  0.18256466284E+03  0.00000000000E+00 0. -1.
        -11    1    4    4    0    0 -0.81398752264E+02  0.62239002703E+02  0.14882561325E+03  0.18068899659E+03  0.00000000000E+00 0.  1.
         11    1    4    4    0    0 -0.52655458431E+02  0.42029939977E+02  0.29889503726E+03  0.30639411949E+03  0.00000000000E+00 0. -1.
         -2    1    1    2    0  502  0.57695492140E+02 -0.47010998510E+02  0.27797462605E+03  0.28776500225E+03  0.00000000000E+00 0.  1.
<scales pt_clust_5="13000.00000" pt_clust_6="13000.00000" pt_clust_7="13000.00000" pt_clust_8="13000.00000" pt_clust_9="74.42318"></scales>
<clustering>
<clus scale="   74.423">  2  9  1 -1</clus>
<clus scale="   81.508">  5  6 -1 -1</clus>
<clus scale="   89.183">  7  8 -1 -1</clus>
<clus scale="  148.017">  1  5  2 -1</clus>
<clus scale="   74.423">  2  5  1 -1</clus>
</clustering>
</event>
<event>
 9    2  0.1665830E-004  0.1607008E+03  0.7546771E-02  0.1189473E+00
          2   -1    0    0  502    0 -0.00000000000E+00  0.00000000000E+00  0.47739361010E+03  0.47739361010E+03  0.00000000000E+00 0. -1.
         21   -1    0    0  501  502  0.00000000000E+00 -0.00000000000E+00 -0.23213400624E+03  0.23213400624E+03  0.00000000000E+00 0.  1.
         23    2    1    2    0    0  0.13150715606E+03  0.78866100353E+01  0.40742677456E+03  0.43749336975E+03  0.89708089030E+02 0.  0.
         24    2    1    2    0    0 -0.15092963792E+03 -0.41889337555E+02 -0.15013159958E+03  0.23106751310E+03  0.79487270778E+02 0.  0.
        -13    1    4    4    0    0 -0.65606830847E+02 -0.17821382460E+02 -0.11910650024E+03  0.13714305059E+03  0.00000000000E+00 0.  1.
         14    1    4    4    0    0 -0.85322807073E+02 -0.24067955095E+02 -0.31025099347E+02  0.93924462515E+02  0.00000000000E+00 0. -1.
        -13    1    3    3    0    0  0.55563205216E+02  0.26581146306E+02  0.80610188255E+02  0.10144865481E+03  0.00000000000E+00 0.  1.
         13    1    3    3    0    0  0.75943950848E+02 -0.18694536270E+02  0.32681658630E+03  0.33604471494E+03  0.00000000000E+00 0. -1.
          1    1    1    2  501    0  0.19422481856E+02  0.34002727520E+02 -0.12035571107E+02  0.40966733481E+02  0.00000000000E+00 0. -1.
<scales pt_clust_5="13000.00000" pt_clust_6="13000.00000" pt_clust_7="13000.00000" pt_clust_8="13000.00000" pt_clust_9="39.15889"></scales>
<clustering>
<clus scale="   39.159">  2  9  1 -1</clus>
<clus scale="   79.487">  5  6 -1 -1</clus>
<clus scale="   89.708">  7  8 -1 -1</clus>
<clus scale="  155.227">  2  5  1 -1</clus>
<clus scale="   39.159">  2  5  1 -1</clus>
</clustering>
</event>
<event>
 9    2  0.1665830E-004  0.1061762E+03  0.7546771E-02  0.1273949E+00
         21   -1    0    0  501  502  0.00000000000E+00  0.00000000000E+00  0.57777149975E+02  0.57777149975E+02  0.00000000000E+00 0.  1.
          2   -1    0    0  502    0 -0.00000000000E+00 -0.00000000000E+00 -0.50669339286E+03  0.50669339286E+03  0.00000000000E+00 0. -1.
         24    2    1    2    0    0  0.17089144774E+02  0.58288940416E+02 -0.32354736471E+03  0.33892069437E+03  0.80589704182E+02 0.  0.
         23    2    1    2    0    0  0.85407023482E+00  0.11077171604E+02 -0.18099817360E+02  0.96552686206E+02  0.94188028212E+02 0.  0.
        -11    1    3    3    0    0 -0.22636117833E+02  0.54910963252E+02 -0.22254787720E+03  0.23033706902E+03  0.00000000000E+00 0.  1.
         12    1    3    3    0    0  0.39725262607E+02  0.33779771636E+01 -0.10099948750E+03  0.10858362535E+03  0.00000000000E+00 0. -1.
        -11    1    4    4    0    0 -0.35009091976E+02 -0.25362934686E+02 -0.13145824091E+02  0.45185480720E+02  0.00000000000E+00 0. -1.
         11    1    4    4    0    0  0.35863162211E+02  0.36440106290E+02 -0.49539932682E+01  0.51367205486E+02  0.00000000000E+00 0.  1.
          1    1    1    2  501    0 -0.17943215009E+02 -0.69366112019E+02 -0.10726906081E+03  0.12899716225E+03  0.00000000000E+00 0. -1.
<scales pt_clust_5="13000.00000" pt_clust_6="13000.00000" pt_clust_7="13000.00000" pt_clust_8="13000.00000" pt_clust_9="71.64930"></scales>
<clustering>
<clus scale="   71.649">  1  9  2 -1</clus>
<clus scale="   80.590">  5  6 -1 -1</clus>
<clus scale="   94.188">  7  8 -1 -1</clus>
<clus scale="   94.322">  2  5  1 -1</clus>
<clus scale="   71.649">  1  5  2 -1</clus>
</clustering>
</event>
<event>
 9    2  0.1665830E-004  0.9394659E+02  0.7546771E-02  0.1300086E+00
         21   -1    0    0  501  502  0.00000000000E+00  0.00000000000E+00  0.20411099344E+03  0.20411099344E+03  0.00000000000E+00 0. -1.
          2   -1    0    0  502    0 -0.00000000000E+00 -0.00000000000E+00 -0.22500020251E+03  0.22500020251E+03  0.00000000000E+00 0. -1.
         24    2    1    2    0    0 -0.23207492507E+02 -0.47076219207E+01 -0.12715005482E+03  0.15189324221E+03  0.79647166771E+02 0.  0.
         23    2    1    2    0    0 -0.25996541137E+01  0.54837175245E+02 -0.45425607263E+02  0.11539162410E+03  0.90762696783E+02 0.  0.
        -13    1    3    3    0    0  0.15003726252E+01  0.24908142421E+02 -0.10390862335E+03  0.10686284987E+03  0.00000000000E+00 0.  1.
         14    1    3    3    0    0 -0.24707865132E+02 -0.29615764342E+02 -0.23241431476E+02  0.45030392337E+02  0.00000000000E+00 0. -1.
        -13    1    4    4    0    0  0.18277558336E+02  0.64938017656E+02 -0.35889822487E+01  0.67556613810E+02  0.00000000000E+00 0. -1.
         13    1    4    4    0    0 -0.20877212450E+02 -0.10100842411E+02 -0.41836625014E+02  0.47835010293E+02  0.00000000000E+00 0.  1.
          1    1    1    2  501    0  0.25807146621E+02 -0.50129553324E+02  0.15168645302E+03  0.16182632964E+03  0.00000000000E+00 0. -1.
<scales pt_clust_5="13000.00000" pt_clust_6="13000.00000" pt_clust_7="13000.00000" pt_clust_8="13000.00000" pt_clust_9="56.38245"></scales>
<clustering>
<clus scale="   56.382">  1  9  2 -1</clus>
<clus scale="   79.647">  5  6 -1 -1</clus>
<clus scale="   83.257">  2  5  1 -1</clus>
<clus scale="   90.763">  7  8 -1 -1</clus>
<clus scale="   56.382">  1  5  2 -1</clus>
</clustering>
</event>
<event>
 9    2  0.1665830E-004  0.1061193E+03  0.7546771E-02  0.1270047E+00
         21   -1    0    0  501  502  0.00000000000E+00  0.00000000000E+00  0.51120557200E+02  0.51120557200E+02  0.00000000000E+00 0.  1.
         -1   -1    0    0    0  501 -0.00000000000E+00 -0.00000000000E+00 -0.45861312148E+03  0.45861312148E+03  0.00000000000E+00 0.  1.
         24    2    1    2    0    0 -0.50658780729E+02  0.64977900261E+02 -0.26613929465E+03  0.29051842660E+03  0.82355281856E+02 0.  0.
         23    2    1    2    0    0  0.38556869720E+02 -0.16818914184E+01 -0.11495019681E+03  0.14957357462E+03  0.87574228605E+02 0.  0.
        -11    1    3    3    0    0 -0.62966995475E+01  0.37258004536E+02 -0.21160162846E+03  0.21494896253E+03  0.00000000000E+00 0.  1.
         12    1    3    3    0    0 -0.44362081182E+02  0.27719895724E+02 -0.54537666190E+02  0.75569464066E+02  0.00000000000E+00 0. -1.
        -11    1    4    4    0    0  0.57825690120E+02 -0.27044798649E+02 -0.75596109587E+02  0.98944445809E+02  0.00000000000E+00 0. -1.
         11    1    4    4    0    0 -0.19268820400E+02  0.25362907230E+02 -0.39354087223E+02  0.50629128809E+02  0.00000000000E+00 0.  1.
         -2    1    1    2    0  502  0.12101911009E+02 -0.63296008842E+02 -0.26403072820E+02  0.69641677462E+02  0.00000000000E+00 0.  1.
<scales pt_clust_5="13000.00000" pt_clust_6="13000.00000" pt_clust_7="13000.00000" pt_clust_8="13000.00000" pt_clust_9="64.44254"></scales>
<clustering>
<clus scale="   64.443">  1  9  2 -1</clus>
<clus scale="   82.355">  5  6 -1 -1</clus>
<clus scale="   87.574">  7  8 -1 -1</clus>
<clus scale="  101.855">  2  5  1 -1</clus>
<clus scale="   64.443">  1  5  2 -1</clus>
</clustering>
</event>
<event>
 9    2  0.1665830E-004  0.1122405E+03  0.7546771E-02  0.1256535E+00
          2   -1    0    0  502    0 -0.00000000000E+00  0.00000000000E+00  0.72400374363E+02  0.72400374363E+02  0.00000000000E+00 0. -1.
         21   -1    0    0  501  502  0.00000000000E+00 -0.00000000000E+00 -0.43547352746E+03  0.43547352746E+03  0.00000000000E+00 0. -1.
         23    2    1    2    0    0 -0.65026216958E+01  0.64413867868E+02 -0.11276703349E+03  0.16251067123E+03  0.97477607465E+02 0.  0.
         24    2    1    2    0    0  0.93306607110E+02  0.68433758761E+01 -0.15605025134E+03  0.19874571673E+03  0.79970146007E+02 0.  0.
        -13    1    4    4    0    0  0.84490121427E+02  0.24243654261E+02 -0.75518454794E+02  0.11588516905E+03  0.00000000000E+00 0.  1.
         14    1    4    4    0    0  0.88164856828E+01 -0.17400278385E+02 -0.80531796547E+02  0.82860547685E+02  0.00000000000E+00 0. -1.
        -13    1    3    3    0    0 -0.15058365842E+02  0.38535071563E+02 -0.12570574381E+03  0.13233911043E+03  0.00000000000E+00 0.  1.
         13    1    3    3    0    0  0.85557441460E+01  0.25878796305E+02  0.12938710320E+02  0.30171560796E+02  0.00000000000E+00 0. -1.
          1    1    1    2  501    0 -0.86803985414E+02 -0.71257243744E+02 -0.94255868268E+02  0.14661751387E+03  0.00000000000E+00 0. -1.
<scales pt_clust_5="13000.00000" pt_clust_6="13000.00000" pt_clust_7="13000.00000" pt_clust_8="13000.00000" pt_clust_9="112.30556"></scales>
<clustering>
<clus scale="   79.970">  5  6 -1 -1</clus>
<clus scale="   97.478">  7  8 -1 -1</clus>
<clus scale="  112.306">  2  9  1 -1</clus>
<clus scale="  112.306">  2  5  1 -1</clus>
<clus scale="  112.240">  2  5  1 -1</clus>
</clustering>
</event>
<event>
 9    2  0.1665830E-004  0.9472738E+02  0.7546771E-02  0.1295601E+00
         21   -1    0    0  501  502  0.00000000000E+00  0.00000000000E+00  0.23729739729E+03  0.23729739729E+03  0.00000000000E+00 0. -1.
          2   -1    0    0  502    0 -0.00000000000E+00 -0.00000000000E+00 -0.33713708210E+03  0.33713708210E+03  0.00000000000E+00 0. -1.
         24    2    1    2    0    0  0.23141932883E+02  0.18696155171E+02 -0.26404790533E+03  0.27878844487E+03  0.84359975139E+02 0.  0.
         23    2    1    2    0    0 -0.25527932739E+02  0.32030089133E+02 -0.22286119434E+02  0.10236131270E+03  0.91123900590E+02 0.  0.
        -11    1    3    3    0    0 -0.31061669006E+02  0.15190207499E+02 -0.87904537126E+02  0.94460453803E+02  0.00000000000E+00 0.  1.
         12    1    3    3    0    0  0.54203601889E+02  0.35059476727E+01 -0.17614336821E+03  0.18432799106E+03  0.00000000000E+00 0. -1.
        -11    1    4    4    0    0 -0.55539905375E+02  0.65435320103E+01 -0.28056153931E+02  0.62567137329E+02  0.00000000000E+00 0.  1.
         11    1    4    4    0    0  0.30011972636E+02  0.25486557123E+02  0.57700344967E+01  0.39794175372E+02  0.00000000000E+00 0. -1.
          1    1    1    2  501    0  0.23859998565E+01 -0.50726244305E+02  0.18649433996E+03  0.19328472183E+03  0.00000000000E+00 0. -1.
<scales pt_clust_5="13000.00000" pt_clust_6="13000.00000" pt_clust_7="13000.00000" pt_clust_8="13000.00000" pt_clust_9="50.78233"></scales>
<clustering>
<clus scale="   50.782">  1  9  2 -1</clus>
<clus scale="   84.360">  5  6 -1 -1</clus>
<clus scale="   88.240">  2  5  1 -1</clus>
<clus scale="   91.124">  7  8 -1 -1</clus>
<clus scale="   50.782">  1  5  2 -1</clus>
</clustering>
</event>
<event>
 9    2  0.1665830E-004  0.1273226E+03  0.7546771E-02  0.1232288E+00
         21   -1    0    0  501  502  0.00000000000E+00  0.00000000000E+00  0.17911090940E+03  0.17911090940E+03  0.00000000000E+00 0.  1.
          2   -1    0    0  502    0 -0.00000000000E+00 -0.00000000000E+00 -0.24832642815E+03  0.24832642815E+03  0.00000000000E+00 0. -1.
         24    2    1    2    0    0  0.77713367421E+02  0.59350320860E+02 -0.16918715778E+03  0.21150567734E+03  0.80922982700E+02 0.  0.
         23    2    1    2    0    0 -0.10934802867E+03 -0.21145815453E+02  0.95833289576E+02  0.16615755086E+03  0.77589789474E+02 0.  0.
        -11    1    3    3    0    0  0.40068842639E+02  0.64062086899E+02 -0.61803452911E+02  0.97617262408E+02  0.00000000000E+00 0.  1.
         12    1    3    3    0    0  0.37644524782E+02 -0.47117660394E+01 -0.10738370487E+03  0.11388841494E+03  0.00000000000E+00 0. -1.
        -13    1    4    4    0    0 -0.20804049205E+02 -0.26630935975E+02 -0.22964035860E+01  0.33871650147E+02  0.00000000000E+00 0. -1.
         13    1    4    4    0    0 -0.88543979464E+02  0.54851205219E+01  0.98129693162E+02  0.13228590071E+03  0.00000000000E+00 0.  1.
          1    1    1    2  501    0  0.31634661248E+02 -0.38204505407E+02  0.41383494482E+01  0.49774109352E+02  0.00000000000E+00 0. -1.
<scales pt_clust_5="13000.00000" pt_clust_6="13000.00000" pt_clust_7="13000.00000" pt_clust_8="13000.00000" pt_clust_9="49.60177"></scales>
<clustering>
<clus scale="   49.602">  1  9  2 -1</clus>
<clus scale="   77.590">  7  8 -1 -1</clus>
<clus scale="   80.923">  5  6 -1 -1</clus>
<clus scale="  125.231">  1  7  2 -1</clus>
<clus scale="   49.602">  1  5  2 -1</clus>
</clustering>
</event>
<event>
 9    2  0.1665830E-004  0.1289811E+03  0.7546771E-02  0.1244992E+00
         21   -1    0    0  501  502  0.00000000000E+00  0.00000000000E+00  0.55252121007E+02  0.55252121007E+02  0.00000000000E+00 0. -1.
          2   -1    0    0  502    0 -0.00000000000E+00 -0.00000000000E+00 -0.50663638424E+03  0.50663638424E+03  0.00000000000E+00 0. -1.
         23    2    1    2    0    0 -0.15318711198E+02  0.13918207689E+02 -0.12052860383E+03  0.15224456948E+03  0.90680125598E+02 0.  0.
         24    2    1    2    0    0  0.87408885042E+02  0.59031131243E+02 -0.23628411876E+03  0.27013631763E+03  0.77578719298E+02 0.  0.
        -13    1    4    4    0    0  0.33359092342E+02 -0.15622322180E+02 -0.48005586638E+02  0.60509687990E+02  0.00000000000E+00 0.  1.
         14    1    4    4    0    0  0.54049792700E+02  0.74653453423E+02 -0.18827853212E+03  0.20962662964E+03  0.00000000000E+00 0. -1.
        -13    1    3    3    0    0  0.37923530529E+02  0.59068137609E+01 -0.40570826966E+02  0.55848693962E+02  0.00000000000E+00 0. -1.
         13    1    3    3    0    0 -0.53242241727E+02  0.80113939277E+01 -0.79957776862E+02  0.96395875521E+02  0.00000000000E+00 0.  1.
          1    1    1    2  501    0 -0.72090173844E+02 -0.72949338932E+02 -0.94571540649E+02  0.13950761813E+03  0.00000000000E+00 0. -1.
<scales pt_clust_5="13000.00000" pt_clust_6="13000.00000" pt_clust_7="13000.00000" pt_clust_8="13000.00000" pt_clust_9="103.04211"></scales>
<clustering>
<clus scale="   77.579">  5  6 -1 -1</clus>
<clus scale="   90.680">  7  8 -1 -1</clus>
<clus scale="   93.012">  2  7  1 -1</clus>
<clus scale="  103.042">  1  9  2 -1</clus>
<clus scale="  103.042">  1  5  2 -1</clus>
</clustering>
</event>
<event>
 9    2  0.1665830E-004  0.1405314E+03  0.7546771E-02  0.1214846E+00
         -1   -1    0    0    0  501 -0.00000000000E+00  0.00000000000E+00  0.19391861315E+03  0.19391861315E+03  0.00000000000E+00 0.  1.
         21   -1    0    0  501  502  0.00000000000E+00 -0.00000000000E+00 -0.16788279927E+03  0.16788279927E+03  0.00000000000E+00 0. -1.
         24    2    1    2    0    0  0.86591960938E+02  0.50500712179E+01  0.20920547553E+02  0.12126485363E+03  0.82120792111E+02 0.  0.
         23    2    1    2    0    0 -0.14007495698E+03  0.35009202303E+02 -0.11189637542E+02  0.17175410354E+03  0.92345147540E+02 0.  0.
        -13    1    3    3    0    0  0.56976878233E+02  0.17047032033E+01  0.52746739010E+02  0.77662662473E+02  0.00000000000E+00 0.  1.
         14    1    3    3    0    0  0.29615082704E+02  0.33453680145E+01 -0.31826191457E+02  0.43602191154E+02  0.00000000000E+00 0. -1.
        -11    1    4    4    0    0 -0.50299307646E+02 -0.27362834168E+02  0.15310984701E+02  0.59272011067E+02  0.00000000000E+00 0.  1.
         11    1    4    4    0    0 -0.89775649334E+02  0.62372036472E+02 -0.26500622243E+02  0.11248209247E+03  0.00000000000E+00 0. -1.
         -2    1    1    2    0  502  0.53482996043E+02 -0.40059273521E+02  0.16304903877E+02  0.68782455257E+02  0.00000000000E+00 0.  1.
<scales pt_clust_5="13000.00000" pt_clust_6="13000.00000" pt_clust_7="13000.00000" pt_clust_8="13000.00000" pt_clust_9="66.82201"></scales>
<clustering>
<clus scale="   66.822">  2  9  1 -1</clus>
<clus scale="   82.121">  5  6 -1 -1</clus>
<clus scale="   92.345">  7  8 -1 -1</clus>
<clus scale="  134.035">  1  5  2 -1</clus>
<clus scale="   66.822">  2  5  1 -1</clus>
</clustering>
</event>
<event>
 9    2  0.1665830E-004  0.9833634E+02  0.7546771E-02  0.1289570E+00
         21   -1    0    0  501  502  0.00000000000E+00  0.00000000000E+00  0.15270444044E+03  0.15270444044E+03  0.00000000000E+00 0.  1.
          2   -1    0    0  502    0 -0.00000000000E+00 -0.00000000000E+00 -0.13768768721E+03  0.13768768721E+03  0.00000000000E+00 0. -1.
         24    2    1    2    0    0 -0.34387244515E+02  0.22875728262E+02 -0.94972133360E+02  0.13052175384E+03  0.79438281587E+02 0.  0.
         23    2    1    2    0    0  0.21487943638E+02 -0.45397404126E+01  0.94139562024E+02  0.13241492803E+03  0.90493729415E+02 0.  0.
        -13    1    3    3    0    0 -0.31732164546E+01 -0.21996031516E+02 -0.15425298621E+01  0.22277210406E+02  0.00000000000E+00 0.  1.
         14    1    3    3    0    0 -0.31214028060E+02  0.44871759777E+02 -0.93429603498E+02  0.10824454343E+03  0.00000000000E+00 0. -1.
        -11    1    4    4    0    0 -0.29298694164E+02  0.29762061552E+00  0.70182924009E+02  0.76053565861E+02  0.00000000000E+00 0.  1.
         11    1    4    4    0    0  0.50786637802E+02 -0.48373610281E+01  0.23956638014E+02  0.56361362172E+02  0.00000000000E+00 0. -1.
          1    1    1    2  501    0  0.12899300876E+02 -0.18335987849E+02  0.15849324562E+02  0.27455445773E+02  0.00000000000E+00 0. -1.
<scales pt_clust_5="13000.00000" pt_clust_6="13000.00000" pt_clust_7="13000.00000" pt_clust_8="13000.00000" pt_clust_9="22.41875"></scales>
<clustering>
<clus scale="   22.419">  1  9  2 -1</clus>
<clus scale="   79.438">  5  6 -1 -1</clus>
<clus scale="   88.269">  2  5  1 -1</clus>
<clus scale="   90.494">  7  8 -1 -1</clus>
<clus scale="   22.419">  1  5  2 -1</clus>
</clustering>
</event>
<event>
 9    2  0.1665830E-004  0.1157217E+03  0.7546771E-02  0.1251749E+00
         21   -1    0    0  501  502  0.00000000000E+00  0.00000000000E+00  0.44006853024E+02  0.44006853024E+02  0.00000000000E+00 0. -1.
          2   -1    0    0  502    0 -0.00000000000E+00 -0.00000000000E+00 -0.46407263701E+03  0.46407263701E+03  0.00000000000E+00 0. -1.
         23    2    1    2    0    0  0.74422744335E+02 -0.60262182340E+02 -0.23408433224E+03  0.26425526862E+03  0.76583920647E+02 0.  0.
         24    2    1    2    0    0 -0.25671630719E+02  0.66765703117E+02 -0.13388580157E+03  0.17217979645E+03  0.81263661650E+02 0.  0.
        -13    1    4    4    0    0 -0.42577196195E+02  0.39312608809E+01 -0.45667700030E+02  0.62560460947E+02  0.00000000000E+00 0.  1.
         14    1    4    4    0    0  0.16905565476E+02  0.62834442236E+02 -0.88218101545E+02  0.10961933550E+03  0.00000000000E+00 0. -1.
        -11    1    3    3    0    0  0.59242621803E+02 -0.31162597891E+02 -0.21732994662E+03  0.22740514824E+03  0.00000000000E+00 0.  1.
         11    1    3    3    0    0  0.15180122532E+02 -0.29099584449E+02 -0.16754385613E+02  0.36850120386E+02  0.00000000000E+00 0. -1.
          1    1    1    2  501    0 -0.48751113616E+02 -0.65035207767E+01 -0.52095650178E+02  0.71644424967E+02  0.00000000000E+00 0. -1.
<scales pt_clust_5="13000.00000" pt_clust_6="13000.00000" pt_clust_7="13000.00000" pt_clust_8="13000.00000" pt_clust_9="49.18299"></scales>
<clustering>
<clus scale="   49.183">  1  9  2 -1</clus>
<clus scale="   76.584">  7  8 -1 -1</clus>
<clus scale="   81.264">  5  6 -1 -1</clus>
<clus scale="  112.485">  2  7  1 -1</clus>
<clus scale="   49.183">  1  5  2 -1</clus>
</clustering>
</event>
<event>
 9    2  0.1665830E-004  0.1372725E+03  0.7546771E-02  0.1220215E+00
         -1   -1    0    0    0  501 -0.00000000000E+00  0.00000000000E+00  0.27127359660E+03  0.27127359660E+03  0.00000000000E+00 0.  1.
         21   -1    0    0  501  502  0.00000000000E+00 -0.00000000000E+00 -0.91914623602E+02  0.91914623602E+02  0.00000000000E+00 0.  1.
         23    2    1    2    0    0 -0.10143285118E+03 -0.52014695362E+02  0.12315509070E+03  0.19278329049E+03  0.94889772339E+02 0.  0.
         24    2    1    2    0    0  0.65163544701E+02  0.55124043184E+02  0.62317349744E+02  0.13349280270E+03  0.81559356287E+02 0.  0.
        -11    1    4    4    0    0  0.63351534676E+02  0.63671287456E+02  0.75730944762E+02  0.11748457680E+03  0.00000000000E+00 0.  1.
         12    1    4    4    0    0  0.18120100251E+01 -0.85472442718E+01 -0.13413595018E+02  0.16008225894E+02  0.00000000000E+00 0. -1.
        -11    1    3    3    0    0 -0.61730869998E+02 -0.43118004108E+02  0.14395152062E+02  0.76662135320E+02  0.00000000000E+00 0.  1.
         11    1    3    3    0    0 -0.39701981180E+02 -0.88966912544E+01  0.10875993864E+03  0.11612115517E+03  0.00000000000E+00 0. -1.
         -2    1    1    2    0  502  0.36269306477E+02 -0.31093478222E+01 -0.61134674528E+01  0.36912127011E+02  0.00000000000E+00 0.  1.
<scales pt_clust_5="13000.00000" pt_clust_6="13000.00000" pt_clust_7="13000.00000" pt_clust_8="13000.00000" pt_clust_9="36.40234"></scales>
<clustering>
<clus scale="   36.402">  2  9  1 -1</clus>
<clus scale="   81.559">  5  6 -1 -1</clus>
<clus scale="   94.890">  7  8 -1 -1</clus>
<clus scale="  128.420">  2  5  1 -1</clus>
<clus scale="   36.402">  2  5  1 -1</clus>
</clustering>
</event>
<event>
 9    2  0.1665830E-004  0.1006754E+03  0.7546771E-02  0.1284601E+00
         21   -1    0    0  501  502  0.00000000000E+00  0.00000000000E+00  0.52433432157E+02  0.52433432157E+02  0.00000000000E+00 0. -1.
          2   -1    0    0  502    0 -0.00000000000E+00 -0.00000000000E+00 -0.51336750339E+03  0.51336750339E+03  0.00000000000E+00 0. -1.
         24    2    1    2    0    0  0.45213017148E+02 -0.29346544473E+02 -0.34751332334E+03  0.36100606453E+03  0.81574702804E+02 0.  0.
         23    2    1    2    0    0  0.79194152686E+01  0.12925744773E+02 -0.11567167123E+03  0.14913730466E+03  0.92909677106E+02 0.  0.
        -13    1    3    3    0    0  0.37733436487E+02  0.23457140920E+02 -0.16092978020E+03  0.16695042331E+03  0.00000000000E+00 0.  1.
         14    1    3    3    0    0  0.74795806617E+01 -0.52803685393E+02 -0.18658354314E+03  0.19405564122E+03  0.00000000000E+00 0. -1.
        -13    1    4    4    0    0  0.43489493031E+02  0.17209144055E+02 -0.99266307261E+02  0.10973281369E+03  0.00000000000E+00 0. -1.
         13    1    4    4    0    0 -0.35570077763E+02 -0.42833992826E+01 -0.16405363965E+02  0.39404490966E+02  0.00000000000E+00 0.  1.
          1    1    1    2  501    0 -0.53132432417E+02  0.16420799700E+02  0.22509233310E+01  0.55657566361E+02  0.00000000000E+00 0. -1.
<scales pt_clust_5="13000.00000" pt_clust_6="13000.00000" pt_clust_7="13000.00000" pt_clust_8="13000.00000" pt_clust_9="55.61203"></scales>
<clustering>
<clus scale="   55.612">  1  9  2 -1</clus>
<clus scale="   81.575">  5  6 -1 -1</clus>
<clus scale="   90.320">  2  5  1 -1</clus>
<clus scale="   92.910">  7  8 -1 -1</clus>
<clus scale="   55.612">  1  5  2 -1</clus>
</clustering>
</event>
<event>
 9    2  0.1665830E-004  0.1581378E+03  0.7546771E-02  0.1191168E+00
         -1   -1    0    0    0  501 -0.00000000000E+00  0.00000000000E+00  0.29699679932E+03  0.29699679932E+03  0.00000000000E+00 0.  1.
         21   -1    0    0  501  502  0.00000000000E+00 -0.00000000000E+00 -0.19246168511E+03  0.19246168511E+03  0.00000000000E+00 0.  1.
         23    2    1    2    0    0 -0.96672275386E+02 -0.30627283634E+02 -0.34635996991E+02  0.14090344440E+03  0.91490813885E+02 0.  0.
         24    2    1    2    0    0  0.11314475434E+03  0.12100809226E+03  0.79818828729E+01  0.18839684711E+03  0.89358646584E+02 0.  0.
        -11    1    4    4    0    0  0.79754412578E+02  0.41419136814E+02 -0.29094858908E+02  0.94460690422E+02  0.00000000000E+00 0.  1.
         12    1    4    4    0    0  0.33390341763E+02  0.79588955449E+02  0.37076741781E+02  0.93936156690E+02  0.00000000000E+00 0. -1.
        -11    1    3    3    0    0 -0.38865361624E+02  0.99318081670E+01 -0.54383798457E+02  0.67577767662E+02  0.00000000000E+00 0.  1.
         11    1    3    3    0    0 -0.57806913762E+02 -0.40559091801E+02  0.19747801466E+02  0.73325676738E+02  0.00000000000E+00 0. -1.
         -2    1    1    2    0  502 -0.16472478955E+02 -0.90380808629E+02  0.13118922833E+03  0.16015819292E+03  0.00000000000E+00 0.  1.
<scales pt_clust_5="13000.00000" pt_clust_6="13000.00000" pt_clust_7="13000.00000" pt_clust_8="13000.00000" pt_clust_9="91.86970"></scales>
<clustering>
<clus scale="   89.359">  5  6 -1 -1</clus>
<clus scale="   91.491">  7  8 -1 -1</clus>
<clus scale="   91.870">  2  9  1 -1</clus>
<clus scale="  156.914">  2  5  1 -1</clus>
<clus scale="   91.870">  2  5  1 -1</clus>
</clustering>
</event>
<event>
 9    2  0.1665830E-004  0.1526192E+03  0.7546771E-02  0.1199384E+00
         -3   -1    0    0    0  501 -0.00000000000E+00  0.00000000000E+00  0.34185677141E+03  0.34185677141E+03  0.00000000000E+00 0.  1.
         21   -1    0    0  501  502  0.00000000000E+00 -0.00000000000E+00 -0.38814375967E+03  0.38814375967E+03  0.00000000000E+00 0.  1.
         23    2    1    2    0    0 -0.98974021184E+02  0.55932698288E+02  0.25209312956E+03  0.29163648788E+03  0.92609780718E+02 0.  0.
         24    2    1    2    0    0  0.14769965198E+03 -0.11923267336E+03 -0.11019377885E+03  0.23392536752E+03  0.80912243062E+02 0.  0.
        -11    1    4    4    0    0  0.95625136370E+02 -0.87740259982E+02 -0.29906067228E+02  0.13317992636E+03  0.00000000000E+00 0.  1.
         12    1    4    4    0    0  0.52074515611E+02 -0.31492413383E+02 -0.80287711621E+02  0.10074544116E+03  0.00000000000E+00 0. -1.
        -13    1    3    3    0    0 -0.41845827661E+02  0.43320987439E+02  0.41691881247E+02  0.73252946747E+02  0.00000000000E+00 0. -1.
         13    1    3    3    0    0 -0.57128193523E+02  0.12611710850E+02  0.21040124832E+03  0.21838354114E+03  0.00000000000E+00 0.  1.
         -4    1    1    2    0  502 -0.48725630797E+02  0.63299975076E+02 -0.18818633897E+03  0.20443867569E+03  0.00000000000E+00 0.  1.
<scales pt_clust_5="13000.00000" pt_clust_6="13000.00000" pt_clust_7="13000.00000" pt_clust_8="13000.00000" pt_clust_9="79.88162"></scales>
<clustering>
<clus scale="   79.882">  2  9  1 -1</clus>
<clus scale="   80.912">  5  6 -1 -1</clus>
<clus scale="   92.610">  7  8 -1 -1</clus>
<clus scale="  145.818">  2  5  1 -1</clus>
<clus scale="   79.882">  2  5  1 -1</clus>
</clustering>
</event>
<event>
 9    2  0.1665830E-004  0.3956177E+03  0.7546771E-02  0.1090685E+00
         21   -1    0    0  501  502  0.00000000000E+00  0.00000000000E+00  0.25713341628E+03  0.25713341628E+03  0.00000000000E+00 0. -1.
          2   -1    0    0  502    0 -0.00000000000E+00 -0.00000000000E+00 -0.10836245240E+04  0.10836245240E+04  0.00000000000E+00 0. -1.
         24    2    1    2    0    0  0.66978321936E+02  0.42144302872E+02 -0.36313287947E+03  0.38037328691E+03  0.80969817648E+02 0.  0.
         23    2    1    2    0    0  0.33558483233E+03  0.23852568969E+02 -0.42669278273E+03  0.55080311669E+03  0.90173265347E+02 0.  0.
        -13    1    3    3    0    0  0.17932585826E+02  0.25115494028E+02 -0.29389517814E+02  0.42615835461E+02  0.00000000000E+00 0.  1.
         14    1    3    3    0    0  0.49045736109E+02  0.17028808844E+02 -0.33374336165E+03  0.33775745145E+03  0.00000000000E+00 0. -1.
        -11    1    4    4    0    0  0.14732208241E+03 -0.45065451622E+01 -0.12111874440E+03  0.19077173574E+03  0.00000000000E+00 0.  1.
         11    1    4    4    0    0  0.18826274993E+03  0.28359114131E+02 -0.30557403834E+03  0.36003138095E+03  0.00000000000E+00 0. -1.
          1    1    1    2  501    0 -0.40256315427E+03 -0.65996871841E+02 -0.36665445482E+02  0.40958153664E+03  0.00000000000E+00 0. -1.
<scales pt_clust_5="13000.00000" pt_clust_6="13000.00000" pt_clust_7="13000.00000" pt_clust_8="13000.00000" pt_clust_9="385.20407"></scales>
<clustering>
<clus scale="   80.970">  5  6 -1 -1</clus>
<clus scale="   90.173">  7  8 -1 -1</clus>
<clus scale="  113.218">  2  5  1 -1</clus>
<clus scale="  385.204">  1  9  2 -1</clus>
<clus scale="  385.204">  1  5  2 -1</clus>
</clustering>
</event>
<event>
 9    2  0.1665830E-004  0.9990509E+02  0.7546771E-02  0.1288037E+00
         21   -1    0    0  501  502  0.00000000000E+00  0.00000000000E+00  0.38620381481E+03  0.38620381481E+03  0.00000000000E+00 0. -1.
          2   -1    0    0  502    0 -0.00000000000E+00 -0.00000000000E+00 -0.62189206193E+02  0.62189206193E+02  0.00000000000E+00 0. -1.
         23    2    1    2    0    0  0.28103898666E+02  0.61803156381E+01  0.22844156487E+02  0.10072052005E+03  0.93780287122E+02 0.  0.
         24    2    1    2    0    0 -0.43620390872E+02  0.24087236655E+02  0.78236497388E+02  0.12215878866E+03  0.79491425036E+02 0.  0.
        -13    1    4    4    0    0 -0.50982872252E+02 -0.50036182561E+01  0.17016976712E+02  0.53980245972E+02  0.00000000000E+00 0.  1.
         14    1    4    4    0    0  0.73624813804E+01  0.29090854911E+02  0.61219520676E+02  0.68178542690E+02  0.00000000000E+00 0. -1.
        -13    1    3    3    0    0 -0.15183434392E+02  0.16370438069E+02 -0.26262044019E+02  0.34470608909E+02  0.00000000000E+00 0. -1.
         13    1    3    3    0    0  0.43287333059E+02 -0.10190122431E+02  0.49106200506E+02  0.66249911144E+02  0.00000000000E+00 0.  1.
          1    1    1    2  501    0  0.15516492206E+02 -0.30267552293E+02  0.22293395475E+03  0.22551371229E+03  0.00000000000E+00 0. -1.
<scales pt_clust_5="13000.00000" pt_clust_6="13000.00000" pt_clust_7="13000.00000" pt_clust_8="13000.00000" pt_clust_9="34.01303"></scales>
<clustering>
<clus scale="   34.013">  1  9  2 -1</clus>
<clus scale="   79.491">  5  6 -1 -1</clus>
<clus scale="   86.632">  1  5  2 -1</clus>
<clus scale="   93.780">  7  8 -1 -1</clus>
<clus scale="   34.013">  1  5  2 -1</clus>
</clustering>
</event>
<event>
 9    2  0.1665830E-004  0.1926486E+03  0.7546771E-02  0.1189418E+00
          2   -1    0    0  502    0 -0.00000000000E+00  0.00000000000E+00  0.20056642945E+04  0.20056642945E+04  0.00000000000E+00 0. -1.
         21   -1    0    0  501  502  0.00000000000E+00 -0.00000000000E+00 -0.33585624068E+02  0.33585624068E+02  0.00000000000E+00 0. -1.
         24    2    1    2    0    0  0.35340583136E+02 -0.21226769946E+02  0.90632752582E+03  0.91080586891E+03  0.80238483249E+02 0.  0.
         23    2    1    2    0    0  0.10650856617E+03  0.12752544177E+03  0.46457767096E+03  0.50168242495E+03  0.90807654855E+02 0.  0.
        -13    1    3    3    0    0 -0.95749529810E+01  0.19716142505E+02  0.10999540765E+03  0.11215790522E+03  0.00000000000E+00 0.  1.
         14    1    3    3    0    0  0.44915536117E+02 -0.40942912451E+02  0.79633211817E+03  0.79864796368E+03  0.00000000000E+00 0. -1.
        -13    1    4    4    0    0  0.28602612060E+02  0.10341785591E+03  0.24579301858E+03  0.26819315860E+03  0.00000000000E+00 0.  1.
         13    1    4    4    0    0  0.77905954111E+02  0.24107585860E+02  0.21878465238E+03  0.23348926634E+03  0.00000000000E+00 0. -1.
          1    1    1    2  501    0 -0.14184914931E+03 -0.10629867183E+03  0.60117347364E+03  0.62676162470E+03  0.00000000000E+00 0. -1.
<scales pt_clust_5="13000.00000" pt_clust_6="13000.00000" pt_clust_7="13000.00000" pt_clust_8="13000.00000" pt_clust_9="169.90432"></scales>
<clustering>
<clus scale="   80.238">  5  6 -1 -1</clus>
<clus scale="   90.209">  1  5  2 -1</clus>
<clus scale="   90.808">  7  8 -1 -1</clus>
<clus scale="  169.904">  2  9  1 -1</clus>
<clus scale="  169.904">  2  5  1 -1</clus>
</clustering>
</event>
<event>
 9    2  0.1665830E-004  0.1312824E+03  0.7546771E-02  0.1228180E+00
         -1   -1    0    0    0  501 -0.00000000000E+00  0.00000000000E+00  0.27909398740E+03  0.27909398740E+03  0.00000000000E+00 0.  1.
         21   -1    0    0  501  502  0.00000000000E+00 -0.00000000000E+00 -0.35153154220E+03  0.35153154220E+03  0.00000000000E+00 0. -1.
         24    2    1    2    0    0  0.43163217698E+02 -0.76499333018E+02  0.19578590860E+03  0.22963295720E+03  0.81755499577E+02 0.  0.
         23    2    1    2    0    0 -0.11451771539E+03  0.13874855070E+03 -0.19992859728E+03  0.28424233394E+03  0.91960822804E+02 0.  0.
        -13    1    3    3    0    0  0.59848278032E+02 -0.46950484994E+02  0.86444914279E+02  0.11514724326E+03  0.00000000000E+00 0.  1.
         14    1    3    3    0    0 -0.16685060334E+02 -0.29548848025E+02  0.10934099432E+03  0.11448571395E+03  0.00000000000E+00 0. -1.
        -11    1    4    4    0    0 -0.26778679167E+02  0.66261748158E+02 -0.13618301105E+03  0.15379703972E+03  0.00000000000E+00 0. -1.
         11    1    4    4    0    0 -0.87739036221E+02  0.72486802542E+02 -0.63745586231E+02  0.13044529422E+03  0.00000000000E+00 0.  1.
         -2    1    1    2    0  502  0.71354497690E+02 -0.62249217682E+02 -0.68294866116E+02  0.11675023846E+03  0.00000000000E+00 0.  1.
<scales pt_clust_5="13000.00000" pt_clust_6="13000.00000" pt_clust_7="13000.00000" pt_clust_8="13000.00000" pt_clust_9="94.69123"></scales>
<clustering>
<clus scale="   81.755">  5  6 -1 -1</clus>
<clus scale="   91.961">  7  8 -1 -1</clus>
<clus scale="   94.691">  2  9  1 -1</clus>
<clus scale="  124.347">  1  5  2 -1</clus>
<clus scale="   94.691">  2  5  1 -1</clus>
</clustering>
</event>
<event>
 9    2  0.1665830E-004  0.1325110E+03  0.7546771E-02  0.1224916E+00
          2   -1    0    0  502    0 -0.00000000000E+00  0.00000000000E+00  0.25130427414E+03  0.25130427414E+03  0.00000000000E+00 0. -1.
         21   -1    0    0  501  502  0.00000000000E+00 -0.00000000000E+00 -0.13480352632E+03  0.13480352632E+03  0.00000000000E+00 0. -1.
         24    2    1    2    0    0  0.12052835786E+03  0.23316979205E+01  0.45650885455E+02  0.15202579273E+03  0.80593526105E+02 0.  0.
         23    2    1    2    0    0 -0.72707162506E+02  0.34859541308E+02 -0.25511939571E+02  0.12025911077E+03  0.85497810283E+02 0.  0.
        -11    1    3    3    0    0  0.36507471021E+02  0.50371316972E+01  0.56300186303E+02  0.67289517117E+02  0.00000000000E+00 0.  1.
         12    1    3    3    0    0  0.84020886836E+02 -0.27054337766E+01 -0.10649300848E+02  0.84736275615E+02  0.00000000000E+00 0. -1.
        -13    1    4    4    0    0 -0.58963604458E+02  0.53454510022E+02 -0.43740970213E+02  0.90814997481E+02  0.00000000000E+00 0. -1.
         13    1    4    4    0    0 -0.13743558049E+02 -0.18594968715E+02  0.18229030642E+02  0.29444113291E+02  0.00000000000E+00 0.  1.
          1    1    1    2  501    0 -0.47821195351E+02 -0.37191239228E+02  0.96361801936E+02  0.11382289696E+03  0.00000000000E+00 0. -1.
<scales pt_clust_5="13000.00000" pt_clust_6="13000.00000" pt_clust_7="13000.00000" pt_clust_8="13000.00000" pt_clust_9="60.58101"></scales>
<clustering>
<clus scale="   60.581">  2  9  1 -1</clus>
<clus scale="   80.594">  5  6 -1 -1</clus>
<clus scale="   85.498">  7  8 -1 -1</clus>
<clus scale="  129.401">  1  5  2 -1</clus>
<clus scale="   60.581">  2  5  1 -1</clus>
</clustering>
</event>
<event>
 9    2  0.1665830E-004  0.1150836E+03  0.7546771E-02  0.1254971E+00
          4   -1    0    0  502    0 -0.00000000000E+00  0.00000000000E+00  0.40188760007E+03  0.40188760007E+03  0.00000000000E+00 0. -1.
         21   -1    0    0  501  502  0.00000000000E+00 -0.00000000000E+00 -0.20968501899E+03  0.20968501899E+03  0.00000000000E+00 0. -1.
         24    2    1    2    0    0  0.69524832314E+02  0.17234117642E+02  0.32555338330E+03  0.34308186687E+03  0.81175395761E+02 0.  0.
         23    2    1    2    0    0 -0.36831516893E+02 -0.78918385349E+02 -0.97213346743E+01  0.12651171500E+03  0.91247123257E+02 0.  0.
        -11    1    3    3    0    0  0.33618744783E+02 -0.30410690272E+02  0.10042525845E+03  0.11018285991E+03  0.00000000000E+00 0.  1.
         12    1    3    3    0    0  0.35906087530E+02  0.47644807914E+02  0.22512812485E+03  0.23289900696E+03  0.00000000000E+00 0. -1.
        -13    1    4    4    0    0  0.20428104837E+02  0.71201760857E+01  0.47623593596E+01  0.22151398182E+02  0.00000000000E+00 0. -1.
         13    1    4    4    0    0 -0.57259621730E+02 -0.86038561435E+02 -0.14483694034E+02  0.10436031682E+03  0.00000000000E+00 0.  1.
          3    1    1    2  501    0 -0.32693315421E+02  0.61684267707E+02 -0.12362946754E+03  0.14197903719E+03  0.00000000000E+00 0. -1.
<scales pt_clust_5="13000.00000" pt_clust_6="13000.00000" pt_clust_7="13000.00000" pt_clust_8="13000.00000" pt_clust_9="69.81262"></scales>
<clustering>
<clus scale="   69.813">  2  9  1 -1</clus>
<clus scale="   81.175">  5  6 -1 -1</clus>
<clus scale="   91.247">  7  8 -1 -1</clus>
<clus scale="  107.274">  1  5  2 -1</clus>
<clus scale="   69.813">  2  5  1 -1</clus>
</clustering>
</event>
<event>
 9    2  0.1665830E-004  0.1068317E+03  0.7546771E-02  0.1272282E+00
          2   -1    0    0  502    0 -0.00000000000E+00  0.00000000000E+00  0.15561579692E+03  0.15561579692E+03  0.00000000000E+00 0. -1.
         21   -1    0    0  501  502  0.00000000000E+00 -0.00000000000E+00 -0.21181817558E+03  0.21181817558E+03  0.00000000000E+00 0.  1.
         23    2    1    2    0    0  0.44900747852E+02  0.26762939833E+02  0.49763323186E+02  0.11698179234E+03  0.92065299099E+02 0.  0.
         24    2    1    2    0    0 -0.75021503444E+02  0.71197779519E+01 -0.15120519941E+03  0.18640602008E+03  0.78773566491E+02 0.  0.
        -13    1    4    4    0    0 -0.34906549841E+02 -0.16965742564E+02 -0.12881467726E+03  0.13453447409E+03  0.00000000000E+00 0.  1.
         14    1    4    4    0    0 -0.40114953603E+02  0.24085520516E+02 -0.22390522151E+02  0.51871545989E+02  0.00000000000E+00 0. -1.
        -11    1    3    3    0    0 -0.23643782608E+02  0.25457266132E+01  0.35765286365E+02  0.42949562148E+02  0.00000000000E+00 0. -1.
         11    1    3    3    0    0  0.68544530460E+02  0.24217213219E+02  0.13998036821E+02  0.74032230190E+02  0.00000000000E+00 0.  1.
          1    1    1    2  501    0  0.30120755592E+02 -0.33882717784E+02  0.45239497561E+02  0.64046160084E+02  0.00000000000E+00 0. -1.
<scales pt_clust_5="13000.00000" pt_clust_6="13000.00000" pt_clust_7="13000.00000" pt_clust_8="13000.00000" pt_clust_9="45.33542"></scales>
<clustering>
<clus scale="   45.335">  2  9  1 -1</clus>
<clus scale="   78.774">  5  6 -1 -1</clus>
<clus scale="   92.065">  7  8 -1 -1</clus>
<clus scale="   95.615">  2  5  1 -1</clus>
<clus scale="   45.335">  2  5  1 -1</clus>
</clustering>
</event>
<event>
 9    2  0.1665830E-004  0.3399017E+03  0.7546771E-02  0.1066838E+00
         21   -1    0    0  501  502  0.00000000000E+00  0.00000000000E+00  0.93177064558E+03  0.93177064558E+03  0.00000000000E+00 0.  1.
         -1   -1    0    0    0  501 -0.00000000000E+00 -0.00000000000E+00 -0.17931856432E+03  0.17931856432E+03  0.00000000000E+00 0.  1.
         24    2    1    2    0    0 -0.19298917780E+02  0.71623857319E+02 -0.19710873762E+02  0.11159327830E+03  0.81006888914E+02 0.  0.
         23    2    1    2    0    0 -0.12344595466E+03  0.16232410360E+03  0.53061039789E+02  0.22994066295E+03  0.92028344556E+02 0.  0.
        -13    1    3    3    0    0 -0.38025998711E+02  0.29942947852E+02 -0.38838931152E+02  0.62056581255E+02  0.00000000000E+00 0.  1.
         14    1    3    3    0    0  0.18727080931E+02  0.41680909467E+02  0.19128057390E+02  0.49536697041E+02  0.00000000000E+00 0. -1.
        -11    1    4    4    0    0 -0.13416675214E+03  0.13134544924E+03  0.30675965281E+02  0.19024552363E+03  0.00000000000E+00 0.  1.
         11    1    4    4    0    0  0.10720797481E+02  0.30978654359E+02  0.22385074508E+02  0.39695139315E+02  0.00000000000E+00 0. -1.
         -2    1    1    2    0  502  0.14274487244E+03 -0.23394796092E+03  0.71910191524E+03  0.76955526866E+03  0.00000000000E+00 0.  1.
<scales pt_clust_5="13000.00000" pt_clust_6="13000.00000" pt_clust_7="13000.00000" pt_clust_8="13000.00000" pt_clust_9="274.05793"></scales>
<clustering>
<clus scale="   81.007">  5  6 -1 -1</clus>
<clus scale="   92.028">  7  8 -1 -1</clus>
<clus scale="  109.365">  5  7 -1 -1</clus>
<clus scale="  274.058">  1  9  2 -1</clus>
<clus scale="  274.058">  1  5  2 -1</clus>
</clustering>
</event>
<event>
 9    2  0.1665830E-004  0.1976520E+03  0.7546771E-02  0.1153034E+00
         21   -1    0    0  501  502  0.00000000000E+00  0.00000000000E+00  0.10652130477E+03  0.10652130477E+03  0.00000000000E+00 0.  1.
         -1   -1    0    0    0  501 -0.00000000000E+00 -0.00000000000E+00 -0.47690948283E+03  0.47690948283E+03  0.00000000000E+00 0.  1.
         23    2    1    2    0    0  0.12168130077E+03 -0.95453710887E+02 -0.13491995558E+03  0.22336795417E+03  0.88159506890E+02 0.  0.
         24    2    1    2    0    0 -0.16625995522E+03  0.11889795622E+03 -0.16231206191E+03  0.27124440685E+03  0.73818873633E+02 0.  0.
        -11    1    4    4    0    0 -0.14174288238E+03  0.12701855051E+03 -0.13309001416E+03  0.23224493267E+03  0.00000000000E+00 0.  1.
         12    1    4    4    0    0 -0.24517072835E+02 -0.81205942912E+01 -0.29222047747E+02  0.38999474184E+02  0.00000000000E+00 0. -1.
        -13    1    3    3    0    0  0.45528868245E+02 -0.17976114860E+02 -0.96379389526E+02  0.10809720290E+03  0.00000000000E+00 0. -1.
         13    1    3    3    0    0  0.76152432529E+02 -0.77477596027E+02 -0.38540566052E+02  0.11527075127E+03  0.00000000000E+00 0.  1.
         -2    1    1    2    0  502  0.44578654442E+02 -0.23444245334E+02 -0.73156160579E+02  0.88818426589E+02  0.00000000000E+00 0.  1.
<scales pt_clust_5="13000.00000" pt_clust_6="13000.00000" pt_clust_7="13000.00000" pt_clust_8="13000.00000" pt_clust_9="50.36757"></scales>
<clustering>
<clus scale="   50.368">  1  9  2 -1</clus>
<clus scale="   73.819">  5  6 -1 -1</clus>
<clus scale="   88.160">  7  8 -1 -1</clus>
<clus scale="  191.686">  1  5  2 -1</clus>
<clus scale="   50.368">  1  5  2 -1</clus>
</clustering>
</event>
<event>
 9    2  0.1665830E-004  0.9511494E+02  0.7546771E-02  0.1297911E+00
         21   -1    0    0  501  502  0.00000000000E+00  0.00000000000E+00  0.34113881198E+02  0.34113881198E+02  0.00000000000E+00 0. -1.
          2   -1    0    0  502    0 -0.00000000000E+00 -0.00000000000E+00 -0.42518447999E+03  0.42518447999E+03  0.00000000000E+00 0. -1.
         24    2    1    2    0    0 -0.18450633328E+02 -0.12509257730E+02 -0.16294762276E+03  0.18293119232E+03  0.80093607490E+02 0.  0.
         23    2    1    2    0    0 -0.19622698063E+02  0.42848282233E+02 -0.12459182514E+03  0.16196116301E+03  0.92126379845E+02 0.  0.
        -13    1    3    3    0    0 -0.16270588352E+01  0.28620910578E+02 -0.11065119155E+03  0.11430437452E+03  0.00000000000E+00 0.  1.
         14    1    3    3    0    0 -0.16823574493E+02 -0.41130168309E+02 -0.52296431206E+02  0.68626817795E+02  0.00000000000E+00 0. -1.
        -13    1    4    4    0    0 -0.46888356458E+02 -0.55013617072E+01 -0.67123051184E+02  0.82062701346E+02  0.00000000000E+00 0. -1.
         13    1    4    4    0    0  0.27265658395E+02  0.48349643940E+02 -0.57468773957E+02  0.79898461668E+02  0.00000000000E+00 0.  1.
          1    1    1    2  501    0  0.38073331391E+02 -0.30339024503E+02 -0.10353115089E+03  0.11440600585E+03  0.00000000000E+00 0. -1.
<scales pt_clust_5="13000.00000" pt_clust_6="13000.00000" pt_clust_7="13000.00000" pt_clust_8="13000.00000" pt_clust_9="48.68303"></scales>
<clustering>
<clus scale="   48.683">  1  9  2 -1</clus>
<clus scale="   80.094">  5  6 -1 -1</clus>
<clus scale="   83.514">  2  5  1 -1</clus>
<clus scale="   92.126">  7  8 -1 -1</clus>
<clus scale="   48.683">  1  5  2 -1</clus>
</clustering>
</event>
<event>
 9    2  0.1665830E-004  0.2577041E+03  0.7546771E-02  0.1113365E+00
         21   -1    0    0  501  502  0.00000000000E+00  0.00000000000E+00  0.12415742435E+04  0.12415742435E+04  0.00000000000E+00 0. -1.
          2   -1    0    0  502    0 -0.00000000000E+00 -0.00000000000E+00 -0.12140265328E+03  0.12140265328E+03  0.00000000000E+00 0. -1.
         23    2    1    2    0    0 -0.26877595507E+02  0.20664995516E+03  0.27185778237E+03  0.35474212871E+03  0.92242695852E+02 0.  0.
         24    2    1    2    0    0  0.23637938779E+03 -0.67225040786E+01  0.31972900075E+03  0.40552100104E+03  0.79374059571E+02 0.  0.
        -11    1    4    4    0    0  0.12518071965E+03  0.16567693165E+02  0.11215271905E+03  0.16888733943E+03  0.00000000000E+00 0.  1.
         12    1    4    4    0    0  0.11119866813E+03 -0.23290197243E+02  0.20757628170E+03  0.23663366161E+03  0.00000000000E+00 0. -1.
        -11    1    3    3    0    0 -0.28392756209E+02  0.30442574394E+02  0.10123502811E+03  0.10945971797E+03  0.00000000000E+00 0.  1.
         11    1    3    3    0    0  0.15151607019E+01  0.17620738077E+03  0.17062275426E+03  0.24528241075E+03  0.00000000000E+00 0. -1.
          1    1    1    2  501    0 -0.20950179228E+03 -0.19992745109E+03  0.52858480711E+03  0.60271376704E+03  0.00000000000E+00 0. -1.
<scales pt_clust_5="13000.00000" pt_clust_6="13000.00000" pt_clust_7="13000.00000" pt_clust_8="13000.00000" pt_clust_9="245.17581"></scales>
<clustering>
<clus scale="   79.374">  5  6 -1 -1</clus>
<clus scale="   92.243">  7  8 -1 -1</clus>
<clus scale="  227.893">  2  7  1 -1</clus>
<clus scale="  245.176">  1  9  2 -1</clus>
<clus scale="  245.176">  1  5  2 -1</clus>
</clustering>
</event>
<event>
 9    2  0.1665830E-004  0.1429512E+03  0.7546771E-02  0.1210049E+00
         21   -1    0    0  501  502  0.00000000000E+00  0.00000000000E+00  0.74432777509E+02  0.74432777509E+02  0.00000000000E+00 0.  1.
          2   -1    0    0  502    0 -0.00000000000E+00 -0.00000000000E+00 -0.82089190984E+03  0.82089190984E+03  0.00000000000E+00 0. -1.
         23    2    1    2    0    0  0.95149607000E+02  0.70439521283E+02 -0.47483211992E+03  0.49645224513E+03  0.83571021953E+02 0.  0.
         24    2    1    2    0    0 -0.11883666219E+02 -0.14492116747E+03 -0.99272434610E+02  0.19347810685E+03  0.80220915313E+02 0.  0.
        -13    1    4    4    0    0  0.86654389139E+01 -0.14091892554E+03 -0.99185433161E+02  0.17254270068E+03  0.00000000000E+00 0.  1.
         14    1    4    4    0    0 -0.20549105132E+02 -0.40022419286E+01 -0.87001448333E-01  0.20935406169E+02  0.00000000000E+00 0. -1.
        -13    1    3    3    0    0 -0.15018347936E+02  0.16190093162E+02 -0.68959831574E+02  0.72409448707E+02  0.00000000000E+00 0.  1.
         13    1    3    3    0    0  0.11016795494E+03  0.54249428121E+02 -0.40587228835E+03  0.42404279642E+03  0.00000000000E+00 0. -1.
          1    1    1    2  501    0 -0.83265940781E+02  0.74481646189E+02 -0.17235457780E+03  0.20539433537E+03  0.00000000000E+00 0. -1.
<scales pt_clust_5="13000.00000" pt_clust_6="13000.00000" pt_clust_7="13000.00000" pt_clust_8="13000.00000" pt_clust_9="111.71725"></scales>
<clustering>
<clus scale="   80.221">  5  6 -1 -1</clus>
<clus scale="   83.571">  7  8 -1 -1</clus>
<clus scale="  111.717">  1  9  2 -1</clus>
<clus scale="  141.019">  1  5  2 -1</clus>
<clus scale="  111.717">  1  5  2 -1</clus>
</clustering>
</event>
<event>
 9    2  0.1665830E-004  0.1024302E+03  0.7546771E-02  0.1280967E+00
          2   -1    0    0  502    0 -0.00000000000E+00  0.00000000000E+00  0.41764312444E+03  0.41764312444E+03  0.00000000000E+00 0. -1.
         21   -1    0    0  501  502  0.00000000000E+00 -0.00000000000E+00 -0.66416887051E+02  0.66416887051E+02  0.00000000000E+00 0. -1.
         24    2    1    2    0    0 -0.10981747329E+02  0.50026997185E+02  0.27804780724E+03  0.29399856910E+03  0.80630492363E+02 0.  0.
         23    2    1    2    0    0 -0.43994901929E+02 -0.11996485996E+02  0.20931640489E+02  0.10521759303E+03  0.92483194355E+02 0.  0.
        -11    1    3    3    0    0  0.22498521393E+02  0.56950667332E+02  0.18480300137E+03  0.19468361844E+03  0.00000000000E+00 0.  1.
         12    1    3    3    0    0 -0.33480268721E+02 -0.69236701471E+01  0.93244805874E+02  0.99314950659E+02  0.00000000000E+00 0. -1.
        -11    1    4    4    0    0  0.21408813816E+02 -0.56435667430E+01  0.31662649536E+02  0.38635612202E+02  0.00000000000E+00 0.  1.
         11    1    4    4    0    0 -0.65403715744E+02 -0.63529192528E+01 -0.10731009047E+02  0.66581980831E+02  0.00000000000E+00 0. -1.
          1    1    1    2  501    0  0.54976649257E+02 -0.38030511189E+02  0.52246789662E+02  0.84843849364E+02  0.00000000000E+00 0. -1.
<scales pt_clust_5="13000.00000" pt_clust_6="13000.00000" pt_clust_7="13000.00000" pt_clust_8="13000.00000" pt_clust_9="66.84872"></scales>
<clustering>
<clus scale="   66.849">  2  9  1 -1</clus>
<clus scale="   80.630">  5  6 -1 -1</clus>
<clus scale="   91.870">  1  5  2 -1</clus>
<clus scale="   92.483">  7  8 -1 -1</clus>
<clus scale="   66.849">  2  5  1 -1</clus>
</clustering>
</event>
<event>
 9    2  0.1665830E-004  0.9375994E+02  0.7546771E-02  0.1300638E+00
         21   -1    0    0  501  502  0.00000000000E+00  0.00000000000E+00  0.33115828681E+02  0.33115828681E+02  0.00000000000E+00 0.  1.
          2   -1    0    0  502    0 -0.00000000000E+00 -0.00000000000E+00 -0.64296812911E+03  0.64296812911E+03  0.00000000000E+00 0. -1.
         24    2    1    2    0    0  0.33140927621E+01  0.77710803739E+01 -0.22665508253E+03  0.24059845622E+03  0.80272771200E+02 0.  0.
         23    2    1    2    0    0  0.43500934969E+02 -0.54763629847E+02 -0.12954902551E+03  0.17330740937E+03  0.91439169046E+02 0.  0.
        -13    1    3    3    0    0  0.28107055168E+02 -0.22404886762E+02 -0.15370520913E+03  0.15785207257E+03  0.00000000000E+00 0.  1.
         14    1    3    3    0    0 -0.24792962405E+02  0.30175967136E+02 -0.72949873398E+02  0.82746383644E+02  0.00000000000E+00 0. -1.
        -11    1    4    4    0    0  0.71590319433E+02 -0.46611698945E+02 -0.89627552457E+02  0.12381810237E+03  0.00000000000E+00 0.  1.
         11    1    4    4    0    0 -0.28089384464E+02 -0.81519309013E+01 -0.39921473050E+02  0.49489307001E+02  0.00000000000E+00 0. -1.
          1    1    1    2  501    0 -0.46815027731E+02  0.46992549473E+02 -0.25364819240E+03  0.26217809221E+03  0.00000000000E+00 0. -1.
<scales pt_clust_5="13000.00000" pt_clust_6="13000.00000" pt_clust_7="13000.00000" pt_clust_8="13000.00000" pt_clust_9="66.33213"></scales>
<clustering>
<clus scale="   66.332">  1  9  2 -1</clus>
<clus scale="   80.273">  5  6 -1 -1</clus>
<clus scale="   82.907">  2  5  1 -1</clus>
<clus scale="   91.439">  7  8 -1 -1</clus>
<clus scale="   66.332">  1  5  2 -1</clus>
</clustering>
</event>
<event>
 9    2  0.1665830E-004  0.1567317E+03  0.7546771E-02  0.1194095E+00
          2   -1    0    0  502    0 -0.00000000000E+00  0.00000000000E+00  0.58871354559E+03  0.58871354559E+03  0.00000000000E+00 0. -1.
         21   -1    0    0  501  502  0.00000000000E+00 -0.00000000000E+00 -0.14086276500E+03  0.14086276500E+03  0.00000000000E+00 0.  1.
         23    2    1    2    0    0  0.22055711809E+02 -0.13015300349E+03  0.24966945596E+03  0.29663025292E+03  0.90710589053E+02 0.  0.
         24    2    1    2    0    0  0.92227219391E+02  0.11743627809E+03 -0.34706504031E+02  0.17321726796E+03  0.80638335117E+02 0.  0.
        -13    1    4    4    0    0  0.84927171591E+02  0.11880183566E+03 -0.51503329661E+02  0.15485184402E+03  0.00000000000E+00 0.  1.
         14    1    4    4    0    0  0.73000478001E+01 -0.13655575693E+01  0.16796825630E+02  0.18365423943E+02  0.00000000000E+00 0. -1.
        -13    1    3    3    0    0  0.53943164401E+02 -0.77782267458E+02  0.11714131370E+03  0.15060555598E+03  0.00000000000E+00 0.  1.
         13    1    3    3    0    0 -0.31887452592E+02 -0.52370736029E+02  0.13252814226E+03  0.14602469693E+03  0.00000000000E+00 0. -1.
          1    1    1    2  501    0 -0.11428293120E+03  0.12716725397E+02  0.23288782866E+03  0.25972878971E+03  0.00000000000E+00 0. -1.
<scales pt_clust_5="13000.00000" pt_clust_6="13000.00000" pt_clust_7="13000.00000" pt_clust_8="13000.00000" pt_clust_9="114.98833"></scales>
<clustering>
<clus scale="   80.638">  5  6 -1 -1</clus>
<clus scale="   90.711">  7  8 -1 -1</clus>
<clus scale="  114.988">  2  9  1 -1</clus>
<clus scale="  151.126">  2  5  1 -1</clus>
<clus scale="  114.988">  2  5  1 -1</clus>
</clustering>
</event>
<event>
 9    2  0.1665830E-004  0.1378297E+03  0.7546771E-02  0.1218974E+00
         21   -1    0    0  501  502  0.00000000000E+00  0.00000000000E+00  0.79446196209E+02  0.79446196209E+02  0.00000000000E+00 0. -1.
         -1   -1    0    0    0  501 -0.00000000000E+00 -0.00000000000E+00 -0.26944705573E+03  0.26944705573E+03  0.00000000000E+00 0.  1.
         23    2    1    2    0    0 -0.10030534129E+03 -0.36579023166E+02 -0.11439006191E+03  0.18177325708E+03  0.92505374438E+02 0.  0.
         24    2    1    2    0    0  0.96855279084E+02  0.14813573452E+02 -0.65861352474E+02  0.14302249683E+03  0.80729980836E+02 0.  0.
        -11    1    4    4    0    0  0.52903569381E+02  0.41021557912E+02 -0.62749799452E+02  0.91755616711E+02  0.00000000000E+00 0.  1.
         12    1    4    4    0    0  0.43951709703E+02 -0.26207984460E+02 -0.31115530223E+01  0.51266880122E+02  0.00000000000E+00 0. -1.
        -11    1    3    3    0    0 -0.14315690757E+02 -0.51548300825E+02 -0.50871469983E+02  0.73824608215E+02  0.00000000000E+00 0. -1.
         11    1    3    3    0    0 -0.85989650531E+02  0.14969277659E+02 -0.63518591930E+02  0.10794864887E+03  0.00000000000E+00 0.  1.
         -2    1    1    2    0  502  0.34500622040E+01  0.21765449714E+02 -0.97494451319E+01  0.24097498020E+02  0.00000000000E+00 0.  1.
<scales pt_clust_5="13000.00000" pt_clust_6="13000.00000" pt_clust_7="13000.00000" pt_clust_8="13000.00000" pt_clust_9="22.03719"></scales>
<clustering>
<clus scale="   22.037">  1  9  2 -1</clus>
<clus scale="   80.730">  5  6 -1 -1</clus>
<clus scale="   92.505">  7  8 -1 -1</clus>
<clus scale="  130.219">  1  5  2 -1</clus>
<clus scale="   22.037">  1  5  2 -1</clus>
</clustering>
</event>
<event>
 9    2  0.1665830E-004  0.1185487E+03  0.7546771E-02  0.1248519E+00
         21   -1    0    0  501  502  0.00000000000E+00  0.00000000000E+00  0.19802430704E+02  0.19802430704E+02  0.00000000000E+00 0. -1.
          2   -1    0    0  502    0 -0.00000000000E+00 -0.00000000000E+00 -0.14324730474E+04  0.14324730474E+04  0.00000000000E+00 0. -1.
         23    2    1    2    0    0 -0.53294660397E+02  0.57255036928E+02 -0.54727458329E+03  0.56010663540E+03  0.89952840018E+02 0.  0.
         24    2    1    2    0    0  0.97565298703E+02  0.18516586316E+02 -0.55983800517E+03  0.57425857718E+03  0.80575864561E+02 0.  0.
        -13    1    4    4    0    0 -0.33091185434E+01  0.22391824758E+02 -0.55896885876E+02  0.60305936127E+02  0.00000000000E+00 0.  1.
         14    1    4    4    0    0  0.10087441725E+03 -0.38752384421E+01 -0.50394111929E+03  0.51395264105E+03  0.00000000000E+00 0. -1.
        -13    1    3    3    0    0 -0.63139971337E+02  0.75490520369E+02 -0.44474151406E+03  0.45550026232E+03  0.00000000000E+00 0. -1.
         13    1    3    3    0    0  0.98453109396E+01 -0.18235483440E+02 -0.10253306922E+03  0.10460637308E+03  0.00000000000E+00 0.  1.
          1    1    1    2  501    0 -0.44270638306E+02 -0.75771623244E+02 -0.30555802822E+03  0.31791026551E+03  0.00000000000E+00 0. -1.
<scales pt_clust_5="13000.00000" pt_clust_6="13000.00000" pt_clust_7="13000.00000" pt_clust_8="13000.00000" pt_clust_9="87.75664"></scales>
<clustering>
<clus scale="   80.576">  5  6 -1 -1</clus>
<clus scale="   87.757">  1  9  2 -1</clus>
<clus scale="   89.953">  7  8 -1 -1</clus>
<clus scale="  111.601">  1  5  2 -1</clus>
<clus scale="   87.757">  1  5  2 -1</clus>
</clustering>
</event>
<event>
 9    2  0.1665830E-004  0.1698725E+03  0.7546771E-02  0.1191902E+00
          2   -1    0    0  502    0 -0.00000000000E+00  0.00000000000E+00  0.54050765291E+03  0.54050765291E+03  0.00000000000E+00 0. -1.
         21   -1    0    0  501  502  0.00000000000E+00 -0.00000000000E+00 -0.19192255254E+03  0.19192255254E+03  0.00000000000E+00 0. -1.
         24    2    1    2    0    0 -0.69095368240E+02 -0.65923431975E+02  0.33053827073E+03  0.35322805229E+03  0.79965240625E+02 0.  0.
         23    2    1    2    0    0 -0.19470118737E+02  0.16219019172E+03  0.10554281822E+03  0.22182781430E+03  0.10669371541E+03 0.  0.
        -13    1    3    3    0    0 -0.30083146969E+02 -0.69595881040E+02  0.14531767902E+03  0.16390793216E+03  0.00000000000E+00 0.  1.
         14    1    3    3    0    0 -0.39012221271E+02  0.36724490649E+01  0.18522059171E+03  0.18932012013E+03  0.00000000000E+00 0. -1.
        -11    1    4    4    0    0 -0.26600644822E+02  0.34324538796E+02 -0.15012339588E+02  0.45947128402E+02  0.00000000000E+00 0. -1.
         11    1    4    4    0    0  0.71305260847E+01  0.12786565292E+03  0.12055515781E+03  0.17588068590E+03  0.00000000000E+00 0.  1.
          1    1    1    2  501    0  0.88565486977E+02 -0.96266759744E+02 -0.87495988577E+02  0.15737433886E+03  0.00000000000E+00 0. -1.
<scales pt_clust_5="13000.00000" pt_clust_6="13000.00000" pt_clust_7="13000.00000" pt_clust_8="13000.00000" pt_clust_9="132.18591"></scales>
<clustering>
<clus scale="   79.965">  5  6 -1 -1</clus>
<clus scale="  106.694">  7  8 -1 -1</clus>
<clus scale="  124.557">  1  5  2 -1</clus>
<clus scale="  132.186">  2  9  1 -1</clus>
<clus scale="  132.186">  2  5  1 -1</clus>
</clustering>
</event>
<event>
 9    2  0.1665830E-004  0.2255010E+03  0.7546771E-02  0.1161736E+00
         -3   -1    0    0    0  501 -0.00000000000E+00  0.00000000000E+00  0.53379594886E+02  0.53379594886E+02  0.00000000000E+00 0.  1.
         21   -1    0    0  501  502  0.00000000000E+00 -0.00000000000E+00 -0.14270232798E+04  0.14270232798E+04  0.00000000000E+00 0.  1.
         24    2    1    2    0    0  0.61955929322E+02 -0.29239758337E+02 -0.24345506698E+03  0.26525521997E+03  0.79977880920E+02 0.  0.
         23    2    1    2    0    0  0.17478054794E+03  0.58933751060E+02 -0.57901046473E+03  0.61454524926E+03  0.91604138391E+02 0.  0.
        -13    1    3    3    0    0  0.97465432604E+01 -0.36828783756E+02 -0.40697728391E+02  0.55746385664E+02  0.00000000000E+00 0.  1.
         14    1    3    3    0    0  0.52209386062E+02  0.75890254187E+01 -0.20275733859E+03  0.20950883430E+03  0.00000000000E+00 0. -1.
        -11    1    4    4    0    0  0.66073097926E+02  0.37458328594E+02 -0.11744079889E+03  0.13986108070E+03  0.00000000000E+00 0.  1.
         11    1    4    4    0    0  0.10870745001E+03  0.21475422466E+02 -0.46156966584E+03  0.47468416856E+03  0.00000000000E+00 0. -1.
         -4    1    1    2    0  502 -0.23673647726E+03 -0.29693992723E+02 -0.55117815318E+03  0.60060240543E+03  0.00000000000E+00 0.  1.
<scales pt_clust_5="13000.00000" pt_clust_6="13000.00000" pt_clust_7="13000.00000" pt_clust_8="13000.00000" pt_clust_9="206.05686"></scales>
<clustering>
<clus scale="   79.978">  5  6 -1 -1</clus>
<clus scale="   91.604">  7  8 -1 -1</clus>
<clus scale="  105.309">  1  5  2 -1</clus>
<clus scale="  206.057">  2  9  1 -1</clus>
<clus scale="  206.057">  2  5  1 -1</clus>
</clustering>
</event>
<event>
 9    2  0.1665830E-004  0.1057593E+03  0.7546771E-02  0.1272532E+00
         21   -1    0    0  501  502  0.00000000000E+00  0.00000000000E+00  0.75894941074E+02  0.75894941074E+02  0.00000000000E+00 0.  1.
          2   -1    0    0  502    0 -0.00000000000E+00 -0.00000000000E+00 -0.88175534026E+03  0.88175534026E+03  0.00000000000E+00 0. -1.
         24    2    1    2    0    0 -0.53535488892E+02  0.13507143565E+02 -0.71257645166E+03  0.71923977833E+03  0.80573989390E+02 0.  0.
         23    2    1    2    0    0  0.62563328101E+02 -0.41404939932E+02  0.22362062223E+02  0.11910506100E+03  0.89763102965E+02 0.  0.
        -11    1    3    3    0    0 -0.47286477394E+02  0.39366646455E+02 -0.32643879234E+03  0.33218673806E+03  0.00000000000E+00 0.  1.
         12    1    3    3    0    0 -0.62490114987E+01 -0.25859502890E+02 -0.38613765932E+03  0.38705304027E+03  0.00000000000E+00 0. -1.
        -11    1    4    4    0    0 -0.37355665064E+01 -0.32952550911E+02 -0.21168332204E+02  0.39343657138E+02  0.00000000000E+00 0. -1.
         11    1    4    4    0    0  0.66298894608E+02 -0.84523890214E+01  0.43530394427E+02  0.79761403858E+02  0.00000000000E+00 0.  1.
          1    1    1    2  501    0 -0.90278392089E+01  0.27897796368E+02 -0.11564600975E+03  0.11930544201E+03  0.00000000000E+00 0. -1.
<scales pt_clust_5="13000.00000" pt_clust_6="13000.00000" pt_clust_7="13000.00000" pt_clust_8="13000.00000" pt_clust_9="29.32217"></scales>
<clustering>
<clus scale="   29.322">  1  9  2 -1</clus>
<clus scale="   80.574">  5  6 -1 -1</clus>
<clus scale="   89.763">  7  8 -1 -1</clus>
<clus scale="   98.080">  2  5  1 -1</clus>
<clus scale="   29.322">  1  5  2 -1</clus>
</clustering>
</event>
<event>
 9    2  0.1665830E-004  0.9184937E+02  0.7546771E-02  0.1304472E+00
         21   -1    0    0  501  502  0.00000000000E+00  0.00000000000E+00  0.54424791016E+02  0.54424791016E+02  0.00000000000E+00 0. -1.
          2   -1    0    0  502    0 -0.00000000000E+00 -0.00000000000E+00 -0.57539382986E+03  0.57539382986E+03  0.00000000000E+00 0. -1.
         24    2    1    2    0    0  0.11613043523E+02  0.81157594137E+01 -0.49061133101E+03  0.49746887688E+03  0.81086848666E+02 0.  0.
         23    2    1    2    0    0  0.14435403352E+02 -0.26181025034E+02 -0.31279347186E+02  0.10063657913E+03  0.90859763132E+02 0.  0.
        -11    1    3    3    0    0 -0.99889864379E+01 -0.29479445789E+02 -0.10761344567E+03  0.11202442262E+03  0.00000000000E+00 0.  1.
         12    1    3    3    0    0  0.21602029961E+02  0.37595205202E+02 -0.38299788533E+03  0.38544445426E+03  0.00000000000E+00 0. -1.
        -11    1    4    4    0    0  0.35361523340E+02 -0.37446607264E+02 -0.48923873975E+02  0.71036829696E+02  0.00000000000E+00 0. -1.
         11    1    4    4    0    0 -0.20926119989E+02  0.11265582230E+02  0.17644526789E+02  0.29599749431E+02  0.00000000000E+00 0.  1.
          1    1    1    2  501    0 -0.26048446874E+02  0.18065265620E+02  0.92163934929E+00  0.31713164862E+02  0.00000000000E+00 0. -1.
<scales pt_clust_5="13000.00000" pt_clust_6="13000.00000" pt_clust_7="13000.00000" pt_clust_8="13000.00000" pt_clust_9="31.69977"></scales>
<clustering>
<clus scale="   31.700">  1  9  2 -1</clus>
<clus scale="   81.087">  5  6 -1 -1</clus>
<clus scale="   82.194">  2  5  1 -1</clus>
<clus scale="   90.860">  7  8 -1 -1</clus>
<clus scale="   31.700">  1  5  2 -1</clus>
</clustering>
</event>
<event>
 9    2  0.1665830E-004  0.1294351E+03  0.7546771E-02  0.1231451E+00
         21   -1    0    0  501  502  0.00000000000E+00  0.00000000000E+00  0.93065615499E+02  0.93065615499E+02  0.00000000000E+00 0.  1.
         -3   -1    0    0    0  501 -0.00000000000E+00 -0.00000000000E+00 -0.60681440205E+03  0.60681440205E+03  0.00000000000E+00 0.  1.
         24    2    1    2    0    0 -0.27824167314E+02  0.92402598525E+02 -0.47302157115E+03  0.48958027598E+03  0.81406482272E+02 0.  0.
         23    2    1    2    0    0 -0.44047427492E+02 -0.68793494007E+02 -0.50975299989E+02  0.13395880108E+03  0.93133015049E+02 0.  0.
        -13    1    3    3    0    0 -0.52479084304E+02  0.42199242643E+02 -0.31003389558E+03  0.31726305612E+03  0.00000000000E+00 0.  1.
         14    1    3    3    0    0  0.24654916989E+02  0.50203355882E+02 -0.16298767556E+03  0.17231721986E+03  0.00000000000E+00 0. -1.
        -11    1    4    4    0    0 -0.44690925807E+02 -0.90707915413E+02 -0.35693443944E+02  0.10723444740E+03  0.00000000000E+00 0. -1.
         11    1    4    4    0    0  0.64349831439E+00  0.21914421407E+02 -0.15281856046E+02  0.26724353685E+02  0.00000000000E+00 0.  1.
         -4    1    1    2    0  502  0.71871594807E+02 -0.23609104518E+02  0.10248084590E+02  0.76340940484E+02  0.00000000000E+00 0.  1.
<scales pt_clust_5="13000.00000" pt_clust_6="13000.00000" pt_clust_7="13000.00000" pt_clust_8="13000.00000" pt_clust_9="75.64996"></scales>
<clustering>
<clus scale="   75.650">  1  9  2 -1</clus>
<clus scale="   81.406">  5  6 -1 -1</clus>
<clus scale="   93.133">  7  8 -1 -1</clus>
<clus scale="  121.271">  2  5  1 -1</clus>
<clus scale="   75.650">  1  5  2 -1</clus>
</clustering>
</event>
<event>
 9    2  0.1665830E-004  0.1613559E+03  0.7546771E-02  0.1211067E+00
         21   -1    0    0  501  502  0.00000000000E+00  0.00000000000E+00  0.44510227176E+02  0.44510227176E+02  0.00000000000E+00 0. -1.
          2   -1    0    0  502    0 -0.00000000000E+00 -0.00000000000E+00 -0.88552376590E+03  0.88552376590E+03  0.00000000000E+00 0. -1.
         24    2    1    2    0    0 -0.30467054466E+02 -0.39500572726E+02 -0.19980523828E+03  0.22165072283E+03  0.81965682049E+02 0.  0.
         23    2    1    2    0    0  0.75992634446E+02  0.14272203323E+03 -0.41763148041E+03  0.45795594986E+03  0.95724288040E+02 0.  0.
        -13    1    3    3    0    0 -0.58008252120E+02 -0.20770660358E+02 -0.14454324040E+03  0.15712773782E+03  0.00000000000E+00 0.  1.
         14    1    3    3    0    0  0.27541197654E+02 -0.18729912368E+02 -0.55261997874E+02  0.64522985010E+02  0.00000000000E+00 0. -1.
        -11    1    4    4    0    0 -0.19988166135E+02  0.22399427705E+02 -0.38851635579E+02  0.49098989135E+02  0.00000000000E+00 0.  1.
         11    1    4    4    0    0  0.95980800581E+02  0.12032260552E+03 -0.37877984483E+03  0.40885696072E+03  0.00000000000E+00 0. -1.
          1    1    1    2  501    0 -0.45525579980E+02 -0.10322146050E+03 -0.22357682004E+03  0.25042732039E+03  0.00000000000E+00 0. -1.
<scales pt_clust_5="13000.00000" pt_clust_6="13000.00000" pt_clust_7="13000.00000" pt_clust_8="13000.00000" pt_clust_9="129.89456"></scales>
<clustering>
<clus scale="   81.966">  5  6 -1 -1</clus>
<clus scale="   95.724">  7  8 -1 -1</clus>
<clus scale="   95.953">  2  5  1 -1</clus>
<clus scale="  129.895">  1  9  2 -1</clus>
<clus scale="  129.895">  1  5  2 -1</clus>
</clustering>
</event>
<event>
 9    2  0.1665830E-004  0.1252036E+03  0.7546771E-02  0.1239862E+00
         -3   -1    0    0    0  501 -0.00000000000E+00  0.00000000000E+00  0.77859103750E+02  0.77859103750E+02  0.00000000000E+00 0.  1.
         21   -1    0    0  501  502  0.00000000000E+00 -0.00000000000E+00 -0.32450340849E+03  0.32450340849E+03  0.00000000000E+00 0.  1.
         23    2    1    2    0    0  0.17277976331E+02 -0.91304302715E+02 -0.11905149022E+02  0.13073143065E+03  0.91180975132E+02 0.  0.
         24    2    1    2    0    0 -0.34991907265E+02  0.60919482749E+02 -0.17218189504E+03  0.19986457480E+03  0.73236782616E+02 0.  0.
        -13    1    4    4    0    0 -0.52103738115E+02  0.32128306218E+02 -0.14258261733E+03  0.15516710460E+03  0.00000000000E+00 0.  1.
         14    1    4    4    0    0  0.17111830850E+02  0.28791176531E+02 -0.29599277707E+02  0.44697470195E+02  0.00000000000E+00 0. -1.
        -13    1    3    3    0    0  0.42181298862E+02 -0.84763183974E+02  0.12199084177E+02  0.95461390027E+02  0.00000000000E+00 0.  1.
         13    1    3    3    0    0 -0.24903322530E+02 -0.65411187407E+01 -0.24104233199E+02  0.35270040623E+02  0.00000000000E+00 0. -1.
         -4    1    1    2    0  502  0.17713930934E+02  0.30384819966E+02 -0.62557260685E+02  0.71766506797E+02  0.00000000000E+00 0.  1.
<scales pt_clust_5="13000.00000" pt_clust_6="13000.00000" pt_clust_7="13000.00000" pt_clust_8="13000.00000" pt_clust_9="35.17130"></scales>
<clustering>
<clus scale="   35.171">  2  9  1 -1</clus>
<clus scale="   73.237">  5  6 -1 -1</clus>
<clus scale="   91.181">  7  8 -1 -1</clus>
<clus scale="  112.808">  2  5  1 -1</clus>
<clus scale="   35.171">  2  5  1 -1</clus>
</clustering>
</event>
<event>
 9    2  0.1665830E-004  0.1713302E+03  0.7546771E-02  0.1205466E+00
         21   -1    0    0  501  502  0.00000000000E+00  0.00000000000E+00  0.18318896193E+03  0.18318896193E+03  0.00000000000E+00 0. -1.
          2   -1    0    0  502    0 -0.00000000000E+00 -0.00000000000E+00 -0.77207650699E+03  0.77207650699E+03  0.00000000000E+00 0. -1.
         24    2    1    2    0    0  0.17655677755E+01 -0.35569133944E+02  0.46076556439E+02  0.10143452350E+03  0.83051989648E+02 0.  0.
         23    2    1    2    0    0  0.84822196244E+02  0.13072941224E+03 -0.68836433536E+03  0.71453089367E+03  0.11146279922E+03 0.  0.
        -11    1    3    3    0    0  0.17044974639E+02  0.13567916556E+02  0.44964974375E+02  0.49964671926E+02  0.00000000000E+00 0.  1.
         12    1    3    3    0    0 -0.15279406863E+02 -0.49137050500E+02  0.11115820640E+01  0.51469851570E+02  0.00000000000E+00 0. -1.
        -13    1    4    4    0    0  0.35255453316E+02  0.63295851574E+01 -0.45706606815E+02  0.58069824723E+02  0.00000000000E+00 0.  1.
         13    1    4    4    0    0  0.49566742928E+02  0.12439982709E+03 -0.64265772854E+03  0.65646106895E+03  0.00000000000E+00 0. -1.
          1    1    1    2  501    0 -0.86587764019E+02 -0.95160278299E+02  0.53400233863E+02  0.13930005176E+03  0.00000000000E+00 0. -1.
<scales pt_clust_5="13000.00000" pt_clust_6="13000.00000" pt_clust_7="13000.00000" pt_clust_8="13000.00000" pt_clust_9="130.11566"></scales>
<clustering>
<clus scale="   83.052">  5  6 -1 -1</clus>
<clus scale="   90.365">  2  5  1 -1</clus>
<clus scale="  111.463">  7  8 -1 -1</clus>
<clus scale="  130.116">  1  9  2 -1</clus>
<clus scale="  130.116">  1  5  2 -1</clus>
</clustering>
</event>
<event>
 9    2  0.1665830E-004  0.1285437E+03  0.7546771E-02  0.1232450E+00
         21   -1    0    0  501  502  0.00000000000E+00  0.00000000000E+00  0.55094571273E+02  0.55094571273E+02  0.00000000000E+00 0. -1.
          2   -1    0    0  502    0 -0.00000000000E+00 -0.00000000000E+00 -0.79375878128E+03  0.79375878128E+03  0.00000000000E+00 0. -1.
         24    2    1    2    0    0  0.66706978926E+02  0.87421373787E+02 -0.47445055437E+03  0.49362702048E+03  0.80448674210E+02 0.  0.
         23    2    1    2    0    0 -0.50717027890E+02  0.13797030087E+02 -0.47156184377E+02  0.11519552228E+03  0.91014985969E+02 0.  0.
        -13    1    3    3    0    0  0.17960760621E+02 -0.13808891356E+02 -0.57465038053E+02  0.61769774170E+02  0.00000000000E+00 0.  1.
         14    1    3    3    0    0  0.48746218305E+02  0.10123026514E+03 -0.41698551631E+03  0.43185724631E+03  0.00000000000E+00 0. -1.
        -13    1    4    4    0    0  0.58464278584E+01 -0.31814776757E+02 -0.12325887828E+02  0.34616300345E+02  0.00000000000E+00 0.  1.
         13    1    4    4    0    0 -0.56563455749E+02  0.45611806844E+02 -0.34830296550E+02  0.80579221934E+02  0.00000000000E+00 0. -1.
          1    1    1    2  501    0 -0.15989951036E+02 -0.10121840387E+03 -0.21705747127E+03  0.24003080979E+03  0.00000000000E+00 0. -1.
<scales pt_clust_5="13000.00000" pt_clust_6="13000.00000" pt_clust_7="13000.00000" pt_clust_8="13000.00000" pt_clust_9="102.47368"></scales>
<clustering>
<clus scale="   80.449">  5  6 -1 -1</clus>
<clus scale="   91.015">  7  8 -1 -1</clus>
<clus scale="  102.474">  1  9  2 -1</clus>
<clus scale="  121.292">  2  5  1 -1</clus>
<clus scale="  102.474">  1  5  2 -1</clus>
</clustering>
</event>
<event>
 9    2  0.1665830E-004  0.9645832E+02  0.7546771E-02  0.1293267E+00
         21   -1    0    0  501  502  0.00000000000E+00  0.00000000000E+00  0.93039891827E+02  0.93039891827E+02  0.00000000000E+00 0. -1.
         -1   -1    0    0    0  501 -0.00000000000E+00 -0.00000000000E+00 -0.31365036636E+03  0.31365036636E+03  0.00000000000E+00 0.  1.
         23    2    1    2    0    0 -0.34736234200E+02  0.20813457315E+02 -0.19311567292E+03  0.21739134942E+03  0.91244340660E+02 0.  0.
         24    2    1    2    0    0 -0.45108267683E+02 -0.45243439727E+02 -0.20076188772E+02  0.10547167967E+03  0.81483109937E+02 0.  0.
        -11    1    4    4    0    0 -0.37094261975E+02 -0.88751592562E+01 -0.46253434336E+02  0.59951087657E+02  0.00000000000E+00 0.  1.
         12    1    4    4    0    0 -0.80140057083E+01 -0.36368280471E+02  0.26177245564E+02  0.45520592013E+02  0.00000000000E+00 0. -1.
        -11    1    3    3    0    0 -0.38496848326E+02 -0.29712001243E+02 -0.10580349113E+03  0.11644393108E+03  0.00000000000E+00 0.  1.
         11    1    3    3    0    0  0.37606141265E+01  0.50525458558E+02 -0.87312181790E+02  0.10094741834E+03  0.00000000000E+00 0. -1.
         -2    1    1    2    0  502  0.79844501883E+02  0.24429982412E+02 -0.74186128379E+01  0.83827229097E+02  0.00000000000E+00 0.  1.
<scales pt_clust_5="13000.00000" pt_clust_6="13000.00000" pt_clust_7="13000.00000" pt_clust_8="13000.00000" pt_clust_9="83.49831"></scales>
<clustering>
<clus scale="   81.483">  5  6 -1 -1</clus>
<clus scale="   83.498">  1  9  2 -1</clus>
<clus scale="   87.282">  1  5  2 -1</clus>
<clus scale="   91.244">  7  8 -1 -1</clus>
<clus scale="   83.498">  1  5  2 -1</clus>
</clustering>
</event>
<event>
 9    2  0.1665830E-004  0.3670546E+03  0.7546771E-02  0.1056110E+00
         21   -1    0    0  501  502  0.00000000000E+00  0.00000000000E+00  0.11055637747E+04  0.11055637747E+04  0.00000000000E+00 0. -1.
          2   -1    0    0  502    0 -0.00000000000E+00 -0.00000000000E+00 -0.17859537752E+03  0.17859537752E+03  0.00000000000E+00 0. -1.
         23    2    1    2    0    0  0.28129393915E+03  0.20846261912E+03  0.16096799383E+03  0.39596585841E+03  0.91078659490E+02 0.  0.
         24    2    1    2    0    0 -0.30934389434E+03 -0.20640897575E+03  0.77104164591E+03  0.85962002717E+03  0.78377682747E+02 0.  0.
        -11    1    4    4    0    0 -0.71226062132E+02 -0.73070412084E+02  0.15181373744E+03  0.18292033218E+03  0.00000000000E+00 0.  1.
         12    1    4    4    0    0 -0.23811783221E+03 -0.13333856367E+03  0.61922790847E+03  0.67669969500E+03  0.00000000000E+00 0. -1.
        -11    1    3    3    0    0  0.14721827019E+03  0.10916835434E+03  0.34231021603E+02  0.18644761062E+03  0.00000000000E+00 0.  1.
         11    1    3    3    0    0  0.13407566896E+03  0.99294264779E+02  0.12673697223E+03  0.20951824779E+03  0.00000000000E+00 0. -1.
          1    1    1    2  501    0  0.28049955197E+02 -0.20536433727E+01 -0.50412425884E+01  0.28573266605E+02  0.00000000000E+00 0. -1.
<scales pt_clust_5="13000.00000" pt_clust_6="13000.00000" pt_clust_7="13000.00000" pt_clust_8="13000.00000" pt_clust_9="28.12505"></scales>
<clustering>
<clus scale="   28.125">  1  9  2 -1</clus>
<clus scale="   78.378">  5  6 -1 -1</clus>
<clus scale="   91.079">  7  8 -1 -1</clus>
<clus scale="  364.111">  1  5  2 -1</clus>
<clus scale="   28.125">  1  5  2 -1</clus>
</clustering>
</event>
<event>
 9    2  0.1665830E-004  0.2476266E+03  0.7546771E-02  0.1115779E+00
          2   -1    0    0  502    0 -0.00000000000E+00  0.00000000000E+00  0.13592924101E+04  0.13592924101E+04  0.00000000000E+00 0. -1.
         21   -1    0    0  501  502  0.00000000000E+00 -0.00000000000E+00 -0.85162138856E+02  0.85162138856E+02  0.00000000000E+00 0.  1.
         23    2    1    2    0    0 -0.19997566154E+03 -0.11423472310E+03  0.10758725133E+04  0.11040620469E+04  0.91714237241E+02 0.  0.
         24    2    1    2    0    0  0.21010483500E+03  0.92679819186E+02  0.14368485908E+03  0.28084911178E+03  0.74143740699E+02 0.  0.
        -13    1    4    4    0    0  0.19620068631E+03  0.65830848008E+02  0.14115929751E+03  0.25050819773E+03  0.00000000000E+00 0.  1.
         14    1    4    4    0    0  0.13904148689E+02  0.26848971178E+02  0.25255615732E+01  0.30340914049E+02  0.00000000000E+00 0. -1.
        -11    1    3    3    0    0 -0.12547119856E+03 -0.11483104932E+03  0.82543031823E+03  0.84277185632E+03  0.00000000000E+00 0. -1.
         11    1    3    3    0    0 -0.74504462982E+02  0.59632622566E+00  0.25044219510E+03  0.26129019058E+03  0.00000000000E+00 0.  1.
          1    1    1    2  501    0 -0.10129173459E+02  0.21554903913E+02  0.54572898826E+02  0.59543390263E+02  0.00000000000E+00 0. -1.
<scales pt_clust_5="13000.00000" pt_clust_6="13000.00000" pt_clust_7="13000.00000" pt_clust_8="13000.00000" pt_clust_9="23.81627"></scales>
<clustering>
<clus scale="   23.816">  2  9  1 -1</clus>
<clus scale="   74.144">  5  6 -1 -1</clus>
<clus scale="   91.714">  7  8 -1 -1</clus>
<clus scale="  241.671">  2  5  1 -1</clus>
<clus scale="   23.816">  2  5  1 -1</clus>
</clustering>
</event>
<event>
 9    2  0.1665830E-004  0.1207833E+03  0.7546771E-02  0.1259928E+00
         21   -1    0    0  501  502  0.00000000000E+00  0.00000000000E+00  0.43189185967E+03  0.43189185967E+03  0.00000000000E+00 0. -1.
          2   -1    0    0  502    0 -0.00000000000E+00 -0.00000000000E+00 -0.47481465893E+03  0.47481465893E+03  0.00000000000E+00 0. -1.
         24    2    1    2    0    0 -0.39755969818E+00  0.18880312265E+02 -0.61413908838E+02  0.10417263978E+03  0.81997844084E+02 0.  0.
         23    2    1    2    0    0  0.99748503828E+02 -0.25757640323E+02 -0.37593247358E+03  0.39573187454E+03  0.68302794865E+02 0.  0.
        -11    1    3    3    0    0 -0.10231603244E+02  0.33413487046E+02 -0.74496174892E+02  0.82285034454E+02  0.00000000000E+00 0.  1.
         12    1    3    3    0    0  0.98340435454E+01 -0.14533174781E+02  0.13082266054E+02  0.21887605323E+02  0.00000000000E+00 0. -1.
        -11    1    4    4    0    0  0.19560651516E+02  0.21388058969E+02 -0.11900654421E+03  0.12248520612E+03  0.00000000000E+00 0.  1.
         11    1    4    4    0    0  0.80187852311E+02 -0.47145699292E+02 -0.25692592937E+03  0.27324666842E+03  0.00000000000E+00 0. -1.
          1    1    1    2  501    0 -0.99350944129E+02  0.68773280587E+01  0.39442358316E+03  0.40680200429E+03  0.00000000000E+00 0. -1.
<scales pt_clust_5="13000.00000" pt_clust_6="13000.00000" pt_clust_7="13000.00000" pt_clust_8="13000.00000" pt_clust_9="99.61598"></scales>
<clustering>
<clus scale="   68.303">  7  8 -1 -1</clus>
<clus scale="   81.998">  5  6 -1 -1</clus>
<clus scale="   84.144">  2  5  1 -1</clus>
<clus scale="   99.616">  1  9  2 -1</clus>
<clus scale="   99.616">  1  5  2 -1</clus>
</clustering>
</event>
<event>
 9    2  0.1665830E-004  0.1204644E+03  0.7546771E-02  0.1255515E+00
         21   -1    0    0  501  502  0.00000000000E+00  0.00000000000E+00  0.80598282420E+02  0.80598282420E+02  0.00000000000E+00 0. -1.
          2   -1    0    0  502    0 -0.00000000000E+00 -0.00000000000E+00 -0.35865016465E+03  0.35865016465E+03  0.00000000000E+00 0. -1.
         24    2    1    2    0    0 -0.75606512117E+01  0.45026147590E+02 -0.42507868485E+01  0.92626342586E+02  0.80480138782E+02 0.  0.
         23    2    1    2    0    0  0.14868949368E+01  0.57622972008E+02 -0.12037353134E+03  0.16192302577E+03  0.91687847984E+02 0.  0.
        -13    1    3    3    0    0  0.33282508595E+02  0.27151389175E+01  0.22005613710E+01  0.33465502060E+02  0.00000000000E+00 0.  1.
         14    1    3    3    0    0 -0.40843159807E+02  0.42311008673E+02 -0.64513482196E+01  0.59160840526E+02  0.00000000000E+00 0. -1.
        -11    1    4    4    0    0  0.27535131031E+02  0.72612765576E+02 -0.78916300048E+02  0.11071846991E+03  0.00000000000E+00 0. -1.
         11    1    4    4    0    0 -0.26048236094E+02 -0.14989793567E+02 -0.41457231288E+02  0.51204555860E+02  0.00000000000E+00 0.  1.
          1    1    1    2  501    0  0.60737562749E+01 -0.10264911960E+03 -0.15342756405E+03  0.18469907872E+03  0.00000000000E+00 0. -1.
<scales pt_clust_5="13000.00000" pt_clust_6="13000.00000" pt_clust_7="13000.00000" pt_clust_8="13000.00000" pt_clust_9="78.13462"></scales>
<clustering>
<clus scale="   80.480">  5  6 -1 -1</clus>
<clus scale="   91.688">  7  8 -1 -1</clus>
<clus scale="   92.529">  2  5  1 -1</clus>
<clus scale="   78.135">  1  9  2 -1</clus>
<clus scale="   78.135">  1  5  2 -1</clus>
</clustering>
</event>
<event>
 9    2  0.1665830E-004  0.1267350E+03  0.7546771E-02  0.1234946E+00
         21   -1    0    0  501  502  0.00000000000E+00  0.00000000000E+00  0.17967389208E+03  0.17967389208E+03  0.00000000000E+00 0.  1.
         -3   -1    0    0    0  501 -0.00000000000E+00 -0.00000000000E+00 -0.80831470210E+03  0.80831470210E+03  0.00000000000E+00 0.  1.
         23    2    1    2    0    0  0.28065710935E+02  0.81355739691E+02 -0.70114292338E+03  0.71210386130E+03  0.89911455168E+02 0.  0.
         24    2    1    2    0    0 -0.89986282529E+02 -0.10793611629E+03 -0.18115103564E+02  0.16295929903E+03  0.80497452878E+02 0.  0.
        -13    1    4    4    0    0 -0.91676069402E+02 -0.11037171254E+03 -0.33460967332E+02  0.14732974230E+03  0.00000000000E+00 0.  1.
         14    1    4    4    0    0  0.16897868733E+01  0.24355962553E+01  0.15345863768E+02  0.15629556730E+02  0.00000000000E+00 0. -1.
        -13    1    3    3    0    0  0.14020343727E+02  0.10007203736E+03 -0.56553276179E+03  0.57448958856E+03  0.00000000000E+00 0. -1.
         13    1    3    3    0    0  0.14045367208E+02 -0.18716297670E+02 -0.13561016159E+03  0.13761427275E+03  0.00000000000E+00 0.  1.
         -4    1    1    2    0  502  0.61920571593E+02  0.26580376595E+02  0.90617216925E+02  0.11292543385E+03  0.00000000000E+00 0.  1.
<scales pt_clust_5="13000.00000" pt_clust_6="13000.00000" pt_clust_7="13000.00000" pt_clust_8="13000.00000" pt_clust_9="67.38452"></scales>
<clustering>
<clus scale="   67.385">  1  9  2 -1</clus>
<clus scale="   80.497">  5  6 -1 -1</clus>
<clus scale="   89.911">  7  8 -1 -1</clus>
<clus scale="  120.239">  1  5  2 -1</clus>
<clus scale="   67.385">  1  5  2 -1</clus>
</clustering>
</event>
<event>
 9    2  0.1665830E-004  0.1046576E+03  0.7546771E-02  0.1275802E+00
         21   -1    0    0  501  502  0.00000000000E+00  0.00000000000E+00  0.55755339923E+03  0.55755339923E+03  0.00000000000E+00 0. -1.
         -1   -1    0    0    0  501 -0.00000000000E+00 -0.00000000000E+00 -0.52663892272E+02  0.52663892272E+02  0.00000000000E+00 0.  1.
         23    2    1    2    0    0 -0.32163575179E+01  0.58017148353E+02  0.38799014509E+02  0.11484727424E+03  0.91149319326E+02 0.  0.
         24    2    1    2    0    0  0.28389829576E+02 -0.12662786216E+02  0.41039210295E+03  0.41925804414E+03  0.79933102250E+02 0.  0.
        -11    1    4    4    0    0  0.14618332777E+02 -0.18289056358E+02  0.27668510985E+02  0.36245437448E+02  0.00000000000E+00 0.  1.
         12    1    4    4    0    0  0.13771496799E+02  0.56262701424E+01  0.38272359196E+03  0.38301260669E+03  0.00000000000E+00 0. -1.
        -13    1    3    3    0    0  0.25659069301E+02  0.70827231937E+02  0.34882279774E+02  0.83016010886E+02  0.00000000000E+00 0.  1.
         13    1    3    3    0    0 -0.28875426819E+02 -0.12810083583E+02  0.39167347347E+01  0.31831263349E+02  0.00000000000E+00 0. -1.
         -2    1    1    2    0  502 -0.25173472058E+02 -0.45354362138E+02  0.55698389501E+02  0.76111973127E+02  0.00000000000E+00 0.  1.
<scales pt_clust_5="13000.00000" pt_clust_6="13000.00000" pt_clust_7="13000.00000" pt_clust_8="13000.00000" pt_clust_9="51.87219"></scales>
<clustering>
<clus scale="   51.872">  1  9  2 -1</clus>
<clus scale="   79.933">  5  6 -1 -1</clus>
<clus scale="   91.149">  7  8 -1 -1</clus>
<clus scale="   95.049">  1  5  2 -1</clus>
<clus scale="   51.872">  1  5  2 -1</clus>
</clustering>
</event>
<event>
 9    2  0.1665830E-004  0.9419776E+02  0.7546771E-02  0.1294296E+00
         21   -1    0    0  501  502  0.00000000000E+00  0.00000000000E+00  0.49105711595E+03  0.49105711595E+03  0.00000000000E+00 0. -1.
         -3   -1    0    0    0  501 -0.00000000000E+00 -0.00000000000E+00 -0.62185748679E+02  0.62185748679E+02  0.00000000000E+00 0.  1.
         24    2    1    2    0    0 -0.21286256081E+02 -0.79924903992E+01 -0.13884446664E+02  0.93655546848E+02  0.89786407632E+02 0.  0.
         23    2    1    2    0    0 -0.39992175374E+01  0.60080722053E+01  0.27944563784E+03  0.29431933326E+03  0.92097311306E+02 0.  0.
        -11    1    3    3    0    0 -0.44160842145E+02  0.21376177178E+02 -0.24646666757E+02  0.54905182924E+02  0.00000000000E+00 0.  1.
         12    1    3    3    0    0  0.22874586064E+02 -0.29368667577E+02  0.10762220093E+02  0.38750363923E+02  0.00000000000E+00 0. -1.
        -13    1    4    4    0    0 -0.41481043164E+02  0.26547288234E+02  0.16300806530E+03  0.17028524542E+03  0.00000000000E+00 0.  1.
         13    1    4    4    0    0  0.37481825627E+02 -0.20539216029E+02  0.11643757255E+03  0.12403408785E+03  0.00000000000E+00 0. -1.
         -4    1    1    2    0  502  0.25285473619E+02  0.19844181939E+01  0.16331017609E+03  0.16526798452E+03  0.00000000000E+00 0.  1.
<scales pt_clust_5="13000.00000" pt_clust_6="13000.00000" pt_clust_7="13000.00000" pt_clust_8="13000.00000" pt_clust_9="25.36322"></scales>
<clustering>
<clus scale="   25.363">  1  9  2 -1</clus>
<clus scale="   89.786">  5  6 -1 -1</clus>
<clus scale="   91.940">  2  5  1 -1</clus>
<clus scale="   92.097">  7  8 -1 -1</clus>
<clus scale="   25.363">  1  5  2 -1</clus>
</clustering>
</event>
<event>
 9    2  0.1665830E-004  0.1082026E+03  0.7546771E-02  0.1274389E+00
         -1   -1    0    0    0  501 -0.00000000000E+00  0.00000000000E+00  0.14056335711E+03  0.14056335711E+03  0.00000000000E+00 0.  1.
         21   -1    0    0  501  502  0.00000000000E+00 -0.00000000000E+00 -0.17256189900E+03  0.17256189900E+03  0.00000000000E+00 0.  1.
         23    2    1    2    0    0 -0.69445300502E+01  0.26077647703E+02  0.29277035804E+02  0.10696300367E+03  0.99275722715E+02 0.  0.
         24    2    1    2    0    0 -0.31326243088E+02 -0.56023603045E+02  0.28261396567E+02  0.10428839870E+03  0.77184104340E+02 0.  0.
        -13    1    4    4    0    0 -0.12247046190E+02 -0.68806342375E+02  0.37759784416E+02  0.79436164375E+02  0.00000000000E+00 0.  1.
         14    1    4    4    0    0 -0.19079196898E+02  0.12782739331E+02 -0.94983878496E+01  0.24852234322E+02  0.00000000000E+00 0. -1.
        -11    1    3    3    0    0  0.36637182306E+02  0.42653391507E+02  0.14884701114E+02  0.58164845583E+02  0.00000000000E+00 0.  1.
         11    1    3    3    0    0 -0.43581712356E+02 -0.16575743804E+02  0.14392334690E+02  0.48798158084E+02  0.00000000000E+00 0. -1.
         -2    1    1    2    0  502  0.38270773138E+02  0.29945955341E+02 -0.89536974256E+02  0.10187385374E+03  0.00000000000E+00 0.  1.
<scales pt_clust_5="13000.00000" pt_clust_6="13000.00000" pt_clust_7="13000.00000" pt_clust_8="13000.00000" pt_clust_9="48.59437"></scales>
<clustering>
<clus scale="   48.594">  2  9  1 -1</clus>
<clus scale="   77.184">  5  6 -1 -1</clus>
<clus scale="   88.372">  2  5  1 -1</clus>
<clus scale="   99.276">  7  8 -1 -1</clus>
<clus scale="   48.594">  2  5  1 -1</clus>
</clustering>
</event>
<event>
 9    2  0.1665830E-004  0.9159644E+02  0.7546771E-02  0.1319742E+00
         21   -1    0    0  501  502  0.00000000000E+00  0.00000000000E+00  0.17499118624E+03  0.17499118624E+03  0.00000000000E+00 0. -1.
         -1   -1    0    0    0  501 -0.00000000000E+00 -0.00000000000E+00 -0.10151270904E+03  0.10151270904E+03  0.00000000000E+00 0.  1.
         24    2    1    2    0    0 -0.43033218949E+01 -0.39923349643E+00 -0.62263648450E+02  0.88569401925E+02  0.62841857646E+02 0.  0.
         23    2    1    2    0    0 -0.24851746022E+02  0.65238771918E+01  0.12312336125E+03  0.15558078475E+03  0.91574277191E+02 0.  0.
        -13    1    3    3    0    0  0.29047135998E+02  0.74757620798E+00 -0.34914751986E+02  0.45423946175E+02  0.00000000000E+00 0.  1.
         14    1    3    3    0    0 -0.33350457892E+02 -0.11468097044E+01 -0.27348896464E+02  0.43145455750E+02  0.00000000000E+00 0. -1.
        -13    1    4    4    0    0  0.45372304108E+01  0.29452070044E+02  0.31679476225E+01  0.29967428682E+02  0.00000000000E+00 0.  1.
         13    1    4    4    0    0 -0.29388976433E+02 -0.22928192852E+02  0.11995541363E+03  0.12561335607E+03  0.00000000000E+00 0. -1.
         -2    1    1    2    0  502  0.29155067917E+02 -0.61246436954E+01  0.12618764393E+02  0.32353708604E+02  0.00000000000E+00 0.  1.
<scales pt_clust_5="13000.00000" pt_clust_6="13000.00000" pt_clust_7="13000.00000" pt_clust_8="13000.00000" pt_clust_9="29.79143"></scales>
<clustering>
<clus scale="   29.791">  1  9  2 -1</clus>
<clus scale="   62.842">  5  6 -1 -1</clus>
<clus scale="   62.874">  2  5  1 -1</clus>
<clus scale="   91.574">  7  8 -1 -1</clus>
<clus scale="   29.791">  1  5  2 -1</clus>
</clustering>
</event>
<event>
 9    2  0.1665830E-004  0.9386925E+02  0.7546771E-02  0.1295045E+00
         -3   -1    0    0    0  501 -0.00000000000E+00  0.00000000000E+00  0.17915031606E+03  0.17915031606E+03  0.00000000000E+00 0.  1.
         21   -1    0    0  501  502  0.00000000000E+00 -0.00000000000E+00 -0.16812638268E+03  0.16812638268E+03  0.00000000000E+00 0. -1.
         23    2    1    2    0    0  0.28206742867E+02  0.12048232023E+02  0.94450853349E+02  0.13395337509E+03  0.89898624922E+02 0.  0.
         24    2    1    2    0    0 -0.24690284724E+02  0.26502221286E+02  0.25168348045E+02  0.98034836960E+02  0.87552302206E+02 0.  0.
        -11    1    4    4    0    0 -0.13631855834E+02  0.30754198427E+02  0.55820068507E+02  0.65173063934E+02  0.00000000000E+00 0.  1.
         12    1    4    4    0    0 -0.11058428890E+02 -0.42519771413E+01 -0.30651720462E+02  0.32861773026E+02  0.00000000000E+00 0. -1.
        -11    1    3    3    0    0  0.55312740352E+02  0.16752491942E+02  0.88669153686E+02  0.10584122093E+03  0.00000000000E+00 0.  1.
         11    1    3    3    0    0 -0.27105997485E+02 -0.47042599182E+01  0.57816996626E+01  0.28112154169E+02  0.00000000000E+00 0. -1.
         -4    1    1    2    0  502 -0.35164581430E+01 -0.38550453309E+02 -0.10859526801E+03  0.11528848668E+03  0.00000000000E+00 0.  1.
<scales pt_clust_5="13000.00000" pt_clust_6="13000.00000" pt_clust_7="13000.00000" pt_clust_8="13000.00000" pt_clust_9="38.71050"></scales>
<clustering>
<clus scale="   38.711">  2  9  1 -1</clus>
<clus scale="   87.552">  5  6 -1 -1</clus>
<clus scale="   89.899">  7  8 -1 -1</clus>
<clus scale="   91.625">  2  5  1 -1</clus>
<clus scale="   38.711">  2  5  1 -1</clus>
</clustering>
</event>
<event>
 9    2  0.1665830E-004  0.1064364E+03  0.7546771E-02  0.1274094E+00
         -1   -1    0    0    0  501 -0.00000000000E+00  0.00000000000E+00  0.14994995777E+03  0.14994995777E+03  0.00000000000E+00 0.  1.
         21   -1    0    0  501  502  0.00000000000E+00 -0.00000000000E+00 -0.18401063907E+03  0.18401063907E+03  0.00000000000E+00 0.  1.
         23    2    1    2    0    0  0.23114979386E+01  0.54929093993E+02 -0.31861925417E+02  0.10834381940E+03  0.87753361875E+02 0.  0.
         24    2    1    2    0    0 -0.74466463378E+02 -0.44785135309E+02 -0.64611148839E+02  0.12967645365E+03  0.71347176280E+02 0.  0.
        -11    1    4    4    0    0 -0.87519762198E+02 -0.46491045634E+02 -0.59245739742E+02  0.11546074561E+03  0.00000000000E+00 0.  1.
         12    1    4    4    0    0  0.13053298821E+02  0.17059103252E+01 -0.53654090965E+01  0.14215708034E+02  0.00000000000E+00 0. -1.
        -13    1    3    3    0    0 -0.27474068689E+02  0.11914943304E+02 -0.45320222047E+02  0.54320464381E+02  0.00000000000E+00 0. -1.
         13    1    3    3    0    0  0.29785566627E+02  0.43014150689E+02  0.13458296630E+02  0.54023355014E+02  0.00000000000E+00 0.  1.
         -2    1    1    2    0  502  0.72154965439E+02 -0.10143958684E+02  0.62412392961E+02  0.95940323797E+02  0.00000000000E+00 0.  1.
<scales pt_clust_5="13000.00000" pt_clust_6="13000.00000" pt_clust_7="13000.00000" pt_clust_8="13000.00000" pt_clust_9="72.86456"></scales>
<clustering>
<clus scale="   71.347">  5  6 -1 -1</clus>
<clus scale="   72.865">  2  9  1 -1</clus>
<clus scale="   87.753">  7  8 -1 -1</clus>
<clus scale="   93.373">  2  5  1 -1</clus>
<clus scale="   72.865">  2  5  1 -1</clus>
</clustering>
</event>
<event>
 9    2  0.1665830E-004  0.1089037E+03  0.7546771E-02  0.1266119E+00
         -1   -1    0    0    0  501 -0.00000000000E+00  0.00000000000E+00  0.12341909685E+03  0.12341909685E+03  0.00000000000E+00 0.  1.
         21   -1    0    0  501  502  0.00000000000E+00 -0.00000000000E+00 -0.22588148784E+03  0.22588148784E+03  0.00000000000E+00 0. -1.
         23    2    1    2    0    0  0.10558725042E+02 -0.76240762736E+02  0.61351236785E+02  0.13285484643E+03  0.89231694975E+02 0.  0.
         24    2    1    2    0    0  0.58119611079E+01  0.24406312359E+02 -0.77103381925E+02  0.11410573461E+03  0.80285367238E+02 0.  0.
        -11    1    4    4    0    0  0.18425666905E+02  0.25464529698E+02  0.42997219282E+01  0.31724361022E+02  0.00000000000E+00 0.  1.
         12    1    4    4    0    0 -0.12613705797E+02 -0.10582173385E+01 -0.81403103853E+02  0.82381373591E+02  0.00000000000E+00 0. -1.
        -11    1    3    3    0    0 -0.26808206397E+02 -0.75863770019E+02  0.41056191947E+02  0.90330517706E+02  0.00000000000E+00 0.  1.
         11    1    3    3    0    0  0.37366931438E+02 -0.37699271654E+00  0.20295044837E+02  0.42524328726E+02  0.00000000000E+00 0. -1.
         -2    1    1    2    0  502 -0.16370686150E+02  0.51834450376E+02 -0.86710245855E+02  0.10234000365E+03  0.00000000000E+00 0.  1.
<scales pt_clust_5="13000.00000" pt_clust_6="13000.00000" pt_clust_7="13000.00000" pt_clust_8="13000.00000" pt_clust_9="54.35816"></scales>
<clustering>
<clus scale="   54.358">  2  9  1 -1</clus>
<clus scale="   80.285">  5  6 -1 -1</clus>
<clus scale="   89.232">  7  8 -1 -1</clus>
<clus scale="  101.703">  2  5  1 -1</clus>
<clus scale="   54.358">  2  5  1 -1</clus>
</clustering>
</event>
<event>
 9    2  0.1665830E-004  0.1212199E+03  0.7546771E-02  0.1244432E+00
         21   -1    0    0  501  502  0.00000000000E+00  0.00000000000E+00  0.48122002588E+02  0.48122002588E+02  0.00000000000E+00 0. -1.
          2   -1    0    0  502    0 -0.00000000000E+00 -0.00000000000E+00 -0.51940419399E+03  0.51940419399E+03  0.00000000000E+00 0. -1.
         23    2    1    2    0    0 -0.54441103878E+02  0.16502533021E+02 -0.15763151184E+03  0.19090132120E+03  0.91430047173E+02 0.  0.
         24    2    1    2    0    0  0.72240137998E+02 -0.78961551813E+02 -0.25951612572E+03  0.29207616418E+03  0.80661651189E+02 0.  0.
        -11    1    4    4    0    0  0.39901637662E+02 -0.48093890595E+02 -0.56664007255E+02  0.84356225133E+02  0.00000000000E+00 0.  1.
         12    1    4    4    0    0  0.32338500336E+02 -0.30867661219E+02 -0.20285211846E+03  0.20771993905E+03  0.00000000000E+00 0. -1.
        -11    1    3    3    0    0 -0.44090381372E+02  0.51126395368E+02 -0.12567450061E+03  0.14266026123E+03  0.00000000000E+00 0.  1.
         11    1    3    3    0    0 -0.10350722506E+02 -0.34623862347E+02 -0.31957011230E+02  0.48241059970E+02  0.00000000000E+00 0. -1.
          1    1    1    2  501    0 -0.17799034120E+02  0.62459018793E+02 -0.54134553849E+02  0.84548711194E+02  0.00000000000E+00 0. -1.
<scales pt_clust_5="13000.00000" pt_clust_6="13000.00000" pt_clust_7="13000.00000" pt_clust_8="13000.00000" pt_clust_9="64.94563"></scales>
<clustering>
<clus scale="   64.946">  1  9  2 -1</clus>
<clus scale="   80.662">  5  6 -1 -1</clus>
<clus scale="   91.430">  7  8 -1 -1</clus>
<clus scale="  113.319">  1  5  2 -1</clus>
<clus scale="   64.946">  1  5  2 -1</clus>
</clustering>
</event>
<event>
 9    2  0.1665830E-004  0.5147178E+03  0.7546771E-02  0.1010007E+00
         21   -1    0    0  501  502  0.00000000000E+00  0.00000000000E+00  0.51468151436E+03  0.51468151436E+03  0.00000000000E+00 0. -1.
          2   -1    0    0  502    0 -0.00000000000E+00 -0.00000000000E+00 -0.94792188681E+03  0.94792188681E+03  0.00000000000E+00 0. -1.
         24    2    1    2    0    0  0.76207970683E+02  0.90146918428E+02 -0.18283488335E+03  0.23211649495E+03  0.80717723952E+02 0.  0.
         23    2    1    2    0    0  0.52095073912E+02  0.35552040782E+03 -0.56091224076E+03  0.67236910525E+03  0.91372943282E+02 0.  0.
        -11    1    3    3    0    0  0.73444641844E+02  0.38500837174E+02 -0.14835231629E+03  0.16995540482E+03  0.00000000000E+00 0.  1.
         12    1    3    3    0    0  0.27633288393E+01  0.51646081254E+02 -0.34482567064E+02  0.62161090133E+02  0.00000000000E+00 0. -1.
        -11    1    4    4    0    0 -0.64393369358E+01  0.18100184158E+03 -0.22023511675E+03  0.28514318924E+03  0.00000000000E+00 0.  1.
         11    1    4    4    0    0  0.58534410848E+02  0.17451856624E+03 -0.34067712400E+03  0.38722591601E+03  0.00000000000E+00 0. -1.
          1    1    1    2  501    0 -0.12830304460E+03 -0.44566732625E+03  0.31050675166E+03  0.55811780097E+03  0.00000000000E+00 0. -1.
<scales pt_clust_5="13000.00000" pt_clust_6="13000.00000" pt_clust_7="13000.00000" pt_clust_8="13000.00000" pt_clust_9="463.76830"></scales>
<clustering>
<clus scale="   80.718">  5  6 -1 -1</clus>
<clus scale="   91.373">  7  8 -1 -1</clus>
<clus scale="  112.086">  5  7 -1 -1</clus>
<clus scale="  463.768">  1  9  2 -1</clus>
<clus scale="  463.768">  1  5  2 -1</clus>
</clustering>
</event>
<event>
 9    2  0.1665830E-004  0.3558405E+03  0.7546771E-02  0.1060487E+00
          2   -1    0    0  502    0 -0.00000000000E+00  0.00000000000E+00  0.21077785349E+04  0.21077785349E+04  0.00000000000E+00 0. -1.
         21   -1    0    0  501  502  0.00000000000E+00 -0.00000000000E+00 -0.88128498362E+02  0.88128498362E+02  0.00000000000E+00 0. -1.
         23    2    1    2    0    0 -0.11813606643E+03  0.25454199946E+03  0.57913504375E+03  0.64981168448E+03  0.90055908773E+02 0.  0.
         24    2    1    2    0    0  0.15441010368E+03 -0.38695722663E+03  0.10837149080E+04  0.11637919370E+04  0.79970591041E+02 0.  0.
        -13    1    4    4    0    0  0.86014360515E+02 -0.28153225598E+03  0.83004001411E+03  0.88069592164E+03  0.00000000000E+00 0.  1.
         14    1    4    4    0    0  0.68395743162E+02 -0.10542497064E+03  0.25367489393E+03  0.28309601539E+03  0.00000000000E+00 0. -1.
        -13    1    3    3    0    0 -0.63995154285E+02  0.11725205709E+03  0.17914352562E+03  0.22346325746E+03  0.00000000000E+00 0. -1.
         13    1    3    3    0    0 -0.54140912144E+02  0.13728994237E+03  0.39999151813E+03  0.42634842701E+03  0.00000000000E+00 0.  1.
          1    1    1    2  501    0 -0.36274037248E+02  0.13241522717E+03  0.35680008478E+03  0.38230341178E+03  0.00000000000E+00 0. -1.
<scales pt_clust_5="13000.00000" pt_clust_6="13000.00000" pt_clust_7="13000.00000" pt_clust_8="13000.00000" pt_clust_9="137.29391"></scales>
<clustering>
<clus scale="   79.971">  5  6 -1 -1</clus>
<clus scale="   90.056">  7  8 -1 -1</clus>
<clus scale="  137.294">  2  9  1 -1</clus>
<clus scale="  353.423">  2  5  1 -1</clus>
<clus scale="  137.294">  2  5  1 -1</clus>
</clustering>
</event>
<event>
 9    2  0.1665830E-004  0.1249673E+03  0.7546771E-02  0.1237898E+00
         21   -1    0    0  501  502  0.00000000000E+00  0.00000000000E+00  0.24503734376E+03  0.24503734376E+03  0.00000000000E+00 0.  1.
          2   -1    0    0  502    0 -0.00000000000E+00 -0.00000000000E+00 -0.21536242747E+03  0.21536242747E+03  0.00000000000E+00 0. -1.
         23    2    1    2    0    0  0.67028550815E+02  0.59648716295E+02 -0.12729989239E+03  0.18024305308E+03  0.90727612129E+02 0.  0.
         24    2    1    2    0    0 -0.62609153067E+02 -0.13265075764E+02  0.19459543664E+03  0.22027112026E+03  0.80969834989E+02 0.  0.
        -11    1    4    4    0    0 -0.38349034458E+02  0.72080699086E+01  0.18197255654E+03  0.18610915090E+03  0.00000000000E+00 0.  1.
         12    1    4    4    0    0 -0.24260118609E+02 -0.20473145673E+02  0.12622880100E+02  0.34161969362E+02  0.00000000000E+00 0. -1.
        -13    1    3    3    0    0  0.73226625115E+02  0.78694045408E+02 -0.10957372500E+03  0.15349688146E+03  0.00000000000E+00 0. -1.
         13    1    3    3    0    0 -0.61980743006E+01 -0.19045329113E+02 -0.17726167390E+02  0.26746171622E+02  0.00000000000E+00 0.  1.
          1    1    1    2  501    0 -0.44193977475E+01 -0.46383640531E+02 -0.37620627961E+02  0.59885597881E+02  0.00000000000E+00 0. -1.
<scales pt_clust_5="13000.00000" pt_clust_6="13000.00000" pt_clust_7="13000.00000" pt_clust_8="13000.00000" pt_clust_9="46.59373"></scales>
<clustering>
<clus scale="   46.594">  1  9  2 -1</clus>
<clus scale="   80.970">  5  6 -1 -1</clus>
<clus scale="   90.728">  7  8 -1 -1</clus>
<clus scale="  118.074">  1  5  2 -1</clus>
<clus scale="   46.594">  1  5  2 -1</clus>
</clustering>
</event>
<event>
 9    2  0.1665830E-004  0.1950877E+03  0.7546771E-02  0.1182424E+00
         21   -1    0    0  501  502  0.00000000000E+00  0.00000000000E+00  0.94073063028E+02  0.94073063028E+02  0.00000000000E+00 0. -1.
          2   -1    0    0  502    0 -0.00000000000E+00 -0.00000000000E+00 -0.71271331845E+03  0.71271331845E+03  0.00000000000E+00 0. -1.
         24    2    1    2    0    0 -0.40169815306E+01  0.62690204265E+02 -0.22898106560E+03  0.25046679082E+03  0.79718799849E+02 0.  0.
         23    2    1    2    0    0 -0.17067211023E+03 -0.12400642654E+02 -0.11068556969E+03  0.22334571853E+03  0.91374337226E+02 0.  0.
        -13    1    3    3    0    0  0.27628092589E+02  0.38313333049E+02 -0.57597279287E+02  0.74489392337E+02  0.00000000000E+00 0.  1.
         14    1    3    3    0    0 -0.31645074120E+02  0.24376871216E+02 -0.17138378631E+03  0.17597739848E+03  0.00000000000E+00 0. -1.
        -13    1    4    4    0    0 -0.12519587672E+03  0.17648814404E+02 -0.37087287130E+02  0.13176097702E+03  0.00000000000E+00 0. -1.
         13    1    4    4    0    0 -0.45476233502E+02 -0.30049457059E+02 -0.73598282555E+02  0.91584741514E+02  0.00000000000E+00 0.  1.
          1    1    1    2  501    0  0.17468909176E+03 -0.50289561611E+02 -0.27897362014E+03  0.33297387213E+03  0.00000000000E+00 0. -1.
<scales pt_clust_5="13000.00000" pt_clust_6="13000.00000" pt_clust_7="13000.00000" pt_clust_8="13000.00000" pt_clust_9="172.36579"></scales>
<clustering>
<clus scale="   79.719">  5  6 -1 -1</clus>
<clus scale="   91.374">  7  8 -1 -1</clus>
<clus scale="  101.495">  2  5  1 -1</clus>
<clus scale="  172.366">  1  9  2 -1</clus>
<clus scale="  172.366">  1  5  2 -1</clus>
</clustering>
</event>
<event>
 9    2  0.1665830E-004  0.2052811E+03  0.7546771E-02  0.1146434E+00
          2   -1    0    0  502    0 -0.00000000000E+00  0.00000000000E+00  0.74968168331E+03  0.74968168331E+03  0.00000000000E+00 0. -1.
         21   -1    0    0  501  502  0.00000000000E+00 -0.00000000000E+00 -0.20431514330E+03  0.20431514330E+03  0.00000000000E+00 0.  1.
         24    2    1    2    0    0  0.15819272465E+03 -0.10074457428E+03  0.67385960560E+03  0.70397245724E+03  0.79473549774E+02 0.  0.
         23    2    1    2    0    0 -0.12325005708E+03  0.76554699859E+02 -0.97659818370E+02  0.19751885370E+03  0.91788119083E+02 0.  0.
        -11    1    3    3    0    0  0.53224125623E+02 -0.17186165893E+02  0.99413166417E+02  0.11406642584E+03  0.00000000000E+00 0.  1.
         12    1    3    3    0    0  0.10496859902E+03 -0.83558408392E+02  0.57444643918E+03  0.58990603140E+03  0.00000000000E+00 0. -1.
        -11    1    4    4    0    0  0.12865034928E+02  0.21067344918E+02 -0.14841958183E+02  0.28803226700E+02  0.00000000000E+00 0. -1.
         11    1    4    4    0    0 -0.13611509201E+03  0.55487354940E+02 -0.82817860187E+02  0.16871562701E+03  0.00000000000E+00 0.  1.
          1    1    1    2  501    0 -0.34942667568E+02  0.24189874426E+02 -0.30833247215E+02  0.52505515666E+02  0.00000000000E+00 0. -1.
<scales pt_clust_5="13000.00000" pt_clust_6="13000.00000" pt_clust_7="13000.00000" pt_clust_8="13000.00000" pt_clust_9="42.49871"></scales>
<clustering>
<clus scale="   42.499">  2  9  1 -1</clus>
<clus scale="   79.474">  5  6 -1 -1</clus>
<clus scale="   91.788">  7  8 -1 -1</clus>
<clus scale="  200.078">  1  5  2 -1</clus>
<clus scale="   42.499">  2  5  1 -1</clus>
</clustering>
</event>
<event>
 9    2  0.1665830E-004  0.1276257E+03  0.7546771E-02  0.1233733E+00
         21   -1    0    0  501  502  0.00000000000E+00  0.00000000000E+00  0.25016084600E+02  0.25016084600E+02  0.00000000000E+00 0. -1.
          2   -1    0    0  502    0 -0.00000000000E+00 -0.00000000000E+00 -0.11156893190E+04  0.11156893190E+04  0.00000000000E+00 0. -1.
         24    2    1    2    0    0 -0.89663719986E+02 -0.37575909503E+02 -0.67922474207E+03  0.69101526208E+03  0.81879854175E+02 0.  0.
         23    2    1    2    0    0  0.72343483029E+02  0.24843028584E+02 -0.41118663192E+03  0.42819164310E+03  0.91776256952E+02 0.  0.
        -11    1    3    3    0    0 -0.57462410642E+02 -0.52997298210E+01 -0.16551216052E+03  0.17528345915E+03  0.00000000000E+00 0.  1.
         12    1    3    3    0    0 -0.32201309344E+02 -0.32276179681E+02 -0.51371258155E+03  0.51573180292E+03  0.00000000000E+00 0. -1.
        -13    1    4    4    0    0  0.21892394438E+02 -0.22972144910E+02 -0.42667401563E+02  0.53174275098E+02  0.00000000000E+00 0.  1.
         13    1    4    4    0    0  0.50451088591E+02  0.47815173494E+02 -0.36851923036E+03  0.37501736800E+03  0.00000000000E+00 0. -1.
          1    1    1    2  501    0  0.17320236956E+02  0.12732880919E+02 -0.26186042509E+00  0.21498498450E+02  0.00000000000E+00 0. -1.
<scales pt_clust_5="13000.00000" pt_clust_6="13000.00000" pt_clust_7="13000.00000" pt_clust_8="13000.00000" pt_clust_9="21.49690"></scales>
<clustering>
<clus scale="   21.497">  1  9  2 -1</clus>
<clus scale="   81.880">  5  6 -1 -1</clus>
<clus scale="   91.776">  7  8 -1 -1</clus>
<clus scale="  120.705">  2  5  1 -1</clus>
<clus scale="   21.497">  1  5  2 -1</clus>
</clustering>
</event>
<event>
 9    2  0.1665830E-004  0.2548387E+03  0.7546771E-02  0.1110285E+00
         21   -1    0    0  501  502  0.00000000000E+00  0.00000000000E+00  0.16176633526E+03  0.16176633526E+03  0.00000000000E+00 0. -1.
         -3   -1    0    0    0  501 -0.00000000000E+00 -0.00000000000E+00 -0.30764518380E+03  0.30764518380E+03  0.00000000000E+00 0.  1.
         24    2    1    2    0    0 -0.21461243244E+02  0.66575062913E+02 -0.28430579692E+01  0.10674679751E+03  0.80585183731E+02 0.  0.
         23    2    1    2    0    0 -0.79101050237E+02  0.82201112625E+02 -0.29322170290E+02  0.15011375656E+03  0.93061007804E+02 0.  0.
        -11    1    3    3    0    0  0.24917648487E+02 -0.22705667791E+00 -0.49060753210E+01  0.25397053685E+02  0.00000000000E+00 0.  1.
         12    1    3    3    0    0 -0.46378891731E+02  0.66802119591E+02  0.20630173517E+01  0.81349743827E+02  0.00000000000E+00 0. -1.
        -13    1    4    4    0    0 -0.62942831874E+02  0.10302467348E+03 -0.21591872250E+02  0.12264620816E+03  0.00000000000E+00 0.  1.
         13    1    4    4    0    0 -0.16158218363E+02 -0.20823560854E+02 -0.77302980402E+01  0.27467548400E+02  0.00000000000E+00 0. -1.
         -4    1    1    2    0  502  0.10056229348E+03 -0.14877617554E+03 -0.11371362028E+03  0.21255096498E+03  0.00000000000E+00 0.  1.
<scales pt_clust_5="13000.00000" pt_clust_6="13000.00000" pt_clust_7="13000.00000" pt_clust_8="13000.00000" pt_clust_9="179.57494"></scales>
<clustering>
<clus scale="   80.585">  5  6 -1 -1</clus>
<clus scale="   93.061">  7  8 -1 -1</clus>
<clus scale="  100.231">  5  7 -1 -1</clus>
<clus scale="  179.575">  1  9  2 -1</clus>
<clus scale="  179.575">  1  5  2 -1</clus>
</clustering>
</event>
<event>
 9    2  0.1665830E-004  0.2053981E+03  0.7546771E-02  0.1181776E+00
         21   -1    0    0  501  502  0.00000000000E+00  0.00000000000E+00  0.70157445146E+03  0.70157445146E+03  0.00000000000E+00 0.  1.
         -3   -1    0    0    0  501 -0.00000000000E+00 -0.00000000000E+00 -0.15851210791E+03  0.15851210791E+03  0.00000000000E+00 0.  1.
         24    2    1    2    0    0 -0.98147849117E+01 -0.35487902586E+02 -0.53934126032E+02  0.10341456727E+03  0.80187040971E+02 0.  0.
         23    2    1    2    0    0 -0.10603101590E+03 -0.14042092735E+03  0.47199034382E+03  0.51174200722E+03  0.90246241595E+02 0.  0.
        -11    1    3    3    0    0 -0.21505900292E+02  0.16220850165E+02 -0.40643970271E+02  0.48760148142E+02  0.00000000000E+00 0.  1.
         12    1    3    3    0    0  0.11691115380E+02 -0.51708752751E+02 -0.13290155762E+02  0.54654419127E+02  0.00000000000E+00 0. -1.
        -11    1    4    4    0    0 -0.36434441170E+01 -0.76821387688E+02  0.17005806717E+03  0.18664015244E+03  0.00000000000E+00 0. -1.
         11    1    4    4    0    0 -0.10238757178E+03 -0.63599539665E+02  0.30193227665E+03  0.32510185478E+03  0.00000000000E+00 0.  1.
         -4    1    1    2    0  502  0.11584580081E+03  0.17590882994E+03  0.12500612576E+03  0.24492998488E+03  0.00000000000E+00 0.  1.
<scales pt_clust_5="13000.00000" pt_clust_6="13000.00000" pt_clust_7="13000.00000" pt_clust_8="13000.00000" pt_clust_9="184.51020"></scales>
<clustering>
<clus scale="   80.187">  5  6 -1 -1</clus>
<clus scale="   88.237">  2  5  1 -1</clus>
<clus scale="   90.246">  7  8 -1 -1</clus>
<clus scale="  184.510">  1  9  2 -1</clus>
<clus scale="  184.510">  1  5  2 -1</clus>
</clustering>
</event>
<event>
 9    2  0.1665830E-004  0.4257810E+03  0.7546771E-02  0.1053248E+00
          2   -1    0    0  502    0 -0.00000000000E+00  0.00000000000E+00  0.68171495095E+03  0.68171495095E+03  0.00000000000E+00 0. -1.
         21   -1    0    0  501  502  0.00000000000E+00 -0.00000000000E+00 -0.12655399886E+04  0.12655399886E+04  0.00000000000E+00 0. -1.
         24    2    1    2    0    0  0.55685041922E+02  0.23438213279E+03  0.48362516186E+03  0.54577594413E+03  0.77086159240E+02 0.  0.
         23    2    1    2    0    0  0.20891030168E+03  0.18792152719E+03 -0.94794904418E+02  0.30858860743E+03  0.85339558248E+02 0.  0.
        -13    1    3    3    0    0  0.10045317906E+02  0.46271746515E+02  0.40838783066E+02  0.62528306707E+02  0.00000000000E+00 0.  1.
         14    1    3    3    0    0  0.45639724016E+02  0.18811038627E+03  0.44278637879E+03  0.48324763742E+03  0.00000000000E+00 0. -1.
        -13    1    4    4    0    0  0.18723431211E+03  0.19550184520E+03 -0.86840415991E+02  0.28428668094E+03  0.00000000000E+00 0.  1.
         13    1    4    4    0    0  0.21675989575E+02 -0.75803180129E+01 -0.79544884264E+01  0.24301926495E+02  0.00000000000E+00 0. -1.
          1    1    1    2  501    0 -0.26459534360E+03 -0.42230365998E+03 -0.97265529511E+03  0.10928903880E+04  0.00000000000E+00 0. -1.
<scales pt_clust_5="13000.00000" pt_clust_6="13000.00000" pt_clust_7="13000.00000" pt_clust_8="13000.00000" pt_clust_9="417.14100"></scales>
<clustering>
<clus scale="   77.086">  5  6 -1 -1</clus>
<clus scale="   85.340">  7  8 -1 -1</clus>
<clus scale="  252.939">  1  5  2 -1</clus>
<clus scale="  417.141">  2  9  1 -1</clus>
<clus scale="  417.141">  2  5  1 -1</clus>
</clustering>
</event>
<event>
 9    2  0.1665830E-004  0.2303874E+03  0.7546771E-02  0.1133503E+00
         21   -1    0    0  501  502  0.00000000000E+00  0.00000000000E+00  0.10340648350E+03  0.10340648350E+03  0.00000000000E+00 0.  1.
         -3   -1    0    0    0  501 -0.00000000000E+00 -0.00000000000E+00 -0.12966397385E+04  0.12966397385E+04  0.00000000000E+00 0.  1.
         24    2    1    2    0    0 -0.16992030215E+03  0.44221573587E+02 -0.64486203182E+03  0.67322457915E+03  0.80968124781E+02 0.  0.
         23    2    1    2    0    0 -0.69298609928E+02 -0.15805461464E+03 -0.33086512972E+03  0.38404978022E+03  0.90768612794E+02 0.  0.
        -13    1    3    3    0    0 -0.86408871650E+02 -0.17530888060E+02 -0.33554358584E+03  0.34693417694E+03  0.00000000000E+00 0.  1.
         14    1    3    3    0    0 -0.83511430504E+02  0.61752461647E+02 -0.30931844598E+03  0.32629040220E+03  0.00000000000E+00 0. -1.
        -13    1    4    4    0    0 -0.20692723777E+02 -0.14235340481E+03 -0.24847757902E+03  0.28711284881E+03  0.00000000000E+00 0. -1.
         13    1    4    4    0    0 -0.48605886150E+02 -0.15701209834E+02 -0.82387550709E+02  0.96936931407E+02  0.00000000000E+00 0.  1.
         -4    1    1    2    0  502  0.23921891208E+03  0.11383304106E+03 -0.21750609347E+03  0.34277186266E+03  0.00000000000E+00 0.  1.
<scales pt_clust_5="13000.00000" pt_clust_6="13000.00000" pt_clust_7="13000.00000" pt_clust_8="13000.00000" pt_clust_9="211.75315"></scales>
<clustering>
<clus scale="   80.968">  5  6 -1 -1</clus>
<clus scale="   90.769">  7  8 -1 -1</clus>
<clus scale="  193.350">  2  5  1 -1</clus>
<clus scale="  211.753">  1  9  2 -1</clus>
<clus scale="  211.753">  1  5  2 -1</clus>
</clustering>
</event>
<event>
 9    2  0.1665830E-004  0.1160818E+03  0.7546771E-02  0.1252379E+00
         -1   -1    0    0    0  501 -0.00000000000E+00  0.00000000000E+00  0.22981090190E+02  0.22981090190E+02  0.00000000000E+00 0.  1.
         21   -1    0    0  501  502  0.00000000000E+00 -0.00000000000E+00 -0.82072161891E+03  0.82072161891E+03  0.00000000000E+00 0.  1.
         23    2    1    2    0    0 -0.14523058895E+02 -0.81542646164E+02 -0.20976952113E+03  0.24223619785E+03  0.88402495275E+02 0.  0.
         24    2    1    2    0    0 -0.28069295395E+00  0.59685776909E+02 -0.47931186356E+03  0.48964664099E+03  0.80321228411E+02 0.  0.
        -11    1    4    4    0    0 -0.33685897516E+02  0.56831100707E+02 -0.33981862319E+03  0.34618089255E+03  0.00000000000E+00 0.  1.
         12    1    4    4    0    0  0.33405204562E+02  0.28546762023E+01 -0.13949324037E+03  0.14346574844E+03  0.00000000000E+00 0. -1.
        -13    1    3    3    0    0  0.32693113282E+02 -0.34139178634E+02 -0.48915929786E+02  0.68022726795E+02  0.00000000000E+00 0. -1.
         13    1    3    3    0    0 -0.47216172177E+02 -0.47403467530E+02 -0.16085359134E+03  0.17421347105E+03  0.00000000000E+00 0.  1.
         -2    1    1    2    0  502  0.14803751849E+02  0.21856869254E+02 -0.10865914403E+03  0.11181987026E+03  0.00000000000E+00 0.  1.
<scales pt_clust_5="13000.00000" pt_clust_6="13000.00000" pt_clust_7="13000.00000" pt_clust_8="13000.00000" pt_clust_9="26.39837"></scales>
<clustering>
<clus scale="   26.398">  2  9  1 -1</clus>
<clus scale="   80.321">  5  6 -1 -1</clus>
<clus scale="   88.402">  7  8 -1 -1</clus>
<clus scale="  110.052">  2  5  1 -1</clus>
<clus scale="   26.398">  2  5  1 -1</clus>
</clustering>
</event>
<event>
 9    2  0.1665830E-004  0.1500321E+03  0.7546771E-02  0.1202388E+00
         21   -1    0    0  501  502  0.00000000000E+00  0.00000000000E+00  0.12535456488E+03  0.12535456488E+03  0.00000000000E+00 0.  1.
          2   -1    0    0  502    0 -0.00000000000E+00 -0.00000000000E+00 -0.50348219969E+03  0.50348219969E+03  0.00000000000E+00 0. -1.
         23    2    1    2    0    0 -0.37572596262E+02  0.11346995819E+03 -0.40717649732E+03  0.43416036520E+03  0.91735442118E+02 0.  0.
         24    2    1    2    0    0  0.16145749253E+02 -0.11540594408E+03 -0.17802279215E+02  0.14312169740E+03  0.81164536422E+02 0.  0.
        -11    1    4    4    0    0  0.19678239163E+02 -0.64679428113E+02  0.29416836739E+02  0.73729314396E+02  0.00000000000E+00 0.  1.
         12    1    4    4    0    0 -0.35324899103E+01 -0.50726515965E+02 -0.47219115954E+02  0.69392383000E+02  0.00000000000E+00 0. -1.
        -13    1    3    3    0    0 -0.11575962516E+02  0.11355479588E+03 -0.37903526392E+03  0.39584899377E+03  0.00000000000E+00 0. -1.
         13    1    3    3    0    0 -0.25996633745E+02 -0.84837687676E-01 -0.28141233396E+02  0.38311371427E+02  0.00000000000E+00 0.  1.
          1    1    1    2  501    0  0.21426847008E+02  0.19359858901E+01  0.46851141727E+02  0.51554701970E+02  0.00000000000E+00 0. -1.
<scales pt_clust_5="13000.00000" pt_clust_6="13000.00000" pt_clust_7="13000.00000" pt_clust_8="13000.00000" pt_clust_9="21.51413"></scales>
<clustering>
<clus scale="   21.514">  1  9  2 -1</clus>
<clus scale="   81.165">  5  6 -1 -1</clus>
<clus scale="   91.735">  7  8 -1 -1</clus>
<clus scale="  143.812">  1  5  2 -1</clus>
<clus scale="   21.514">  1  5  2 -1</clus>
</clustering>
</event>
<event>
 9    2  0.1665830E-004  0.1005123E+03  0.7546771E-02  0.1279859E+00
         21   -1    0    0  501  502  0.00000000000E+00  0.00000000000E+00  0.81023922652E+02  0.81023922652E+02  0.00000000000E+00 0.  1.
         -1   -1    0    0    0  501 -0.00000000000E+00 -0.00000000000E+00 -0.23211986247E+03  0.23211986247E+03  0.00000000000E+00 0.  1.
         23    2    1    2    0    0 -0.32682160317E+02 -0.52393497790E+02 -0.67224694393E+02  0.12366546531E+03  0.83431322420E+02 0.  0.
         24    2    1    2    0    0  0.10372441248E+02  0.46438990381E+02  0.76519023184E+01  0.95087291125E+02  0.81968737696E+02 0.  0.
        -13    1    4    4    0    0  0.15091418487E+02  0.68132750353E+02 -0.42194657182E+01  0.69911561802E+02  0.00000000000E+00 0.  1.
         14    1    4    4    0    0 -0.47189772388E+01 -0.21693759972E+02  0.11871368037E+02  0.25175729324E+02  0.00000000000E+00 0. -1.
        -11    1    3    3    0    0 -0.16508783837E+02 -0.73344251722E+02 -0.60118608602E+02  0.96260928235E+02  0.00000000000E+00 0.  1.
         11    1    3    3    0    0 -0.16173376480E+02  0.20950753932E+02 -0.71060857909E+01  0.27404537076E+02  0.00000000000E+00 0. -1.
         -2    1    1    2    0  502  0.22309719069E+02  0.59545074092E+01 -0.91523147742E+02  0.94391028684E+02  0.00000000000E+00 0.  1.
<scales pt_clust_5="13000.00000" pt_clust_6="13000.00000" pt_clust_7="13000.00000" pt_clust_8="13000.00000" pt_clust_9="23.09070"></scales>
<clustering>
<clus scale="   23.091">  1  9  2 -1</clus>
<clus scale="   81.969">  5  6 -1 -1</clus>
<clus scale="   83.431">  7  8 -1 -1</clus>
<clus scale="   99.302">  1  5  2 -1</clus>
<clus scale="   23.091">  1  5  2 -1</clus>
</clustering>
</event>
<event>
 9    2  0.1665830E-004  0.2356987E+03  0.7546771E-02  0.1152624E+00
         21   -1    0    0  501  502  0.00000000000E+00  0.00000000000E+00  0.78667972626E+03  0.78667972626E+03  0.00000000000E+00 0. -1.
          2   -1    0    0  502    0 -0.00000000000E+00 -0.00000000000E+00 -0.13131322963E+03  0.13131322963E+03  0.00000000000E+00 0. -1.
         23    2    1    2    0    0 -0.70560777267E+02 -0.11066797871E+01  0.18060421340E+03  0.21364719351E+03  0.89706150108E+02 0.  0.
         24    2    1    2    0    0  0.15612753843E+03 -0.19509991878E+03  0.11668001847E+03  0.28716281898E+03  0.80052928303E+02 0.  0.
        -11    1    4    4    0    0  0.30773667770E+02 -0.42696733131E+02  0.64111778693E+02  0.82947874085E+02  0.00000000000E+00 0.  1.
         12    1    4    4    0    0  0.12535387066E+03 -0.15240318565E+03  0.52568239781E+02  0.20421494489E+03  0.00000000000E+00 0. -1.
        -11    1    3    3    0    0 -0.25252590359E+02  0.42250869155E+02  0.10057808439E+03  0.11197669545E+03  0.00000000000E+00 0.  1.
         11    1    3    3    0    0 -0.45308186908E+02 -0.43357548942E+02  0.80026129008E+02  0.10167049806E+03  0.00000000000E+00 0. -1.
          1    1    1    2  501    0 -0.85566761159E+02  0.19620659856E+03  0.35808226476E+03  0.41718294341E+03  0.00000000000E+00 0. -1.
<scales pt_clust_5="13000.00000" pt_clust_6="13000.00000" pt_clust_7="13000.00000" pt_clust_8="13000.00000" pt_clust_9="221.68766"></scales>
<clustering>
<clus scale="   80.053">  5  6 -1 -1</clus>
<clus scale="   89.706">  7  8 -1 -1</clus>
<clus scale="  114.137">  2  7  1 -1</clus>
<clus scale="  221.688">  1  9  2 -1</clus>
<clus scale="  221.688">  1  5  2 -1</clus>
</clustering>
</event>
<event>
 9    2  0.1665830E-004  0.1551021E+03  0.7546771E-02  0.1196216E+00
         21   -1    0    0  501  502  0.00000000000E+00  0.00000000000E+00  0.69098536132E+02  0.69098536132E+02  0.00000000000E+00 0. -1.
          2   -1    0    0  502    0 -0.00000000000E+00 -0.00000000000E+00 -0.76635526250E+03  0.76635526250E+03  0.00000000000E+00 0. -1.
         23    2    1    2    0    0  0.64270393485E+01  0.13204155691E+03 -0.63791342592E+03  0.65778799588E+03  0.90968285489E+02 0.  0.
         24    2    1    2    0    0  0.93922209517E+01 -0.99258850225E+02 -0.60285952185E+02  0.14125366953E+03  0.79860315309E+02 0.  0.
        -11    1    4    4    0    0 -0.57773142789E+01 -0.59734727353E+02 -0.75340512089E+02  0.96321377555E+02  0.00000000000E+00 0.  1.
         12    1    4    4    0    0  0.15169535231E+02 -0.39524122872E+02  0.15054559904E+02  0.44932291971E+02  0.00000000000E+00 0. -1.
        -11    1    3    3    0    0  0.41836712123E+02  0.74827165942E+02 -0.25546326614E+03  0.26946408961E+03  0.00000000000E+00 0.  1.
         11    1    3    3    0    0 -0.35409672775E+02  0.57214390965E+02 -0.38245015979E+03  0.38832390627E+03  0.00000000000E+00 0. -1.
          1    1    1    2  501    0 -0.15819260300E+02 -0.32782706681E+02  0.94265174004E+00  0.36412133227E+02  0.00000000000E+00 0. -1.
<scales pt_clust_5="13000.00000" pt_clust_6="13000.00000" pt_clust_7="13000.00000" pt_clust_8="13000.00000" pt_clust_9="36.39993"></scales>
<clustering>
<clus scale="   36.400">  1  9  2 -1</clus>
<clus scale="   79.860">  5  6 -1 -1</clus>
<clus scale="   90.968">  7  8 -1 -1</clus>
<clus scale="  148.859">  1  5  2 -1</clus>
<clus scale="   36.400">  1  5  2 -1</clus>
</clustering>
</event>
<event>
 9    2  0.1665830E-004  0.1074952E+03  0.7546771E-02  0.1268385E+00
          2   -1    0    0  502    0 -0.00000000000E+00  0.00000000000E+00  0.56997811129E+02  0.56997811129E+02  0.00000000000E+00 0. -1.
         21   -1    0    0  501  502  0.00000000000E+00 -0.00000000000E+00 -0.41830131493E+03  0.41830131493E+03  0.00000000000E+00 0. -1.
         24    2    1    2    0    0 -0.66671229630E+02 -0.14216328323E+02 -0.19131290911E+02  0.10755349173E+03  0.80960425153E+02 0.  0.
         23    2    1    2    0    0  0.35607842223E+02  0.70532128549E+01 -0.19653101401E+03  0.21865638899E+03  0.88704626389E+02 0.  0.
        -11    1    3    3    0    0 -0.51300168460E+02  0.32644555767E+01 -0.48094910121E+02  0.70395201071E+02  0.00000000000E+00 0.  1.
         12    1    3    3    0    0 -0.15371061170E+02 -0.17480783900E+02  0.28963619210E+02  0.37158290663E+02  0.00000000000E+00 0. -1.
        -11    1    4    4    0    0 -0.16521501091E+02  0.31636204409E+02 -0.52118716752E+02  0.63167792929E+02  0.00000000000E+00 0.  1.
         11    1    4    4    0    0  0.52129343315E+02 -0.24582991554E+02 -0.14441229725E+03  0.15548859607E+03  0.00000000000E+00 0. -1.
          1    1    1    2  501    0  0.31063387407E+02  0.71631154683E+01 -0.14564119889E+03  0.14908924533E+03  0.00000000000E+00 0. -1.
<scales pt_clust_5="13000.00000" pt_clust_6="13000.00000" pt_clust_7="13000.00000" pt_clust_8="13000.00000" pt_clust_9="31.87859"></scales>
<clustering>
<clus scale="   31.879">  2  9  1 -1</clus>
<clus scale="   80.960">  5  6 -1 -1</clus>
<clus scale="   88.705">  7  8 -1 -1</clus>
<clus scale="  101.199">  1  5  2 -1</clus>
<clus scale="   31.879">  2  5  1 -1</clus>
</clustering>
</event>
<event>
 9    2  0.1665830E-004  0.1086948E+03  0.7546771E-02  0.1267748E+00
          4   -1    0    0  502    0 -0.00000000000E+00  0.00000000000E+00  0.90708471210E+02  0.90708471210E+02  0.00000000000E+00 0. -1.
         21   -1    0    0  501  502  0.00000000000E+00 -0.00000000000E+00 -0.33507366051E+03  0.33507366051E+03  0.00000000000E+00 0. -1.
         23    2    1    2    0    0 -0.54565502012E+02 -0.26672798326E+02 -0.74073125778E+02  0.13242094996E+03  0.91431109828E+02 0.  0.
         24    2    1    2    0    0  0.19784435882E+02  0.67058236217E+02 -0.20425442789E+03  0.23016190686E+03  0.79789730598E+02 0.  0.
        -13    1    4    4    0    0  0.18160082251E+02  0.33690622984E+02 -0.19004120670E+03  0.19385692381E+03  0.00000000000E+00 0.  1.
         14    1    4    4    0    0  0.16243536311E+01  0.33367613234E+02 -0.14213221187E+02  0.36304983048E+02  0.00000000000E+00 0. -1.
        -11    1    3    3    0    0  0.16987680219E+01  0.28002458790E+02 -0.63125141002E+01  0.28755370721E+02  0.00000000000E+00 0.  1.
         11    1    3    3    0    0 -0.56264270034E+02 -0.54675257116E+02 -0.67760611678E+02  0.10366557923E+03  0.00000000000E+00 0. -1.
          3    1    1    2  501    0  0.34781066130E+02 -0.40385437891E+02  0.33962364369E+02  0.63199274903E+02  0.00000000000E+00 0. -1.
<scales pt_clust_5="13000.00000" pt_clust_6="13000.00000" pt_clust_7="13000.00000" pt_clust_8="13000.00000" pt_clust_9="53.29830"></scales>
<clustering>
<clus scale="   53.298">  2  9  1 -1</clus>
<clus scale="   79.790">  5  6 -1 -1</clus>
<clus scale="   91.431">  7  8 -1 -1</clus>
<clus scale="   99.102">  2  5  1 -1</clus>
<clus scale="   53.298">  2  5  1 -1</clus>
</clustering>
</event>
<event>
 9    2  0.1665830E-004  0.1299766E+03  0.7546771E-02  0.1228950E+00
         -3   -1    0    0    0  501 -0.00000000000E+00  0.00000000000E+00  0.55577636426E+03  0.55577636426E+03  0.00000000000E+00 0.  1.
         21   -1    0    0  501  502  0.00000000000E+00 -0.00000000000E+00 -0.58269335332E+02  0.58269335332E+02  0.00000000000E+00 0. -1.
         23    2    1    2    0    0  0.69910378694E+02  0.76847063331E+02  0.31575661227E+03  0.34450625934E+03  0.90495261416E+02 0.  0.
         24    2    1    2    0    0 -0.62086996619E+02 -0.53570520264E+02  0.20447707330E+03  0.23608045512E+03  0.84844045123E+02 0.  0.
        -13    1    4    4    0    0 -0.54909143483E+02 -0.22882940273E+00  0.14895227791E+03  0.15875089762E+03  0.00000000000E+00 0.  1.
         14    1    4    4    0    0 -0.71778531361E+01 -0.53341690862E+02  0.55524795392E+02  0.77329557499E+02  0.00000000000E+00 0. -1.
        -11    1    3    3    0    0  0.64946110801E+02  0.27055120938E+02  0.26105810431E+03  0.27037254058E+03  0.00000000000E+00 0.  1.
         11    1    3    3    0    0  0.49642678933E+01  0.49791942394E+02  0.54698507966E+02  0.74133718757E+02  0.00000000000E+00 0. -1.
         -4    1    1    2    0  502 -0.78233820754E+01 -0.23276543067E+02 -0.22726656642E+02  0.33458985136E+02  0.00000000000E+00 0.  1.
<scales pt_clust_5="13000.00000" pt_clust_6="13000.00000" pt_clust_7="13000.00000" pt_clust_8="13000.00000" pt_clust_9="24.55611"></scales>
<clustering>
<clus scale="   24.556">  2  9  1 -1</clus>
<clus scale="   84.844">  5  6 -1 -1</clus>
<clus scale="   90.495">  7  8 -1 -1</clus>
<clus scale="  126.107">  2  5  1 -1</clus>
<clus scale="   24.556">  2  5  1 -1</clus>
</clustering>
</event>
<event>
 9    2  0.1665830E-004  0.1265461E+03  0.7546771E-02  0.1236195E+00
          2   -1    0    0  502    0 -0.00000000000E+00  0.00000000000E+00  0.41580367195E+03  0.41580367195E+03  0.00000000000E+00 0. -1.
         21   -1    0    0  501  502  0.00000000000E+00 -0.00000000000E+00 -0.93416382189E+02  0.93416382189E+02  0.00000000000E+00 0. -1.
         24    2    1    2    0    0  0.71988199712E+02  0.29099639911E+02  0.10529920026E+03  0.15554793631E+03  0.84131735838E+02 0.  0.
         23    2    1    2    0    0 -0.56311199903E+01 -0.11972631164E+03  0.17710895102E+03  0.23444633550E+03  0.96080198209E+02 0.  0.
        -11    1    3    3    0    0 -0.50313019255E+01  0.35923929411E+02  0.42960876759E+02  0.56227036516E+02  0.00000000000E+00 0.  1.
         12    1    3    3    0    0  0.77019501637E+02 -0.68242895001E+01  0.62338323498E+02  0.99320899795E+02  0.00000000000E+00 0. -1.
        -13    1    4    4    0    0 -0.24921095546E+02 -0.12840818285E+03  0.16310864682E+03  0.20907929858E+03  0.00000000000E+00 0. -1.
         13    1    4    4    0    0  0.19289975556E+02  0.86818712108E+01  0.14000304198E+02  0.25367036924E+02  0.00000000000E+00 0.  1.
          1    1    1    2  501    0 -0.66357079721E+02  0.90626671728E+02  0.39979138487E+02  0.11922578233E+03  0.00000000000E+00 0. -1.
<scales pt_clust_5="13000.00000" pt_clust_6="13000.00000" pt_clust_7="13000.00000" pt_clust_8="13000.00000" pt_clust_9="112.32300"></scales>
<clustering>
<clus scale="   84.132">  5  6 -1 -1</clus>
<clus scale="   96.080">  7  8 -1 -1</clus>
<clus scale="  112.323">  2  9  1 -1</clus>
<clus scale="  117.731">  1  5  2 -1</clus>
<clus scale="  112.323">  2  5  1 -1</clus>
</clustering>
</event>
<event>
 9    2  0.1665830E-004  0.1277034E+03  0.7546771E-02  0.1233475E+00
          2   -1    0    0  502    0 -0.00000000000E+00  0.00000000000E+00  0.81170860491E+03  0.81170860491E+03  0.00000000000E+00 0. -1.
         21   -1    0    0  501  502  0.00000000000E+00 -0.00000000000E+00 -0.49944339675E+02  0.49944339675E+02  0.00000000000E+00 0. -1.
         24    2    1    2    0    0  0.10624153366E+03 -0.42449000076E+02  0.42171657957E+03  0.44446449972E+03  0.81330418338E+02 0.  0.
         23    2    1    2    0    0 -0.32232716091E+02 -0.21481987377E+02  0.49184569345E+02  0.11032393295E+03  0.90839553898E+02 0.  0.
        -11    1    3    3    0    0  0.79671450404E+02 -0.81969818476E-01  0.16888181195E+03  0.18673139301E+03  0.00000000000E+00 0.  1.
         12    1    3    3    0    0  0.26570083255E+02 -0.42367030258E+02  0.25283476762E+03  0.25773310671E+03  0.00000000000E+00 0. -1.
        -13    1    4    4    0    0 -0.29403874141E+02  0.24081392101E+02  0.52203321210E+02  0.64573121385E+02  0.00000000000E+00 0.  1.
         13    1    4    4    0    0 -0.28288419501E+01 -0.45563379479E+02 -0.30187518651E+01  0.45750811568E+02  0.00000000000E+00 0. -1.
          1    1    1    2  501    0 -0.74008817569E+02  0.63930987454E+02  0.29086311632E+03  0.30686451191E+03  0.00000000000E+00 0. -1.
<scales pt_clust_5="13000.00000" pt_clust_6="13000.00000" pt_clust_7="13000.00000" pt_clust_8="13000.00000" pt_clust_9="97.79819"></scales>
<clustering>
<clus scale="   81.330">  5  6 -1 -1</clus>
<clus scale="   90.840">  7  8 -1 -1</clus>
<clus scale="   97.798">  2  9  1 -1</clus>
<clus scale="  121.124">  1  5  2 -1</clus>
<clus scale="   97.798">  2  5  1 -1</clus>
</clustering>
</event>
<event>
 9    2  0.1665830E-004  0.1447202E+03  0.7546771E-02  0.1237802E+00
         -3   -1    0    0    0  501 -0.00000000000E+00  0.00000000000E+00  0.68569785947E+02  0.68569785947E+02  0.00000000000E+00 0.  1.
         21   -1    0    0  501  502  0.00000000000E+00 -0.00000000000E+00 -0.52916224461E+03  0.52916224461E+03  0.00000000000E+00 0.  1.
         23    2    1    2    0    0 -0.29515673750E+01  0.14120288628E+02 -0.13148482507E+02  0.77299820428E+02  0.74794955345E+02 0.  0.
         24    2    1    2    0    0  0.10158596309E+03  0.59771201959E+02 -0.23141851022E+03  0.27172415169E+03  0.79919855238E+02 0.  0.
        -11    1    4    4    0    0  0.55211365350E+02  0.36198097623E+02 -0.49505959619E+02  0.82519313941E+02  0.00000000000E+00 0.  1.
         12    1    4    4    0    0  0.46374597735E+02  0.23573104335E+02 -0.18191255060E+03  0.18920483775E+03  0.00000000000E+00 0. -1.
        -13    1    3    3    0    0 -0.29074839714E+02  0.25399771840E+02 -0.25512736395E+02  0.46275203212E+02  0.00000000000E+00 0.  1.
         13    1    3    3    0    0  0.26123272339E+02 -0.11279483213E+02  0.12364253888E+02  0.31024617217E+02  0.00000000000E+00 0. -1.
         -4    1    1    2    0  502 -0.98634395711E+02 -0.73891490587E+02 -0.21602546594E+03  0.24870805844E+03  0.00000000000E+00 0.  1.
<scales pt_clust_5="13000.00000" pt_clust_6="13000.00000" pt_clust_7="13000.00000" pt_clust_8="13000.00000" pt_clust_9="120.65133"></scales>
<clustering>
<clus scale="   74.795">  7  8 -1 -1</clus>
<clus scale="   76.173">  1  7  2 -1</clus>
<clus scale="   79.920">  5  6 -1 -1</clus>
<clus scale="  120.651">  2  9  1 -1</clus>
<clus scale="  120.651">  2  5  1 -1</clus>
</clustering>
</event>
<event>
 9    2  0.1665830E-004  0.1728397E+03  0.7546771E-02  0.1190079E+00
          2   -1    0    0  502    0 -0.00000000000E+00  0.00000000000E+00  0.13250721724E+04  0.13250721724E+04  0.00000000000E+00 0. -1.
         21   -1    0    0  501  502  0.00000000000E+00 -0.00000000000E+00 -0.42896720487E+02  0.42896720487E+02  0.00000000000E+00 0. -1.
         24    2    1    2    0    0 -0.40783273493E+02  0.83752033229E+02  0.49702719684E+03  0.51204555175E+03  0.80479402342E+02 0.  0.
         23    2    1    2    0    0  0.78185212665E+02  0.82884251729E+02  0.52335788490E+03  0.54335214216E+03  0.91352876454E+02 0.  0.
        -11    1    3    3    0    0 -0.39980462054E+02  0.30896164695E+02  0.10560751849E+03  0.11707244894E+03  0.00000000000E+00 0.  1.
         12    1    3    3    0    0 -0.80281143867E+00  0.52855868534E+02  0.39141967835E+03  0.39497310281E+03  0.00000000000E+00 0. -1.
        -13    1    4    4    0    0 -0.76241338170E+01  0.54225588543E+02  0.22582213808E+03  0.23236647761E+03  0.00000000000E+00 0.  1.
         13    1    4    4    0    0  0.85809346482E+02  0.28658663186E+02  0.29753574682E+03  0.31098566455E+03  0.00000000000E+00 0. -1.
          1    1    1    2  501    0 -0.37401939172E+02 -0.16663628496E+03  0.26179037020E+03  0.31257119900E+03  0.00000000000E+00 0. -1.
<scales pt_clust_5="13000.00000" pt_clust_6="13000.00000" pt_clust_7="13000.00000" pt_clust_8="13000.00000" pt_clust_9="146.72491"></scales>
<clustering>
<clus scale="   80.479">  5  6 -1 -1</clus>
<clus scale="   91.353">  7  8 -1 -1</clus>
<clus scale="  123.104">  1  5  2 -1</clus>
<clus scale="  146.725">  2  9  1 -1</clus>
<clus scale="  146.725">  2  5  1 -1</clus>
</clustering>
</event>
<event>
 9    2  0.1665830E-004  0.1125723E+03  0.7546771E-02  0.1261151E+00
          2   -1    0    0  502    0 -0.00000000000E+00  0.00000000000E+00  0.50740271110E+03  0.50740271110E+03  0.00000000000E+00 0. -1.
         21   -1    0    0  501  502  0.00000000000E+00 -0.00000000000E+00 -0.10704630512E+03  0.10704630512E+03  0.00000000000E+00 0. -1.
         24    2    1    2    0    0 -0.54739357642E+02  0.41174005009E+02  0.45448633556E+03  0.46611303453E+03  0.77536028898E+02 0.  0.
         23    2    1    2    0    0  0.31662976292E+02 -0.83109799443E+01 -0.31484788261E+02  0.10223500319E+03  0.91591962151E+02 0.  0.
        -11    1    3    3    0    0 -0.12842055327E+02 -0.23276318369E+02  0.11539149008E+03  0.11841410965E+03  0.00000000000E+00 0.  1.
         12    1    3    3    0    0 -0.41897302315E+02  0.64450323378E+02  0.33909484549E+03  0.34769892488E+03  0.00000000000E+00 0. -1.
        -11    1    4    4    0    0 -0.23296840622E+02  0.92082399150E+01  0.14070128815E+02  0.28731567834E+02  0.00000000000E+00 0. -1.
         11    1    4    4    0    0  0.54959816914E+02 -0.17519219859E+02 -0.45554917076E+02  0.73503435359E+02  0.00000000000E+00 0.  1.
          1    1    1    2  501    0  0.23076381350E+02 -0.32863025065E+02 -0.22645141327E+02  0.46100978496E+02  0.00000000000E+00 0. -1.
<scales pt_clust_5="13000.00000" pt_clust_6="13000.00000" pt_clust_7="13000.00000" pt_clust_8="13000.00000" pt_clust_9="40.15592"></scales>
<clustering>
<clus scale="   40.156">  2  9  1 -1</clus>
<clus scale="   77.536">  5  6 -1 -1</clus>
<clus scale="   91.592">  7  8 -1 -1</clus>
<clus scale="  101.466">  1  5  2 -1</clus>
<clus scale="   40.156">  2  5  1 -1</clus>
</clustering>
</event>
<event>
 9    2  0.1665830E-004  0.1022599E+03  0.7546771E-02  0.1289300E+00
         21   -1    0    0  501  502  0.00000000000E+00  0.00000000000E+00  0.33872808491E+03  0.33872808491E+03  0.00000000000E+00 0.  1.
         -3   -1    0    0    0  501 -0.00000000000E+00 -0.00000000000E+00 -0.51850739393E+02  0.51850739393E+02  0.00000000000E+00 0.  1.
         23    2    1    2    0    0 -0.69310622857E+02  0.36023218387E+02  0.53396909455E+02  0.12702581390E+03  0.84750768459E+02 0.  0.
         24    2    1    2    0    0  0.15730809205E+02 -0.33865125610E+02  0.10067522046E+03  0.12033052932E+03  0.54310507099E+02 0.  0.
        -11    1    4    4    0    0 -0.58830650846E+01 -0.40612099377E+02  0.49008549012E+02  0.63920192012E+02  0.00000000000E+00 0.  1.
         12    1    4    4    0    0  0.21613874290E+02  0.67469737673E+01  0.51666671450E+02  0.56410337311E+02  0.00000000000E+00 0. -1.
        -11    1    3    3    0    0 -0.81225428063E+02  0.43040383614E+01  0.39116441946E+02  0.90256251533E+02  0.00000000000E+00 0.  1.
         11    1    3    3    0    0  0.11914805206E+02  0.31719180025E+02  0.14280467509E+02  0.36769562370E+02  0.00000000000E+00 0. -1.
         -4    1    1    2    0  502  0.53579813652E+02 -0.21580927772E+01  0.13280521560E+03  0.14322248107E+03  0.00000000000E+00 0.  1.
<scales pt_clust_5="13000.00000" pt_clust_6="13000.00000" pt_clust_7="13000.00000" pt_clust_8="13000.00000" pt_clust_9="53.62326"></scales>
<clustering>
<clus scale="   53.623">  1  9  2 -1</clus>
<clus scale="   54.311">  5  6 -1 -1</clus>
<clus scale="   78.893">  1  5  2 -1</clus>
<clus scale="   84.751">  7  8 -1 -1</clus>
<clus scale="   53.623">  1  5  2 -1</clus>
</clustering>
</event>
<event>
 9    2  0.1665830E-004  0.9980262E+02  0.7546771E-02  0.1283195E+00
         21   -1    0    0  501  502  0.00000000000E+00  0.00000000000E+00  0.85628477809E+03  0.85628477809E+03  0.00000000000E+00 0. -1.
          2   -1    0    0  502    0 -0.00000000000E+00 -0.00000000000E+00 -0.17154688110E+02  0.17154688110E+02  0.00000000000E+00 0. -1.
         23    2    1    2    0    0  0.43306086093E+02  0.12283658537E+02  0.23758986425E+03  0.25817339355E+03  0.90433689445E+02 0.  0.
         24    2    1    2    0    0 -0.39469856813E+02  0.15787436943E+02  0.52635743774E+03  0.53492209548E+03  0.85336880688E+02 0.  0.
        -11    1    4    4    0    0 -0.22558172426E+02  0.40874892694E+02  0.14421048075E+03  0.15157932166E+03  0.00000000000E+00 0.  1.
         12    1    4    4    0    0 -0.16911684387E+02 -0.25087455751E+02  0.38214695699E+03  0.38334277382E+03  0.00000000000E+00 0. -1.
        -11    1    3    3    0    0  0.69993749392E+02  0.20514831719E+02  0.17796743420E+03  0.19233406071E+03  0.00000000000E+00 0. -1.
         11    1    3    3    0    0 -0.26687663300E+02 -0.82311731811E+01  0.59622430051E+02  0.65839332846E+02  0.00000000000E+00 0.  1.
          1    1    1    2  501    0 -0.38362292802E+01 -0.28071095480E+02  0.75182787986E+02  0.80343977160E+02  0.00000000000E+00 0. -1.
<scales pt_clust_5="13000.00000" pt_clust_6="13000.00000" pt_clust_7="13000.00000" pt_clust_8="13000.00000" pt_clust_9="28.33203"></scales>
<clustering>
<clus scale="   28.332">  1  9  2 -1</clus>
<clus scale="   85.337">  5  6 -1 -1</clus>
<clus scale="   90.434">  7  8 -1 -1</clus>
<clus scale="   95.209">  1  5  2 -1</clus>
<clus scale="   28.332">  1  5  2 -1</clus>
</clustering>
</event>
<event>
 9    2  0.1665830E-004  0.1139960E+03  0.7546771E-02  0.1259989E+00
          2   -1    0    0  502    0 -0.00000000000E+00  0.00000000000E+00  0.28679861406E+03  0.28679861406E+03  0.00000000000E+00 0. -1.
         21   -1    0    0  501  502  0.00000000000E+00 -0.00000000000E+00 -0.11558573242E+03  0.11558573242E+03  0.00000000000E+00 0.  1.
         23    2    1    2    0    0 -0.80724403858E+02  0.16870064929E+02  0.10051138524E+03  0.16135119864E+03  0.95554394295E+02 0.  0.
         24    2    1    2    0    0  0.17935921335E+02  0.34839838911E+02 -0.45910882160E+02  0.98854547046E+02  0.78287296041E+02 0.  0.
        -11    1    4    4    0    0  0.34558098127E+02  0.17263627916E+02 -0.59625767274E+02  0.71045950750E+02  0.00000000000E+00 0.  1.
         12    1    4    4    0    0 -0.16622176792E+02  0.17576210995E+02  0.13714885114E+02  0.27808596296E+02  0.00000000000E+00 0. -1.
        -11    1    3    3    0    0  0.20505662722E+02  0.22916280706E+01  0.45987163487E+01  0.21139582658E+02  0.00000000000E+00 0. -1.
         11    1    3    3    0    0 -0.10123006658E+03  0.14578436859E+02  0.95912668895E+02  0.14021161598E+03  0.00000000000E+00 0.  1.
          1    1    1    2  501    0  0.62788482523E+02 -0.51709903840E+02  0.11661237856E+03  0.14217860080E+03  0.00000000000E+00 0. -1.
<scales pt_clust_5="13000.00000" pt_clust_6="13000.00000" pt_clust_7="13000.00000" pt_clust_8="13000.00000" pt_clust_9="81.34073"></scales>
<clustering>
<clus scale="   78.287">  5  6 -1 -1</clus>
<clus scale="   81.341">  2  9  1 -1</clus>
<clus scale="   95.554">  7  8 -1 -1</clus>
<clus scale="   99.967">  2  5  1 -1</clus>
<clus scale="   81.341">  2  5  1 -1</clus>
</clustering>
</event>
<event>
 9    2  0.1665830E-004  0.3540991E+03  0.7546771E-02  0.1060945E+00
         -3   -1    0    0    0  501 -0.00000000000E+00  0.00000000000E+00  0.72408110994E+03  0.72408110994E+03  0.00000000000E+00 0.  1.
         21   -1    0    0  501  502  0.00000000000E+00 -0.00000000000E+00 -0.20037989021E+03  0.20037989021E+03  0.00000000000E+00 0.  1.
         24    2    1    2    0    0  0.41584808974E+02  0.14874208599E+03  0.33841298274E+03  0.38051196063E+03  0.80078091973E+02 0.  0.
         23    2    1    2    0    0  0.65184727962E+02  0.12812654081E+03  0.17983578231E+03  0.24715668822E+03  0.89889157950E+02 0.  0.
        -11    1    3    3    0    0 -0.86219656916E+01  0.48405155239E+02  0.17862017951E+03  0.18526350389E+03  0.00000000000E+00 0.  1.
         12    1    3    3    0    0  0.50206774665E+02  0.10033693075E+03  0.15979280323E+03  0.19524845674E+03  0.00000000000E+00 0. -1.
        -11    1    4    4    0    0  0.84530458850E+02  0.98972053359E+02  0.16222613866E+03  0.20798602329E+03  0.00000000000E+00 0.  1.
         11    1    4    4    0    0 -0.19345730888E+02  0.29154487449E+02  0.17609643646E+02  0.39170664933E+02  0.00000000000E+00 0. -1.
         -4    1    1    2    0  502 -0.10676953694E+03 -0.27686862680E+03  0.54524546828E+01  0.29679235129E+03  0.00000000000E+00 0.  1.
<scales pt_clust_5="13000.00000" pt_clust_6="13000.00000" pt_clust_7="13000.00000" pt_clust_8="13000.00000" pt_clust_9="296.74226"></scales>
<clustering>
<clus scale="   80.078">  5  6 -1 -1</clus>
<clus scale="   89.889">  7  8 -1 -1</clus>
<clus scale="  121.447">  5  7 -1 -1</clus>
<clus scale="  296.742">  2  9  1 -1</clus>
<clus scale="  296.742">  2  5  1 -1</clus>
</clustering>
</event>
<event>
 9    2  0.1665830E-004  0.1682430E+03  0.7546771E-02  0.1205291E+00
         21   -1    0    0  501  502  0.00000000000E+00  0.00000000000E+00  0.14697692688E+03  0.14697692688E+03  0.00000000000E+00 0. -1.
          2   -1    0    0  502    0 -0.00000000000E+00 -0.00000000000E+00 -0.47286008714E+03  0.47286008714E+03  0.00000000000E+00 0. -1.
         24    2    1    2    0    0  0.39251668839E+02  0.45279019619E+02 -0.15751530830E+03  0.18435613739E+03  0.74734395843E+02 0.  0.
         23    2    1    2    0    0 -0.17278308423E+02 -0.15148838368E+03  0.56422516946E+02  0.18589328171E+03  0.90141785186E+02 0.  0.
        -13    1    3    3    0    0  0.55235989645E+02  0.22885225431E+02 -0.67222296517E+02  0.89964355409E+02  0.00000000000E+00 0.  1.
         14    1    3    3    0    0 -0.15984320806E+02  0.22393794189E+02 -0.90293011779E+02  0.94391781983E+02  0.00000000000E+00 0. -1.
        -11    1    4    4    0    0  0.21512891248E+02 -0.89571669053E+02 -0.23121486720E+01  0.92147894270E+02  0.00000000000E+00 0.  1.
         11    1    4    4    0    0 -0.38791199671E+02 -0.61916714625E+02  0.58734665618E+02  0.93745387445E+02  0.00000000000E+00 0. -1.
          1    1    1    2  501    0 -0.21973360416E+02  0.10620936406E+03 -0.22479036891E+03  0.24958759492E+03  0.00000000000E+00 0. -1.
<scales pt_clust_5="13000.00000" pt_clust_6="13000.00000" pt_clust_7="13000.00000" pt_clust_8="13000.00000" pt_clust_9="142.05693"></scales>
<clustering>
<clus scale="   74.734">  5  6 -1 -1</clus>
<clus scale="   90.142">  7  8 -1 -1</clus>
<clus scale="   95.792">  2  5  1 -1</clus>
<clus scale="  142.057">  1  9  2 -1</clus>
<clus scale="  142.057">  1  5  2 -1</clus>
</clustering>
</event>
<event>
 9    2  0.1665830E-004  0.1100734E+03  0.7546771E-02  0.1266910E+00
         21   -1    0    0  501  502  0.00000000000E+00  0.00000000000E+00  0.78869478297E+02  0.78869478297E+02  0.00000000000E+00 0. -1.
         -1   -1    0    0    0  501 -0.00000000000E+00 -0.00000000000E+00 -0.22595688289E+03  0.22595688289E+03  0.00000000000E+00 0.  1.
         24    2    1    2    0    0  0.54703438293E+02 -0.53998290980E+01 -0.11343274257E+03  0.14973667872E+03  0.80823644753E+02 0.  0.
         23    2    1    2    0    0 -0.49944437910E+02 -0.31964536056E+02 -0.18335508473E+02  0.11442741085E+03  0.96131488280E+02 0.  0.
        -13    1    3    3    0    0  0.43066955028E+02  0.18851402660E+02 -0.17596820989E+02  0.50197471117E+02  0.00000000000E+00 0.  1.
         14    1    3    3    0    0  0.11636483265E+02 -0.24251231758E+02 -0.95835921581E+02  0.99539207601E+02  0.00000000000E+00 0. -1.
        -11    1    4    4    0    0 -0.17670602491E+02  0.16852818511E+02 -0.44159913019E+02  0.50461525958E+02  0.00000000000E+00 0.  1.
         11    1    4    4    0    0 -0.32273835419E+02 -0.48817354567E+02  0.25824404546E+02  0.63965884890E+02  0.00000000000E+00 0. -1.
         -2    1    1    2    0  502 -0.47590003834E+01  0.37364365154E+02 -0.15319153554E+02  0.40662271624E+02  0.00000000000E+00 0.  1.
<scales pt_clust_5="13000.00000" pt_clust_6="13000.00000" pt_clust_7="13000.00000" pt_clust_8="13000.00000" pt_clust_9="37.66622"></scales>
<clustering>
<clus scale="   37.666">  1  9  2 -1</clus>
<clus scale="   80.824">  5  6 -1 -1</clus>
<clus scale="   96.131">  7  8 -1 -1</clus>
<clus scale="   96.991">  2  5  1 -1</clus>
<clus scale="   37.666">  1  5  2 -1</clus>
</clustering>
</event>
<event>
 9    2  0.1665830E-004  0.9917507E+02  0.7546771E-02  0.1286939E+00
          2   -1    0    0  502    0 -0.00000000000E+00  0.00000000000E+00  0.53336820411E+03  0.53336820411E+03  0.00000000000E+00 0. -1.
         21   -1    0    0  501  502  0.00000000000E+00 -0.00000000000E+00 -0.66763331557E+02  0.66763331557E+02  0.00000000000E+00 0.  1.
         24    2    1    2    0    0 -0.22091666427E+02  0.33385811167E+02  0.36515762147E+03  0.37664534365E+03  0.83180359843E+02 0.  0.
         23    2    1    2    0    0  0.38181314544E+02  0.34936933734E+02  0.77224755648E+01  0.10639132538E+03  0.92634093980E+02 0.  0.
        -13    1    3    3    0    0 -0.41534229977E+02 -0.83945537198E+01  0.22936696998E+03  0.23324829626E+03  0.00000000000E+00 0.  1.
         14    1    3    3    0    0  0.19442563550E+02  0.41780364887E+02  0.13579065150E+03  0.14339704739E+03  0.00000000000E+00 0. -1.
        -11    1    4    4    0    0  0.10067349937E+02  0.61011610177E+02 -0.12430408293E+02  0.63073632855E+02  0.00000000000E+00 0.  1.
         11    1    4    4    0    0  0.28113964607E+02 -0.26074676444E+02  0.20152883858E+02  0.43317692521E+02  0.00000000000E+00 0. -1.
          1    1    1    2  501    0 -0.16089648117E+02 -0.68322744901E+02  0.93724775517E+02  0.11709486664E+03  0.00000000000E+00 0. -1.
<scales pt_clust_5="13000.00000" pt_clust_6="13000.00000" pt_clust_7="13000.00000" pt_clust_8="13000.00000" pt_clust_9="70.19173"></scales>
<clustering>
<clus scale="   70.192">  2  9  1 -1</clus>
<clus scale="   83.180">  5  6 -1 -1</clus>
<clus scale="   90.408">  1  5  2 -1</clus>
<clus scale="   92.634">  7  8 -1 -1</clus>
<clus scale="   70.192">  2  5  1 -1</clus>
</clustering>
</event>
<event>
 9    2  0.1665830E-004  0.1825914E+03  0.7546771E-02  0.1166645E+00
         21   -1    0    0  501  502  0.00000000000E+00  0.00000000000E+00  0.29415010022E+03  0.29415010022E+03  0.00000000000E+00 0.  1.
          2   -1    0    0  502    0 -0.00000000000E+00 -0.00000000000E+00 -0.33311401990E+03  0.33311401990E+03  0.00000000000E+00 0. -1.
         23    2    1    2    0    0 -0.40685606214E+02 -0.15479436973E+03 -0.24344607023E+03  0.30552047541E+03  0.91979108139E+02 0.  0.
         24    2    1    2    0    0  0.54029790173E+02  0.13910286207E+03  0.66347256874E+02  0.18208141107E+03  0.80516192771E+02 0.  0.
        -11    1    4    4    0    0  0.71222680969E+02  0.13357255281E+03  0.61421868447E+02  0.16336138794E+03  0.00000000000E+00 0.  1.
         12    1    4    4    0    0 -0.17192890796E+02  0.55303092655E+01  0.49253884275E+01  0.18720023122E+02  0.00000000000E+00 0. -1.
        -11    1    3    3    0    0 -0.61117046750E+02 -0.57160204957E+02 -0.94099895785E+02  0.12592606093E+03  0.00000000000E+00 0.  1.
         11    1    3    3    0    0  0.20431440537E+02 -0.97634164770E+02 -0.14934617444E+03  0.17959441448E+03  0.00000000000E+00 0. -1.
          1    1    1    2  501    0 -0.13344183959E+02  0.15691507655E+02  0.13813489367E+03  0.13966223365E+03  0.00000000000E+00 0. -1.
<scales pt_clust_5="13000.00000" pt_clust_6="13000.00000" pt_clust_7="13000.00000" pt_clust_8="13000.00000" pt_clust_9="20.59832"></scales>
<clustering>
<clus scale="   20.598">  1  9  2 -1</clus>
<clus scale="   80.516">  5  6 -1 -1</clus>
<clus scale="   91.979">  7  8 -1 -1</clus>
<clus scale="  177.094">  1  5  2 -1</clus>
<clus scale="   20.598">  1  5  2 -1</clus>
</clustering>
</event>
<event>
 9    2  0.1665830E-004  0.1290756E+03  0.7546771E-02  0.1231644E+00
          2   -1    0    0  502    0 -0.00000000000E+00  0.00000000000E+00  0.48558785392E+03  0.48558785392E+03  0.00000000000E+00 0. -1.
         21   -1    0    0  501  502  0.00000000000E+00 -0.00000000000E+00 -0.12209817894E+03  0.12209817894E+03  0.00000000000E+00 0. -1.
         24    2    1    2    0    0  0.10468084263E+03  0.16863853565E+02  0.34955148161E+03  0.37402672116E+03  0.80419409781E+02 0.  0.
         23    2    1    2    0    0 -0.57601427698E+02  0.41218145205E+02  0.74595945174E+02  0.13738183383E+03  0.91062359199E+02 0.  0.
        -13    1    3    3    0    0  0.25387573045E+02 -0.97664129254E+01  0.19314417386E+02  0.33361031242E+02  0.00000000000E+00 0.  1.
         14    1    3    3    0    0  0.79293269585E+02  0.26630266491E+02  0.33023706423E+03  0.34066568991E+03  0.00000000000E+00 0. -1.
        -11    1    4    4    0    0 -0.32076153739E+02  0.38449506361E+02 -0.81614571580E+01  0.50733160369E+02  0.00000000000E+00 0. -1.
         11    1    4    4    0    0 -0.25525273959E+02  0.27686388440E+01  0.82757402332E+02  0.86648673460E+02  0.00000000000E+00 0.  1.
          1    1    1    2  501    0 -0.47079414932E+02 -0.58081998771E+02 -0.60657751803E+02  0.96277477872E+02  0.00000000000E+00 0. -1.
<scales pt_clust_5="13000.00000" pt_clust_6="13000.00000" pt_clust_7="13000.00000" pt_clust_8="13000.00000" pt_clust_9="74.76623"></scales>
<clustering>
<clus scale="   74.766">  2  9  1 -1</clus>
<clus scale="   80.419">  5  6 -1 -1</clus>
<clus scale="   91.062">  7  8 -1 -1</clus>
<clus scale="  121.801">  1  5  2 -1</clus>
<clus scale="   74.766">  2  5  1 -1</clus>
</clustering>
</event>
<event>
 9    2  0.1665830E-004  0.1131552E+03  0.7546771E-02  0.1259032E+00
          2   -1    0    0  502    0 -0.00000000000E+00  0.00000000000E+00  0.16978671923E+04  0.16978671923E+04  0.00000000000E+00 0. -1.
         21   -1    0    0  501  502  0.00000000000E+00 -0.00000000000E+00 -0.26055905590E+02  0.26055905590E+02  0.00000000000E+00 0. -1.
         24    2    1    2    0    0  0.68160096009E+02  0.31477554915E+02  0.13455450316E+04  0.13499678379E+04  0.79278597633E+02 0.  0.
         23    2    1    2    0    0 -0.46869380527E+02  0.14211360502E+02  0.29974823647E+03  0.31699933962E+03  0.90779262248E+02 0.  0.
        -13    1    3    3    0    0  0.40315226914E+02 -0.71502696870E+01  0.24536247563E+03  0.24875527799E+03  0.00000000000E+00 0.  1.
         14    1    3    3    0    0  0.27844869095E+02  0.38627824602E+02  0.11001825560E+04  0.11012125599E+04  0.00000000000E+00 0. -1.
        -13    1    4    4    0    0 -0.22569990302E+02  0.46508866488E+02  0.23540769785E+03  0.24101714323E+03  0.00000000000E+00 0. -1.
         13    1    4    4    0    0 -0.24299390225E+02 -0.32297505986E+02  0.64340538623E+02  0.75982196392E+02  0.00000000000E+00 0.  1.
          1    1    1    2  501    0 -0.21290715482E+02 -0.45688915417E+02  0.26518018650E+02  0.56955920419E+02  0.00000000000E+00 0. -1.
<scales pt_clust_5="13000.00000" pt_clust_6="13000.00000" pt_clust_7="13000.00000" pt_clust_8="13000.00000" pt_clust_9="50.40607"></scales>
<clustering>
<clus scale="   50.406">  2  9  1 -1</clus>
<clus scale="   79.279">  5  6 -1 -1</clus>
<clus scale="   90.779">  7  8 -1 -1</clus>
<clus scale="  104.155">  1  5  2 -1</clus>
<clus scale="   50.406">  2  5  1 -1</clus>
</clustering>
</event>
<event>
 9    2  0.1665830E-004  0.9234597E+02  0.7546771E-02  0.1307658E+00
          4   -1    0    0  502    0 -0.00000000000E+00  0.00000000000E+00  0.25365091573E+03  0.25365091573E+03  0.00000000000E+00 0. -1.
         21   -1    0    0  501  502  0.00000000000E+00 -0.00000000000E+00 -0.88406110908E+02  0.88406110908E+02  0.00000000000E+00 0. -1.
         23    2    1    2    0    0 -0.36127655301E+01 -0.14295071263E+02  0.20256831264E+03  0.22271139056E+03  0.91373087197E+02 0.  0.
         24    2    1    2    0    0 -0.28403943853E+02  0.78524164681E+01 -0.26149250964E+02  0.84828372321E+02  0.75124063747E+02 0.  0.
        -11    1    4    4    0    0 -0.15470973518E+02 -0.21043277984E+02  0.17109102875E+02  0.31223260098E+02  0.00000000000E+00 0.  1.
         12    1    4    4    0    0 -0.12932970335E+02  0.28895694453E+02 -0.43258353839E+02  0.53605112223E+02  0.00000000000E+00 0. -1.
        -13    1    3    3    0    0  0.34917083474E+02  0.20035321700E+02  0.10245407762E+03  0.11007931166E+03  0.00000000000E+00 0.  1.
         13    1    3    3    0    0 -0.38529849004E+02 -0.34330392962E+02  0.10011423502E+03  0.11263207891E+03  0.00000000000E+00 0. -1.
          3    1    1    2  501    0  0.32016709383E+02  0.64426547947E+01 -0.11174256858E+02  0.34517263751E+02  0.00000000000E+00 0. -1.
<scales pt_clust_5="13000.00000" pt_clust_6="13000.00000" pt_clust_7="13000.00000" pt_clust_8="13000.00000" pt_clust_9="32.65850"></scales>
<clustering>
<clus scale="   32.658">  2  9  1 -1</clus>
<clus scale="   75.124">  5  6 -1 -1</clus>
<clus scale="   76.304">  2  5  1 -1</clus>
<clus scale="   91.373">  7  8 -1 -1</clus>
<clus scale="   32.658">  2  5  1 -1</clus>
</clustering>
</event>
<event>
 9    2  0.1665830E-004  0.9042958E+02  0.7546771E-02  0.1308093E+00
          2   -1    0    0  502    0 -0.00000000000E+00  0.00000000000E+00  0.31115629281E+03  0.31115629281E+03  0.00000000000E+00 0. -1.
         21   -1    0    0  501  502  0.00000000000E+00 -0.00000000000E+00 -0.41120474510E+02  0.41120474510E+02  0.00000000000E+00 0.  1.
         24    2    1    2    0    0 -0.26104889606E+01 -0.17908006755E+01  0.18446285915E+03  0.20118855950E+03  0.80251283160E+02 0.  0.
         23    2    1    2    0    0  0.17939521347E+02 -0.13403709722E+02  0.89718717358E+02  0.12911004385E+03  0.90102548900E+02 0.  0.
        -13    1    3    3    0    0  0.28543234984E+02  0.19850288265E+02  0.13165902095E+03  0.13617212639E+03  0.00000000000E+00 0.  1.
         14    1    3    3    0    0 -0.31153723944E+02 -0.21641088940E+02  0.52803838198E+02  0.65016433112E+02  0.00000000000E+00 0. -1.
        -11    1    4    4    0    0 -0.13147665157E+02 -0.36429611871E+02  0.80513014710E+02  0.89343848461E+02  0.00000000000E+00 0. -1.
         11    1    4    4    0    0  0.31087186504E+02  0.23025902149E+02  0.92057026478E+01  0.39766195389E+02  0.00000000000E+00 0.  1.
          1    1    1    2  501    0 -0.15329032386E+02  0.15194510397E+02 -0.41457582104E+01  0.21978163965E+02  0.00000000000E+00 0. -1.
<scales pt_clust_5="13000.00000" pt_clust_6="13000.00000" pt_clust_7="13000.00000" pt_clust_8="13000.00000" pt_clust_9="21.58361"></scales>
<clustering>
<clus scale="   21.584">  2  9  1 -1</clus>
<clus scale="   80.251">  5  6 -1 -1</clus>
<clus scale="   80.618">  1  5  2 -1</clus>
<clus scale="   90.103">  7  8 -1 -1</clus>
<clus scale="   21.584">  2  5  1 -1</clus>
</clustering>
</event>
<event>
 9    2  0.1665830E-004  0.1029858E+03  0.7546771E-02  0.1274782E+00
         21   -1    0    0  501  502  0.00000000000E+00  0.00000000000E+00  0.33419831747E+02  0.33419831747E+02  0.00000000000E+00 0. -1.
          2   -1    0    0  502    0 -0.00000000000E+00 -0.00000000000E+00 -0.62714475060E+03  0.62714475060E+03  0.00000000000E+00 0. -1.
         23    2    1    2    0    0 -0.16073340322E+02 -0.21825508787E+02 -0.19104737305E+03  0.21373207878E+03  0.91910813542E+02 0.  0.
         24    2    1    2    0    0  0.41636517735E+02  0.67469859305E+02 -0.16949927845E+03  0.20785763640E+03  0.90493149413E+02 0.  0.
        -13    1    4    4    0    0 -0.13973329019E+02  0.46679991628E+02 -0.32563633452E+02  0.58606021583E+02  0.00000000000E+00 0.  1.
         14    1    4    4    0    0  0.55609846754E+02  0.20789867677E+02 -0.13693564499E+03  0.14925161481E+03  0.00000000000E+00 0. -1.
        -13    1    3    3    0    0 -0.49644131044E+01 -0.54607489647E+02 -0.76863497266E+02  0.94417268204E+02  0.00000000000E+00 0.  1.
         13    1    3    3    0    0 -0.11108927218E+02  0.32781980860E+02 -0.11418387579E+03  0.11931481057E+03  0.00000000000E+00 0. -1.
          1    1    1    2  501    0 -0.25563177413E+02 -0.45644350518E+02 -0.23317826735E+03  0.23897486717E+03  0.00000000000E+00 0. -1.
<scales pt_clust_5="13000.00000" pt_clust_6="13000.00000" pt_clust_7="13000.00000" pt_clust_8="13000.00000" pt_clust_9="52.31525"></scales>
<clustering>
<clus scale="   52.315">  1  9  2 -1</clus>
<clus scale="   90.493">  5  6 -1 -1</clus>
<clus scale="   91.911">  7  8 -1 -1</clus>
<clus scale="  101.723">  1  5  2 -1</clus>
<clus scale="   52.315">  1  5  2 -1</clus>
</clustering>
</event>
<event>
 9    2  0.1665830E-004  0.1091528E+03  0.7546771E-02  0.1266275E+00
         21   -1    0    0  501  502  0.00000000000E+00  0.00000000000E+00  0.11136382307E+03  0.11136382307E+03  0.00000000000E+00 0.  1.
          2   -1    0    0  502    0 -0.00000000000E+00 -0.00000000000E+00 -0.31664380497E+03  0.31664380497E+03  0.00000000000E+00 0. -1.
         24    2    1    2    0    0 -0.60436263701E+02  0.17653812003E+02 -0.17461793386E+03  0.20222798496E+03  0.80252950254E+02 0.  0.
         23    2    1    2    0    0  0.25485433392E+02 -0.68128259113E+02  0.48223593177E+02  0.12581877704E+03  0.90630473411E+02 0.  0.
        -11    1    3    3    0    0 -0.91811884096E+00 -0.25272508578E+02 -0.70090394427E+02  0.74513126514E+02  0.00000000000E+00 0.  1.
         12    1    3    3    0    0 -0.59518144860E+02  0.42926320581E+02 -0.10452753944E+03  0.12771485844E+03  0.00000000000E+00 0. -1.
        -13    1    4    4    0    0 -0.36347549978E+01 -0.41638358529E+02  0.69478025865E+02  0.81081196483E+02  0.00000000000E+00 0.  1.
         13    1    4    4    0    0  0.29120188390E+02 -0.26489900584E+02 -0.21254432688E+02  0.44737580553E+02  0.00000000000E+00 0. -1.
          1    1    1    2  501    0  0.34950830309E+02  0.50474447111E+02 -0.78885641216E+02  0.99960866045E+02  0.00000000000E+00 0. -1.
<scales pt_clust_5="13000.00000" pt_clust_6="13000.00000" pt_clust_7="13000.00000" pt_clust_8="13000.00000" pt_clust_9="61.39409"></scales>
<clustering>
<clus scale="   61.394">  1  9  2 -1</clus>
<clus scale="   80.253">  5  6 -1 -1</clus>
<clus scale="   90.630">  7  8 -1 -1</clus>
<clus scale="  100.702">  2  5  1 -1</clus>
<clus scale="   61.394">  1  5  2 -1</clus>
</clustering>
</event>
<event>
 9    2  0.1665830E-004  0.3360232E+03  0.7546771E-02  0.1069051E+00
          2   -1    0    0  502    0 -0.00000000000E+00  0.00000000000E+00  0.59505247536E+03  0.59505247536E+03  0.00000000000E+00 0. -1.
         21   -1    0    0  501  502  0.00000000000E+00 -0.00000000000E+00 -0.59040777952E+03  0.59040777952E+03  0.00000000000E+00 0. -1.
         24    2    1    2    0    0  0.31106787580E+03 -0.76981438090E+02  0.73190045400E+02  0.33898027788E+03  0.82834056292E+02 0.  0.
         23    2    1    2    0    0 -0.16288004828E+03  0.37373434227E+03  0.15618853499E+03  0.44582147251E+03  0.90303145997E+02 0.  0.
        -13    1    3    3    0    0  0.19498768740E+02 -0.15591577373E+02 -0.13870021697E+02  0.28560055484E+02  0.00000000000E+00 0.  1.
         14    1    3    3    0    0  0.29156910706E+03 -0.61389860717E+02  0.87060067096E+02  0.31042022239E+03  0.00000000000E+00 0. -1.
        -11    1    4    4    0    0 -0.19220298864E+02  0.56735336500E+01  0.18895952928E+02  0.27543890603E+02  0.00000000000E+00 0.  1.
         11    1    4    4    0    0 -0.14365974941E+03  0.36806080862E+03  0.13729258206E+03  0.41827758191E+03  0.00000000000E+00 0. -1.
          1    1    1    2  501    0 -0.14818782752E+03 -0.29675290418E+03 -0.22473388454E+03  0.40065850449E+03  0.00000000000E+00 0. -1.
<scales pt_clust_5="13000.00000" pt_clust_6="13000.00000" pt_clust_7="13000.00000" pt_clust_8="13000.00000" pt_clust_9="323.66180"></scales>
<clustering>
<clus scale="   82.834">  5  6 -1 -1</clus>
<clus scale="   90.303">  7  8 -1 -1</clus>
<clus scale="  330.985">  1  5  2 -1</clus>
<clus scale="  323.662">  2  9  1 -1</clus>
<clus scale="  323.662">  2  5  1 -1</clus>
</clustering>
</event>
<event>
 9    2  0.1665830E-004  0.1830363E+03  0.7546771E-02  0.1185023E+00
          2   -1    0    0  502    0 -0.00000000000E+00  0.00000000000E+00  0.13762843823E+03  0.13762843823E+03  0.00000000000E+00 0. -1.
         21   -1    0    0  501  502  0.00000000000E+00 -0.00000000000E+00 -0.53450017873E+03  0.53450017873E+03  0.00000000000E+00 0.  1.
         24    2    1    2    0    0  0.59362990798E+02 -0.56082769954E+02 -0.17564910848E+02  0.11728385291E+03  0.82326996162E+02 0.  0.
         23    2    1    2    0    0  0.57725081874E+01 -0.14203276917E+03 -0.27260172731E+03  0.32058341654E+03  0.90859208993E+02 0.  0.
        -11    1    3    3    0    0  0.41562718185E+01 -0.54466614713E+02 -0.27516516851E+02  0.61164085976E+02  0.00000000000E+00 0.  1.
         12    1    3    3    0    0  0.55206718979E+02 -0.16161552415E+01  0.99516060026E+01  0.56119766930E+02  0.00000000000E+00 0. -1.
        -11    1    4    4    0    0 -0.26379393549E+02 -0.12878032334E+02 -0.89695660421E+02  0.94377050278E+02  0.00000000000E+00 0.  1.
         11    1    4    4    0    0  0.32151901737E+02 -0.12915473683E+03 -0.18290606689E+03  0.22620636626E+03  0.00000000000E+00 0. -1.
          1    1    1    2  501    0 -0.65135498985E+02  0.19811553912E+03 -0.10670510234E+03  0.23426134751E+03  0.00000000000E+00 0. -1.
<scales pt_clust_5="13000.00000" pt_clust_6="13000.00000" pt_clust_7="13000.00000" pt_clust_8="13000.00000" pt_clust_9="158.89281"></scales>
<clustering>
<clus scale="   82.327">  5  6 -1 -1</clus>
<clus scale="   90.859">  7  8 -1 -1</clus>
<clus scale="  115.961">  1  5  2 -1</clus>
<clus scale="  158.893">  2  9  1 -1</clus>
<clus scale="  158.893">  2  5  1 -1</clus>
</clustering>
</event>
<event>
 9    2  0.1665830E-004  0.9311551E+02  0.7546771E-02  0.1306704E+00
         -1   -1    0    0    0  501 -0.00000000000E+00  0.00000000000E+00  0.23236361448E+03  0.23236361448E+03  0.00000000000E+00 0.  1.
         21   -1    0    0  501  502  0.00000000000E+00 -0.00000000000E+00 -0.15075168614E+03  0.15075168614E+03  0.00000000000E+00 0. -1.
         23    2    1    2    0    0  0.21569360402E+02 -0.98756969372E+01  0.17848909550E+03  0.20225681276E+03  0.92123256556E+02 0.  0.
         24    2    1    2    0    0  0.30201845850E+02 -0.24627268426E+02 -0.29402701949E+02  0.89078774014E+02  0.74510772745E+02 0.  0.
        -13    1    4    4    0    0  0.46134846050E+01  0.26431210481E+02 -0.11846218073E+02  0.29329609788E+02  0.00000000000E+00 0.  1.
         14    1    4    4    0    0  0.25588361246E+02 -0.51058478907E+02 -0.17556483876E+02  0.59749164225E+02  0.00000000000E+00 0. -1.
        -13    1    3    3    0    0  0.82940095152E+01  0.41157080365E+02  0.88559058751E+02  0.98007156600E+02  0.00000000000E+00 0.  1.
         13    1    3    3    0    0  0.13275350887E+02 -0.51032777302E+02  0.89930036752E+02  0.10424965616E+03  0.00000000000E+00 0. -1.
         -2    1    1    2    0  502 -0.51771206252E+02  0.34502965363E+02 -0.67474465217E+02  0.91779713837E+02  0.00000000000E+00 0.  1.
<scales pt_clust_5="13000.00000" pt_clust_6="13000.00000" pt_clust_7="13000.00000" pt_clust_8="13000.00000" pt_clust_9="62.21505"></scales>
<clustering>
<clus scale="   62.215">  2  9  1 -1</clus>
<clus scale="   74.511">  5  6 -1 -1</clus>
<clus scale="   75.734">  2  5  1 -1</clus>
<clus scale="   92.123">  7  8 -1 -1</clus>
<clus scale="   62.215">  2  5  1 -1</clus>
</clustering>
</event>
<event>
 9    2  0.1665830E-004  0.1026073E+03  0.7546771E-02  0.1279408E+00
         21   -1    0    0  501  502  0.00000000000E+00  0.00000000000E+00  0.26522304145E+03  0.26522304145E+03  0.00000000000E+00 0. -1.
          4   -1    0    0  502    0 -0.00000000000E+00 -0.00000000000E+00 -0.68625096742E+02  0.68625096742E+02  0.00000000000E+00 0. -1.
         23    2    1    2    0    0  0.35171794586E+02 -0.25800359576E+02  0.27414974952E+02  0.10416814431E+03  0.90535671140E+02 0.  0.
         24    2    1    2    0    0 -0.29981856345E+02  0.58476916796E+02  0.16661186253E+03  0.19649410165E+03  0.80820527957E+02 0.  0.
        -11    1    4    4    0    0  0.16868738373E+02  0.51460974081E+02  0.66672163208E+02  0.85895072819E+02  0.00000000000E+00 0.  1.
         12    1    4    4    0    0 -0.46850594718E+02  0.70159427149E+01  0.99939699326E+02  0.11059902883E+03  0.00000000000E+00 0. -1.
        -13    1    3    3    0    0 -0.50429005814E+01 -0.42690439823E+02  0.40054600823E+02  0.58756068160E+02  0.00000000000E+00 0.  1.
         13    1    3    3    0    0  0.40214695167E+02  0.16890080247E+02 -0.12639625871E+02  0.45412076150E+02  0.00000000000E+00 0. -1.
          3    1    1    2  501    0 -0.51899382409E+01 -0.32676557220E+02  0.25711072210E+01  0.33185892229E+02  0.00000000000E+00 0. -1.
<scales pt_clust_5="13000.00000" pt_clust_6="13000.00000" pt_clust_7="13000.00000" pt_clust_8="13000.00000" pt_clust_9="33.08616"></scales>
<clustering>
<clus scale="   33.086">  1  9  2 -1</clus>
<clus scale="   80.821">  5  6 -1 -1</clus>
<clus scale="   90.536">  7  8 -1 -1</clus>
<clus scale="   94.146">  1  5  2 -1</clus>
<clus scale="   33.086">  1  5  2 -1</clus>
</clustering>
</event>
<event>
 9    2  0.1665830E-004  0.2294298E+03  0.7546771E-02  0.1150573E+00
         -3   -1    0    0    0  501 -0.00000000000E+00  0.00000000000E+00  0.50435515009E+03  0.50435515009E+03  0.00000000000E+00 0.  1.
         21   -1    0    0  501  502  0.00000000000E+00 -0.00000000000E+00 -0.27219995628E+03  0.27219995628E+03  0.00000000000E+00 0.  1.
         23    2    1    2    0    0 -0.87796814539E+02 -0.28637096837E+02 -0.11654963736E+03  0.17451821397E+03  0.91347824714E+02 0.  0.
         24    2    1    2    0    0  0.24999428836E+03 -0.84058855866E+02  0.27988259855E+03  0.39288408230E+03  0.80377843284E+02 0.  0.
        -11    1    4    4    0    0  0.12295324183E+03 -0.80966032263E+02  0.17002076738E+03  0.22490010982E+03  0.00000000000E+00 0.  1.
         12    1    4    4    0    0  0.12704104653E+03 -0.30928236025E+01  0.10986183116E+03  0.16798397248E+03  0.00000000000E+00 0. -1.
        -13    1    3    3    0    0 -0.20443396338E+01 -0.30006202598E+02 -0.32680249513E+00  0.30077538442E+02  0.00000000000E+00 0. -1.
         13    1    3    3    0    0 -0.85752474906E+02  0.13691057610E+01 -0.11622283486E+03  0.14444067552E+03  0.00000000000E+00 0.  1.
         -4    1    1    2    0  502 -0.16219747382E+03  0.11269595270E+03  0.68822232615E+02  0.20915281010E+03  0.00000000000E+00 0.  1.
<scales pt_clust_5="13000.00000" pt_clust_6="13000.00000" pt_clust_7="13000.00000" pt_clust_8="13000.00000" pt_clust_9="214.88931"></scales>
<clustering>
<clus scale="   80.378">  5  6 -1 -1</clus>
<clus scale="   91.348">  7  8 -1 -1</clus>
<clus scale="  129.895">  1  7  2 -1</clus>
<clus scale="  214.889">  2  9  1 -1</clus>
<clus scale="  214.889">  2  5  1 -1</clus>
</clustering>
</event>
<event>
 9    2  0.1665830E-004  0.1049323E+03  0.7546771E-02  0.1276900E+00
          2   -1    0    0  502    0 -0.00000000000E+00  0.00000000000E+00  0.98848999383E+03  0.98848999383E+03  0.00000000000E+00 0. -1.
         21   -1    0    0  501  502  0.00000000000E+00 -0.00000000000E+00 -0.51152817628E+02  0.51152817628E+02  0.00000000000E+00 0. -1.
         24    2    1    2    0    0 -0.44805347755E+02 -0.28963144378E+02  0.85887472123E+03  0.86414681523E+03  0.78978152588E+02 0.  0.
         23    2    1    2    0    0 -0.25997655869E+01 -0.11218830956E+02  0.55518295417E+02  0.10925197483E+03  0.93386786695E+02 0.  0.
        -11    1    3    3    0    0 -0.47462409422E+02 -0.11486283142E+02  0.23491899124E+03  0.23994071654E+03  0.00000000000E+00 0.  1.
         12    1    3    3    0    0  0.26570616672E+01 -0.17476861236E+02  0.62395573000E+03  0.62420609870E+03  0.00000000000E+00 0. -1.
        -13    1    4    4    0    0 -0.13201933579E+02  0.36257750770E+02  0.46473999277E+01  0.38865329887E+02  0.00000000000E+00 0.  1.
         13    1    4    4    0    0  0.10602167992E+02 -0.47476581726E+02  0.50870895490E+02  0.70386644943E+02  0.00000000000E+00 0. -1.
          1    1    1    2  501    0  0.47405113342E+02  0.40181975334E+02  0.22944159550E+02  0.66244021392E+02  0.00000000000E+00 0. -1.
<scales pt_clust_5="13000.00000" pt_clust_6="13000.00000" pt_clust_7="13000.00000" pt_clust_8="13000.00000" pt_clust_9="62.14367"></scales>
<clustering>
<clus scale="   62.144">  2  9  1 -1</clus>
<clus scale="   78.978">  5  6 -1 -1</clus>
<clus scale="   92.343">  1  5  2 -1</clus>
<clus scale="   93.387">  7  8 -1 -1</clus>
<clus scale="   62.144">  2  5  1 -1</clus>
</clustering>
</event>
<event>
 9    2  0.1665830E-004  0.1647492E+03  0.7546771E-02  0.1185015E+00
          2   -1    0    0  502    0 -0.00000000000E+00  0.00000000000E+00  0.52189959691E+03  0.52189959691E+03  0.00000000000E+00 0. -1.
         21   -1    0    0  501  502  0.00000000000E+00 -0.00000000000E+00 -0.20873350558E+03  0.20873350558E+03  0.00000000000E+00 0. -1.
         24    2    1    2    0    0  0.47229002062E+02 -0.14326235042E+03  0.27277063995E+03  0.32164443123E+03  0.79351360658E+02 0.  0.
         23    2    1    2    0    0 -0.46368823669E+02  0.11498887865E+03  0.19711448675E+03  0.24973734422E+03  0.90233642235E+02 0.  0.
        -13    1    3    3    0    0  0.19022613051E+02 -0.19070713002E+02  0.11886745741E+03  0.12188118941E+03  0.00000000000E+00 0.  1.
         14    1    3    3    0    0  0.28206389011E+02 -0.12419163741E+03  0.15390318255E+03  0.19976324182E+03  0.00000000000E+00 0. -1.
        -11    1    4    4    0    0  0.27066124005E+00  0.49291964817E+02  0.16522643956E+02  0.51988160347E+02  0.00000000000E+00 0.  1.
         11    1    4    4    0    0 -0.46639484909E+02  0.65696913837E+02  0.18059184279E+03  0.19774918388E+03  0.00000000000E+00 0. -1.
          1    1    1    2  501    0 -0.86017839283E+00  0.28273471762E+02 -0.15671903538E+03  0.15925132704E+03  0.00000000000E+00 0. -1.
<scales pt_clust_5="13000.00000" pt_clust_6="13000.00000" pt_clust_7="13000.00000" pt_clust_8="13000.00000" pt_clust_9="28.28655"></scales>
<clustering>
<clus scale="   28.287">  2  9  1 -1</clus>
<clus scale="   79.351">  5  6 -1 -1</clus>
<clus scale="   90.234">  7  8 -1 -1</clus>
<clus scale="  159.050">  1  5  2 -1</clus>
<clus scale="   28.287">  2  5  1 -1</clus>
</clustering>
</event>
<event>
 9    2  0.1665830E-004  0.9468493E+02  0.7546771E-02  0.1298221E+00
         21   -1    0    0  501  502  0.00000000000E+00  0.00000000000E+00  0.33942457632E+02  0.33942457632E+02  0.00000000000E+00 0. -1.
          2   -1    0    0  502    0 -0.00000000000E+00 -0.00000000000E+00 -0.36774812915E+03  0.36774812915E+03  0.00000000000E+00 0. -1.
         23    2    1    2    0    0  0.30241170500E+02  0.18650327921E+02 -0.22109228064E+03  0.24168217467E+03  0.90918171294E+02 0.  0.
         24    2    1    2    0    0 -0.59498181786E+00 -0.15095410216E+02 -0.66821523168E+02  0.10525809279E+03  0.79911981123E+02 0.  0.
        -13    1    4    4    0    0 -0.11537538613E+02  0.29277016194E+02 -0.11507372918E+02  0.33506389032E+02  0.00000000000E+00 0.  1.
         14    1    4    4    0    0  0.10942556795E+02 -0.44372426411E+02 -0.55314150250E+02  0.71751703761E+02  0.00000000000E+00 0. -1.
        -13    1    3    3    0    0  0.39800134487E+02  0.37230531696E+02 -0.21200297791E+03  0.21889592468E+03  0.00000000000E+00 0. -1.
         13    1    3    3    0    0 -0.95589639872E+01 -0.18580203775E+02 -0.90893027240E+01  0.22786249995E+02  0.00000000000E+00 0.  1.
          1    1    1    2  501    0 -0.29646188682E+02 -0.35549177049E+01 -0.45891867718E+02  0.54750319323E+02  0.00000000000E+00 0. -1.
<scales pt_clust_5="13000.00000" pt_clust_6="13000.00000" pt_clust_7="13000.00000" pt_clust_8="13000.00000" pt_clust_9="29.85858"></scales>
<clustering>
<clus scale="   29.859">  1  9  2 -1</clus>
<clus scale="   79.912">  5  6 -1 -1</clus>
<clus scale="   84.173">  1  5  2 -1</clus>
<clus scale="   90.918">  7  8 -1 -1</clus>
<clus scale="   29.859">  1  5  2 -1</clus>
</clustering>
</event>
<event>
 9    2  0.1665830E-004  0.8430778E+02  0.7546771E-02  0.1319725E+00
          2   -1    0    0  502    0 -0.00000000000E+00  0.00000000000E+00  0.74690571483E+02  0.74690571483E+02  0.00000000000E+00 0. -1.
         21   -1    0    0  501  502  0.00000000000E+00 -0.00000000000E+00 -0.29925374087E+03  0.29925374087E+03  0.00000000000E+00 0. -1.
         24    2    1    2    0    0  0.12011149264E+02  0.16351101122E+02  0.19564170673E+01  0.82816331444E+02  0.80268866764E+02 0.  0.
         23    2    1    2    0    0  0.30733958153E+02  0.41333634694E+02 -0.18117660188E+03  0.20621238043E+03  0.83937710437E+02 0.  0.
        -11    1    3    3    0    0 -0.13093455450E+02  0.32163246696E+02 -0.24952896122E+02  0.42761665526E+02  0.00000000000E+00 0.  1.
         12    1    3    3    0    0  0.25104604714E+02 -0.15812145574E+02  0.26909313189E+02  0.40054665918E+02  0.00000000000E+00 0. -1.
        -11    1    4    4    0    0  0.35296449027E+01  0.25673769375E+02 -0.39345511227E+01  0.26212239881E+02  0.00000000000E+00 0.  1.
         11    1    4    4    0    0  0.27204313250E+02  0.15659865319E+02 -0.17724205075E+03  0.18000014055E+03  0.00000000000E+00 0. -1.
          1    1    1    2  501    0 -0.42745107416E+02 -0.57684735817E+02 -0.45342984574E+02  0.84915600477E+02  0.00000000000E+00 0. -1.
<scales pt_clust_5="13000.00000" pt_clust_6="13000.00000" pt_clust_7="13000.00000" pt_clust_8="13000.00000" pt_clust_9="71.79609"></scales>
<clustering>
<clus scale="   71.796">  2  9  1 -1</clus>
<clus scale="   80.269">  5  6 -1 -1</clus>
<clus scale="   80.656">  1  5  2 -1</clus>
<clus scale="   83.938">  7  8 -1 -1</clus>
<clus scale="   71.796">  2  5  1 -1</clus>
</clustering>
</event>
<event>
 9    2  0.1665830E-004  0.2007881E+03  0.7546771E-02  0.1149844E+00
         21   -1    0    0  501  502  0.00000000000E+00  0.00000000000E+00  0.48783351861E+02  0.48783351861E+02  0.00000000000E+00 0.  1.
          2   -1    0    0  502    0 -0.00000000000E+00 -0.00000000000E+00 -0.13714921281E+04  0.13714921281E+04  0.00000000000E+00 0. -1.
         23    2    1    2    0    0  0.18642013451E+03  0.61230151254E+01 -0.53436173180E+03  0.57313126946E+03  0.90260920432E+02 0.  0.
         24    2    1    2    0    0 -0.16390014620E+03  0.80221916959E+02 -0.38285312413E+03  0.43194797187E+03  0.81876259415E+02 0.  0.
        -11    1    4    4    0    0 -0.98940501823E+02  0.70668123845E+02 -0.16865639322E+03  0.20791388988E+03  0.00000000000E+00 0.  1.
         12    1    4    4    0    0 -0.64959644380E+02  0.95537931148E+01 -0.21419673091E+03  0.22403408199E+03  0.00000000000E+00 0. -1.
        -13    1    3    3    0    0  0.23605861739E+02  0.17934106448E+02 -0.26797993820E+02  0.39962499363E+02  0.00000000000E+00 0.  1.
         13    1    3    3    0    0  0.16281427277E+03 -0.11811091323E+02 -0.50756373798E+03  0.53316877010E+03  0.00000000000E+00 0. -1.
          1    1    1    2  501    0 -0.22519988302E+02 -0.86344932085E+02 -0.40549392031E+03  0.41519623864E+03  0.00000000000E+00 0. -1.
<scales pt_clust_5="13000.00000" pt_clust_6="13000.00000" pt_clust_7="13000.00000" pt_clust_8="13000.00000" pt_clust_9="89.23343"></scales>
<clustering>
<clus scale="   81.876">  5  6 -1 -1</clus>
<clus scale="   89.233">  1  9  2 -1</clus>
<clus scale="   90.261">  7  8 -1 -1</clus>
<clus scale="  197.161">  1  5  2 -1</clus>
<clus scale="   89.233">  1  5  2 -1</clus>
</clustering>
</event>
<event>
 9    2  0.1665830E-004  0.1230237E+03  0.7546771E-02  0.1240599E+00
          2   -1    0    0  502    0 -0.00000000000E+00  0.00000000000E+00  0.71342982517E+03  0.71342982517E+03  0.00000000000E+00 0. -1.
         21   -1    0    0  501  502  0.00000000000E+00 -0.00000000000E+00 -0.36274957872E+02  0.36274957872E+02  0.00000000000E+00 0. -1.
         23    2    1    2    0    0 -0.52864100135E+02  0.44455609409E+02  0.37547724639E+03  0.39261250038E+03  0.91599664877E+02 0.  0.
         24    2    1    2    0    0  0.69186143358E+02 -0.80678215307E+02  0.28206264765E+03  0.31278389239E+03  0.83538789058E+02 0.  0.
        -13    1    4    4    0    0  0.21224251448E+02  0.91210257146E+01  0.11379390939E+03  0.11611509710E+03  0.00000000000E+00 0.  1.
         14    1    4    4    0    0  0.47961891910E+02 -0.89799241022E+02  0.16826873826E+03  0.19666879529E+03  0.00000000000E+00 0. -1.
        -11    1    3    3    0    0  0.15644990786E+02  0.43297474799E+02  0.14062004088E+03  0.14796429623E+03  0.00000000000E+00 0.  1.
         11    1    3    3    0    0 -0.68509090921E+02  0.11581346097E+01  0.23485720551E+03  0.24464820415E+03  0.00000000000E+00 0. -1.
          1    1    1    2  501    0 -0.16322043222E+02  0.36222605898E+02  0.19614973252E+02  0.44308390274E+02  0.00000000000E+00 0. -1.
<scales pt_clust_5="13000.00000" pt_clust_6="13000.00000" pt_clust_7="13000.00000" pt_clust_8="13000.00000" pt_clust_9="39.73017"></scales>
<clustering>
<clus scale="   39.730">  2  9  1 -1</clus>
<clus scale="   83.539">  5  6 -1 -1</clus>
<clus scale="   91.600">  7  8 -1 -1</clus>
<clus scale="  117.145">  2  5  1 -1</clus>
<clus scale="   39.730">  2  5  1 -1</clus>
</clustering>
</event>
<event>
 9    2  0.1665830E-004  0.1200550E+03  0.7546771E-02  0.1245573E+00
          2   -1    0    0  502    0 -0.00000000000E+00  0.00000000000E+00  0.46624233169E+03  0.46624233169E+03  0.00000000000E+00 0. -1.
         21   -1    0    0  501  502  0.00000000000E+00 -0.00000000000E+00 -0.10939459704E+03  0.10939459704E+03  0.00000000000E+00 0.  1.
         24    2    1    2    0    0  0.46658970610E+02 -0.62837011532E+02  0.38689435759E+03  0.40338359189E+03  0.83099510956E+02 0.  0.
         23    2    1    2    0    0 -0.66405851150E+02  0.45297379370E+02  0.12439963254E+02  0.12222646413E+03  0.91230292136E+02 0.  0.
        -11    1    3    3    0    0  0.18336383122E+02 -0.33555607846E+02  0.44921145131E+02  0.58992465992E+02  0.00000000000E+00 0.  1.
         12    1    3    3    0    0  0.28322587488E+02 -0.29281403686E+02  0.34197321245E+03  0.34439112590E+03  0.00000000000E+00 0. -1.
        -13    1    4    4    0    0 -0.75558533700E+02  0.10031850531E+02  0.29835435542E+02  0.81852814576E+02  0.00000000000E+00 0. -1.
         13    1    4    4    0    0  0.91526825503E+01  0.35265528839E+02 -0.17395472288E+02  0.40373649554E+02  0.00000000000E+00 0.  1.
          1    1    1    2  501    0  0.19746880540E+02  0.17539632162E+02 -0.42486586184E+02  0.50026872708E+02  0.00000000000E+00 0. -1.
<scales pt_clust_5="13000.00000" pt_clust_6="13000.00000" pt_clust_7="13000.00000" pt_clust_8="13000.00000" pt_clust_9="26.41170"></scales>
<clustering>
<clus scale="   26.412">  2  9  1 -1</clus>
<clus scale="   83.100">  5  6 -1 -1</clus>
<clus scale="   91.230">  7  8 -1 -1</clus>
<clus scale="  113.999">  1  5  2 -1</clus>
<clus scale="   26.412">  2  5  1 -1</clus>
</clustering>
</event>
<event>
 9    2  0.1665830E-004  0.1490248E+03  0.7546771E-02  0.1203694E+00
          2   -1    0    0  502    0 -0.00000000000E+00  0.00000000000E+00  0.82251914416E+03  0.82251914416E+03  0.00000000000E+00 0. -1.
         21   -1    0    0  501  502  0.00000000000E+00 -0.00000000000E+00 -0.46416697954E+02  0.46416697954E+02  0.00000000000E+00 0.  1.
         24    2    1    2    0    0  0.10942961709E+03 -0.37338766293E+02  0.59649789694E+03  0.61293126712E+03  0.80659609412E+02 0.  0.
         23    2    1    2    0    0 -0.11104438994E+03  0.61505674314E+02  0.16649471994E+03  0.22846343196E+03  0.91439835232E+02 0.  0.
        -11    1    3    3    0    0  0.79837647915E+02 -0.50015759502E+02  0.29401596598E+03  0.30874101521E+03  0.00000000000E+00 0.  1.
         12    1    3    3    0    0  0.29591969179E+02  0.12676993208E+02  0.30248193097E+03  0.30419025191E+03  0.00000000000E+00 0. -1.
        -11    1    4    4    0    0 -0.43260913018E+01  0.43171094798E+02  0.75256233281E+02  0.86867480334E+02  0.00000000000E+00 0. -1.
         11    1    4    4    0    0 -0.10671829864E+03  0.18334579516E+02  0.91238486657E+02  0.14159595163E+03  0.00000000000E+00 0.  1.
          1    1    1    2  501    0  0.16147728453E+01 -0.24166908021E+02  0.13109829331E+02  0.27541143036E+02  0.00000000000E+00 0. -1.
<scales pt_clust_5="13000.00000" pt_clust_6="13000.00000" pt_clust_7="13000.00000" pt_clust_8="13000.00000" pt_clust_9="24.22080"></scales>
<clustering>
<clus scale="   24.221">  2  9  1 -1</clus>
<clus scale="   80.660">  5  6 -1 -1</clus>
<clus scale="   91.440">  7  8 -1 -1</clus>
<clus scale="  142.664">  1  5  2 -1</clus>
<clus scale="   24.221">  2  5  1 -1</clus>
</clustering>
</event>
<event>
 9    2  0.1665830E-004  0.1266803E+03  0.7546771E-02  0.1234954E+00
          2   -1    0    0  502    0 -0.00000000000E+00  0.00000000000E+00  0.62045481473E+03  0.62045481473E+03  0.00000000000E+00 0. -1.
         21   -1    0    0  501  502  0.00000000000E+00 -0.00000000000E+00 -0.10858828953E+03  0.10858828953E+03  0.00000000000E+00 0. -1.
         24    2    1    2    0    0 -0.73606739922E+02 -0.58185099044E+02  0.52761992908E+03  0.54191899985E+03  0.80560256473E+02 0.  0.
         23    2    1    2    0    0  0.67662962880E+02  0.16896266275E+02  0.37338769725E+02  0.11960466206E+03  0.89706917808E+02 0.  0.
        -13    1    3    3    0    0 -0.26925454391E+02 -0.37004620725E+02  0.86769549800E+02  0.98098301829E+02  0.00000000000E+00 0.  1.
         14    1    3    3    0    0 -0.46681285532E+02 -0.21180478319E+02  0.44085037928E+03  0.44382069802E+03  0.00000000000E+00 0. -1.
        -11    1    4    4    0    0  0.12672455861E+02  0.30049798612E+02  0.51828863863E+02  0.61235713954E+02  0.00000000000E+00 0. -1.
         11    1    4    4    0    0  0.54990507019E+02 -0.13153532336E+02 -0.14490094138E+02  0.58368948108E+02  0.00000000000E+00 0.  1.
          1    1    1    2  501    0  0.59437770426E+01  0.41288832769E+02 -0.53092173600E+02  0.67519442345E+02  0.00000000000E+00 0. -1.
<scales pt_clust_5="13000.00000" pt_clust_6="13000.00000" pt_clust_7="13000.00000" pt_clust_8="13000.00000" pt_clust_9="41.71446"></scales>
<clustering>
<clus scale="   41.714">  2  9  1 -1</clus>
<clus scale="   80.560">  5  6 -1 -1</clus>
<clus scale="   89.707">  7  8 -1 -1</clus>
<clus scale="  120.377">  1  5  2 -1</clus>
<clus scale="   41.714">  2  5  1 -1</clus>
</clustering>
</event>
<event>
 9    2  0.1665830E-004  0.8972691E+02  0.7546771E-02  0.1310383E+00
         21   -1    0    0  501  502  0.00000000000E+00  0.00000000000E+00  0.11796148126E+04  0.11796148126E+04  0.00000000000E+00 0.  1.
         -3   -1    0    0    0  501 -0.00000000000E+00 -0.00000000000E+00 -0.17136010338E+02  0.17136010338E+02  0.00000000000E+00 0.  1.
         23    2    1    2    0    0  0.19663710471E+01 -0.67206023036E+01  0.21951555126E+03  0.23648005911E+03  0.87673872986E+02 0.  0.
         24    2    1    2    0    0  0.32325690508E+02 -0.57288961645E+02  0.40546744337E+03  0.41789182527E+03  0.76829386304E+02 0.  0.
        -11    1    4    4    0    0  0.18989948967E+01 -0.66872475704E+02  0.31320883824E+03  0.32027380557E+03  0.00000000000E+00 0.  1.
         12    1    4    4    0    0  0.30426695612E+02  0.95835140590E+01  0.92258605137E+02  0.97618019696E+02  0.00000000000E+00 0. -1.
        -11    1    3    3    0    0 -0.32645939030E+02 -0.23153921578E+02  0.57912218063E+02  0.70396636429E+02  0.00000000000E+00 0. -1.
         11    1    3    3    0    0  0.34612310077E+02  0.16433319275E+02  0.16160333319E+03  0.16608342268E+03  0.00000000000E+00 0.  1.
         -4    1    1    2    0  502 -0.34292061556E+02  0.64009563948E+02  0.53749580759E+03  0.54237893851E+03  0.00000000000E+00 0.  1.
<scales pt_clust_5="13000.00000" pt_clust_6="13000.00000" pt_clust_7="13000.00000" pt_clust_8="13000.00000" pt_clust_9="72.61659"></scales>
<clustering>
<clus scale="   72.617">  1  9  2 -1</clus>
<clus scale="   76.829">  5  6 -1 -1</clus>
<clus scale="   79.164">  1  5  2 -1</clus>
<clus scale="   87.674">  7  8 -1 -1</clus>
<clus scale="   72.617">  1  5  2 -1</clus>
</clustering>
</event>
<event>
 9    2  0.1665830E-004  0.1606411E+03  0.7546771E-02  0.1213941E+00
          2   -1    0    0  502    0 -0.00000000000E+00  0.00000000000E+00  0.12636050033E+03  0.12636050033E+03  0.00000000000E+00 0. -1.
         21   -1    0    0  501  502  0.00000000000E+00 -0.00000000000E+00 -0.35361269952E+03  0.35361269952E+03  0.00000000000E+00 0.  1.
         24    2    1    2    0    0 -0.24914015813E+02  0.37575953424E+02 -0.33410100887E+02  0.97385020274E+02  0.79592379489E+02 0.  0.
         23    2    1    2    0    0 -0.11006749697E+03 -0.95786642651E+01 -0.18876412635E+03  0.24464020825E+03  0.10959165751E+03 0.  0.
        -13    1    3    3    0    0 -0.39398936878E+02  0.55678204075E+02 -0.23120872484E+02  0.72020228968E+02  0.00000000000E+00 0.  1.
         14    1    3    3    0    0  0.14484921065E+02 -0.18102250651E+02 -0.10289228403E+02  0.25364791306E+02  0.00000000000E+00 0. -1.
        -13    1    4    4    0    0 -0.33075476856E+02 -0.47888491358E+02 -0.33505283872E+02  0.67155780251E+02  0.00000000000E+00 0. -1.
         13    1    4    4    0    0 -0.76992020115E+02  0.38309827093E+02 -0.15525884248E+03  0.17748442799E+03  0.00000000000E+00 0.  1.
          1    1    1    2  501    0  0.13498151278E+03 -0.27997289159E+02 -0.50779719513E+01  0.13794797133E+03  0.00000000000E+00 0. -1.
<scales pt_clust_5="13000.00000" pt_clust_6="13000.00000" pt_clust_7="13000.00000" pt_clust_8="13000.00000" pt_clust_9="117.45323"></scales>
<clustering>
<clus scale="   79.592">  5  6 -1 -1</clus>
<clus scale="   91.475">  1  5  2 -1</clus>
<clus scale="  109.592">  7  8 -1 -1</clus>
<clus scale="  117.453">  2  9  1 -1</clus>
<clus scale="  117.453">  2  5  1 -1</clus>
</clustering>
</event>
<event>
 9    2  0.1665830E-004  0.1876661E+03  0.7546771E-02  0.1161317E+00
         21   -1    0    0  501  502  0.00000000000E+00  0.00000000000E+00  0.17491928184E+03  0.17491928184E+03  0.00000000000E+00 0. -1.
          2   -1    0    0  502    0 -0.00000000000E+00 -0.00000000000E+00 -0.95062181782E+03  0.95062181782E+03  0.00000000000E+00 0. -1.
         23    2    1    2    0    0 -0.69785972227E+02  0.15393584246E+03 -0.78744748816E+03  0.81041648065E+03  0.90194234737E+02 0.  0.
         24    2    1    2    0    0  0.57620913525E+02 -0.13454202872E+03 -0.10344594235E+03  0.19768079904E+03  0.83396091960E+02 0.  0.
        -13    1    4    4    0    0  0.23499240391E+02 -0.13216445896E+03 -0.81488973189E+02  0.15703538220E+03  0.00000000000E+00 0.  1.
         14    1    4    4    0    0  0.34121673135E+02 -0.23775697559E+01 -0.21956969162E+02  0.40645416842E+02  0.00000000000E+00 0. -1.
        -11    1    3    3    0    0 -0.80987856503E+02  0.12362163883E+03 -0.72702659291E+03  0.74189555147E+03  0.00000000000E+00 0. -1.
         11    1    3    3    0    0  0.11201884276E+02  0.30314203622E+02 -0.60420895248E+02  0.68520929176E+02  0.00000000000E+00 0.  1.
          1    1    1    2  501    0  0.12165058702E+02 -0.19393813738E+02  0.11519089453E+03  0.11744381996E+03  0.00000000000E+00 0. -1.
<scales pt_clust_5="13000.00000" pt_clust_6="13000.00000" pt_clust_7="13000.00000" pt_clust_8="13000.00000" pt_clust_9="22.89342"></scales>
<clustering>
<clus scale="   22.893">  1  9  2 -1</clus>
<clus scale="   83.396">  5  6 -1 -1</clus>
<clus scale="   90.194">  7  8 -1 -1</clus>
<clus scale="  184.495">  1  5  2 -1</clus>
<clus scale="   22.893">  1  5  2 -1</clus>
</clustering>
</event>
<event>
 9    2  0.1665830E-004  0.9425438E+02  0.7546771E-02  0.1298043E+00
          2   -1    0    0  502    0 -0.00000000000E+00  0.00000000000E+00  0.49642677484E+03  0.49642677484E+03  0.00000000000E+00 0. -1.
         21   -1    0    0  501  502  0.00000000000E+00 -0.00000000000E+00 -0.33627631830E+02  0.33627631830E+02  0.00000000000E+00 0.  1.
         24    2    1    2    0    0  0.99165318301E+01  0.27859606186E+02  0.33908516440E+03  0.35013925756E+03  0.82123417547E+02 0.  0.
         23    2    1    2    0    0 -0.23088034903E+02  0.61318914703E+01  0.89310352147E+02  0.12979010627E+03  0.91095967178E+02 0.  0.
        -13    1    3    3    0    0  0.20483062748E+02  0.43464292741E+02  0.10703576142E+03  0.11732584892E+03  0.00000000000E+00 0.  1.
         14    1    3    3    0    0 -0.10566530918E+02 -0.15604686555E+02  0.23204940298E+03  0.23281340864E+03  0.00000000000E+00 0. -1.
        -13    1    4    4    0    0 -0.32888016907E+02 -0.35930819766E+02  0.33049964994E+02  0.58863788964E+02  0.00000000000E+00 0. -1.
         13    1    4    4    0    0  0.97999820048E+01  0.42062711236E+02  0.56260387153E+02  0.70926317305E+02  0.00000000000E+00 0.  1.
          1    1    1    2  501    0  0.13171503072E+02 -0.33991497656E+02  0.34403626472E+02  0.50125042849E+02  0.00000000000E+00 0. -1.
<scales pt_clust_5="13000.00000" pt_clust_6="13000.00000" pt_clust_7="13000.00000" pt_clust_8="13000.00000" pt_clust_9="36.45422"></scales>
<clustering>
<clus scale="   36.454">  2  9  1 -1</clus>
<clus scale="   82.123">  5  6 -1 -1</clus>
<clus scale="   85.613">  1  5  2 -1</clus>
<clus scale="   91.096">  7  8 -1 -1</clus>
<clus scale="   36.454">  2  5  1 -1</clus>
</clustering>
</event>
<event>
 9    2  0.1665830E-004  0.1331612E+03  0.7546771E-02  0.1226903E+00
         21   -1    0    0  501  502  0.00000000000E+00  0.00000000000E+00  0.17390905406E+03  0.17390905406E+03  0.00000000000E+00 0. -1.
          2   -1    0    0  502    0 -0.00000000000E+00 -0.00000000000E+00 -0.31411891904E+03  0.31411891904E+03  0.00000000000E+00 0. -1.
         23    2    1    2    0    0 -0.25313287725E+02 -0.97613700278E+02 -0.22052477717E+03  0.26079499936E+03  0.95987797801E+02 0.  0.
         24    2    1    2    0    0 -0.25640648776E+02  0.44250304807E+02  0.11193343941E+03  0.14696039509E+03  0.80328889709E+02 0.  0.
        -11    1    4    4    0    0  0.97785948932E+01  0.56027306026E+02  0.77866607787E+02  0.96425559614E+02  0.00000000000E+00 0.  1.
         12    1    4    4    0    0 -0.35419243669E+02 -0.11777001219E+02  0.34066831619E+02  0.50534835474E+02  0.00000000000E+00 0. -1.
        -11    1    3    3    0    0  0.34776205969E+02 -0.51575986417E+02 -0.11750035006E+03  0.13295036344E+03  0.00000000000E+00 0. -1.
         11    1    3    3    0    0 -0.60089493694E+02 -0.46037713861E+02 -0.10302442712E+03  0.12784463592E+03  0.00000000000E+00 0.  1.
          1    1    1    2  501    0  0.50953936501E+02  0.53363395471E+02 -0.31618527209E+02  0.80272578655E+02  0.00000000000E+00 0. -1.
<scales pt_clust_5="13000.00000" pt_clust_6="13000.00000" pt_clust_7="13000.00000" pt_clust_8="13000.00000" pt_clust_9="73.78320"></scales>
<clustering>
<clus scale="   73.783">  1  9  2 -1</clus>
<clus scale="   80.329">  5  6 -1 -1</clus>
<clus scale="   95.988">  7  8 -1 -1</clus>
<clus scale="  122.356">  1  5  2 -1</clus>
<clus scale="   73.783">  1  5  2 -1</clus>
</clustering>
</event>
<event>
 9    2  0.1665830E-004  0.1068505E+03  0.7546771E-02  0.1271749E+00
         -1   -1    0    0    0  501 -0.00000000000E+00  0.00000000000E+00  0.12668461832E+03  0.12668461832E+03  0.00000000000E+00 0.  1.
         21   -1    0    0  501  502  0.00000000000E+00 -0.00000000000E+00 -0.37094605756E+03  0.37094605756E+03  0.00000000000E+00 0. -1.
         23    2    1    2    0    0 -0.20550378604E+02  0.50692194622E+02  0.85031333804E+02  0.13722549723E+03  0.92781963253E+02 0.  0.
         24    2    1    2    0    0 -0.87403196608E+01 -0.48752783721E+02 -0.14105837666E+03  0.16989561378E+03  0.80708282409E+02 0.  0.
        -11    1    4    4    0    0 -0.31840121408E+02 -0.15237096439E+02 -0.16708522273E+02  0.39053004439E+02  0.00000000000E+00 0.  1.
         12    1    4    4    0    0  0.23099801747E+02 -0.33515687282E+02 -0.12434985438E+03  0.13084260934E+03  0.00000000000E+00 0. -1.
        -11    1    3    3    0    0 -0.58481768255E+01  0.29855210225E+02 -0.15053221960E+02  0.33943102998E+02  0.00000000000E+00 0. -1.
         11    1    3    3    0    0 -0.14702201778E+02  0.20836984397E+02  0.10008455576E+03  0.10328239423E+03  0.00000000000E+00 0.  1.
         -2    1    1    2    0  502  0.29290698264E+02 -0.19394109009E+01 -0.18823439639E+03  0.19050956486E+03  0.00000000000E+00 0.  1.
<scales pt_clust_5="13000.00000" pt_clust_6="13000.00000" pt_clust_7="13000.00000" pt_clust_8="13000.00000" pt_clust_9="29.35483"></scales>
<clustering>
<clus scale="   29.355">  2  9  1 -1</clus>
<clus scale="   80.708">  5  6 -1 -1</clus>
<clus scale="   92.782">  7  8 -1 -1</clus>
<clus scale="   96.552">  2  5  1 -1</clus>
<clus scale="   29.355">  2  5  1 -1</clus>
</clustering>
</event>
<event>
 9    2  0.1665830E-004  0.1026296E+03  0.7546771E-02  0.1283621E+00
         21   -1    0    0  501  502  0.00000000000E+00  0.00000000000E+00  0.54850055419E+02  0.54850055419E+02  0.00000000000E+00 0.  1.
          2   -1    0    0  502    0 -0.00000000000E+00 -0.00000000000E+00 -0.31894593794E+03  0.31894593794E+03  0.00000000000E+00 0. -1.
         24    2    1    2    0    0  0.17266267488E+02  0.95665177574E+01 -0.78575212813E+02  0.11079159323E+03  0.75571626995E+02 0.  0.
         23    2    1    2    0    0 -0.69255888371E+02 -0.43280011660E+02 -0.11461095759E+03  0.16883589359E+03  0.93275666080E+02 0.  0.
        -11    1    3    3    0    0  0.45597254902E+02 -0.98771384091E+00 -0.59784376441E+02  0.75194793036E+02  0.00000000000E+00 0.  1.
         12    1    3    3    0    0 -0.28330987414E+02  0.10554231598E+02 -0.18790836372E+02  0.35596800193E+02  0.00000000000E+00 0. -1.
        -11    1    4    4    0    0 -0.28108759858E+02 -0.68274401724E+02 -0.83754396531E+02  0.11165256490E+03  0.00000000000E+00 0.  1.
         11    1    4    4    0    0 -0.41147128513E+02  0.24994390064E+02 -0.30856561058E+02  0.57183328688E+02  0.00000000000E+00 0. -1.
          1    1    1    2  501    0  0.51989620883E+02  0.33713493902E+02 -0.70909712121E+02  0.94168506539E+02  0.00000000000E+00 0. -1.
<scales pt_clust_5="13000.00000" pt_clust_6="13000.00000" pt_clust_7="13000.00000" pt_clust_8="13000.00000" pt_clust_9="61.96389"></scales>
<clustering>
<clus scale="   61.964">  1  9  2 -1</clus>
<clus scale="   75.572">  5  6 -1 -1</clus>
<clus scale="   86.854">  2  5  1 -1</clus>
<clus scale="   93.276">  7  8 -1 -1</clus>
<clus scale="   61.964">  1  5  2 -1</clus>
</clustering>
</event>
<event>
 9    2  0.1665830E-004  0.1381567E+03  0.7546771E-02  0.1218881E+00
          2   -1    0    0  502    0 -0.00000000000E+00  0.00000000000E+00  0.10661829368E+04  0.10661829368E+04  0.00000000000E+00 0. -1.
         21   -1    0    0  501  502  0.00000000000E+00 -0.00000000000E+00 -0.43884027143E+02  0.43884027143E+02  0.00000000000E+00 0. -1.
         23    2    1    2    0    0  0.88055129284E+02 -0.63279997808E+02  0.34352446290E+03  0.37211741933E+03  0.93296587536E+02 0.  0.
         24    2    1    2    0    0  0.18389444585E+02  0.13205074103E+03  0.29015656039E+03  0.32919078441E+03  0.80001082051E+02 0.  0.
        -11    1    4    4    0    0  0.10299187155E+01  0.46766210553E+02  0.19372005472E+03  0.19928772863E+03  0.00000000000E+00 0.  1.
         12    1    4    4    0    0  0.17359525870E+02  0.85284530475E+02  0.96436505669E+02  0.12990305579E+03  0.00000000000E+00 0. -1.
        -11    1    3    3    0    0  0.10734272598E+03 -0.47506720679E+02  0.29668602093E+03  0.31906416964E+03  0.00000000000E+00 0. -1.
         11    1    3    3    0    0 -0.19287596692E+02 -0.15773277128E+02  0.46838441965E+02  0.53053249695E+02  0.00000000000E+00 0.  1.
          1    1    1    2  501    0 -0.10644457387E+03 -0.68770743220E+02  0.38861788635E+03  0.40875876018E+03  0.00000000000E+00 0. -1.
<scales pt_clust_5="13000.00000" pt_clust_6="13000.00000" pt_clust_7="13000.00000" pt_clust_8="13000.00000" pt_clust_9="126.72758"></scales>
<clustering>
<clus scale="   80.001">  5  6 -1 -1</clus>
<clus scale="   93.297">  7  8 -1 -1</clus>
<clus scale="  126.728">  2  9  1 -1</clus>
<clus scale="  129.550">  2  5  1 -1</clus>
<clus scale="  126.728">  2  5  1 -1</clus>
</clustering>
</event>
<event>
 9    2  0.1665830E-004  0.9140334E+02  0.7546771E-02  0.1306402E+00
         21   -1    0    0  501  502  0.00000000000E+00  0.00000000000E+00  0.17822724698E+03  0.17822724698E+03  0.00000000000E+00 0.  1.
         -1   -1    0    0    0  501 -0.00000000000E+00 -0.00000000000E+00 -0.85345956375E+02  0.85345956375E+02  0.00000000000E+00 0.  1.
         23    2    1    2    0    0  0.21351886647E+02  0.10818841841E+02  0.96324057890E+01  0.94947350092E+02  0.91374316118E+02 0.  0.
         24    2    1    2    0    0  0.28252406600E+02  0.19819382403E+02  0.58360507060E+02  0.10523249367E+03  0.80479329903E+02 0.  0.
        -11    1    4    4    0    0  0.42657438584E+02 -0.14397419869E+02  0.13499557579E+02  0.47001923581E+02  0.00000000000E+00 0.  1.
         12    1    4    4    0    0 -0.14405031984E+02  0.34216802273E+02  0.44860949481E+02  0.58230570086E+02  0.00000000000E+00 0. -1.
        -13    1    3    3    0    0  0.69714979209E+01 -0.39528257689E+02  0.13742578743E+02  0.42425739943E+02  0.00000000000E+00 0.  1.
         13    1    3    3    0    0  0.14380388727E+02  0.50347099529E+02 -0.41101729540E+01  0.52521610149E+02  0.00000000000E+00 0. -1.
         -2    1    1    2    0  502 -0.49604293248E+02 -0.30638224244E+02  0.24888377755E+02  0.63393359595E+02  0.00000000000E+00 0.  1.
<scales pt_clust_5="13000.00000" pt_clust_6="13000.00000" pt_clust_7="13000.00000" pt_clust_8="13000.00000" pt_clust_9="58.30340"></scales>
<clustering>
<clus scale="   58.303">  1  9  2 -1</clus>
<clus scale="   80.479">  5  6 -1 -1</clus>
<clus scale="   80.512">  1  5  2 -1</clus>
<clus scale="   91.374">  7  8 -1 -1</clus>
<clus scale="   58.303">  1  5  2 -1</clus>
</clustering>
</event>
<event>
 9    2  0.1665830E-004  0.1251950E+03  0.7546771E-02  0.1237971E+00
         21   -1    0    0  501  502  0.00000000000E+00  0.00000000000E+00  0.10791437464E+03  0.10791437464E+03  0.00000000000E+00 0.  1.
          2   -1    0    0  502    0 -0.00000000000E+00 -0.00000000000E+00 -0.19351917226E+03  0.19351917226E+03  0.00000000000E+00 0. -1.
         23    2    1    2    0    0  0.51666244522E+02 -0.62945564151E+02 -0.80322856993E+02  0.14673667817E+03  0.91914887239E+02 0.  0.
         24    2    1    2    0    0 -0.35235183557E+02  0.86436187074E+02 -0.15185972506E+02  0.12436736202E+03  0.80770628200E+02 0.  0.
        -13    1    4    4    0    0 -0.53713575121E+02  0.49148716796E+02  0.13199900818E+02  0.73993120603E+02  0.00000000000E+00 0.  1.
         14    1    4    4    0    0  0.18478391563E+02  0.37287470278E+02 -0.28385873324E+02  0.50374241422E+02  0.00000000000E+00 0. -1.
        -13    1    3    3    0    0 -0.77248101365E+01 -0.57018552320E+02 -0.17639686227E+02  0.60182609868E+02  0.00000000000E+00 0.  1.
         13    1    3    3    0    0  0.59391054658E+02 -0.59270118303E+01 -0.62683170766E+02  0.86554068304E+02  0.00000000000E+00 0. -1.
          1    1    1    2  501    0 -0.16431060964E+02 -0.23490622923E+02  0.99040318784E+01  0.30329506709E+02  0.00000000000E+00 0. -1.
<scales pt_clust_5="13000.00000" pt_clust_6="13000.00000" pt_clust_7="13000.00000" pt_clust_8="13000.00000" pt_clust_9="28.66686"></scales>
<clustering>
<clus scale="   28.667">  1  9  2 -1</clus>
<clus scale="   80.771">  5  6 -1 -1</clus>
<clus scale="   91.915">  7  8 -1 -1</clus>
<clus scale="  117.258">  1  5  2 -1</clus>
<clus scale="   28.667">  1  5  2 -1</clus>
</clustering>
</event>
<event>
 9    2  0.1665830E-004  0.9651231E+02  0.7546771E-02  0.1294621E+00
          2   -1    0    0  502    0 -0.00000000000E+00  0.00000000000E+00  0.46360526418E+02  0.46360526418E+02  0.00000000000E+00 0. -1.
         21   -1    0    0  501  502  0.00000000000E+00 -0.00000000000E+00 -0.25346936845E+03  0.25346936845E+03  0.00000000000E+00 0. -1.
         24    2    1    2    0    0  0.18027179195E+02  0.17958625267E+02 -0.39345504420E+02  0.93571216787E+02  0.80993903978E+02 0.  0.
         23    2    1    2    0    0 -0.23414411623E+01 -0.31417906317E+02 -0.14823461975E+03  0.17782339287E+03  0.93032732806E+02 0.  0.
        -11    1    3    3    0    0  0.23174158899E+00  0.33205313789E+02 -0.55803182963E+02  0.64935674300E+02  0.00000000000E+00 0.  1.
         12    1    3    3    0    0  0.17795437606E+02 -0.15246688522E+02  0.16457678543E+02  0.28635542487E+02  0.00000000000E+00 0. -1.
        -11    1    4    4    0    0  0.41674929188E+02 -0.51502569482E+01 -0.95284243878E+02  0.10412690335E+03  0.00000000000E+00 0. -1.
         11    1    4    4    0    0 -0.44016370350E+02 -0.26267649369E+02 -0.52950375877E+02  0.73696489520E+02  0.00000000000E+00 0.  1.
          1    1    1    2  501    0 -0.15685738032E+02  0.13459281050E+02 -0.19528717856E+02  0.28435285212E+02  0.00000000000E+00 0. -1.
<scales pt_clust_5="13000.00000" pt_clust_6="13000.00000" pt_clust_7="13000.00000" pt_clust_8="13000.00000" pt_clust_9="20.66870"></scales>
<clustering>
<clus scale="   20.669">  2  9  1 -1</clus>
<clus scale="   80.994">  5  6 -1 -1</clus>
<clus scale="   84.968">  1  5  2 -1</clus>
<clus scale="   93.033">  7  8 -1 -1</clus>
<clus scale="   20.669">  2  5  1 -1</clus>
</clustering>
</event>
<event>
 9    2  0.1665830E-004  0.1565043E+03  0.7546771E-02  0.1197420E+00
          2   -1    0    0  502    0 -0.00000000000E+00  0.00000000000E+00  0.25585669406E+03  0.25585669406E+03  0.00000000000E+00 0. -1.
         21   -1    0    0  501  502  0.00000000000E+00 -0.00000000000E+00 -0.23303680393E+03  0.23303680393E+03  0.00000000000E+00 0. -1.
         23    2    1    2    0    0  0.99366811553E+02 -0.39029377356E+02 -0.41411373789E+02  0.14708617986E+03  0.92316774703E+02 0.  0.
         24    2    1    2    0    0  0.39369640030E+02  0.12547871734E+03 -0.23285396976E+02  0.15638763924E+03  0.81363425040E+02 0.  0.
        -13    1    4    4    0    0  0.12309130646E+02  0.72237299479E+02  0.27221045215E+02  0.78171141964E+02  0.00000000000E+00 0.  1.
         14    1    4    4    0    0  0.27060509385E+02  0.53241417863E+02 -0.50506442190E+02  0.78216497281E+02  0.00000000000E+00 0. -1.
        -11    1    3    3    0    0  0.57527472487E+02  0.22822378105E+02 -0.39746427217E+00  0.61890459773E+02  0.00000000000E+00 0.  1.
         11    1    3    3    0    0  0.41839339067E+02 -0.61851755462E+02 -0.41013909517E+02  0.85195720087E+02  0.00000000000E+00 0. -1.
          1    1    1    2  501    0 -0.13873645158E+03 -0.86449339986E+02  0.87516660898E+02  0.18541967888E+03  0.00000000000E+00 0. -1.
<scales pt_clust_5="13000.00000" pt_clust_6="13000.00000" pt_clust_7="13000.00000" pt_clust_8="13000.00000" pt_clust_9="133.69219"></scales>
<clustering>
<clus scale="   81.363">  5  6 -1 -1</clus>
<clus scale="   92.317">  7  8 -1 -1</clus>
<clus scale="  141.136">  1  7  2 -1</clus>
<clus scale="  133.692">  2  9  1 -1</clus>
<clus scale="  133.692">  2  5  1 -1</clus>
</clustering>
</event>
<event>
 9    2  0.1665830E-004  0.1151848E+03  0.7546771E-02  0.1253914E+00
          2   -1    0    0  502    0 -0.00000000000E+00  0.00000000000E+00  0.61387751787E+03  0.61387751787E+03  0.00000000000E+00 0. -1.
         21   -1    0    0  501  502  0.00000000000E+00 -0.00000000000E+00 -0.12674559726E+03  0.12674559726E+03  0.00000000000E+00 0. -1.
         24    2    1    2    0    0  0.61911783737E+02 -0.48767644363E+02  0.48069737845E+03  0.49421013818E+03  0.83440631145E+02 0.  0.
         23    2    1    2    0    0 -0.31991916768E+02  0.31873042572E+02  0.10252050636E+03  0.14436819008E+03  0.91062322077E+02 0.  0.
        -11    1    3    3    0    0  0.80206083365E+02 -0.25760931893E+02  0.38459741816E+03  0.39371539909E+03  0.00000000000E+00 0.  1.
         12    1    3    3    0    0 -0.18294299628E+02 -0.23006712470E+02  0.96099960291E+02  0.10049473909E+03  0.00000000000E+00 0. -1.
        -11    1    4    4    0    0 -0.53337297841E+02  0.17059309645E+02  0.22699187673E+02  0.60424668038E+02  0.00000000000E+00 0. -1.
         11    1    4    4    0    0  0.21345381073E+02  0.14813732927E+02  0.79821318683E+02  0.83943522041E+02  0.00000000000E+00 0.  1.
          1    1    1    2  501    0 -0.29919866969E+02  0.16894601791E+02 -0.96085964204E+02  0.10204478686E+03  0.00000000000E+00 0. -1.
<scales pt_clust_5="13000.00000" pt_clust_6="13000.00000" pt_clust_7="13000.00000" pt_clust_8="13000.00000" pt_clust_9="34.36024"></scales>
<clustering>
<clus scale="   34.360">  2  9  1 -1</clus>
<clus scale="   83.441">  5  6 -1 -1</clus>
<clus scale="   91.062">  7  8 -1 -1</clus>
<clus scale="  109.259">  1  5  2 -1</clus>
<clus scale="   34.360">  2  5  1 -1</clus>
</clustering>
</event>
<event>
 9    2  0.1665830E-004  0.1027188E+03  0.7546771E-02  0.1279324E+00
          2   -1    0    0  502    0 -0.00000000000E+00  0.00000000000E+00  0.20834409461E+03  0.20834409461E+03  0.00000000000E+00 0. -1.
         21   -1    0    0  501  502  0.00000000000E+00 -0.00000000000E+00 -0.19066555909E+03  0.19066555909E+03  0.00000000000E+00 0. -1.
         24    2    1    2    0    0 -0.51466706912E+02  0.15691127244E+02  0.13107775279E+03  0.16364321644E+03  0.81869967726E+02 0.  0.
         23    2    1    2    0    0  0.22493151509E+02 -0.19788628965E+02  0.20185959560E+02  0.98613901983E+02  0.91758906924E+02 0.  0.
        -11    1    3    3    0    0  0.69164614485E+01  0.34393625275E+02  0.34176380277E+02  0.48977381181E+02  0.00000000000E+00 0.  1.
         12    1    3    3    0    0 -0.58383168361E+02 -0.18702498031E+02  0.96901372515E+02  0.11466583526E+03  0.00000000000E+00 0. -1.
        -11    1    4    4    0    0 -0.20987299652E+01 -0.45658390280E+02  0.37332951493E+02  0.59015612660E+02  0.00000000000E+00 0. -1.
         11    1    4    4    0    0  0.24591881474E+02  0.25869761315E+02 -0.17146991933E+02  0.39598289323E+02  0.00000000000E+00 0.  1.
          1    1    1    2  501    0  0.28973555403E+02  0.40975017210E+01 -0.13358517683E+03  0.13675253527E+03  0.00000000000E+00 0. -1.
<scales pt_clust_5="13000.00000" pt_clust_6="13000.00000" pt_clust_7="13000.00000" pt_clust_8="13000.00000" pt_clust_9="29.26186"></scales>
<clustering>
<clus scale="   29.262">  2  9  1 -1</clus>
<clus scale="   81.870">  5  6 -1 -1</clus>
<clus scale="   91.759">  7  8 -1 -1</clus>
<clus scale="   93.990">  1  5  2 -1</clus>
<clus scale="   29.262">  2  5  1 -1</clus>
</clustering>
</event>
<event>
 9    2  0.1665830E-004  0.2910855E+03  0.7546771E-02  0.1090060E+00
         21   -1    0    0  501  502  0.00000000000E+00  0.00000000000E+00  0.30279727810E+03  0.30279727810E+03  0.00000000000E+00 0. -1.
          2   -1    0    0  502    0 -0.00000000000E+00 -0.00000000000E+00 -0.59308567429E+03  0.59308567429E+03  0.00000000000E+00 0. -1.
         23    2    1    2    0    0  0.98862567976E+02  0.24530649117E+03 -0.26290187416E+03  0.38369048877E+03  0.90287949277E+02 0.  0.
         24    2    1    2    0    0 -0.92127946438E+02 -0.28009881066E+03 -0.18012147365E+03  0.35540016129E+03  0.83202326461E+02 0.  0.
        -11    1    4    4    0    0 -0.19269433592E+02 -0.61142357784E+02 -0.24288779881E+01  0.64152930054E+02  0.00000000000E+00 0.  1.
         12    1    4    4    0    0 -0.72858512847E+02 -0.21895645288E+03 -0.17769259566E+03  0.29124723124E+03  0.00000000000E+00 0. -1.
        -13    1    3    3    0    0  0.61525786317E+02  0.13027661130E+03 -0.20245940129E+03  0.24848989317E+03  0.00000000000E+00 0.  1.
         13    1    3    3    0    0  0.37336781659E+02  0.11502987986E+03 -0.60442472863E+02  0.13520059561E+03  0.00000000000E+00 0. -1.
          1    1    1    2  501    0 -0.67346215379E+01  0.34792319494E+02  0.15273495162E+03  0.15679230233E+03  0.00000000000E+00 0. -1.
<scales pt_clust_5="13000.00000" pt_clust_6="13000.00000" pt_clust_7="13000.00000" pt_clust_8="13000.00000" pt_clust_9="35.43812"></scales>
<clustering>
<clus scale="   35.438">  1  9  2 -1</clus>
<clus scale="   83.202">  5  6 -1 -1</clus>
<clus scale="   90.288">  7  8 -1 -1</clus>
<clus scale="  288.966">  1  5  2 -1</clus>
<clus scale="   35.438">  1  5  2 -1</clus>
</clustering>
</event>
<event>
 9    2  0.1665830E-004  0.1046475E+03  0.7546771E-02  0.1275514E+00
         21   -1    0    0  501  502  0.00000000000E+00  0.00000000000E+00  0.11319055051E+03  0.11319055051E+03  0.00000000000E+00 0.  1.
         -1   -1    0    0    0  501 -0.00000000000E+00 -0.00000000000E+00 -0.36651777910E+03  0.36651777910E+03  0.00000000000E+00 0.  1.
         23    2    1    2    0    0 -0.24268343867E+02  0.57536460409E+02 -0.27713929470E+03  0.29826791767E+03  0.90874447751E+02 0.  0.
         24    2    1    2    0    0  0.31650069112E+01 -0.28417270232E+02 -0.50368935816E+02  0.99001955416E+02  0.80291960772E+02 0.  0.
        -13    1    4    4    0    0 -0.45093698278E+01 -0.39755322769E+02 -0.66645326191E+02  0.77733002050E+02  0.00000000000E+00 0.  1.
         14    1    4    4    0    0  0.76743767390E+01  0.11338052536E+02  0.16276390374E+02  0.21268953366E+02  0.00000000000E+00 0. -1.
        -13    1    3    3    0    0  0.44204439467E+01  0.72970978808E+02 -0.22694283573E+03  0.23842683314E+03  0.00000000000E+00 0.  1.
         13    1    3    3    0    0 -0.28688787814E+02 -0.15434518399E+02 -0.50196458973E+02  0.59841084531E+02  0.00000000000E+00 0. -1.
         -2    1    1    2    0  502  0.21103336956E+02 -0.29119190177E+02  0.74181001923E+02  0.82438456521E+02  0.00000000000E+00 0.  1.
<scales pt_clust_5="13000.00000" pt_clust_6="13000.00000" pt_clust_7="13000.00000" pt_clust_8="13000.00000" pt_clust_9="35.96218"></scales>
<clustering>
<clus scale="   35.962">  1  9  2 -1</clus>
<clus scale="   80.292">  5  6 -1 -1</clus>
<clus scale="   90.874">  7  8 -1 -1</clus>
<clus scale="   95.602">  1  5  2 -1</clus>
<clus scale="   35.962">  1  5  2 -1</clus>
</clustering>
</event>
<event>
 9    2  0.1665830E-004  0.2241688E+03  0.7546771E-02  0.1153158E+00
          2   -1    0    0  502    0 -0.00000000000E+00  0.00000000000E+00  0.17153697121E+04  0.17153697121E+04  0.00000000000E+00 0. -1.
         21   -1    0    0  501  502  0.00000000000E+00 -0.00000000000E+00 -0.52277430671E+02  0.52277430671E+02  0.00000000000E+00 0. -1.
         23    2    1    2    0    0  0.81036248909E+02  0.48466526950E+02  0.56508528393E+03  0.58007285770E+03  0.90814449563E+02 0.  0.
         24    2    1    2    0    0 -0.11509549257E+03  0.17401230727E+03  0.45691568786E+03  0.50812235076E+03  0.76740615304E+02 0.  0.
        -13    1    4    4    0    0 -0.67695499622E+01  0.74680786853E+02  0.14135221015E+03  0.16001091852E+03  0.00000000000E+00 0.  1.
         14    1    4    4    0    0 -0.10832594261E+03  0.99331520415E+02  0.31556347771E+03  0.34811143224E+03  0.00000000000E+00 0. -1.
        -11    1    3    3    0    0 -0.20071445044E+02  0.85407679308E+01  0.77090561343E+02  0.80117178378E+02  0.00000000000E+00 0.  1.
         11    1    3    3    0    0  0.10110769395E+03  0.39925759019E+02  0.48799472259E+03  0.49995567932E+03  0.00000000000E+00 0. -1.
          1    1    1    2  501    0  0.34059243665E+02 -0.22247883422E+03  0.64109130968E+03  0.67945193436E+03  0.00000000000E+00 0. -1.
<scales pt_clust_5="13000.00000" pt_clust_6="13000.00000" pt_clust_7="13000.00000" pt_clust_8="13000.00000" pt_clust_9="210.62427"></scales>
<clustering>
<clus scale="   76.741">  5  6 -1 -1</clus>
<clus scale="   90.814">  7  8 -1 -1</clus>
<clus scale="  131.008">  1  7  2 -1</clus>
<clus scale="  210.624">  2  9  1 -1</clus>
<clus scale="  210.624">  2  5  1 -1</clus>
</clustering>
</event>
<event>
 9    2  0.1665830E-004  0.9944736E+02  0.7546771E-02  0.1283590E+00
          2   -1    0    0  502    0 -0.00000000000E+00  0.00000000000E+00  0.13138292507E+04  0.13138292507E+04  0.00000000000E+00 0. -1.
         21   -1    0    0  501  502  0.00000000000E+00 -0.00000000000E+00 -0.16740367499E+02  0.16740367499E+02  0.00000000000E+00 0. -1.
         24    2    1    2    0    0  0.26314029537E+02 -0.19536110177E+01  0.26426418692E+03  0.27748498835E+03  0.80412147882E+02 0.  0.
         23    2    1    2    0    0 -0.39466898671E+02  0.79994206272E+02  0.53526519157E+03  0.54927038511E+03  0.85043644794E+02 0.  0.
        -11    1    3    3    0    0  0.49743736409E+02 -0.55528084172E+01  0.23263650100E+03  0.23796011135E+03  0.00000000000E+00 0.  1.
         12    1    3    3    0    0 -0.23429706871E+02  0.35991973995E+01  0.31627685917E+02  0.39524877008E+02  0.00000000000E+00 0. -1.
        -11    1    4    4    0    0 -0.21694413031E+02 -0.15126907288E+02  0.11003117976E+03  0.11316506263E+03  0.00000000000E+00 0.  1.
         11    1    4    4    0    0 -0.17772485639E+02  0.95121113560E+02  0.42523401181E+03  0.43610532248E+03  0.00000000000E+00 0. -1.
          1    1    1    2  501    0  0.13152869133E+02 -0.78040595254E+02  0.49755950474E+03  0.50381424477E+03  0.00000000000E+00 0. -1.
<scales pt_clust_5="13000.00000" pt_clust_6="13000.00000" pt_clust_7="13000.00000" pt_clust_8="13000.00000" pt_clust_9="79.14126"></scales>
<clustering>
<clus scale="   79.141">  2  9  1 -1</clus>
<clus scale="   80.412">  5  6 -1 -1</clus>
<clus scale="   85.044">  7  8 -1 -1</clus>
<clus scale="   95.517">  1  5  2 -1</clus>
<clus scale="   79.141">  2  5  1 -1</clus>
</clustering>
</event>
<event>
 9    2  0.1665830E-004  0.1077765E+03  0.7546771E-02  0.1269042E+00
         -1   -1    0    0    0  501 -0.00000000000E+00  0.00000000000E+00  0.35495115420E+03  0.35495115420E+03  0.00000000000E+00 0.  1.
         21   -1    0    0  501  502  0.00000000000E+00 -0.00000000000E+00 -0.66471203430E+02  0.66471203430E+02  0.00000000000E+00 0. -1.
         23    2    1    2    0    0  0.46479489305E+02 -0.22364907081E+02  0.18514596860E+03  0.21269754074E+03  0.91108079508E+02 0.  0.
         24    2    1    2    0    0 -0.68450117506E+02  0.40958307193E+02  0.13357650407E+02  0.11425702710E+03  0.80704646101E+02 0.  0.
        -11    1    4    4    0    0 -0.27553374830E+02  0.54473290636E+01  0.43870472587E+02  0.52091076237E+02  0.00000000000E+00 0.  1.
         12    1    4    4    0    0 -0.40896742676E+02  0.35510978130E+02 -0.30512822180E+02  0.62165950862E+02  0.00000000000E+00 0. -1.
        -11    1    3    3    0    0  0.73156282738E+02 -0.10338251644E+02  0.11494850579E+03  0.13664508822E+03  0.00000000000E+00 0.  1.
         11    1    3    3    0    0 -0.26676793433E+02 -0.12026655437E+02  0.70197462811E+02  0.76052452518E+02  0.00000000000E+00 0. -1.
         -2    1    1    2    0  502  0.21970628201E+02 -0.18593400112E+02  0.89976331762E+02  0.94467789794E+02  0.00000000000E+00 0.  1.
<scales pt_clust_5="13000.00000" pt_clust_6="13000.00000" pt_clust_7="13000.00000" pt_clust_8="13000.00000" pt_clust_9="28.78235"></scales>
<clustering>
<clus scale="   28.782">  2  9  1 -1</clus>
<clus scale="   80.705">  5  6 -1 -1</clus>
<clus scale="   91.108">  7  8 -1 -1</clus>
<clus scale="   99.138">  2  5  1 -1</clus>
<clus scale="   28.782">  2  5  1 -1</clus>
</clustering>
</event>
<event>
 9    2  0.1665830E-004  0.1034673E+03  0.7546771E-02  0.1280457E+00
         21   -1    0    0  501  502  0.00000000000E+00  0.00000000000E+00  0.27217683956E+03  0.27217683956E+03  0.00000000000E+00 0. -1.
          2   -1    0    0  502    0 -0.00000000000E+00 -0.00000000000E+00 -0.22435888302E+03  0.22435888302E+03  0.00000000000E+00 0. -1.
         23    2    1    2    0    0  0.40553651603E+02 -0.22609267338E+02 -0.19002608963E+03  0.21654329087E+03  0.92872517212E+02 0.  0.
         24    2    1    2    0    0 -0.48149012250E+02 -0.89549937052E+01  0.89639473563E+02  0.12827365428E+03  0.77591081123E+02 0.  0.
        -13    1    4    4    0    0 -0.18301301625E+02  0.33783276798E+02  0.48449429041E+02  0.61835221409E+02  0.00000000000E+00 0.  1.
         14    1    4    4    0    0 -0.29847710625E+02 -0.42738270503E+02  0.41190044522E+02  0.66438432875E+02  0.00000000000E+00 0. -1.
        -13    1    3    3    0    0 -0.27343358723E+02 -0.20373312775E+02 -0.45614620246E+02  0.56951073035E+02  0.00000000000E+00 0.  1.
         13    1    3    3    0    0  0.67897010326E+02 -0.22359545629E+01 -0.14441146939E+03  0.15959221784E+03  0.00000000000E+00 0. -1.
          1    1    1    2  501    0  0.75953606476E+01  0.31564261043E+02  0.14820457261E+03  0.15171877742E+03  0.00000000000E+00 0. -1.
<scales pt_clust_5="13000.00000" pt_clust_6="13000.00000" pt_clust_7="13000.00000" pt_clust_8="13000.00000" pt_clust_9="32.46524"></scales>
<clustering>
<clus scale="   32.465">  1  9  2 -1</clus>
<clus scale="   77.591">  5  6 -1 -1</clus>
<clus scale="   90.003">  1  5  2 -1</clus>
<clus scale="   92.873">  7  8 -1 -1</clus>
<clus scale="   32.465">  1  5  2 -1</clus>
</clustering>
</event>
<event>
 9    2  0.1665830E-004  0.3043719E+03  0.7546771E-02  0.1084313E+00
          2   -1    0    0  502    0 -0.00000000000E+00  0.00000000000E+00  0.48488735361E+03  0.48488735361E+03  0.00000000000E+00 0. -1.
         21   -1    0    0  501  502  0.00000000000E+00 -0.00000000000E+00 -0.58366700464E+03  0.58366700464E+03  0.00000000000E+00 0. -1.
         23    2    1    2    0    0 -0.87739098992E+02  0.26481672673E+03  0.17641215752E+03  0.34325789853E+03  0.94226786734E+02 0.  0.
         24    2    1    2    0    0 -0.22387235647E+03 -0.24474829477E+03 -0.22541263911E+03  0.40909651214E+03  0.80799372431E+02 0.  0.
        -11    1    4    4    0    0 -0.91871743528E+02 -0.49406671227E+02 -0.52898665646E+02  0.11696027209E+03  0.00000000000E+00 0.  1.
         12    1    4    4    0    0 -0.13200061294E+03 -0.19534162355E+03 -0.17251397347E+03  0.29213624005E+03  0.00000000000E+00 0. -1.
        -11    1    3    3    0    0 -0.49004109450E+02  0.12567585766E+03  0.31210856177E+02  0.13845555780E+03  0.00000000000E+00 0.  1.
         11    1    3    3    0    0 -0.38734989542E+02  0.13914086907E+03  0.14520130134E+03  0.20480234074E+03  0.00000000000E+00 0. -1.
          1    1    1    2  501    0  0.31161145546E+03 -0.20068431956E+02 -0.49779169434E+02  0.31619994758E+03  0.00000000000E+00 0. -1.
<scales pt_clust_5="13000.00000" pt_clust_6="13000.00000" pt_clust_7="13000.00000" pt_clust_8="13000.00000" pt_clust_9="293.45157"></scales>
<clustering>
<clus scale="   80.799">  5  6 -1 -1</clus>
<clus scale="   94.227">  7  8 -1 -1</clus>
<clus scale="  294.457">  1  7  2 -1</clus>
<clus scale="  293.452">  2  9  1 -1</clus>
<clus scale="  293.452">  2  5  1 -1</clus>
</clustering>
</event>
<event>
 9    2  0.1665830E-004  0.1064052E+03  0.7546771E-02  0.1272028E+00
         21   -1    0    0  501  502  0.00000000000E+00  0.00000000000E+00  0.40723713961E+03  0.40723713961E+03  0.00000000000E+00 0. -1.
         -3   -1    0    0    0  501 -0.00000000000E+00 -0.00000000000E+00 -0.67287643702E+02  0.67287643702E+02  0.00000000000E+00 0.  1.
         24    2    1    2    0    0 -0.17262721161E+02 -0.41839004762E+02  0.75034312022E+02  0.11860598941E+03  0.79929524474E+02 0.  0.
         23    2    1    2    0    0  0.88352220201E+02 -0.11576195934E+00  0.71224996442E+02  0.14537234288E+03  0.90851470769E+02 0.  0.
        -11    1    3    3    0    0 -0.25989025052E+02 -0.84209731958E+01 -0.81725692422E+01  0.28515488787E+02  0.00000000000E+00 0.  1.
         12    1    3    3    0    0  0.87263038918E+01 -0.33418031566E+02  0.83206881264E+02  0.90090500626E+02  0.00000000000E+00 0. -1.
        -13    1    4    4    0    0  0.60388838867E+02 -0.39538344170E+01 -0.82092585966E+01  0.61072388139E+02  0.00000000000E+00 0. -1.
         13    1    4    4    0    0  0.27963381334E+02  0.38380724577E+01  0.79434255038E+02  0.84299954741E+02  0.00000000000E+00 0.  1.
         -4    1    1    2    0  502 -0.71089499041E+02  0.41954766721E+02  0.19369018745E+03  0.21054645102E+03  0.00000000000E+00 0.  1.
<scales pt_clust_5="13000.00000" pt_clust_6="13000.00000" pt_clust_7="13000.00000" pt_clust_8="13000.00000" pt_clust_9="82.54647"></scales>
<clustering>
<clus scale="   79.930">  5  6 -1 -1</clus>
<clus scale="   82.546">  1  9  2 -1</clus>
<clus scale="   90.851">  7  8 -1 -1</clus>
<clus scale="   97.246">  2  5  1 -1</clus>
<clus scale="   82.546">  1  5  2 -1</clus>
</clustering>
</event>
<event>
 9    2  0.1665830E-004  0.9801611E+02  0.7546771E-02  0.1290395E+00
         21   -1    0    0  501  502  0.00000000000E+00  0.00000000000E+00  0.69004079779E+02  0.69004079779E+02  0.00000000000E+00 0.  1.
          2   -1    0    0  502    0 -0.00000000000E+00 -0.00000000000E+00 -0.31879258063E+03  0.31879258063E+03  0.00000000000E+00 0. -1.
         23    2    1    2    0    0 -0.33062286822E+02  0.82219641637E+01 -0.23812052569E+03  0.25712190595E+03  0.90827166964E+02 0.  0.
         24    2    1    2    0    0  0.44550849848E+02 -0.33021552232E+02  0.74074084753E+01  0.97344934336E+02  0.79661567940E+02 0.  0.
        -11    1    4    4    0    0  0.35141707058E+02  0.10152941598E+02  0.30373288604E+02  0.47545330567E+02  0.00000000000E+00 0.  1.
         12    1    4    4    0    0  0.94091427892E+01 -0.43174493830E+02 -0.22965880129E+02  0.49799603770E+02  0.00000000000E+00 0. -1.
        -13    1    3    3    0    0 -0.25199492261E+02 -0.38844151299E+02 -0.85725901106E+02  0.97431065994E+02  0.00000000000E+00 0.  1.
         13    1    3    3    0    0 -0.78627945618E+01  0.47066115462E+02 -0.15239462458E+03  0.15969083995E+03  0.00000000000E+00 0. -1.
          1    1    1    2  501    0 -0.11488563025E+02  0.24799588068E+02 -0.19075383639E+02  0.33329820127E+02  0.00000000000E+00 0. -1.
<scales pt_clust_5="13000.00000" pt_clust_6="13000.00000" pt_clust_7="13000.00000" pt_clust_8="13000.00000" pt_clust_9="27.33142"></scales>
<clustering>
<clus scale="   27.331">  1  9  2 -1</clus>
<clus scale="   79.662">  5  6 -1 -1</clus>
<clus scale="   87.770">  1  5  2 -1</clus>
<clus scale="   90.827">  7  8 -1 -1</clus>
<clus scale="   27.331">  1  5  2 -1</clus>
</clustering>
</event>
<event>
 9    2  0.1665830E-004  0.2177118E+03  0.7546771E-02  0.1136669E+00
          2   -1    0    0  502    0 -0.00000000000E+00  0.00000000000E+00  0.95123305929E+02  0.95123305929E+02  0.00000000000E+00 0. -1.
         21   -1    0    0  501  502  0.00000000000E+00 -0.00000000000E+00 -0.59534090201E+03  0.59534090201E+03  0.00000000000E+00 0. -1.
         23    2    1    2    0    0  0.18373653942E+03  0.36762704964E+02 -0.18697228912E+03  0.28090317377E+03  0.94007147282E+02 0.  0.
         24    2    1    2    0    0 -0.20964923873E+03 -0.73354855247E+01 -0.26910020696E+03  0.35051682122E+03  0.80252775161E+02 0.  0.
        -13    1    4    4    0    0 -0.22072700251E+02 -0.13526282692E+02 -0.47513265942E+01  0.26319945370E+02  0.00000000000E+00 0.  1.
         14    1    4    4    0    0 -0.18757653848E+03  0.61907971677E+01 -0.26434888037E+03  0.32419687585E+03  0.00000000000E+00 0. -1.
        -11    1    3    3    0    0  0.31734758573E+02  0.47446126667E+02 -0.45843022943E+02  0.73210740946E+02  0.00000000000E+00 0.  1.
         11    1    3    3    0    0  0.15200178085E+03 -0.10683421702E+02 -0.14112926618E+03  0.20769243282E+03  0.00000000000E+00 0. -1.
          1    1    1    2  501    0  0.25912699308E+02 -0.29427219440E+02 -0.44145099993E+02  0.59044212949E+02  0.00000000000E+00 0. -1.
<scales pt_clust_5="13000.00000" pt_clust_6="13000.00000" pt_clust_7="13000.00000" pt_clust_8="13000.00000" pt_clust_9="39.21007"></scales>
<clustering>
<clus scale="   39.210">  2  9  1 -1</clus>
<clus scale="   80.253">  5  6 -1 -1</clus>
<clus scale="   94.007">  7  8 -1 -1</clus>
<clus scale="  212.136">  2  5  1 -1</clus>
<clus scale="   39.210">  2  5  1 -1</clus>
</clustering>
</event>
<event>
 9    2  0.1665830E-004  0.2088625E+03  0.7546771E-02  0.1168009E+00
         21   -1    0    0  501  502  0.00000000000E+00  0.00000000000E+00  0.10284941115E+04  0.10284941115E+04  0.00000000000E+00 0.  1.
         -3   -1    0    0    0  501 -0.00000000000E+00 -0.00000000000E+00 -0.12703195577E+03  0.12703195577E+03  0.00000000000E+00 0.  1.
         24    2    1    2    0    0  0.85047080859E+02  0.51538942239E+01 -0.23595475948E+02  0.11707359929E+03  0.76745765858E+02 0.  0.
         23    2    1    2    0    0 -0.13900469212E+02 -0.18611958952E+03  0.19854198955E+03  0.28636510504E+03  0.88047300491E+02 0.  0.
        -11    1    3    3    0    0  0.27012620631E+02 -0.34834522340E+01 -0.46661515357E+02  0.54028817572E+02  0.00000000000E+00 0.  1.
         12    1    3    3    0    0  0.58034460229E+02  0.86373464578E+01  0.23066039409E+02  0.63044781718E+02  0.00000000000E+00 0. -1.
        -11    1    4    4    0    0  0.25995386952E+02 -0.10095870507E+03  0.64390647046E+02  0.12253397773E+03  0.00000000000E+00 0. -1.
         11    1    4    4    0    0 -0.39895856164E+02 -0.85160884447E+02  0.13415134250E+03  0.16383112731E+03  0.00000000000E+00 0.  1.
         -4    1    1    2    0  502 -0.71146611647E+02  0.18096569529E+03  0.72651564209E+03  0.75208736289E+03  0.00000000000E+00 0.  1.
<scales pt_clust_5="13000.00000" pt_clust_6="13000.00000" pt_clust_7="13000.00000" pt_clust_8="13000.00000" pt_clust_9="189.39700"></scales>
<clustering>
<clus scale="   76.746">  5  6 -1 -1</clus>
<clus scale="   88.047">  7  8 -1 -1</clus>
<clus scale="  114.671">  2  5  1 -1</clus>
<clus scale="  189.397">  1  9  2 -1</clus>
<clus scale="  189.397">  1  5  2 -1</clus>
</clustering>
</event>
<event>
 9    2  0.1665830E-004  0.9642115E+02  0.7546771E-02  0.1294084E+00
         21   -1    0    0  501  502  0.00000000000E+00  0.00000000000E+00  0.12909378365E+03  0.12909378365E+03  0.00000000000E+00 0. -1.
          4   -1    0    0  502    0 -0.00000000000E+00 -0.00000000000E+00 -0.44000442221E+03  0.44000442221E+03  0.00000000000E+00 0. -1.
         24    2    1    2    0    0 -0.88996019600E+01  0.21432226857E+02 -0.26244662416E+03  0.27546364823E+03  0.80395570144E+02 0.  0.
         23    2    1    2    0    0  0.26113461889E+02 -0.42004597750E+02 -0.15342058239E+03  0.18530441139E+03  0.91397760675E+02 0.  0.
        -11    1    3    3    0    0 -0.34917983820E+02  0.23902010493E+01 -0.52765164185E+02  0.63317779546E+02  0.00000000000E+00 0.  1.
         12    1    3    3    0    0  0.26018381860E+02  0.19042025808E+02 -0.20968145998E+03  0.21214586868E+03  0.00000000000E+00 0. -1.
        -13    1    4    4    0    0 -0.18498737025E+02  0.20084822917E+02 -0.35934604628E+02  0.45132019597E+02  0.00000000000E+00 0.  1.
         13    1    4    4    0    0  0.44612198914E+02 -0.62089420667E+02 -0.11748597776E+03  0.14017239180E+03  0.00000000000E+00 0. -1.
          3    1    1    2  501    0 -0.17213859929E+02  0.20572370893E+02  0.10495656800E+03  0.10833014624E+03  0.00000000000E+00 0. -1.
<scales pt_clust_5="13000.00000" pt_clust_6="13000.00000" pt_clust_7="13000.00000" pt_clust_8="13000.00000" pt_clust_9="26.82423"></scales>
<clustering>
<clus scale="   26.824">  1  9  2 -1</clus>
<clus scale="   80.396">  5  6 -1 -1</clus>
<clus scale="   86.064">  2  5  1 -1</clus>
<clus scale="   91.398">  7  8 -1 -1</clus>
<clus scale="   26.824">  1  5  2 -1</clus>
</clustering>
</event>
<event>
 9    2  0.1665830E-004  0.1360424E+03  0.7546771E-02  0.1235159E+00
          2   -1    0    0  502    0 -0.00000000000E+00  0.00000000000E+00  0.37199325651E+03  0.37199325651E+03  0.00000000000E+00 0. -1.
         21   -1    0    0  501  502  0.00000000000E+00 -0.00000000000E+00 -0.96603508102E+02  0.96603508102E+02  0.00000000000E+00 0. -1.
         23    2    1    2    0    0  0.30741546580E+00  0.32860704738E+02  0.19505461047E+02  0.98733566144E+02  0.91038089022E+02 0.  0.
         24    2    1    2    0    0  0.10356238204E+03  0.14002610261E+02  0.20870189260E+03  0.24652916625E+03  0.79365671217E+02 0.  0.
        -11    1    4    4    0    0  0.26822994094E+02  0.63311115138E+01  0.40854441541E+01  0.27861206706E+02  0.00000000000E+00 0.  1.
         12    1    4    4    0    0  0.76739387951E+02  0.76714987470E+01  0.20461644845E+03  0.21866795955E+03  0.00000000000E+00 0. -1.
        -11    1    3    3    0    0  0.29941404989E+02  0.31213635242E+02 -0.21350513662E+02  0.48235082579E+02  0.00000000000E+00 0. -1.
         11    1    3    3    0    0 -0.29633989523E+02  0.16470694961E+01  0.40855974709E+02  0.50498483565E+02  0.00000000000E+00 0.  1.
          1    1    1    2  501    0 -0.10386979751E+03 -0.46863314999E+02  0.47182394759E+02  0.12333403222E+03  0.00000000000E+00 0. -1.
<scales pt_clust_5="13000.00000" pt_clust_6="13000.00000" pt_clust_7="13000.00000" pt_clust_8="13000.00000" pt_clust_9="110.49259"></scales>
<clustering>
<clus scale="   79.366">  5  6 -1 -1</clus>
<clus scale="   91.038">  7  8 -1 -1</clus>
<clus scale="   96.788">  1  7  2 -1</clus>
<clus scale="  110.493">  2  9  1 -1</clus>
<clus scale="  110.493">  2  5  1 -1</clus>
</clustering>
</event>
<event>
 9    2  0.1899196E-004  0.3451104E+03  0.7546771E-02  0.1065691E+00
          2   -1    0    0  502    0 -0.00000000000E+00  0.00000000000E+00  0.14238609503E+04  0.14238609503E+04  0.00000000000E+00 0. -1.
         21   -1    0    0  501  502  0.00000000000E+00 -0.00000000000E+00 -0.17587387843E+03  0.17587387843E+03  0.00000000000E+00 0. -1.
         24    2    1    2    0    0  0.24793848064E+03 -0.23585615805E+03  0.50636479050E+03  0.62006023033E+03  0.10472712496E+03 0.  0.
         23    2    1    2    0    0 -0.16442833137E+03  0.26052143070E+03  0.97382491465E+02  0.32957673839E+03  0.65033720732E+02 0.  0.
        -11    1    3    3    0    0  0.65154672711E+02 -0.13171240640E+03  0.19146190737E+03  0.24135233861E+03  0.00000000000E+00 0.  1.
         12    1    3    3    0    0  0.18278380793E+03 -0.10414375165E+03  0.31490288312E+03  0.37870789172E+03  0.00000000000E+00 0. -1.
        -11    1    4    4    0    0 -0.75929905650E+02  0.16672488081E+03  0.78234907664E+02  0.19920651905E+03  0.00000000000E+00 0.  1.
         11    1    4    4    0    0 -0.88498425719E+02  0.93796549886E+02  0.19147583801E+02  0.13037021934E+03  0.00000000000E+00 0. -1.
          1    1    1    2  501    0 -0.83510149270E+02 -0.24665272646E+02  0.64423978988E+03  0.65009786000E+03  0.00000000000E+00 0. -1.
<scales pt_clust_5="13000.00000" pt_clust_6="13000.00000" pt_clust_7="13000.00000" pt_clust_8="13000.00000" pt_clust_9="87.07657"></scales>
<clustering>
<clus scale="   65.034">  7  8 -1 -1</clus>
<clus scale="   87.077">  2  9  1 -1</clus>
<clus scale="  104.727">  5  6 -1 -1</clus>
<clus scale="  335.206">  2  7  1 -1</clus>
<clus scale="   87.077">  2  5  1 -1</clus>
</clustering>
</event>
<event>
 9    2  0.1665830E-004  0.2266559E+03  0.7546771E-02  0.1129713E+00
          2   -1    0    0  502    0 -0.00000000000E+00  0.00000000000E+00  0.22370040864E+04  0.22370040864E+04  0.00000000000E+00 0. -1.
         21   -1    0    0  501  502  0.00000000000E+00 -0.00000000000E+00 -0.64934947065E+02  0.64934947065E+02  0.00000000000E+00 0. -1.
         24    2    1    2    0    0 -0.17867461569E+03  0.11135980894E+03  0.19932118350E+04  0.20060338281E+04  0.83382701582E+02 0.  0.
         23    2    1    2    0    0  0.14396836478E+03 -0.10271242549E+03  0.15415587645E+03  0.25243726738E+03  0.93186948180E+02 0.  0.
        -11    1    3    3    0    0 -0.48867375702E+02  0.53116024983E+02  0.39813080769E+03  0.40462015836E+03  0.00000000000E+00 0.  1.
         12    1    3    3    0    0 -0.12980723999E+03  0.58243783956E+02  0.15950810274E+04  0.16014136698E+04  0.00000000000E+00 0. -1.
        -13    1    4    4    0    0  0.59678692176E+02 -0.98909346276E+02  0.88038813748E+02  0.14524268590E+03  0.00000000000E+00 0. -1.
         13    1    4    4    0    0  0.84289672600E+02 -0.38030792140E+01  0.66117062702E+02  0.10719458148E+03  0.00000000000E+00 0.  1.
          1    1    1    2  501    0  0.34706250912E+02 -0.86473834493E+01  0.24701427855E+02  0.43467937965E+02  0.00000000000E+00 0. -1.
<scales pt_clust_5="13000.00000" pt_clust_6="13000.00000" pt_clust_7="13000.00000" pt_clust_8="13000.00000" pt_clust_9="35.76732"></scales>
<clustering>
<clus scale="   35.767">  2  9  1 -1</clus>
<clus scale="   83.383">  5  6 -1 -1</clus>
<clus scale="   93.187">  7  8 -1 -1</clus>
<clus scale="  222.804">  1  5  2 -1</clus>
<clus scale="   35.767">  2  5  1 -1</clus>
</clustering>
</event>
<event>
 9    2  0.1665830E-004  0.1019394E+03  0.7546771E-02  0.1280644E+00
          2   -1    0    0  502    0 -0.00000000000E+00  0.00000000000E+00  0.33056260307E+03  0.33056260307E+03  0.00000000000E+00 0. -1.
         21   -1    0    0  501  502  0.00000000000E+00 -0.00000000000E+00 -0.90887461889E+02  0.90887461889E+02  0.00000000000E+00 0.  1.
         23    2    1    2    0    0  0.26858806669E+02 -0.21531977331E+02  0.14204592330E+03  0.17173091721E+03  0.90163418627E+02 0.  0.
         24    2    1    2    0    0 -0.74585965214E+02 -0.17525515976E+02  0.13699894269E+03  0.17655259338E+03  0.80820158476E+02 0.  0.
        -11    1    4    4    0    0 -0.39951313099E+02 -0.37189560314E+02  0.29784123711E+02  0.62179295911E+02  0.00000000000E+00 0.  1.
         12    1    4    4    0    0 -0.34634652115E+02  0.19664044338E+02  0.10721481898E+03  0.11437329747E+03  0.00000000000E+00 0. -1.
        -11    1    3    3    0    0 -0.85130661482E+01 -0.47268688193E+02  0.47473969780E+02  0.67532058945E+02  0.00000000000E+00 0.  1.
         11    1    3    3    0    0  0.35371872817E+02  0.25736710862E+02  0.94571953517E+02  0.10419885827E+03  0.00000000000E+00 0. -1.
          1    1    1    2  501    0  0.47727158545E+02  0.39057493307E+02 -0.39369724801E+02  0.73166554362E+02  0.00000000000E+00 0. -1.
<scales pt_clust_5="13000.00000" pt_clust_6="13000.00000" pt_clust_7="13000.00000" pt_clust_8="13000.00000" pt_clust_9="61.67146"></scales>
<clustering>
<clus scale="   61.671">  2  9  1 -1</clus>
<clus scale="   80.820">  5  6 -1 -1</clus>
<clus scale="   90.163">  7  8 -1 -1</clus>
<clus scale="   93.777">  2  5  1 -1</clus>
<clus scale="   61.671">  2  5  1 -1</clus>
</clustering>
</event>
<event>
 9    2  0.1665830E-004  0.1673706E+03  0.7546771E-02  0.1182471E+00
         -3   -1    0    0    0  501 -0.00000000000E+00  0.00000000000E+00  0.39604476055E+03  0.39604476055E+03  0.00000000000E+00 0.  1.
         21   -1    0    0  501  502  0.00000000000E+00 -0.00000000000E+00 -0.28342366321E+03  0.28342366321E+03  0.00000000000E+00 0.  1.
         24    2    1    2    0    0 -0.45994542013E+02 -0.12865713359E+03  0.20937547400E+03  0.26257370351E+03  0.80241540032E+02 0.  0.
         23    2    1    2    0    0 -0.79640900758E+02  0.18816764187E+03 -0.14777577420E+03  0.26881046016E+03  0.93121692059E+02 0.  0.
        -11    1    3    3    0    0 -0.48958392491E+02 -0.70270920700E+02  0.17479929701E+03  0.19465282101E+03  0.00000000000E+00 0.  1.
         12    1    3    3    0    0  0.29638504783E+01 -0.58386212886E+02  0.34576176984E+02  0.67920882500E+02  0.00000000000E+00 0. -1.
        -11    1    4    4    0    0 -0.48590326546E+02  0.49260850045E+02 -0.85747627320E+01  0.69722146675E+02  0.00000000000E+00 0.  1.
         11    1    4    4    0    0 -0.31050574212E+02  0.13890679183E+03 -0.13920101146E+03  0.19908831349E+03  0.00000000000E+00 0. -1.
         -4    1    1    2    0  502  0.12563544277E+03 -0.59510508286E+02  0.51021397542E+02  0.14808426008E+03  0.00000000000E+00 0.  1.
<scales pt_clust_5="13000.00000" pt_clust_6="13000.00000" pt_clust_7="13000.00000" pt_clust_8="13000.00000" pt_clust_9="139.01721"></scales>
<clustering>
<clus scale="   80.242">  5  6 -1 -1</clus>
<clus scale="   93.122">  7  8 -1 -1</clus>
<clus scale="  139.017">  2  9  1 -1</clus>
<clus scale="  160.561">  1  5  2 -1</clus>
<clus scale="  139.017">  2  5  1 -1</clus>
</clustering>
</event>
<event>
 9    2  0.1665830E-004  0.1165352E+03  0.7546771E-02  0.1252313E+00
          2   -1    0    0  502    0 -0.00000000000E+00  0.00000000000E+00  0.45008952309E+03  0.45008952309E+03  0.00000000000E+00 0. -1.
         21   -1    0    0  501  502  0.00000000000E+00 -0.00000000000E+00 -0.86837403472E+02  0.86837403472E+02  0.00000000000E+00 0.  1.
         23    2    1    2    0    0  0.53354285516E+02 -0.50980472852E+02  0.30796411328E+03  0.32921549503E+03  0.89973655602E+02 0.  0.
         24    2    1    2    0    0 -0.13827598748E+01  0.97407894666E+02  0.56391952587E+02  0.13801377252E+03  0.79859496127E+02 0.  0.
        -13    1    4    4    0    0 -0.28293446629E+02  0.89065652778E+02  0.26942799304E+02  0.97258028262E+02  0.00000000000E+00 0.  1.
         14    1    4    4    0    0  0.26910686755E+02  0.83422418875E+01  0.29449153284E+02  0.40755744263E+02  0.00000000000E+00 0. -1.
        -11    1    3    3    0    0  0.52657479401E+02 -0.25480224999E+01  0.24021538074E+03  0.24593237221E+03  0.00000000000E+00 0.  1.
         11    1    3    3    0    0  0.69680611491E+00 -0.48432450352E+02  0.67748732543E+02  0.83283122822E+02  0.00000000000E+00 0. -1.
          1    1    1    2  501    0 -0.51971525641E+02 -0.46427421814E+02 -0.11039462515E+01  0.69697659008E+02  0.00000000000E+00 0. -1.
<scales pt_clust_5="13000.00000" pt_clust_6="13000.00000" pt_clust_7="13000.00000" pt_clust_8="13000.00000" pt_clust_9="69.68892"></scales>
<clustering>
<clus scale="   69.689">  2  9  1 -1</clus>
<clus scale="   79.859">  5  6 -1 -1</clus>
<clus scale="   89.974">  7  8 -1 -1</clus>
<clus scale="  108.916">  2  5  1 -1</clus>
<clus scale="   69.689">  2  5  1 -1</clus>
</clustering>
</event>
<event>
 9    2  0.1665830E-004  0.1020001E+03  0.7546771E-02  0.1280044E+00
         -1   -1    0    0    0  501 -0.00000000000E+00  0.00000000000E+00  0.12075156921E+03  0.12075156921E+03  0.00000000000E+00 0.  1.
         21   -1    0    0  501  502  0.00000000000E+00 -0.00000000000E+00 -0.12927227625E+03  0.12927227625E+03  0.00000000000E+00 0. -1.
         23    2    1    2    0    0 -0.53053463033E+02  0.18279963045E+02  0.45053139562E+02  0.11495921104E+03  0.89649360450E+02 0.  0.
         24    2    1    2    0    0  0.22411753936E+02 -0.32003121931E+02 -0.42971975483E+02  0.99856125537E+02  0.81229111793E+02 0.  0.
        -13    1    4    4    0    0  0.29627368519E+02 -0.18041841549E+02  0.16449835648E+02  0.38391224319E+02  0.00000000000E+00 0.  1.
         14    1    4    4    0    0 -0.72156145834E+01 -0.13961280382E+02 -0.59421811131E+02  0.61464901218E+02  0.00000000000E+00 0. -1.
        -11    1    3    3    0    0  0.18893756196E+02  0.27119914702E+02  0.10687714190E+02  0.34737458618E+02  0.00000000000E+00 0.  1.
         11    1    3    3    0    0 -0.71947219230E+02 -0.88399516571E+01  0.34365425372E+02  0.80221752419E+02  0.00000000000E+00 0. -1.
         -2    1    1    2    0  502  0.30641709097E+02  0.13723158886E+02 -0.10601871124E+02  0.35208508880E+02  0.00000000000E+00 0.  1.
<scales pt_clust_5="13000.00000" pt_clust_6="13000.00000" pt_clust_7="13000.00000" pt_clust_8="13000.00000" pt_clust_9="33.57439"></scales>
<clustering>
<clus scale="   33.574">  2  9  1 -1</clus>
<clus scale="   81.229">  5  6 -1 -1</clus>
<clus scale="   89.649">  7  8 -1 -1</clus>
<clus scale="   94.685">  2  5  1 -1</clus>
<clus scale="   33.574">  2  5  1 -1</clus>
</clustering>
</event>
<event>
 9    2  0.1665830E-004  0.9738679E+02  0.7546771E-02  0.1290768E+00
          2   -1    0    0  502    0 -0.00000000000E+00  0.00000000000E+00  0.52456539136E+03  0.52456539136E+03  0.00000000000E+00 0. -1.
         21   -1    0    0  501  502  0.00000000000E+00 -0.00000000000E+00 -0.42144953196E+02  0.42144953196E+02  0.00000000000E+00 0.  1.
         24    2    1    2    0    0 -0.39990033611E+02 -0.10650625141E+02  0.28558212842E+03  0.30025798772E+03  0.82976312965E+02 0.  0.
         23    2    1    2    0    0 -0.21697880119E+02  0.49051875894E+02  0.10836436221E+03  0.15196351828E+03  0.92049939502E+02 0.  0.
        -11    1    3    3    0    0  0.10595273327E+02  0.20261511242E+02  0.29069781981E+02  0.36984332887E+02  0.00000000000E+00 0.  1.
         12    1    3    3    0    0 -0.50585306938E+02 -0.30912136383E+02  0.25651234644E+03  0.26327365484E+03  0.00000000000E+00 0. -1.
        -13    1    4    4    0    0 -0.48658344372E+02  0.55395745841E+02  0.97435797028E+02  0.12218861517E+03  0.00000000000E+00 0. -1.
         13    1    4    4    0    0  0.26960464253E+02 -0.63438699467E+01  0.10928565178E+02  0.29774903115E+02  0.00000000000E+00 0.  1.
          1    1    1    2  501    0  0.61687913730E+02 -0.38401250753E+02  0.88473947533E+02  0.11448883855E+03  0.00000000000E+00 0. -1.
<scales pt_clust_5="13000.00000" pt_clust_6="13000.00000" pt_clust_7="13000.00000" pt_clust_8="13000.00000" pt_clust_9="72.66399"></scales>
<clustering>
<clus scale="   72.664">  2  9  1 -1</clus>
<clus scale="   82.976">  5  6 -1 -1</clus>
<clus scale="   88.860">  1  5  2 -1</clus>
<clus scale="   92.050">  7  8 -1 -1</clus>
<clus scale="   72.664">  2  5  1 -1</clus>
</clustering>
</event>
<event>
 9    2  0.1665830E-004  0.1074280E+03  0.7546771E-02  0.1275983E+00
         21   -1    0    0  501  502  0.00000000000E+00  0.00000000000E+00  0.47773729334E+02  0.47773729334E+02  0.00000000000E+00 0.  1.
          2   -1    0    0  502    0 -0.00000000000E+00 -0.00000000000E+00 -0.79668966539E+03  0.79668966539E+03  0.00000000000E+00 0. -1.
         24    2    1    2    0    0  0.92959512840E+01  0.72782269005E+02 -0.20534207274E+03  0.22832552229E+03  0.67701579747E+02 0.  0.
         23    2    1    2    0    0 -0.29341778356E+01 -0.26546443373E+01 -0.28601813965E+02  0.96373918783E+02  0.91946788543E+02 0.  0.
        -13    1    3    3    0    0  0.98823782317E+01  0.73563642708E+02 -0.10838941289E+03  0.13136794036E+03  0.00000000000E+00 0.  1.
         14    1    3    3    0    0 -0.58642694767E+00 -0.78137370398E+00 -0.96952659855E+02  0.96957581933E+02  0.00000000000E+00 0. -1.
        -13    1    4    4    0    0 -0.29602650031E+02  0.12356417505E+02 -0.49735484650E+02  0.59182906111E+02  0.00000000000E+00 0. -1.
         13    1    4    4    0    0  0.26668472196E+02 -0.15011061843E+02  0.21133670685E+02  0.37191012671E+02  0.00000000000E+00 0.  1.
          1    1    1    2  501    0 -0.63617734485E+01 -0.70127624667E+02 -0.51497204935E+03  0.51976395365E+03  0.00000000000E+00 0. -1.
<scales pt_clust_5="13000.00000" pt_clust_6="13000.00000" pt_clust_7="13000.00000" pt_clust_8="13000.00000" pt_clust_9="70.41563"></scales>
<clustering>
<clus scale="   67.702">  5  6 -1 -1</clus>
<clus scale="   70.416">  1  9  2 -1</clus>
<clus scale="   87.579">  2  5  1 -1</clus>
<clus scale="   91.947">  7  8 -1 -1</clus>
<clus scale="   70.416">  1  5  2 -1</clus>
</clustering>
</event>
<event>
 9    2  0.1665830E-004  0.9117058E+02  0.7546771E-02  0.1306526E+00
         -1   -1    0    0    0  501 -0.00000000000E+00  0.00000000000E+00  0.59847131716E+03  0.59847131716E+03  0.00000000000E+00 0.  1.
         21   -1    0    0  501  502  0.00000000000E+00 -0.00000000000E+00 -0.42813776720E+02  0.42813776720E+02  0.00000000000E+00 0.  1.
         24    2    1    2    0    0 -0.95508373401E+01 -0.10570869338E+02  0.36519426037E+03  0.37429116069E+03  0.80771674454E+02 0.  0.
         23    2    1    2    0    0 -0.46028954870E+02 -0.31130098361E+02  0.68856654773E+02  0.12693589048E+03  0.91015018959E+02 0.  0.
        -11    1    3    3    0    0 -0.44917143489E+02 -0.11702480492E+02  0.19359744022E+03  0.19908406940E+03  0.00000000000E+00 0.  1.
         12    1    3    3    0    0  0.35366306149E+02  0.11316111547E+01  0.17159682015E+03  0.17520709130E+03  0.00000000000E+00 0. -1.
        -11    1    4    4    0    0 -0.61843291890E+02 -0.50588655587E+02  0.42273156330E+02  0.90392613481E+02  0.00000000000E+00 0.  1.
         11    1    4    4    0    0  0.15814337020E+02  0.19458557225E+02  0.26583498443E+02  0.36543277004E+02  0.00000000000E+00 0. -1.
         -2    1    1    2    0  502  0.55579792210E+02  0.41700967699E+02  0.12160662530E+03  0.14005804270E+03  0.00000000000E+00 0.  1.
<scales pt_clust_5="13000.00000" pt_clust_6="13000.00000" pt_clust_7="13000.00000" pt_clust_8="13000.00000" pt_clust_9="69.48445"></scales>
<clustering>
<clus scale="   69.484">  2  9  1 -1</clus>
<clus scale="   80.772">  5  6 -1 -1</clus>
<clus scale="   80.947">  1  5  2 -1</clus>
<clus scale="   91.015">  7  8 -1 -1</clus>
<clus scale="   69.484">  2  5  1 -1</clus>
</clustering>
</event>
<event>
 9    2  0.1665830E-004  0.9431702E+02  0.7546771E-02  0.1299820E+00
          2   -1    0    0  502    0 -0.00000000000E+00  0.00000000000E+00  0.11315191600E+03  0.11315191600E+03  0.00000000000E+00 0. -1.
         21   -1    0    0  501  502  0.00000000000E+00 -0.00000000000E+00 -0.14085842800E+03  0.14085842800E+03  0.00000000000E+00 0. -1.
         24    2    1    2    0    0  0.14220917082E+01 -0.12690484914E+02  0.42944537865E+02  0.92117019078E+02  0.80487521512E+02 0.  0.
         23    2    1    2    0    0  0.31248305703E+02  0.37136988562E+02 -0.56659033419E+02  0.11875676350E+03  0.92397566422E+02 0.  0.
        -11    1    3    3    0    0 -0.38065537767E+02 -0.96791656227E+01  0.98150988837E+01  0.40484658560E+02  0.00000000000E+00 0.  1.
         12    1    3    3    0    0  0.39487629475E+02 -0.30113192911E+01  0.33129438981E+02  0.51632360518E+02  0.00000000000E+00 0. -1.
        -11    1    4    4    0    0  0.10672432319E+02 -0.31186392456E+02 -0.16157854230E+02  0.36709237793E+02  0.00000000000E+00 0.  1.
         11    1    4    4    0    0  0.20575873384E+02  0.68323381018E+02 -0.40501179189E+02  0.82047525709E+02  0.00000000000E+00 0. -1.
          1    1    1    2  501    0 -0.32670397411E+02 -0.24446503649E+02 -0.13992016446E+02  0.43136561429E+02  0.00000000000E+00 0. -1.
<scales pt_clust_5="13000.00000" pt_clust_6="13000.00000" pt_clust_7="13000.00000" pt_clust_8="13000.00000" pt_clust_9="40.80424"></scales>
<clustering>
<clus scale="   40.804">  2  9  1 -1</clus>
<clus scale="   80.488">  5  6 -1 -1</clus>
<clus scale="   82.684">  1  5  2 -1</clus>
<clus scale="   92.398">  7  8 -1 -1</clus>
<clus scale="   40.804">  2  5  1 -1</clus>
</clustering>
</event>
<event>
 9    2  0.1665830E-004  0.1037221E+03  0.7546771E-02  0.1277715E+00
          2   -1    0    0  502    0 -0.00000000000E+00  0.00000000000E+00  0.99531477324E+03  0.99531477324E+03  0.00000000000E+00 0. -1.
         21   -1    0    0  501  502  0.00000000000E+00 -0.00000000000E+00 -0.14258116848E+02  0.14258116848E+02  0.00000000000E+00 0. -1.
         24    2    1    2    0    0 -0.65801161372E+01  0.47291739556E+02  0.57664931594E+03  0.58403143523E+03  0.79299919313E+02 0.  0.
         23    2    1    2    0    0 -0.11570006033E+02 -0.59362783200E+02  0.30678365392E+03  0.32551385266E+03  0.90472387461E+02 0.  0.
        -13    1    3    3    0    0 -0.27331234048E+02 -0.45095599439E+01  0.89300196689E+02  0.93497901656E+02  0.00000000000E+00 0.  1.
         14    1    3    3    0    0  0.20751117911E+02  0.51801299500E+02  0.48734911925E+03  0.49053353358E+03  0.00000000000E+00 0. -1.
        -11    1    4    4    0    0  0.28312234297E+02 -0.41338474442E+01  0.34417783389E+02  0.44757738091E+02  0.00000000000E+00 0.  1.
         11    1    4    4    0    0 -0.39882240330E+02 -0.55228935756E+02  0.27236587053E+03  0.28075611457E+03  0.00000000000E+00 0. -1.
          1    1    1    2  501    0  0.18150122170E+02  0.12071043644E+02  0.97623686530E+02  0.10002760220E+03  0.00000000000E+00 0. -1.
<scales pt_clust_5="13000.00000" pt_clust_6="13000.00000" pt_clust_7="13000.00000" pt_clust_8="13000.00000" pt_clust_9="21.79765"></scales>
<clustering>
<clus scale="   21.798">  2  9  1 -1</clus>
<clus scale="   79.300">  5  6 -1 -1</clus>
<clus scale="   90.472">  7  8 -1 -1</clus>
<clus scale="   94.136">  1  5  2 -1</clus>
<clus scale="   21.798">  2  5  1 -1</clus>
</clustering>
</event>
<event>
 9    2  0.1665830E-004  0.1376082E+03  0.7546771E-02  0.1218170E+00
         -3   -1    0    0    0  501 -0.00000000000E+00  0.00000000000E+00  0.10259541235E+03  0.10259541235E+03  0.00000000000E+00 0.  1.
         21   -1    0    0  501  502  0.00000000000E+00 -0.00000000000E+00 -0.27924566815E+03  0.27924566815E+03  0.00000000000E+00 0.  1.
         23    2    1    2    0    0  0.94059156254E+02  0.23671997330E+02 -0.13514979963E+02  0.13212055572E+03  0.88688771711E+02 0.  0.
         24    2    1    2    0    0 -0.12149551668E+03 -0.35910246223E+02 -0.15961528234E+03  0.21947289737E+03  0.81489925558E+02 0.  0.
        -11    1    4    4    0    0 -0.10225026865E+03  0.58000408724E+01 -0.12693047803E+03  0.16309538364E+03  0.00000000000E+00 0.  1.
         12    1    4    4    0    0 -0.19245248027E+02 -0.41710287096E+02 -0.32684804310E+02  0.56377513727E+02  0.00000000000E+00 0. -1.
        -11    1    3    3    0    0  0.22023363068E+02 -0.23339717869E+02  0.22159250023E+02  0.38997478285E+02  0.00000000000E+00 0.  1.
         11    1    3    3    0    0  0.72035793187E+02  0.47011715198E+02 -0.35674229986E+02  0.93123077435E+02  0.00000000000E+00 0. -1.
         -4    1    1    2    0  502  0.27436360421E+02  0.12238248893E+02 -0.35199934938E+01  0.30247627400E+02  0.00000000000E+00 0.  1.
<scales pt_clust_5="13000.00000" pt_clust_6="13000.00000" pt_clust_7="13000.00000" pt_clust_8="13000.00000" pt_clust_9="30.04213"></scales>
<clustering>
<clus scale="   30.042">  2  9  1 -1</clus>
<clus scale="   81.490">  5  6 -1 -1</clus>
<clus scale="   88.689">  7  8 -1 -1</clus>
<clus scale="  133.082">  2  5  1 -1</clus>
<clus scale="   30.042">  2  5  1 -1</clus>
</clustering>
</event>
<event>
 9    2  0.1820381E-004  0.9328097E+02  0.7546771E-02  0.1299332E+00
         21   -1    0    0  501  502  0.00000000000E+00  0.00000000000E+00  0.22382390528E+03  0.22382390528E+03  0.00000000000E+00 0. -1.
          2   -1    0    0  502    0 -0.00000000000E+00 -0.00000000000E+00 -0.33071660496E+03  0.33071660496E+03  0.00000000000E+00 0. -1.
         24    2    1    2    0    0 -0.15873954091E+02 -0.25502323943E+01 -0.27439976823E+03  0.28767128690E+03  0.84859003053E+02 0.  0.
         23    2    1    2    0    0  0.97905487311E+01 -0.42459687303E+02  0.92447467998E+01  0.10221849247E+03  0.92002581314E+02 0.  0.
        -13    1    3    3    0    0  0.35003554143E+02  0.19861424014E+01 -0.12211463803E+03  0.12704793736E+03  0.00000000000E+00 0.  1.
         14    1    3    3    0    0 -0.50877508234E+02 -0.45363747958E+01 -0.15228513020E+03  0.16062334955E+03  0.00000000000E+00 0. -1.
        -13    1    4    4    0    0  0.16662074942E+02 -0.18226144256E+02  0.49163466743E+02  0.55016938646E+02  0.00000000000E+00 0.  1.
         13    1    4    4    0    0 -0.68715262109E+01 -0.24233543047E+02 -0.39918719943E+02  0.47201553820E+02  0.00000000000E+00 0. -1.
          1    1    1    2  501    0  0.60834053595E+01  0.45009919697E+02  0.15826232175E+03  0.16465073088E+03  0.00000000000E+00 0. -1.
<scales pt_clust_5="13000.00000" pt_clust_6="13000.00000" pt_clust_7="13000.00000" pt_clust_8="13000.00000" pt_clust_9="45.41917"></scales>
<clustering>
<clus scale="   45.419">  1  9  2 -1</clus>
<clus scale="   84.859">  5  6 -1 -1</clus>
<clus scale="   86.243">  2  5  1 -1</clus>
<clus scale="   92.003">  7  8 -1 -1</clus>
<clus scale="   45.419">  1  5  2 -1</clus>
</clustering>
</event>
<event>
 9    2  0.1665830E-004  0.1763682E+03  0.7546771E-02  0.1173196E+00
         21   -1    0    0  501  502  0.00000000000E+00  0.00000000000E+00  0.10598850179E+03  0.10598850179E+03  0.00000000000E+00 0.  1.
          2   -1    0    0  502    0 -0.00000000000E+00 -0.00000000000E+00 -0.35256565574E+03  0.35256565574E+03  0.00000000000E+00 0. -1.
         24    2    1    2    0    0  0.62289253571E+02 -0.12313967290E+03 -0.80961807602E+02  0.17873368776E+03  0.79671743405E+02 0.  0.
         23    2    1    2    0    0 -0.91716644764E+02  0.13358653380E+03 -0.11341278030E+03  0.21899106769E+03  0.94007042565E+02 0.  0.
        -13    1    3    3    0    0 -0.62688812837E+01 -0.52905202354E+02 -0.29472500824E+01  0.53356776436E+02  0.00000000000E+00 0.  1.
         14    1    3    3    0    0  0.68558134855E+02 -0.70234470546E+02 -0.78014557519E+02  0.12537691132E+03  0.00000000000E+00 0. -1.
        -13    1    4    4    0    0 -0.24280272424E+02  0.46707703971E+02 -0.93388060057E+02  0.10720294306E+03  0.00000000000E+00 0. -1.
         13    1    4    4    0    0 -0.67436372340E+02  0.86878829830E+02 -0.20024720241E+02  0.11178812463E+03  0.00000000000E+00 0.  1.
          1    1    1    2  501    0  0.29427391192E+02 -0.10446860901E+02 -0.52202566055E+02  0.60829402083E+02  0.00000000000E+00 0. -1.
<scales pt_clust_5="13000.00000" pt_clust_6="13000.00000" pt_clust_7="13000.00000" pt_clust_8="13000.00000" pt_clust_9="31.22674"></scales>
<clustering>
<clus scale="   31.227">  1  9  2 -1</clus>
<clus scale="   79.672">  5  6 -1 -1</clus>
<clus scale="   94.007">  7  8 -1 -1</clus>
<clus scale="  169.163">  2  5  1 -1</clus>
<clus scale="   31.227">  1  5  2 -1</clus>
</clustering>
</event>
<event>
 9    2  0.1665830E-004  0.1577398E+03  0.7546771E-02  0.1193484E+00
         21   -1    0    0  501  502  0.00000000000E+00  0.00000000000E+00  0.34531663731E+03  0.34531663731E+03  0.00000000000E+00 0.  1.
          2   -1    0    0  502    0 -0.00000000000E+00 -0.00000000000E+00 -0.11953684175E+03  0.11953684175E+03  0.00000000000E+00 0. -1.
         24    2    1    2    0    0  0.11223942539E+03 -0.58649607505E+02 -0.19231666150E+02  0.15113069848E+03  0.80207019454E+02 0.  0.
         23    2    1    2    0    0 -0.10185041106E+03  0.80761695230E+02  0.16438751301E+03  0.22947850988E+03  0.93494248006E+02 0.  0.
        -13    1    3    3    0    0  0.48918652103E+02  0.12114346879E+02  0.10792455433E+02  0.51539004823E+02  0.00000000000E+00 0.  1.
         14    1    3    3    0    0  0.63320773284E+02 -0.70763954384E+02 -0.30024121583E+02  0.99591693661E+02  0.00000000000E+00 0. -1.
        -11    1    4    4    0    0 -0.57562486606E+02  0.10898807501E+02  0.12460703710E+03  0.13769218410E+03  0.00000000000E+00 0.  1.
         11    1    4    4    0    0 -0.44287924457E+02  0.69862887729E+02  0.39780475915E+02  0.91786325772E+02  0.00000000000E+00 0. -1.
          1    1    1    2  501    0 -0.10389014324E+02 -0.22112087726E+02  0.80623948699E+02  0.84244270702E+02  0.00000000000E+00 0. -1.
<scales pt_clust_5="13000.00000" pt_clust_6="13000.00000" pt_clust_7="13000.00000" pt_clust_8="13000.00000" pt_clust_9="24.43105"></scales>
<clustering>
<clus scale="   24.431">  1  9  2 -1</clus>
<clus scale="   80.207">  5  6 -1 -1</clus>
<clus scale="   93.494">  7  8 -1 -1</clus>
<clus scale="  150.246">  2  5  1 -1</clus>
<clus scale="   24.431">  1  5  2 -1</clus>
</clustering>
</event>
<event>
 9    2  0.1665830E-004  0.1768626E+03  0.7546771E-02  0.1171759E+00
          2   -1    0    0  502    0 -0.00000000000E+00  0.00000000000E+00  0.63038719718E+03  0.63038719718E+03  0.00000000000E+00 0. -1.
         21   -1    0    0  501  502  0.00000000000E+00 -0.00000000000E+00 -0.83149143114E+02  0.83149143114E+02  0.00000000000E+00 0. -1.
         23    2    1    2    0    0  0.40068744196E+02 -0.17121143845E+03  0.28003059117E+03  0.33892567953E+03  0.74395049148E+02 0.  0.
         24    2    1    2    0    0 -0.18547661285E+01  0.12618389127E+03  0.65222367682E+02  0.16416882363E+03  0.82289919395E+02 0.  0.
        -11    1    4    4    0    0 -0.36973997057E+02  0.62222555397E+02  0.10889295218E+02  0.73193576281E+02  0.00000000000E+00 0.  1.
         12    1    4    4    0    0  0.35119230928E+02  0.63961335872E+02  0.54333072464E+02  0.90975247353E+02  0.00000000000E+00 0. -1.
        -11    1    3    3    0    0  0.28360985094E+02 -0.25435992688E+02  0.99807560139E+02  0.10683110156E+03  0.00000000000E+00 0.  1.
         11    1    3    3    0    0  0.11707759102E+02 -0.14577544576E+03  0.18022303103E+03  0.23209457797E+03  0.00000000000E+00 0. -1.
          1    1    1    2  501    0 -0.38213978068E+02  0.45027547182E+02  0.20198509521E+03  0.21044183712E+03  0.00000000000E+00 0. -1.
<scales pt_clust_5="13000.00000" pt_clust_6="13000.00000" pt_clust_7="13000.00000" pt_clust_8="13000.00000" pt_clust_9="59.05753"></scales>
<clustering>
<clus scale="   59.058">  2  9  1 -1</clus>
<clus scale="   74.395">  7  8 -1 -1</clus>
<clus scale="   82.290">  5  6 -1 -1</clus>
<clus scale="  173.330">  1  7  2 -1</clus>
<clus scale="   59.058">  2  5  1 -1</clus>
</clustering>
</event>
<event>
 9    2  0.1665830E-004  0.1894138E+03  0.7546771E-02  0.1160099E+00
         21   -1    0    0  501  502  0.00000000000E+00  0.00000000000E+00  0.23878580244E+03  0.23878580244E+03  0.00000000000E+00 0. -1.
          2   -1    0    0  502    0 -0.00000000000E+00 -0.00000000000E+00 -0.55618956580E+03  0.55618956580E+03  0.00000000000E+00 0. -1.
         24    2    1    2    0    0  0.22192793518E+02 -0.16737169408E+03 -0.49142957701E+03  0.52581247952E+03  0.80435877549E+02 0.  0.
         23    2    1    2    0    0 -0.33684314940E+02  0.13714821315E+03  0.12088623899E+03  0.20695896394E+03  0.90962984425E+02 0.  0.
        -11    1    3    3    0    0  0.21652519110E+02 -0.59317788328E+02 -0.88981479898E+02  0.10911065649E+03  0.00000000000E+00 0.  1.
         12    1    3    3    0    0  0.54027440767E+00 -0.10805390575E+03 -0.40244809711E+03  0.41670182302E+03  0.00000000000E+00 0. -1.
        -13    1    4    4    0    0 -0.37789830287E+02  0.80786211940E+01  0.23615408076E+02  0.45288220236E+02  0.00000000000E+00 0. -1.
         13    1    4    4    0    0  0.41055153471E+01  0.12906959195E+03  0.97270830913E+02  0.16167074370E+03  0.00000000000E+00 0.  1.
          1    1    1    2  501    0  0.11491521422E+02  0.30223480936E+02  0.53139574650E+02  0.62203924784E+02  0.00000000000E+00 0. -1.
<scales pt_clust_5="13000.00000" pt_clust_6="13000.00000" pt_clust_7="13000.00000" pt_clust_8="13000.00000" pt_clust_9="32.33441"></scales>
<clustering>
<clus scale="   32.334">  1  9  2 -1</clus>
<clus scale="   80.436">  5  6 -1 -1</clus>
<clus scale="   90.963">  7  8 -1 -1</clus>
<clus scale="  184.589">  2  5  1 -1</clus>
<clus scale="   32.334">  1  5  2 -1</clus>
</clustering>
</event>
<event>
 9    2  0.1665830E-004  0.1051702E+03  0.7546771E-02  0.1276464E+00
         -3   -1    0    0    0  501 -0.00000000000E+00  0.00000000000E+00  0.67501783099E+03  0.67501783099E+03  0.00000000000E+00 0.  1.
         21   -1    0    0  501  502  0.00000000000E+00 -0.00000000000E+00 -0.11313207043E+03  0.11313207043E+03  0.00000000000E+00 0.  1.
         23    2    1    2    0    0  0.61609374529E+02 -0.20580626097E+01  0.57804571899E+03  0.58854993749E+03  0.91946859797E+02 0.  0.
         24    2    1    2    0    0 -0.14741902749E+02  0.59861962123E+00  0.67599957959E+02  0.10360822741E+03  0.77118275588E+02 0.  0.
        -13    1    4    4    0    0 -0.26343225421E+02  0.27584115164E+02  0.10766583523E+02  0.39632918839E+02  0.00000000000E+00 0.  1.
         14    1    4    4    0    0  0.11601322672E+02 -0.26985495543E+02  0.56833374436E+02  0.63975308575E+02  0.00000000000E+00 0. -1.
        -13    1    3    3    0    0  0.18317126199E+02 -0.45693858363E+02  0.25523017924E+03  0.25993439596E+03  0.00000000000E+00 0.  1.
         13    1    3    3    0    0  0.43292248331E+02  0.43635795754E+02  0.32281553975E+03  0.32861554154E+03  0.00000000000E+00 0. -1.
         -4    1    1    2    0  502 -0.46867471781E+02  0.14594429885E+01 -0.83759916394E+02  0.95991736516E+02  0.00000000000E+00 0.  1.
<scales pt_clust_5="13000.00000" pt_clust_6="13000.00000" pt_clust_7="13000.00000" pt_clust_8="13000.00000" pt_clust_9="46.89019"></scales>
<clustering>
<clus scale="   46.890">  2  9  1 -1</clus>
<clus scale="   77.118">  5  6 -1 -1</clus>
<clus scale="   91.947">  7  8 -1 -1</clus>
<clus scale="   92.487">  2  5  1 -1</clus>
<clus scale="   46.890">  2  5  1 -1</clus>
</clustering>
</event>
<event>
 9    2  0.1665830E-004  0.1256753E+03  0.7546771E-02  0.1241976E+00
         21   -1    0    0  501  502  0.00000000000E+00  0.00000000000E+00  0.43063341600E+03  0.43063341600E+03  0.00000000000E+00 0.  1.
         -1   -1    0    0    0  501 -0.00000000000E+00 -0.00000000000E+00 -0.64782591544E+02  0.64782591544E+02  0.00000000000E+00 0.  1.
         24    2    1    2    0    0  0.39676896417E+02  0.60322202121E+02  0.13705917499E+03  0.17379449762E+03  0.78779983349E+02 0.  0.
         23    2    1    2    0    0  0.61724632482E+02 -0.86553696530E+01  0.11365017517E+03  0.15972867271E+03  0.93338314150E+02 0.  0.
        -13    1    3    3    0    0  0.58941851171E+02  0.45513565697E+02  0.12755694591E+03  0.14770376072E+03  0.00000000000E+00 0.  1.
         14    1    3    3    0    0 -0.19264954754E+02  0.14808636424E+02  0.95022290811E+01  0.26090736899E+02  0.00000000000E+00 0. -1.
        -11    1    4    4    0    0  0.11835375688E+02 -0.46156653537E+02  0.65001808198E+02  0.80596202468E+02  0.00000000000E+00 0.  1.
         11    1    4    4    0    0  0.49889256795E+02  0.37501283884E+02  0.48648366977E+02  0.79132470238E+02  0.00000000000E+00 0. -1.
         -2    1    1    2    0  502 -0.10140152890E+03 -0.51666832468E+02  0.11514147429E+03  0.16189283722E+03  0.00000000000E+00 0.  1.
<scales pt_clust_5="13000.00000" pt_clust_6="13000.00000" pt_clust_7="13000.00000" pt_clust_8="13000.00000" pt_clust_9="84.15609"></scales>
<clustering>
<clus scale="   78.780">  5  6 -1 -1</clus>
<clus scale="   93.338">  7  8 -1 -1</clus>
<clus scale="  106.861">  2  5  1 -1</clus>
<clus scale="   84.156">  1  9  2 -1</clus>
<clus scale="   84.156">  1  5  2 -1</clus>
</clustering>
</event>
<event>
 9    2  0.1665830E-004  0.9873378E+02  0.7546771E-02  0.1290117E+00
          2   -1    0    0  502    0 -0.00000000000E+00  0.00000000000E+00  0.32566739565E+03  0.32566739565E+03  0.00000000000E+00 0. -1.
         21   -1    0    0  501  502  0.00000000000E+00 -0.00000000000E+00 -0.14247507671E+03  0.14247507671E+03  0.00000000000E+00 0.  1.
         24    2    1    2    0    0 -0.25733146457E+02  0.27305441915E+02  0.25570554487E+03  0.27041889287E+03  0.79581844428E+02 0.  0.
         23    2    1    2    0    0 -0.19904676301E+02  0.18940938894E+02 -0.88054770301E+02  0.13091730579E+03  0.92901792654E+02 0.  0.
        -11    1    3    3    0    0  0.17352292769E+02  0.30691332273E+02  0.17842014172E+03  0.18187030245E+03  0.00000000000E+00 0.  1.
         12    1    3    3    0    0 -0.43085439226E+02 -0.33858903582E+01  0.77285403146E+02  0.88548590425E+02  0.00000000000E+00 0. -1.
        -11    1    4    4    0    0 -0.54762452648E+01 -0.36290706190E+02 -0.19018568945E+02  0.41336552622E+02  0.00000000000E+00 0.  1.
         11    1    4    4    0    0 -0.14428431036E+02  0.55231645084E+02 -0.69036201356E+02  0.89580753170E+02  0.00000000000E+00 0. -1.
          1    1    1    2  501    0  0.45637822758E+02 -0.46246380809E+02  0.15541544376E+02  0.66806273699E+02  0.00000000000E+00 0. -1.
<scales pt_clust_5="13000.00000" pt_clust_6="13000.00000" pt_clust_7="13000.00000" pt_clust_8="13000.00000" pt_clust_9="64.97337"></scales>
<clustering>
<clus scale="   64.973">  2  9  1 -1</clus>
<clus scale="   79.582">  5  6 -1 -1</clus>
<clus scale="   86.319">  1  5  2 -1</clus>
<clus scale="   92.902">  7  8 -1 -1</clus>
<clus scale="   64.973">  2  5  1 -1</clus>
</clustering>
</event>
<event>
 9    2  0.1665830E-004  0.1146867E+03  0.7546771E-02  0.1256204E+00
         21   -1    0    0  501  502  0.00000000000E+00  0.00000000000E+00  0.74759057424E+02  0.74759057424E+02  0.00000000000E+00 0. -1.
          2   -1    0    0  502    0 -0.00000000000E+00 -0.00000000000E+00 -0.18593550835E+04  0.18593550835E+04  0.00000000000E+00 0. -1.
         24    2    1    2    0    0 -0.71280853089E+02 -0.28576908815E+02 -0.12710611615E+04  0.12759031071E+04  0.80216349357E+02 0.  0.
         23    2    1    2    0    0  0.14231651010E+02  0.73670806017E+02 -0.55968720754E+03  0.57208258454E+03  0.91644889098E+02 0.  0.
        -11    1    3    3    0    0 -0.35029666530E+02  0.13808758327E+02 -0.20805028539E+03  0.21143008441E+03  0.00000000000E+00 0.  1.
         12    1    3    3    0    0 -0.36251186559E+02 -0.42385667142E+02 -0.10630108761E+04  0.10644730226E+04  0.00000000000E+00 0. -1.
        -11    1    4    4    0    0  0.48143983940E+02  0.14581489533E+02 -0.24139059542E+03  0.24657632203E+03  0.00000000000E+00 0.  1.
         11    1    4    4    0    0 -0.33912332931E+02  0.59089316484E+02 -0.31829661212E+03  0.32550626251E+03  0.00000000000E+00 0. -1.
          1    1    1    2  501    0  0.57049202080E+02 -0.45093897201E+02  0.46152342935E+02  0.86128449313E+02  0.00000000000E+00 0. -1.
<scales pt_clust_5="13000.00000" pt_clust_6="13000.00000" pt_clust_7="13000.00000" pt_clust_8="13000.00000" pt_clust_9="72.71912"></scales>
<clustering>
<clus scale="   72.719">  1  9  2 -1</clus>
<clus scale="   80.216">  5  6 -1 -1</clus>
<clus scale="   91.645">  7  8 -1 -1</clus>
<clus scale="  105.778">  2  5  1 -1</clus>
<clus scale="   72.719">  1  5  2 -1</clus>
</clustering>
</event>
<event>
 9    2  0.1665830E-004  0.1801151E+03  0.7546771E-02  0.1169089E+00
         -3   -1    0    0    0  501 -0.00000000000E+00  0.00000000000E+00  0.18969962025E+03  0.18969962025E+03  0.00000000000E+00 0.  1.
         21   -1    0    0  501  502  0.00000000000E+00 -0.00000000000E+00 -0.34404489984E+03  0.34404489984E+03  0.00000000000E+00 0. -1.
         23    2    1    2    0    0 -0.89220217897E+01 -0.16161523311E+03 -0.31141109537E+02  0.18889325907E+03  0.92259463318E+02 0.  0.
         24    2    1    2    0    0 -0.41128404800E+02  0.13999269641E+03 -0.19381661169E+03  0.25563973594E+03  0.80605799390E+02 0.  0.
        -11    1    4    4    0    0 -0.29687785611E+02  0.28812225702E+02 -0.13544385355E+02  0.43531130689E+02  0.00000000000E+00 0.  1.
         12    1    4    4    0    0 -0.11440619189E+02  0.11118047071E+03 -0.18027222633E+03  0.21210860525E+03  0.00000000000E+00 0. -1.
        -13    1    3    3    0    0 -0.15063557326E+02 -0.20211150001E+02  0.26039678862E+02  0.36241774500E+02  0.00000000000E+00 0.  1.
         13    1    3    3    0    0  0.61415355361E+01 -0.14140408311E+03 -0.57180788399E+02  0.15265148457E+03  0.00000000000E+00 0. -1.
         -4    1    1    2    0  502  0.50050426590E+02  0.21622536702E+02  0.70612441633E+02  0.89211525089E+02  0.00000000000E+00 0.  1.
<scales pt_clust_5="13000.00000" pt_clust_6="13000.00000" pt_clust_7="13000.00000" pt_clust_8="13000.00000" pt_clust_9="54.52139"></scales>
<clustering>
<clus scale="   54.521">  2  9  1 -1</clus>
<clus scale="   80.606">  5  6 -1 -1</clus>
<clus scale="   92.259">  7  8 -1 -1</clus>
<clus scale="  174.433">  2  5  1 -1</clus>
<clus scale="   54.521">  2  5  1 -1</clus>
</clustering>
</event>
<event>
 9    2  0.1665830E-004  0.9503342E+02  0.7546771E-02  0.1293448E+00
          2   -1    0    0  502    0 -0.00000000000E+00  0.00000000000E+00  0.65923645456E+03  0.65923645456E+03  0.00000000000E+00 0. -1.
         21   -1    0    0  501  502  0.00000000000E+00 -0.00000000000E+00 -0.61897029955E+02  0.61897029955E+02  0.00000000000E+00 0. -1.
         24    2    1    2    0    0 -0.38175752517E+02  0.37580076909E+02  0.50164128632E+03  0.51105392410E+03  0.81624034045E+02 0.  0.
         23    2    1    2    0    0 -0.11486476043E+02 -0.50957953947E+02  0.12116203137E+03  0.15268866923E+03  0.76843605215E+02 0.  0.
        -11    1    3    3    0    0 -0.48949159018E+02  0.50971156736E+02  0.28121219594E+03  0.28995582101E+03  0.00000000000E+00 0.  1.
         12    1    3    3    0    0  0.10773406501E+02 -0.13391079827E+02  0.22042909038E+03  0.22109810309E+03  0.00000000000E+00 0. -1.
        -13    1    4    4    0    0  0.23067320465E+02 -0.46760287202E+02  0.97604780180E+02  0.11065856879E+03  0.00000000000E+00 0. -1.
         13    1    4    4    0    0 -0.34553796508E+02 -0.41976667445E+01  0.23557251193E+02  0.42030100440E+02  0.00000000000E+00 0.  1.
          1    1    1    2  501    0  0.49662228560E+02  0.13377877038E+02 -0.25463893091E+02  0.57390891184E+02  0.00000000000E+00 0. -1.
<scales pt_clust_5="13000.00000" pt_clust_6="13000.00000" pt_clust_7="13000.00000" pt_clust_8="13000.00000" pt_clust_9="51.43252"></scales>
<clustering>
<clus scale="   51.433">  2  9  1 -1</clus>
<clus scale="   76.844">  7  8 -1 -1</clus>
<clus scale="   81.624">  5  6 -1 -1</clus>
<clus scale="   90.960">  2  7  1 -1</clus>
<clus scale="   51.433">  2  5  1 -1</clus>
</clustering>
</event>
<event>
 9    2  0.1665830E-004  0.1086656E+03  0.7546771E-02  0.1265895E+00
         21   -1    0    0  501  502  0.00000000000E+00  0.00000000000E+00  0.33358548271E+03  0.33358548271E+03  0.00000000000E+00 0. -1.
          2   -1    0    0  502    0 -0.00000000000E+00 -0.00000000000E+00 -0.27318989687E+03  0.27318989687E+03  0.00000000000E+00 0. -1.
         24    2    1    2    0    0 -0.23275003824E+02 -0.70240908354E+02 -0.20811202367E+03  0.23516565190E+03  0.80726441963E+02 0.  0.
         23    2    1    2    0    0  0.45762456376E+02  0.70333462531E+01  0.49042857961E+01  0.99603121689E+02  0.88051459147E+02 0.  0.
        -11    1    3    3    0    0 -0.31672404600E+02 -0.76425563584E+02 -0.11607241038E+03  0.14253705635E+03  0.00000000000E+00 0.  1.
         12    1    3    3    0    0  0.83974007753E+01  0.61846552295E+01 -0.92039613287E+02  0.92628595553E+02  0.00000000000E+00 0. -1.
        -13    1    4    4    0    0  0.76128238747E+01  0.44908522823E+02 -0.69319229841E+00  0.45554484137E+02  0.00000000000E+00 0.  1.
         13    1    4    4    0    0  0.38149632501E+02 -0.37875176570E+02  0.55974780945E+01  0.54048637552E+02  0.00000000000E+00 0. -1.
          1    1    1    2  501    0 -0.22487452552E+02  0.63207562101E+02  0.26360332371E+03  0.27200660598E+03  0.00000000000E+00 0. -1.
<scales pt_clust_5="13000.00000" pt_clust_6="13000.00000" pt_clust_7="13000.00000" pt_clust_8="13000.00000" pt_clust_9="67.08861"></scales>
<clustering>
<clus scale="   67.089">  1  9  2 -1</clus>
<clus scale="   80.726">  5  6 -1 -1</clus>
<clus scale="   88.051">  7  8 -1 -1</clus>
<clus scale="  102.820">  2  5  1 -1</clus>
<clus scale="   67.089">  1  5  2 -1</clus>
</clustering>
</event>
<event>
 9    2  0.1665830E-004  0.1887761E+03  0.7546771E-02  0.1173038E+00
          2   -1    0    0  502    0 -0.00000000000E+00  0.00000000000E+00  0.13301310069E+04  0.13301310069E+04  0.00000000000E+00 0. -1.
         21   -1    0    0  501  502  0.00000000000E+00 -0.00000000000E+00 -0.77741996221E+02  0.77741996221E+02  0.00000000000E+00 0. -1.
         23    2    1    2    0    0 -0.10207467590E+03  0.24601919742E+02  0.61547189103E+02  0.15151129140E+03  0.90239243240E+02 0.  0.
         24    2    1    2    0    0 -0.42368746520E+02  0.13931004375E+03  0.38423169070E+03  0.42068776975E+03  0.90231970564E+02 0.  0.
        -11    1    4    4    0    0  0.26387913160E+02  0.57949045080E+02  0.12128118477E+03  0.13698006996E+03  0.00000000000E+00 0.  1.
         12    1    4    4    0    0 -0.68756659679E+02  0.81360998667E+02  0.26295050593E+03  0.28370769980E+03  0.00000000000E+00 0. -1.
        -11    1    3    3    0    0 -0.64800977881E+01  0.37928696929E+02  0.29360821279E+01  0.38590132111E+02  0.00000000000E+00 0.  1.
         11    1    3    3    0    0 -0.95594578109E+02 -0.13326777188E+02  0.58611106975E+02  0.11292115929E+03  0.00000000000E+00 0. -1.
          1    1    1    2  501    0  0.14444342242E+03 -0.16391196349E+03  0.80661013091E+03  0.83567394200E+03  0.00000000000E+00 0. -1.
<scales pt_clust_5="13000.00000" pt_clust_6="13000.00000" pt_clust_7="13000.00000" pt_clust_8="13000.00000" pt_clust_9="165.81506"></scales>
<clustering>
<clus scale="   90.232">  5  6 -1 -1</clus>
<clus scale="   90.239">  7  8 -1 -1</clus>
<clus scale="  138.447">  1  7  2 -1</clus>
<clus scale="  165.815">  2  9  1 -1</clus>
<clus scale="  165.815">  2  5  1 -1</clus>
</clustering>
</event>
<event>
 9    2  0.1665830E-004  0.1089645E+03  0.7546771E-02  0.1264880E+00
         -3   -1    0    0    0  501 -0.00000000000E+00  0.00000000000E+00  0.12229245813E+03  0.12229245813E+03  0.00000000000E+00 0.  1.
         21   -1    0    0  501  502  0.00000000000E+00 -0.00000000000E+00 -0.17867021509E+03  0.17867021509E+03  0.00000000000E+00 0.  1.
         24    2    1    2    0    0 -0.65295304289E+02  0.16245221641E+02  0.67606859026E+02  0.12622639203E+03  0.82674244285E+02 0.  0.
         23    2    1    2    0    0  0.44451647710E+02 -0.73195496628E+01 -0.10849511531E+03  0.14727630540E+03  0.88823393841E+02 0.  0.
        -11    1    3    3    0    0 -0.73638136531E+02 -0.84833023932E+01  0.67311436154E+02  0.10012677468E+03  0.00000000000E+00 0.  1.
         12    1    3    3    0    0  0.83428322428E+01  0.24728524034E+02  0.29542287197E+00  0.26099617342E+02  0.00000000000E+00 0. -1.
        -13    1    4    4    0    0  0.25176530028E+02 -0.23063201829E+02 -0.11628827486E+03  0.12119707840E+03  0.00000000000E+00 0.  1.
         13    1    4    4    0    0  0.19275117682E+02  0.15743652166E+02  0.77931595455E+01  0.26079227000E+02  0.00000000000E+00 0. -1.
         -4    1    1    2    0  502  0.20843656579E+02 -0.89256719783E+01 -0.15489500679E+02  0.27459975803E+02  0.00000000000E+00 0.  1.
<scales pt_clust_5="13000.00000" pt_clust_6="13000.00000" pt_clust_7="13000.00000" pt_clust_8="13000.00000" pt_clust_9="22.67434"></scales>
<clustering>
<clus scale="   22.674">  2  9  1 -1</clus>
<clus scale="   82.674">  5  6 -1 -1</clus>
<clus scale="   88.823">  7  8 -1 -1</clus>
<clus scale="  104.013">  1  5  2 -1</clus>
<clus scale="   22.674">  2  5  1 -1</clus>
</clustering>
</event>
<event>
 9    2  0.1665830E-004  0.1054783E+03  0.7546771E-02  0.1274145E+00
         -1   -1    0    0    0  501 -0.00000000000E+00  0.00000000000E+00  0.25810802956E+03  0.25810802956E+03  0.00000000000E+00 0.  1.
         21   -1    0    0  501  502  0.00000000000E+00 -0.00000000000E+00 -0.73407152421E+02  0.73407152421E+02  0.00000000000E+00 0.  1.
         23    2    1    2    0    0  0.58461457412E+02 -0.20175020707E+02  0.16204736424E+03  0.19567263787E+03  0.90574055292E+02 0.  0.
         24    2    1    2    0    0 -0.30583891298E+02  0.47430279117E+01 -0.15232354055E+02  0.86338564380E+02  0.79148293528E+02 0.  0.
        -13    1    4    4    0    0 -0.32223092715E+01  0.40091389912E+02 -0.55585171585E+01  0.40602954759E+02  0.00000000000E+00 0.  1.
         14    1    4    4    0    0 -0.27361582027E+02 -0.35348362000E+02 -0.96738368963E+01  0.45735609621E+02  0.00000000000E+00 0. -1.
        -13    1    3    3    0    0  0.30484183319E+02  0.31771002591E+02  0.10385193798E+03  0.11280029725E+03  0.00000000000E+00 0. -1.
         13    1    3    3    0    0  0.27977274093E+02 -0.51946023299E+02  0.58195426257E+02  0.82872340618E+02  0.00000000000E+00 0.  1.
         -2    1    1    2    0  502 -0.27877566114E+02  0.15431992796E+02  0.37885866957E+02  0.49503979731E+02  0.00000000000E+00 0.  1.
<scales pt_clust_5="13000.00000" pt_clust_6="13000.00000" pt_clust_7="13000.00000" pt_clust_8="13000.00000" pt_clust_9="31.86387"></scales>
<clustering>
<clus scale="   31.864">  2  9  1 -1</clus>
<clus scale="   79.148">  5  6 -1 -1</clus>
<clus scale="   90.574">  7  8 -1 -1</clus>
<clus scale="   95.846">  2  5  1 -1</clus>
<clus scale="   31.864">  2  5  1 -1</clus>
</clustering>
</event>
<event>
 9    2  0.1665830E-004  0.2048066E+03  0.7546771E-02  0.1175736E+00
          4   -1    0    0  502    0 -0.00000000000E+00  0.00000000000E+00  0.37367955555E+03  0.37367955555E+03  0.00000000000E+00 0. -1.
         21   -1    0    0  501  502  0.00000000000E+00 -0.00000000000E+00 -0.25770489159E+03  0.25770489159E+03  0.00000000000E+00 0. -1.
         24    2    1    2    0    0 -0.99213542337E+00  0.20716669733E+02  0.72031062224E+02  0.12484986559E+03  0.99844129900E+02 0.  0.
         23    2    1    2    0    0  0.92521245876E+02  0.15424843260E+03 -0.13279482307E+03  0.24153111762E+03  0.91378639987E+02 0.  0.
        -11    1    3    3    0    0  0.19880089976E+02  0.49406415769E+02  0.71768984680E+02  0.89370012077E+02  0.00000000000E+00 0.  1.
         12    1    3    3    0    0 -0.20872225400E+02 -0.28689746036E+02  0.26207754395E+00  0.35479853514E+02  0.00000000000E+00 0. -1.
        -13    1    4    4    0    0 -0.17013874495E+02  0.37999040015E+02 -0.33700927282E+02  0.53564460859E+02  0.00000000000E+00 0.  1.
         13    1    4    4    0    0  0.10953512037E+03  0.11624939258E+03 -0.99093895786E+02  0.18796665676E+03  0.00000000000E+00 0. -1.
          3    1    1    2  501    0 -0.91529110452E+02 -0.17496510233E+03  0.17673842480E+03  0.26500346393E+03  0.00000000000E+00 0. -1.
<scales pt_clust_5="13000.00000" pt_clust_6="13000.00000" pt_clust_7="13000.00000" pt_clust_8="13000.00000" pt_clust_9="183.29140"></scales>
<clustering>
<clus scale="   91.379">  7  8 -1 -1</clus>
<clus scale="   99.844">  5  6 -1 -1</clus>
<clus scale="  101.976">  1  5  2 -1</clus>
<clus scale="  183.291">  2  9  1 -1</clus>
<clus scale="  183.291">  2  5  1 -1</clus>
</clustering>
</event>
<event>
 9    2  0.1665830E-004  0.1026753E+03  0.7546771E-02  0.1280329E+00
         -1   -1    0    0    0  501 -0.00000000000E+00  0.00000000000E+00  0.11751396555E+03  0.11751396555E+03  0.00000000000E+00 0.  1.
         21   -1    0    0  501  502  0.00000000000E+00 -0.00000000000E+00 -0.12672016587E+03  0.12672016587E+03  0.00000000000E+00 0.  1.
         24    2    1    2    0    0 -0.38960605190E+02  0.78340550596E+01  0.33074408735E+02  0.95293428145E+02  0.80047609327E+02 0.  0.
         23    2    1    2    0    0  0.58298588590E+02 -0.26572708372E+02 -0.47346444142E+02  0.12154075045E+03  0.91791252220E+02 0.  0.
        -13    1    3    3    0    0  0.93505256989E+01  0.24241133589E+02  0.35759254270E+02  0.44201687235E+02  0.00000000000E+00 0.  1.
         14    1    3    3    0    0 -0.48311130889E+02 -0.16407078529E+02 -0.26848455349E+01  0.51091740910E+02  0.00000000000E+00 0. -1.
        -13    1    4    4    0    0  0.83065961850E+02 -0.14919051209E+02 -0.32812756338E+02  0.90549484181E+02  0.00000000000E+00 0.  1.
         13    1    4    4    0    0 -0.24767373260E+02 -0.11653657163E+02 -0.14533687804E+02  0.30991266264E+02  0.00000000000E+00 0. -1.
         -2    1    1    2    0  502 -0.19337983399E+02  0.18738653312E+02  0.50658350873E+01  0.27399952829E+02  0.00000000000E+00 0.  1.
<scales pt_clust_5="13000.00000" pt_clust_6="13000.00000" pt_clust_7="13000.00000" pt_clust_8="13000.00000" pt_clust_9="26.92760"></scales>
<clustering>
<clus scale="   26.928">  2  9  1 -1</clus>
<clus scale="   80.048">  5  6 -1 -1</clus>
<clus scale="   91.791">  7  8 -1 -1</clus>
<clus scale="   92.327">  1  5  2 -1</clus>
<clus scale="   26.928">  2  5  1 -1</clus>
</clustering>
</event>
<event>
 9    2  0.1665830E-004  0.1101178E+03  0.7546771E-02  0.1265047E+00
         21   -1    0    0  501  502  0.00000000000E+00  0.00000000000E+00  0.34104485742E+03  0.34104485742E+03  0.00000000000E+00 0. -1.
          2   -1    0    0  502    0 -0.00000000000E+00 -0.00000000000E+00 -0.11471118789E+03  0.11471118789E+03  0.00000000000E+00 0. -1.
         23    2    1    2    0    0  0.28865388058E+02 -0.51430014288E+02 -0.34120058752E+02  0.11514348847E+03  0.92820189235E+02 0.  0.
         24    2    1    2    0    0 -0.98248232793E+02  0.36530794344E+01  0.19907226722E+03  0.23638061160E+03  0.81116987897E+02 0.  0.
        -11    1    4    4    0    0 -0.29344206254E+02  0.33426630647E+02  0.37325563905E+02  0.58065650757E+02  0.00000000000E+00 0.  1.
         12    1    4    4    0    0 -0.68904026539E+02 -0.29773551212E+02  0.16174670332E+03  0.17831496084E+03  0.00000000000E+00 0. -1.
        -13    1    3    3    0    0  0.30828430742E+02  0.33719079998E+01  0.20951408581E+02  0.37426239820E+02  0.00000000000E+00 0.  1.
         13    1    3    3    0    0 -0.19630426842E+01 -0.54801922288E+02 -0.55071467333E+02  0.77717248646E+02  0.00000000000E+00 0. -1.
          1    1    1    2  501    0  0.69382844736E+02  0.47776934853E+02  0.61381461057E+02  0.10423194524E+03  0.00000000000E+00 0. -1.
<scales pt_clust_5="13000.00000" pt_clust_6="13000.00000" pt_clust_7="13000.00000" pt_clust_8="13000.00000" pt_clust_9="84.24141"></scales>
<clustering>
<clus scale="   81.117">  5  6 -1 -1</clus>
<clus scale="   84.241">  1  9  2 -1</clus>
<clus scale="   92.820">  7  8 -1 -1</clus>
<clus scale="  100.450">  1  5  2 -1</clus>
<clus scale="   84.241">  1  5  2 -1</clus>
</clustering>
</event>
<event>
 9    2  0.1665830E-004  0.1399427E+03  0.7546771E-02  0.1219006E+00
          2   -1    0    0  502    0 -0.00000000000E+00  0.00000000000E+00  0.77889468493E+03  0.77889468493E+03  0.00000000000E+00 0. -1.
         21   -1    0    0  501  502  0.00000000000E+00 -0.00000000000E+00 -0.37032751169E+02  0.37032751169E+02  0.00000000000E+00 0. -1.
         23    2    1    2    0    0  0.36503606292E+02 -0.96872669361E+02  0.27494852492E+03  0.30806058880E+03  0.92670425004E+02 0.  0.
         24    2    1    2    0    0 -0.72862647974E+02  0.82614398134E+02  0.19856234147E+03  0.23668872583E+03  0.66786564772E+02 0.  0.
        -11    1    4    4    0    0 -0.40129561517E+02  0.11292464968E+02  0.31959764039E+02  0.52529306012E+02  0.00000000000E+00 0.  1.
         12    1    4    4    0    0 -0.32733086456E+02  0.71321933167E+02  0.16660257743E+03  0.18415941982E+03  0.00000000000E+00 0. -1.
        -13    1    3    3    0    0 -0.13617618850E+02 -0.81415565917E+02  0.13083296573E+03  0.15469711969E+03  0.00000000000E+00 0. -1.
         13    1    3    3    0    0  0.50121225142E+02 -0.15457103443E+02  0.14411555919E+03  0.15336346911E+03  0.00000000000E+00 0.  1.
          1    1    1    2  501    0  0.36359041682E+02  0.14258271226E+02  0.26835106737E+03  0.27117812148E+03  0.00000000000E+00 0. -1.
<scales pt_clust_5="13000.00000" pt_clust_6="13000.00000" pt_clust_7="13000.00000" pt_clust_8="13000.00000" pt_clust_9="39.05483"></scales>
<clustering>
<clus scale="   39.055">  2  9  1 -1</clus>
<clus scale="   66.787">  5  6 -1 -1</clus>
<clus scale="   92.670">  7  8 -1 -1</clus>
<clus scale="  124.325">  2  5  1 -1</clus>
<clus scale="   39.055">  2  5  1 -1</clus>
</clustering>
</event>
<event>
 9    2  0.1665830E-004  0.1229936E+03  0.7546771E-02  0.1241262E+00
         -1   -1    0    0    0  501 -0.00000000000E+00  0.00000000000E+00  0.94698309467E+03  0.94698309467E+03  0.00000000000E+00 0.  1.
         21   -1    0    0  501  502  0.00000000000E+00 -0.00000000000E+00 -0.35179297558E+02  0.35179297558E+02  0.00000000000E+00 0. -1.
         23    2    1    2    0    0 -0.67620685428E+02  0.10233162512E+02  0.22771142906E+03  0.25438847134E+03  0.90463941506E+02 0.  0.
         24    2    1    2    0    0  0.10497624958E+03  0.40431936290E+02  0.22249391198E+03  0.26190320378E+03  0.80218407091E+02 0.  0.
        -11    1    4    4    0    0  0.34701774615E+02  0.51539685458E+02  0.13868711538E+03  0.15196930055E+03  0.00000000000E+00 0.  1.
         12    1    4    4    0    0  0.70274474961E+02 -0.11107749168E+02  0.83806796598E+02  0.10993390323E+03  0.00000000000E+00 0. -1.
        -13    1    3    3    0    0  0.74207067598E+01 -0.27424895106E+02  0.73541909663E+02  0.78839103478E+02  0.00000000000E+00 0.  1.
         13    1    3    3    0    0 -0.75041392188E+02  0.37658057618E+02  0.15416951939E+03  0.17554936786E+03  0.00000000000E+00 0. -1.
         -2    1    1    2    0  502 -0.37355564148E+02 -0.50665098802E+02  0.46159845608E+03  0.46587071712E+03  0.00000000000E+00 0.  1.
<scales pt_clust_5="13000.00000" pt_clust_6="13000.00000" pt_clust_7="13000.00000" pt_clust_8="13000.00000" pt_clust_9="62.94755"></scales>
<clustering>
<clus scale="   62.948">  2  9  1 -1</clus>
<clus scale="   80.218">  5  6 -1 -1</clus>
<clus scale="   90.464">  7  8 -1 -1</clus>
<clus scale="  115.666">  2  5  1 -1</clus>
<clus scale="   62.948">  2  5  1 -1</clus>
</clustering>
</event>
<event>
 9    2  0.1665830E-004  0.1336274E+03  0.7546771E-02  0.1241122E+00
         21   -1    0    0  501  502  0.00000000000E+00  0.00000000000E+00  0.29936825911E+03  0.29936825911E+03  0.00000000000E+00 0.  1.
         -3   -1    0    0    0  501 -0.00000000000E+00 -0.00000000000E+00 -0.11234966368E+03  0.11234966368E+03  0.00000000000E+00 0.  1.
         24    2    1    2    0    0 -0.41981929730E+02 -0.11844299487E+02  0.55482756911E+02  0.10610842892E+03  0.79233152902E+02 0.  0.
         23    2    1    2    0    0 -0.53169873724E+02 -0.33393481353E+02 -0.28109235518E+02  0.11433254235E+03  0.91321635176E+02 0.  0.
        -13    1    3    3    0    0  0.76251889452E+01 -0.34112950332E+02  0.13742821961E+02  0.37559313655E+02  0.00000000000E+00 0.  1.
         14    1    3    3    0    0 -0.49607118676E+02  0.22268650845E+02  0.41739934950E+02  0.68549115263E+02  0.00000000000E+00 0. -1.
        -13    1    4    4    0    0 -0.26759311208E+02  0.22141960138E+02 -0.38624995172E+02  0.51944368194E+02  0.00000000000E+00 0.  1.
         13    1    4    4    0    0 -0.26410562515E+02 -0.55535441491E+02  0.10515759653E+02  0.62388174160E+02  0.00000000000E+00 0. -1.
         -4    1    1    2    0  502  0.95151803454E+02  0.45237780840E+02  0.15964507404E+03  0.19127695152E+03  0.00000000000E+00 0.  1.
<scales pt_clust_5="13000.00000" pt_clust_6="13000.00000" pt_clust_7="13000.00000" pt_clust_8="13000.00000" pt_clust_9="97.55327"></scales>
<clustering>
<clus scale="   79.233">  5  6 -1 -1</clus>
<clus scale="   90.447">  2  5  1 -1</clus>
<clus scale="   91.322">  7  8 -1 -1</clus>
<clus scale="   97.553">  1  9  2 -1</clus>
<clus scale="   97.553">  1  5  2 -1</clus>
</clustering>
</event>
<event>
 9    2  0.1665830E-004  0.2741996E+03  0.7546771E-02  0.1099312E+00
         21   -1    0    0  501  502  0.00000000000E+00  0.00000000000E+00  0.69372494945E+03  0.69372494945E+03  0.00000000000E+00 0. -1.
          2   -1    0    0  502    0 -0.00000000000E+00 -0.00000000000E+00 -0.18501265673E+03  0.18501265673E+03  0.00000000000E+00 0. -1.
         23    2    1    2    0    0 -0.21346116903E+03  0.18047660182E+03  0.19660770518E+02  0.29479304663E+03  0.91536440595E+02 0.  0.
         24    2    1    2    0    0  0.16333663238E+03 -0.11228679475E+03  0.43047401051E+03  0.48101913101E+03  0.82367171406E+02 0.  0.
        -13    1    4    4    0    0  0.43730705849E+02 -0.10662854236E+01  0.46970455974E+02  0.64185164431E+02  0.00000000000E+00 0.  1.
         14    1    4    4    0    0  0.11960592653E+03 -0.11122050932E+03  0.38350355454E+03  0.41683396658E+03  0.00000000000E+00 0. -1.
        -11    1    3    3    0    0 -0.19607410195E+03  0.16810709081E+03 -0.97497958747E+01  0.25845716464E+03  0.00000000000E+00 0. -1.
         11    1    3    3    0    0 -0.17387067083E+02  0.12369511006E+02  0.29410566393E+02  0.36335881988E+02  0.00000000000E+00 0.  1.
          1    1    1    2  501    0  0.50124536654E+02 -0.68189807071E+02  0.58577511688E+02  0.10292542853E+03  0.00000000000E+00 0. -1.
<scales pt_clust_5="13000.00000" pt_clust_6="13000.00000" pt_clust_7="13000.00000" pt_clust_8="13000.00000" pt_clust_9="84.63053"></scales>
<clustering>
<clus scale="   82.367">  5  6 -1 -1</clus>
<clus scale="   84.631">  1  9  2 -1</clus>
<clus scale="   91.536">  7  8 -1 -1</clus>
<clus scale="  271.276">  1  5  2 -1</clus>
<clus scale="   84.631">  1  5  2 -1</clus>
</clustering>
</event>
<event>
 9    2  0.1665830E-004  0.1528069E+03  0.7546771E-02  0.1198471E+00
         21   -1    0    0  501  502  0.00000000000E+00  0.00000000000E+00  0.13857933551E+03  0.13857933551E+03  0.00000000000E+00 0.  1.
         -1   -1    0    0    0  501 -0.00000000000E+00 -0.00000000000E+00 -0.45811703534E+03  0.45811703534E+03  0.00000000000E+00 0.  1.
         23    2    1    2    0    0 -0.12646512169E+03  0.84255531744E+02 -0.31868691315E+03  0.36470148852E+03  0.91396966491E+02 0.  0.
         24    2    1    2    0    0  0.82185495803E+02  0.58917211648E+01 -0.40415445632E+02  0.12404779014E+03  0.83458240418E+02 0.  0.
        -11    1    4    4    0    0  0.12985848861E+02  0.16794668190E+02  0.21746696018E+02  0.30390984484E+02  0.00000000000E+00 0.  1.
         12    1    4    4    0    0  0.69199646942E+02 -0.10902947025E+02 -0.62162141649E+02  0.93656805653E+02  0.00000000000E+00 0. -1.
        -11    1    3    3    0    0 -0.10371712555E+03  0.62032814316E+02 -0.30847042706E+03  0.33129943639E+03  0.00000000000E+00 0.  1.
         11    1    3    3    0    0 -0.22747996138E+02  0.22222717428E+02 -0.10216486087E+02  0.33402052125E+02  0.00000000000E+00 0. -1.
         -2    1    1    2    0  502  0.44279625883E+02 -0.90147252909E+02  0.39564658942E+02  0.10794709219E+03  0.00000000000E+00 0.  1.
<scales pt_clust_5="13000.00000" pt_clust_6="13000.00000" pt_clust_7="13000.00000" pt_clust_8="13000.00000" pt_clust_9="100.43512"></scales>
<clustering>
<clus scale="   83.458">  5  6 -1 -1</clus>
<clus scale="   91.397">  7  8 -1 -1</clus>
<clus scale="  100.435">  1  9  2 -1</clus>
<clus scale="  148.195">  1  5  2 -1</clus>
<clus scale="  100.435">  1  5  2 -1</clus>
</clustering>
</event>
<event>
 9    2  0.1665830E-004  0.1672266E+03  0.7546771E-02  0.1182193E+00
          2   -1    0    0  502    0 -0.00000000000E+00  0.00000000000E+00  0.10742802054E+04  0.10742802054E+04  0.00000000000E+00 0. -1.
         21   -1    0    0  501  502  0.00000000000E+00 -0.00000000000E+00 -0.94234823283E+02  0.94234823283E+02  0.00000000000E+00 0.  1.
         24    2    1    2    0    0 -0.11668451711E+03  0.74902059796E+02  0.82694529860E+03  0.84231949493E+03  0.80237208127E+02 0.  0.
         23    2    1    2    0    0  0.80611002880E+02 -0.15623142474E+03  0.12016845157E+03  0.23132585253E+03  0.90359290805E+02 0.  0.
        -11    1    3    3    0    0 -0.22722731987E+02 -0.20179272750E+01  0.39893711413E+02  0.45955443527E+02  0.00000000000E+00 0.  1.
         12    1    3    3    0    0 -0.93961785126E+02  0.76919987071E+02  0.78705158719E+03  0.79636405141E+03  0.00000000000E+00 0. -1.
        -11    1    4    4    0    0  0.49248593300E+02 -0.14750396847E+03  0.67760173889E+02  0.16962984944E+03  0.00000000000E+00 0.  1.
         11    1    4    4    0    0  0.31362409580E+02 -0.87274562726E+01  0.52408277684E+02  0.61696003091E+02  0.00000000000E+00 0. -1.
          1    1    1    2  501    0  0.36073514234E+02  0.81329364948E+02  0.32931631948E+02  0.94869681220E+02  0.00000000000E+00 0. -1.
<scales pt_clust_5="13000.00000" pt_clust_6="13000.00000" pt_clust_7="13000.00000" pt_clust_8="13000.00000" pt_clust_9="88.97058"></scales>
<clustering>
<clus scale="   80.237">  5  6 -1 -1</clus>
<clus scale="   88.971">  2  9  1 -1</clus>
<clus scale="   90.359">  7  8 -1 -1</clus>
<clus scale="  161.981">  1  5  2 -1</clus>
<clus scale="   88.971">  2  5  1 -1</clus>
</clustering>
</event>
<event>
 9    2  0.1665830E-004  0.9327040E+02  0.7546771E-02  0.1301142E+00
         21   -1    0    0  501  502  0.00000000000E+00  0.00000000000E+00  0.19710835925E+03  0.19710835925E+03  0.00000000000E+00 0.  1.
          4   -1    0    0  502    0 -0.00000000000E+00 -0.00000000000E+00 -0.15534846227E+03  0.15534846227E+03  0.00000000000E+00 0. -1.
         24    2    1    2    0    0 -0.23548601276E+02  0.39563391656E+01 -0.11536390273E+03  0.14215695457E+03  0.79558660363E+02 0.  0.
         23    2    1    2    0    0  0.36798875435E+02  0.18321101042E+02  0.74538125387E+02  0.12374209601E+03  0.89812884444E+02 0.  0.
        -13    1    3    3    0    0 -0.67605545182E+01 -0.37620788732E+02 -0.52497432919E+02  0.64938504027E+02  0.00000000000E+00 0.  1.
         14    1    3    3    0    0 -0.16788046758E+02  0.41577127898E+02 -0.62866469809E+02  0.77218450544E+02  0.00000000000E+00 0. -1.
        -11    1    4    4    0    0 -0.16151842093E+02 -0.13646866750E+02 -0.61994380969E+01  0.22035244674E+02  0.00000000000E+00 0. -1.
         11    1    4    4    0    0  0.52950717528E+02  0.31967967792E+02  0.80737563484E+02  0.10170685134E+03  0.00000000000E+00 0.  1.
          3    1    1    2  501    0 -0.13250274159E+02 -0.22277440207E+02  0.82585674320E+02  0.86557770942E+02  0.00000000000E+00 0. -1.
<scales pt_clust_5="13000.00000" pt_clust_6="13000.00000" pt_clust_7="13000.00000" pt_clust_8="13000.00000" pt_clust_9="25.92015"></scales>
<clustering>
<clus scale="   25.920">  1  9  2 -1</clus>
<clus scale="   79.559">  5  6 -1 -1</clus>
<clus scale="   83.442">  2  5  1 -1</clus>
<clus scale="   89.813">  7  8 -1 -1</clus>
<clus scale="   25.920">  1  5  2 -1</clus>
</clustering>
</event>
<event>
 9    2  0.1665830E-004  0.3623497E+03  0.7546771E-02  0.1057657E+00
         21   -1    0    0  501  502  0.00000000000E+00  0.00000000000E+00  0.73376337805E+02  0.73376337805E+02  0.00000000000E+00 0. -1.
          2   -1    0    0  502    0 -0.00000000000E+00 -0.00000000000E+00 -0.16333340960E+04  0.16333340960E+04  0.00000000000E+00 0. -1.
         24    2    1    2    0    0 -0.78765879514E+02 -0.24412091993E+02 -0.29546521036E+03  0.31672321827E+03  0.78828246492E+02 0.  0.
         23    2    1    2    0    0 -0.23004121557E+03 -0.91066602480E+00 -0.74591460589E+03  0.78589604202E+03  0.91237050619E+02 0.  0.
        -11    1    3    3    0    0 -0.23981596147E+02 -0.48006415601E+02 -0.15833225678E+03  0.16717905500E+03  0.00000000000E+00 0.  1.
         12    1    3    3    0    0 -0.54784283367E+02  0.23594323608E+02 -0.13713295359E+03  0.14954416328E+03  0.00000000000E+00 0. -1.
        -13    1    4    4    0    0 -0.75681912062E+02  0.41748508262E+00 -0.40006238898E+03  0.40715825079E+03  0.00000000000E+00 0.  1.
         13    1    4    4    0    0 -0.15435930351E+03 -0.13281511074E+01 -0.34585221691E+03  0.37873779123E+03  0.00000000000E+00 0. -1.
          1    1    1    2  501    0  0.30880709509E+03  0.25322758018E+02 -0.51857794193E+03  0.60409117351E+03  0.00000000000E+00 0. -1.
<scales pt_clust_5="13000.00000" pt_clust_6="13000.00000" pt_clust_7="13000.00000" pt_clust_8="13000.00000" pt_clust_9="309.84361"></scales>
<clustering>
<clus scale="   78.828">  5  6 -1 -1</clus>
<clus scale="   91.237">  7  8 -1 -1</clus>
<clus scale="   94.901">  5  7 -1 -1</clus>
<clus scale="  309.844">  1  9  2 -1</clus>
<clus scale="  309.844">  1  5  2 -1</clus>
</clustering>
</event>
<event>
 9    2  0.1665830E-004  0.1466265E+03  0.7546771E-02  0.1219931E+00
         21   -1    0    0  501  502  0.00000000000E+00  0.00000000000E+00  0.93723157769E+02  0.93723157769E+02  0.00000000000E+00 0. -1.
          2   -1    0    0  502    0 -0.00000000000E+00 -0.00000000000E+00 -0.81279588329E+03  0.81279588329E+03  0.00000000000E+00 0. -1.
         24    2    1    2    0    0  0.31461405876E+02 -0.62505921810E+02 -0.56950575534E+03  0.57928741452E+03  0.79625956408E+02 0.  0.
         23    2    1    2    0    0  0.95741259495E+01 -0.64663150702E+02 -0.15792359773E+03  0.19334465519E+03  0.90384213349E+02 0.  0.
        -11    1    3    3    0    0 -0.20739825649E+02 -0.56738595229E+01 -0.55469170354E+02  0.59490855680E+02  0.00000000000E+00 0.  1.
         12    1    3    3    0    0  0.52201231525E+02 -0.56832062287E+02 -0.51403658498E+03  0.51979655884E+03  0.00000000000E+00 0. -1.
        -11    1    4    4    0    0 -0.46297861641E+01 -0.85327598110E+02 -0.11036376486E+03  0.13957934845E+03  0.00000000000E+00 0. -1.
         11    1    4    4    0    0  0.14203912114E+02  0.20664447408E+02 -0.47559832872E+02  0.53765306740E+02  0.00000000000E+00 0.  1.
          1    1    1    2  501    0 -0.41035531825E+02  0.12716907251E+03  0.83566275448E+01  0.13388697136E+03  0.00000000000E+00 0. -1.
<scales pt_clust_5="13000.00000" pt_clust_6="13000.00000" pt_clust_7="13000.00000" pt_clust_8="13000.00000" pt_clust_9="115.45570"></scales>
<clustering>
<clus scale="   79.626">  5  6 -1 -1</clus>
<clus scale="   90.384">  7  8 -1 -1</clus>
<clus scale="  106.005">  2  5  1 -1</clus>
<clus scale="  115.456">  1  9  2 -1</clus>
<clus scale="  115.456">  1  5  2 -1</clus>
</clustering>
</event>
<event>
 9    2  0.1665830E-004  0.1801279E+03  0.7546771E-02  0.1179837E+00
         -1   -1    0    0    0  501 -0.00000000000E+00  0.00000000000E+00  0.55428739686E+03  0.55428739686E+03  0.00000000000E+00 0.  1.
         21   -1    0    0  501  502  0.00000000000E+00 -0.00000000000E+00 -0.13622484126E+03  0.13622484126E+03  0.00000000000E+00 0.  1.
         24    2    1    2    0    0 -0.49710281877E+02  0.98078282497E+02  0.16215508529E+03  0.21205229974E+03  0.81126102579E+02 0.  0.
         23    2    1    2    0    0  0.15882663570E+03  0.27377599631E+02  0.15431628176E+02  0.18610024949E+03  0.91759111503E+02 0.  0.
        -11    1    3    3    0    0 -0.10683163897E+02  0.95238614755E+02  0.99234478790E+02  0.13795653487E+03  0.00000000000E+00 0.  1.
         12    1    3    3    0    0 -0.39027117980E+02  0.28396677416E+01  0.62920606499E+02  0.74095764878E+02  0.00000000000E+00 0. -1.
        -11    1    4    4    0    0  0.44548299724E+02  0.14466031250E+01 -0.36802835479E+02  0.57802183075E+02  0.00000000000E+00 0.  1.
         11    1    4    4    0    0  0.11427833597E+03  0.25930996506E+02  0.52234463656E+02  0.12829806642E+03  0.00000000000E+00 0. -1.
         -2    1    1    2    0  502 -0.10911635382E+03 -0.12545588213E+03  0.24047584214E+03  0.29235968889E+03  0.00000000000E+00 0.  1.
<scales pt_clust_5="13000.00000" pt_clust_6="13000.00000" pt_clust_7="13000.00000" pt_clust_8="13000.00000" pt_clust_9="155.00439"></scales>
<clustering>
<clus scale="   81.126">  5  6 -1 -1</clus>
<clus scale="   91.759">  7  8 -1 -1</clus>
<clus scale="  136.645">  1  5  2 -1</clus>
<clus scale="  155.004">  2  9  1 -1</clus>
<clus scale="  155.004">  2  5  1 -1</clus>
</clustering>
</event>
<event>
 9    2  0.1665830E-004  0.9520756E+02  0.7546771E-02  0.1297637E+00
          2   -1    0    0  502    0 -0.00000000000E+00  0.00000000000E+00  0.54350123014E+03  0.54350123014E+03  0.00000000000E+00 0. -1.
         21   -1    0    0  501  502  0.00000000000E+00 -0.00000000000E+00 -0.30643269094E+02  0.30643269094E+02  0.00000000000E+00 0.  1.
         24    2    1    2    0    0 -0.56135486068E+01  0.11537405491E+02  0.33994085760E+03  0.35021486315E+03  0.83222833718E+02 0.  0.
         23    2    1    2    0    0 -0.25215237931E+02  0.27836582323E+01  0.85562052379E+02  0.13019377372E+03  0.94794498425E+02 0.  0.
        -11    1    3    3    0    0 -0.11996371307E+02  0.46105829229E+02  0.16317136634E+03  0.16998398515E+03  0.00000000000E+00 0.  1.
         12    1    3    3    0    0  0.63828227002E+01 -0.34568423738E+02  0.17676949125E+03  0.18023087800E+03  0.00000000000E+00 0. -1.
        -11    1    4    4    0    0  0.26233146347E+02 -0.26530889850E+02  0.44821543338E+02  0.58318409021E+02  0.00000000000E+00 0.  1.
         11    1    4    4    0    0 -0.51448384278E+02  0.29314548083E+02  0.40740509041E+02  0.71875364702E+02  0.00000000000E+00 0. -1.
          1    1    1    2  501    0  0.30828786538E+02 -0.14321063723E+02  0.87355051066E+02  0.93735862359E+02  0.00000000000E+00 0. -1.
<scales pt_clust_5="13000.00000" pt_clust_6="13000.00000" pt_clust_7="13000.00000" pt_clust_8="13000.00000" pt_clust_9="33.99277"></scales>
<clustering>
<clus scale="   33.993">  2  9  1 -1</clus>
<clus scale="   83.223">  5  6 -1 -1</clus>
<clus scale="   83.693">  1  5  2 -1</clus>
<clus scale="   94.794">  7  8 -1 -1</clus>
<clus scale="   33.993">  2  5  1 -1</clus>
</clustering>
</event>
<event>
 9    2  0.1665830E-004  0.2818884E+03  0.7546771E-02  0.1119095E+00
         -1   -1    0    0    0  501 -0.00000000000E+00  0.00000000000E+00  0.86911714615E+03  0.86911714615E+03  0.00000000000E+00 0.  1.
         21   -1    0    0  501  502  0.00000000000E+00 -0.00000000000E+00 -0.20392195010E+03  0.20392195010E+03  0.00000000000E+00 0.  1.
         24    2    1    2    0    0 -0.12219812743E+03  0.36004011486E+02  0.16755992812E+02  0.15166036751E+03  0.80569427139E+02 0.  0.
         23    2    1    2    0    0 -0.15799923653E+03  0.58588068575E+02  0.58932503058E+03  0.61979505911E+03  0.91899962486E+02 0.  0.
        -11    1    3    3    0    0 -0.11569648158E+03  0.16454447380E+01  0.11128014081E+02  0.11624205795E+03  0.00000000000E+00 0.  1.
         12    1    3    3    0    0 -0.65016458424E+01  0.34358566749E+02  0.56279787315E+01  0.35418309563E+02  0.00000000000E+00 0. -1.
        -11    1    4    4    0    0 -0.12149505998E+03  0.42839373004E+01  0.44541783481E+03  0.46171035215E+03  0.00000000000E+00 0.  1.
         11    1    4    4    0    0 -0.36504176549E+02  0.54304131275E+02  0.14390719577E+03  0.15808470695E+03  0.00000000000E+00 0. -1.
         -2    1    1    2    0  502  0.28019736395E+03 -0.94592080062E+02  0.59114172664E+02  0.30158366963E+03  0.00000000000E+00 0.  1.
<scales pt_clust_5="13000.00000" pt_clust_6="13000.00000" pt_clust_7="13000.00000" pt_clust_8="13000.00000" pt_clust_9="266.48725"></scales>
<clustering>
<clus scale="   80.569">  5  6 -1 -1</clus>
<clus scale="   91.900">  7  8 -1 -1</clus>
<clus scale="  150.732">  1  5  2 -1</clus>
<clus scale="  266.487">  2  9  1 -1</clus>
<clus scale="  266.487">  2  5  1 -1</clus>
</clustering>
</event>
<event>
 9    2  0.1665830E-004  0.1622713E+03  0.7546771E-02  0.1187268E+00
         -1   -1    0    0    0  501 -0.00000000000E+00  0.00000000000E+00  0.49559006638E+03  0.49559006638E+03  0.00000000000E+00 0.  1.
         21   -1    0    0  501  502  0.00000000000E+00 -0.00000000000E+00 -0.31034289410E+03  0.31034289410E+03  0.00000000000E+00 0.  1.
         24    2    1    2    0    0 -0.95119920027E+02  0.48488402680E+02 -0.10483937420E+02  0.13576186379E+03  0.83201239985E+02 0.  0.
         23    2    1    2    0    0  0.17126531244E+03 -0.14586186429E+03 -0.16204234716E+03  0.29164559129E+03  0.90509325207E+02 0.  0.
        -13    1    3    3    0    0 -0.10328769048E+03  0.28154913517E+02  0.76353703001E+01  0.10732821176E+03  0.00000000000E+00 0.  1.
         14    1    3    3    0    0  0.81677704496E+01  0.20333489162E+02 -0.18119307720E+02  0.28433652032E+02  0.00000000000E+00 0. -1.
        -11    1    4    4    0    0  0.15977136982E+03 -0.10581407435E+03 -0.16047514764E+03  0.24995155922E+03  0.00000000000E+00 0.  1.
         11    1    4    4    0    0  0.11493942612E+02 -0.40047789942E+02 -0.15671995147E+01  0.41694032071E+02  0.00000000000E+00 0. -1.
         -2    1    1    2    0  502 -0.76145392409E+02  0.97373461609E+02  0.35777345685E+03  0.37852550540E+03  0.00000000000E+00 0.  1.
<scales pt_clust_5="13000.00000" pt_clust_6="13000.00000" pt_clust_7="13000.00000" pt_clust_8="13000.00000" pt_clust_9="123.61119"></scales>
<clustering>
<clus scale="   83.201">  5  6 -1 -1</clus>
<clus scale="   90.509">  7  8 -1 -1</clus>
<clus scale="  123.611">  2  9  1 -1</clus>
<clus scale="  158.311">  1  5  2 -1</clus>
<clus scale="  123.611">  2  5  1 -1</clus>
</clustering>
</event>
<event>
 9    2  0.1665830E-004  0.1034724E+03  0.7546771E-02  0.1277997E+00
          2   -1    0    0  502    0 -0.00000000000E+00  0.00000000000E+00  0.15141220619E+04  0.15141220619E+04  0.00000000000E+00 0. -1.
         21   -1    0    0  501  502  0.00000000000E+00 -0.00000000000E+00 -0.24593113117E+02  0.24593113117E+02  0.00000000000E+00 0. -1.
         24    2    1    2    0    0 -0.36814541615E+02 -0.30114551347E+02  0.12425155542E+04  0.12459742828E+04  0.79654343137E+02 0.  0.
         23    2    1    2    0    0  0.48880973502E+02  0.57848440421E+02  0.22895747864E+03  0.25751613553E+03  0.90317447941E+02 0.  0.
        -11    1    3    3    0    0 -0.24065325937E+02  0.89210521987E+01  0.12028752417E+03  0.12299517697E+03  0.00000000000E+00 0.  1.
         12    1    3    3    0    0 -0.12749215678E+02 -0.39035603546E+02  0.11222280300E+04  0.11229791059E+04  0.00000000000E+00 0. -1.
        -13    1    4    4    0    0 -0.26786767722E+02  0.13686455252E+02  0.64821492075E+02  0.71461009069E+02  0.00000000000E+00 0.  1.
         13    1    4    4    0    0  0.75667741224E+02  0.44161985169E+02  0.16413598657E+03  0.18605512646E+03  0.00000000000E+00 0. -1.
          1    1    1    2  501    0 -0.12066431887E+02 -0.27733889074E+02  0.18055915967E+02  0.35224756678E+02  0.00000000000E+00 0. -1.
<scales pt_clust_5="13000.00000" pt_clust_6="13000.00000" pt_clust_7="13000.00000" pt_clust_8="13000.00000" pt_clust_9="30.24512"></scales>
<clustering>
<clus scale="   30.245">  2  9  1 -1</clus>
<clus scale="   79.654">  5  6 -1 -1</clus>
<clus scale="   90.317">  7  8 -1 -1</clus>
<clus scale="   94.309">  1  5  2 -1</clus>
<clus scale="   30.245">  2  5  1 -1</clus>
</clustering>
</event>
<event>
 9    2  0.1665830E-004  0.1349845E+03  0.7546771E-02  0.1246028E+00
         21   -1    0    0  501  502  0.00000000000E+00  0.00000000000E+00  0.35916252199E+02  0.35916252199E+02  0.00000000000E+00 0.  1.
         -1   -1    0    0    0  501 -0.00000000000E+00 -0.00000000000E+00 -0.10654028146E+04  0.10654028146E+04  0.00000000000E+00 0.  1.
         24    2    1    2    0    0  0.24532958402E+02  0.29282126488E+02 -0.61033581635E+03  0.61548806345E+03  0.69688152178E+02 0.  0.
         23    2    1    2    0    0  0.91217373592E+02 -0.16141981723E+02 -0.19104795401E+03  0.22970274153E+03  0.87651901962E+02 0.  0.
        -11    1    3    3    0    0  0.26954183617E+02  0.44739446569E+02 -0.28307353323E+03  0.28785199549E+03  0.00000000000E+00 0.  1.
         12    1    3    3    0    0 -0.24212252149E+01 -0.15457320081E+02 -0.32726228312E+03  0.32763606796E+03  0.00000000000E+00 0. -1.
        -11    1    4    4    0    0  0.46513363068E+02  0.75462458027E+01 -0.19755638877E+02  0.51095244759E+02  0.00000000000E+00 0.  1.
         11    1    4    4    0    0  0.44704010525E+02 -0.23688227525E+02 -0.17129231513E+03  0.17860749678E+03  0.00000000000E+00 0. -1.
         -2    1    1    2    0  502 -0.11575033199E+03 -0.13140144765E+02 -0.22810279202E+03  0.25612826179E+03  0.00000000000E+00 0.  1.
<scales pt_clust_5="13000.00000" pt_clust_6="13000.00000" pt_clust_7="13000.00000" pt_clust_8="13000.00000" pt_clust_9="102.65460"></scales>
<clustering>
<clus scale="   69.688">  5  6 -1 -1</clus>
<clus scale="   79.472">  2  5  1 -1</clus>
<clus scale="   87.652">  7  8 -1 -1</clus>
<clus scale="  102.655">  1  9  2 -1</clus>
<clus scale="  102.655">  1  5  2 -1</clus>
</clustering>
</event>
<event>
 9    2  0.1665830E-004  0.3042098E+03  0.7546771E-02  0.1083659E+00
          2   -1    0    0  502    0 -0.00000000000E+00  0.00000000000E+00  0.40755763273E+03  0.40755763273E+03  0.00000000000E+00 0. -1.
         21   -1    0    0  501  502  0.00000000000E+00 -0.00000000000E+00 -0.38521719124E+03  0.38521719124E+03  0.00000000000E+00 0. -1.
         23    2    1    2    0    0  0.29237085835E+03 -0.67724701871E+02  0.24039217796E+03  0.39602461907E+03  0.94761519800E+02 0.  0.
         24    2    1    2    0    0 -0.24850367870E+03  0.32401688394E+02 -0.21572490517E+03  0.34038125179E+03  0.80735457626E+02 0.  0.
        -13    1    4    4    0    0 -0.16487690884E+03 -0.17586418622E+02 -0.13909648803E+03  0.21642899568E+03  0.00000000000E+00 0.  1.
         14    1    4    4    0    0 -0.83626769862E+02  0.49988107017E+02 -0.76628417138E+02  0.12395225611E+03  0.00000000000E+00 0. -1.
        -13    1    3    3    0    0  0.22470776399E+03 -0.95869198469E+01  0.16093498070E+03  0.27656022173E+03  0.00000000000E+00 0.  1.
         13    1    3    3    0    0  0.67663094353E+02 -0.58137782024E+02  0.79457197260E+02  0.11946439734E+03  0.00000000000E+00 0. -1.
          1    1    1    2  501    0 -0.43867179643E+02  0.35323013477E+02 -0.23268313072E+01  0.56368953111E+02  0.00000000000E+00 0. -1.
<scales pt_clust_5="13000.00000" pt_clust_6="13000.00000" pt_clust_7="13000.00000" pt_clust_8="13000.00000" pt_clust_9="56.32091"></scales>
<clustering>
<clus scale="   56.321">  2  9  1 -1</clus>
<clus scale="   80.735">  5  6 -1 -1</clus>
<clus scale="   94.762">  7  8 -1 -1</clus>
<clus scale="  300.137">  2  5  1 -1</clus>
<clus scale="   56.321">  2  5  1 -1</clus>
</clustering>
</event>
<event>
 9    2  0.1665830E-004  0.1134430E+03  0.7546771E-02  0.1266722E+00
         -1   -1    0    0    0  501 -0.00000000000E+00  0.00000000000E+00  0.23166184695E+03  0.23166184695E+03  0.00000000000E+00 0.  1.
         21   -1    0    0  501  502  0.00000000000E+00 -0.00000000000E+00 -0.10702681021E+03  0.10702681021E+03  0.00000000000E+00 0. -1.
         24    2    1    2    0    0 -0.25026691652E+02  0.26756265334E+02  0.16112455507E+03  0.18418248987E+03  0.81362364123E+02 0.  0.
         23    2    1    2    0    0  0.35893983330E+02 -0.65752001620E+01 -0.53854035538E+02  0.12575030045E+03  0.10761630743E+03 0.  0.
        -11    1    3    3    0    0 -0.23203758738E+02  0.46163718318E+02  0.15555263779E+03  0.16390889675E+03  0.00000000000E+00 0.  1.
         12    1    3    3    0    0 -0.18229329141E+01 -0.19407452984E+02  0.55719172793E+01  0.20273593117E+02  0.00000000000E+00 0. -1.
        -13    1    4    4    0    0 -0.19378093673E+02 -0.42050842509E+02 -0.11862796961E+02  0.47796546129E+02  0.00000000000E+00 0.  1.
         13    1    4    4    0    0  0.55272077003E+02  0.35475642347E+02 -0.41991238577E+02  0.77953754325E+02  0.00000000000E+00 0. -1.
         -2    1    1    2    0  502 -0.10867291678E+02 -0.20181065172E+02  0.17364517199E+02  0.28755866836E+02  0.00000000000E+00 0.  1.
<scales pt_clust_5="13000.00000" pt_clust_6="13000.00000" pt_clust_7="13000.00000" pt_clust_8="13000.00000" pt_clust_9="22.92104"></scales>
<clustering>
<clus scale="   22.921">  2  9  1 -1</clus>
<clus scale="   81.362">  5  6 -1 -1</clus>
<clus scale="   88.926">  1  5  2 -1</clus>
<clus scale="  107.616">  7  8 -1 -1</clus>
<clus scale="   22.921">  2  5  1 -1</clus>
</clustering>
</event>
<event>
 9    2  0.1665830E-004  0.1092859E+03  0.7546771E-02  0.1266372E+00
         -3   -1    0    0    0  501 -0.00000000000E+00  0.00000000000E+00  0.54967810250E+02  0.54967810250E+02  0.00000000000E+00 0.  1.
         21   -1    0    0  501  502  0.00000000000E+00 -0.00000000000E+00 -0.40858272087E+03  0.40858272087E+03  0.00000000000E+00 0. -1.
         23    2    1    2    0    0  0.68679790926E+02 -0.23234137679E+02 -0.60614867939E+02  0.13079190189E+03  0.90419138186E+02 0.  0.
         24    2    1    2    0    0 -0.49005748333E+02  0.31873667742E+01 -0.95936274643E+02  0.13370318557E+03  0.79126799270E+02 0.  0.
        -13    1    4    4    0    0 -0.43923787471E+02  0.35246552784E+02 -0.79204121289E+02  0.97184934111E+02  0.00000000000E+00 0.  1.
         14    1    4    4    0    0 -0.50819608622E+01 -0.32059186010E+02 -0.16732153354E+02  0.36518251460E+02  0.00000000000E+00 0. -1.
        -13    1    3    3    0    0  0.36664579834E+02  0.28784205268E+02 -0.50768972269E+02  0.68922495838E+02  0.00000000000E+00 0.  1.
         13    1    3    3    0    0  0.32015211092E+02 -0.52018342946E+02 -0.98458956703E+01  0.61869406055E+02  0.00000000000E+00 0. -1.
         -4    1    1    2    0  502 -0.19674042592E+02  0.20046770904E+02 -0.19706376803E+03  0.19905544365E+03  0.00000000000E+00 0.  1.
<scales pt_clust_5="13000.00000" pt_clust_6="13000.00000" pt_clust_7="13000.00000" pt_clust_8="13000.00000" pt_clust_9="28.08809"></scales>
<clustering>
<clus scale="   28.088">  2  9  1 -1</clus>
<clus scale="   79.127">  5  6 -1 -1</clus>
<clus scale="   90.419">  7  8 -1 -1</clus>
<clus scale="  100.144">  2  5  1 -1</clus>
<clus scale="   28.088">  2  5  1 -1</clus>
</clustering>
</event>
<event>
 9    2  0.1665830E-004  0.1621534E+03  0.7546771E-02  0.1187401E+00
         21   -1    0    0  501  502  0.00000000000E+00  0.00000000000E+00  0.31379724026E+03  0.31379724026E+03  0.00000000000E+00 0.  1.
          2   -1    0    0  502    0 -0.00000000000E+00 -0.00000000000E+00 -0.25331052694E+03  0.25331052694E+03  0.00000000000E+00 0. -1.
         23    2    1    2    0    0  0.12356206026E+03  0.51841212628E+02 -0.18311471490E+03  0.24379296101E+03  0.89156687715E+02 0.  0.
         24    2    1    2    0    0 -0.12371461495E+03 -0.76932068574E+02  0.14381247106E+03  0.22041966395E+03  0.81724857275E+02 0.  0.
        -11    1    4    4    0    0 -0.11366157017E+03 -0.38818346228E+02  0.13369941700E+03  0.17972576511E+03  0.00000000000E+00 0.  1.
         12    1    4    4    0    0 -0.10053044779E+02 -0.38113722346E+02  0.10113054054E+02  0.40693898839E+02  0.00000000000E+00 0. -1.
        -11    1    3    3    0    0  0.47764214810E+02  0.97580534004E+00 -0.11082706168E+02  0.49042826065E+02  0.00000000000E+00 0.  1.
         11    1    3    3    0    0  0.75797845446E+02  0.50865407288E+02 -0.17203200874E+03  0.19475013495E+03  0.00000000000E+00 0. -1.
          1    1    1    2  501    0  0.15255469176E+00  0.25090855946E+02  0.99788957160E+02  0.10289514224E+03  0.00000000000E+00 0. -1.
<scales pt_clust_5="13000.00000" pt_clust_6="13000.00000" pt_clust_7="13000.00000" pt_clust_8="13000.00000" pt_clust_9="25.09132"></scales>
<clustering>
<clus scale="   25.091">  1  9  2 -1</clus>
<clus scale="   81.725">  5  6 -1 -1</clus>
<clus scale="   89.157">  7  8 -1 -1</clus>
<clus scale="  158.189">  1  5  2 -1</clus>
<clus scale="   25.091">  1  5  2 -1</clus>
</clustering>
</event>
<event>
 9    2  0.1665830E-004  0.3960710E+03  0.7546771E-02  0.1045149E+00
         21   -1    0    0  501  502  0.00000000000E+00  0.00000000000E+00  0.71932077175E+03  0.71932077175E+03  0.00000000000E+00 0. -1.
         -1   -1    0    0    0  501 -0.00000000000E+00 -0.00000000000E+00 -0.20403962486E+03  0.20403962486E+03  0.00000000000E+00 0.  1.
         24    2    1    2    0    0 -0.20136940123E+03  0.10520504621E+03  0.18590772309E+03  0.30361885258E+03  0.77491861735E+02 0.  0.
         23    2    1    2    0    0 -0.10411924897E+03  0.80609810340E+01  0.24809808250E+03  0.28394668191E+03  0.90372906356E+02 0.  0.
        -13    1    3    3    0    0 -0.18348937315E+02  0.31374907093E+02  0.65298772164E+01  0.36928411719E+02  0.00000000000E+00 0.  1.
         14    1    3    3    0    0 -0.18302046392E+03  0.73830139113E+02  0.17937784587E+03  0.26669044086E+03  0.00000000000E+00 0. -1.
        -11    1    4    4    0    0  0.10470257826E+02  0.19795024977E+02  0.50156469100E+02  0.54928505399E+02  0.00000000000E+00 0. -1.
         11    1    4    4    0    0 -0.11458950679E+03 -0.11734043944E+02  0.19794161340E+03  0.22901817651E+03  0.00000000000E+00 0.  1.
         -2    1    1    2    0  502  0.30548865020E+03 -0.11326602724E+03  0.81275341298E+02  0.33579486213E+03  0.00000000000E+00 0.  1.
<scales pt_clust_5="13000.00000" pt_clust_6="13000.00000" pt_clust_7="13000.00000" pt_clust_8="13000.00000" pt_clust_9="325.81070"></scales>
<clustering>
<clus scale="   77.492">  5  6 -1 -1</clus>
<clus scale="   90.373">  7  8 -1 -1</clus>
<clus scale="  132.827">  5  7 -1 -1</clus>
<clus scale="  325.811">  1  9  2 -1</clus>
<clus scale="  325.811">  1  5  2 -1</clus>
</clustering>
</event>
<event>
 9    2  0.1665830E-004  0.3174205E+03  0.7546771E-02  0.1077114E+00
         -3   -1    0    0    0  501 -0.00000000000E+00  0.00000000000E+00  0.54855326223E+03  0.54855326223E+03  0.00000000000E+00 0.  1.
         21   -1    0    0  501  502  0.00000000000E+00 -0.00000000000E+00 -0.26807348833E+03  0.26807348833E+03  0.00000000000E+00 0.  1.
         24    2    1    2    0    0  0.28025751011E+03  0.16733936809E+03  0.32584088659E+03  0.46832788638E+03  0.81314142088E+02 0.  0.
         23    2    1    2    0    0 -0.21834080987E+03 -0.12870665723E+03 -0.55560919469E+02  0.27460897223E+03  0.89916400004E+02 0.  0.
        -11    1    3    3    0    0  0.26245620707E+03  0.13494309817E+03  0.26238694028E+03  0.39489214579E+03  0.00000000000E+00 0.  1.
         12    1    3    3    0    0  0.17801303036E+02  0.32396269919E+02  0.63453946304E+02  0.73435740590E+02  0.00000000000E+00 0. -1.
        -13    1    4    4    0    0 -0.26964768895E+02 -0.28782341767E+02 -0.43004262970E+02  0.58351423228E+02  0.00000000000E+00 0.  1.
         13    1    4    4    0    0 -0.19137604097E+03 -0.99924315464E+02 -0.12556656498E+02  0.21625754900E+03  0.00000000000E+00 0. -1.
         -4    1    1    2    0  502 -0.61916700242E+02 -0.38632710858E+02  0.10199806782E+02  0.73689891949E+02  0.00000000000E+00 0.  1.
<scales pt_clust_5="13000.00000" pt_clust_6="13000.00000" pt_clust_7="13000.00000" pt_clust_8="13000.00000" pt_clust_9="72.98057"></scales>
<clustering>
<clus scale="   72.981">  2  9  1 -1</clus>
<clus scale="   81.314">  5  6 -1 -1</clus>
<clus scale="   89.916">  7  8 -1 -1</clus>
<clus scale="  315.092">  1  5  2 -1</clus>
<clus scale="   72.981">  2  5  1 -1</clus>
</clustering>
</event>
<event>
 9    2  0.1665830E-004  0.2126230E+03  0.7546771E-02  0.1140924E+00
         21   -1    0    0  501  502  0.00000000000E+00  0.00000000000E+00  0.12633739301E+03  0.12633739301E+03  0.00000000000E+00 0.  1.
          2   -1    0    0  502    0 -0.00000000000E+00 -0.00000000000E+00 -0.40236701381E+03  0.40236701381E+03  0.00000000000E+00 0. -1.
         23    2    1    2    0    0 -0.16311578167E+03  0.10583370909E+03 -0.18305371383E+03  0.28283703209E+03  0.93169696592E+02 0.  0.
         24    2    1    2    0    0  0.16899459531E+03 -0.81119378733E+02 -0.79841208330E+02  0.21726879289E+03  0.75442580614E+02 0.  0.
        -13    1    4    4    0    0  0.57301391336E+02 -0.17055426126E+02  0.95167046396E+01  0.60538456179E+02  0.00000000000E+00 0.  1.
         14    1    4    4    0    0  0.11169320397E+03 -0.64063952607E+02 -0.89357912970E+02  0.15673033672E+03  0.00000000000E+00 0. -1.
        -11    1    3    3    0    0 -0.40199647891E+02  0.56149213514E+02 -0.11417512139E+03  0.13343426926E+03  0.00000000000E+00 0. -1.
         11    1    3    3    0    0 -0.12291613378E+03  0.49684495581E+02 -0.68878592447E+02  0.14940276283E+03  0.00000000000E+00 0.  1.
          1    1    1    2  501    0 -0.58788136325E+01 -0.24714330362E+02 -0.13134698631E+02  0.28598581837E+02  0.00000000000E+00 0. -1.
<scales pt_clust_5="13000.00000" pt_clust_6="13000.00000" pt_clust_7="13000.00000" pt_clust_8="13000.00000" pt_clust_9="25.40391"></scales>
<clustering>
<clus scale="   25.404">  1  9  2 -1</clus>
<clus scale="   75.443">  5  6 -1 -1</clus>
<clus scale="   93.170">  7  8 -1 -1</clus>
<clus scale="  205.474">  1  5  2 -1</clus>
<clus scale="   25.404">  1  5  2 -1</clus>
</clustering>
</event>
<event>
 9    2  0.1665830E-004  0.1215336E+03  0.7546771E-02  0.1248623E+00
         21   -1    0    0  501  502  0.00000000000E+00  0.00000000000E+00  0.43712338626E+02  0.43712338626E+02  0.00000000000E+00 0. -1.
          2   -1    0    0  502    0 -0.00000000000E+00 -0.00000000000E+00 -0.57341113160E+03  0.57341113160E+03  0.00000000000E+00 0. -1.
         24    2    1    2    0    0 -0.24412086064E+02  0.81988720645E+02 -0.29493217670E+03  0.31737139016E+03  0.80134325862E+02 0.  0.
         23    2    1    2    0    0 -0.28710625232E+02 -0.31708532435E+02 -0.11874171975E+03  0.16259561323E+03  0.10250856745E+03 0.  0.
        -11    1    3    3    0    0 -0.22625492184E+01  0.87510114665E+02 -0.17955498694E+03  0.19975768479E+03  0.00000000000E+00 0.  1.
         12    1    3    3    0    0 -0.22149536846E+02 -0.55213940198E+01 -0.11537718976E+03  0.11761370538E+03  0.00000000000E+00 0. -1.
        -13    1    4    4    0    0 -0.83831093990E+01 -0.52543144821E+02 -0.12220134626E+03  0.13328251055E+03  0.00000000000E+00 0.  1.
         13    1    4    4    0    0 -0.20327515833E+02  0.20834612385E+02  0.34596265065E+01  0.29313102680E+02  0.00000000000E+00 0. -1.
          1    1    1    2  501    0  0.53122711296E+02 -0.50280188209E+02 -0.11602489652E+03  0.13715646684E+03  0.00000000000E+00 0. -1.
<scales pt_clust_5="13000.00000" pt_clust_6="13000.00000" pt_clust_7="13000.00000" pt_clust_8="13000.00000" pt_clust_9="73.14451"></scales>
<clustering>
<clus scale="   73.145">  1  9  2 -1</clus>
<clus scale="   80.134">  5  6 -1 -1</clus>
<clus scale="  102.509">  7  8 -1 -1</clus>
<clus scale="  103.363">  2  5  1 -1</clus>
<clus scale="   73.145">  1  5  2 -1</clus>
</clustering>
</event>
<event>
 9    2  0.1665830E-004  0.2688510E+03  0.7546771E-02  0.1113790E+00
         21   -1    0    0  501  502  0.00000000000E+00  0.00000000000E+00  0.14992303358E+03  0.14992303358E+03  0.00000000000E+00 0. -1.
          2   -1    0    0  502    0 -0.00000000000E+00 -0.00000000000E+00 -0.11758850530E+04  0.11758850530E+04  0.00000000000E+00 0. -1.
         23    2    1    2    0    0 -0.13059499468E+03  0.11998162805E+03 -0.15037132971E+03  0.24907371514E+03  0.89305851253E+02 0.  0.
         24    2    1    2    0    0 -0.16400628112E+02 -0.32069404896E+03 -0.69446138690E+03  0.76899907389E+03  0.77261271714E+02 0.  0.
        -13    1    4    4    0    0 -0.13890437642E+02 -0.48149070224E+02 -0.58104217598E+02  0.76729246862E+02  0.00000000000E+00 0.  1.
         14    1    4    4    0    0 -0.25101904702E+01 -0.27254497873E+03 -0.63635716930E+03  0.69226982703E+03  0.00000000000E+00 0. -1.
        -11    1    3    3    0    0 -0.14024555279E+03  0.90893676758E+02 -0.13471419692E+03  0.21465877668E+03  0.00000000000E+00 0. -1.
         11    1    3    3    0    0  0.96505581056E+01  0.29087951295E+02 -0.15657132786E+02  0.34414938463E+02  0.00000000000E+00 0.  1.
          1    1    1    2  501    0  0.14699562279E+03  0.20071242090E+03 -0.18112930284E+03  0.30773529757E+03  0.00000000000E+00 0. -1.
<scales pt_clust_5="13000.00000" pt_clust_6="13000.00000" pt_clust_7="13000.00000" pt_clust_8="13000.00000" pt_clust_9="257.51028"></scales>
<clustering>
<clus scale="   77.261">  5  6 -1 -1</clus>
<clus scale="   89.306">  7  8 -1 -1</clus>
<clus scale="  198.560">  2  7  1 -1</clus>
<clus scale="  257.510">  1  9  2 -1</clus>
<clus scale="  257.510">  1  5  2 -1</clus>
</clustering>
</event>
<event>
 9    2  0.1665830E-004  0.9551298E+02  0.7546771E-02  0.1295801E+00
          2   -1    0    0  502    0 -0.00000000000E+00  0.00000000000E+00  0.70653864536E+02  0.70653864536E+02  0.00000000000E+00 0. -1.
         21   -1    0    0  501  502  0.00000000000E+00 -0.00000000000E+00 -0.29646887918E+03  0.29646887918E+03  0.00000000000E+00 0. -1.
         24    2    1    2    0    0  0.13896420314E+02  0.12812076593E+02 -0.26951509677E+02  0.88311183837E+02  0.81946455156E+02 0.  0.
         23    2    1    2    0    0 -0.54203944211E+02  0.51736741174E+02 -0.13159821622E+03  0.17724451095E+03  0.92101944576E+02 0.  0.
        -13    1    3    3    0    0  0.10641386275E+02  0.26836608530E+02  0.22629860262E+02  0.36681783418E+02  0.00000000000E+00 0.  1.
         14    1    3    3    0    0  0.32550340386E+01 -0.14024531937E+02 -0.49581369939E+02  0.51629400419E+02  0.00000000000E+00 0. -1.
        -11    1    4    4    0    0 -0.68082633920E+02  0.32446130470E+01 -0.71446676195E+02  0.98744114227E+02  0.00000000000E+00 0.  1.
         11    1    4    4    0    0  0.13878689709E+02  0.48492128127E+02 -0.60151540029E+02  0.78500396726E+02  0.00000000000E+00 0. -1.
          1    1    1    2  501    0  0.40307523897E+02 -0.64548817767E+02 -0.67265288742E+02  0.10156704892E+03  0.00000000000E+00 0. -1.
<scales pt_clust_5="13000.00000" pt_clust_6="13000.00000" pt_clust_7="13000.00000" pt_clust_8="13000.00000" pt_clust_9="76.10024"></scales>
<clustering>
<clus scale="   76.100">  2  9  1 -1</clus>
<clus scale="   81.946">  5  6 -1 -1</clus>
<clus scale="   85.762">  1  5  2 -1</clus>
<clus scale="   92.102">  7  8 -1 -1</clus>
<clus scale="   76.100">  2  5  1 -1</clus>
</clustering>
</event>
<event>
 9    2  0.1665830E-004  0.9444159E+02  0.7546771E-02  0.1299671E+00
         21   -1    0    0  501  502  0.00000000000E+00  0.00000000000E+00  0.44981128567E+02  0.44981128567E+02  0.00000000000E+00 0.  1.
         -3   -1    0    0    0  501 -0.00000000000E+00 -0.00000000000E+00 -0.32281368499E+03  0.32281368499E+03  0.00000000000E+00 0.  1.
         23    2    1    2    0    0 -0.24289366117E+02 -0.65804975599E+01 -0.16005633993E+03  0.18670558229E+03  0.92777509410E+02 0.  0.
         24    2    1    2    0    0  0.25527209670E+01 -0.90763315537E+01 -0.25698356652E+02  0.85193713575E+02  0.80676310769E+02 0.  0.
        -11    1    4    4    0    0  0.14025946312E+02 -0.42454837808E+02 -0.21616962345E+02  0.49663200504E+02  0.00000000000E+00 0.  1.
         12    1    4    4    0    0 -0.11473225345E+02  0.33378506255E+02 -0.40813943071E+01  0.35530513071E+02  0.00000000000E+00 0. -1.
        -11    1    3    3    0    0 -0.43581758606E+02  0.29541582839E+02 -0.68401250990E+02  0.86318051049E+02  0.00000000000E+00 0.  1.
         11    1    3    3    0    0  0.19292392489E+02 -0.36122080399E+02 -0.91655088938E+02  0.10038753124E+03  0.00000000000E+00 0. -1.
         -4    1    1    2    0  502  0.21736645150E+02  0.15656829114E+02 -0.92077859844E+02  0.95895517693E+02  0.00000000000E+00 0.  1.
<scales pt_clust_5="13000.00000" pt_clust_6="13000.00000" pt_clust_7="13000.00000" pt_clust_8="13000.00000" pt_clust_9="26.78841"></scales>
<clustering>
<clus scale="   26.788">  1  9  2 -1</clus>
<clus scale="   80.676">  5  6 -1 -1</clus>
<clus scale="   82.585">  1  5  2 -1</clus>
<clus scale="   92.778">  7  8 -1 -1</clus>
<clus scale="   26.788">  1  5  2 -1</clus>
</clustering>
</event>
<event>
 9    2  0.1665830E-004  0.1399546E+03  0.7546771E-02  0.1215596E+00
          2   -1    0    0  502    0 -0.00000000000E+00  0.00000000000E+00  0.43388732715E+03  0.43388732715E+03  0.00000000000E+00 0. -1.
         21   -1    0    0  501  502  0.00000000000E+00 -0.00000000000E+00 -0.89804735774E+02  0.89804735774E+02  0.00000000000E+00 0. -1.
         24    2    1    2    0    0  0.31776427235E+02  0.11531440099E+03  0.25474211155E+03  0.29269234548E+03  0.80424581466E+02 0.  0.
         23    2    1    2    0    0 -0.73937006858E+02 -0.48770459801E+02  0.24749544814E+02  0.12912921402E+03  0.90645326475E+02 0.  0.
        -11    1    3    3    0    0  0.50915210720E+02  0.75194504158E+02  0.11794408752E+03  0.14885355192E+03  0.00000000000E+00 0.  1.
         12    1    3    3    0    0 -0.19138783485E+02  0.40119896829E+02  0.13679802403E+03  0.14383879356E+03  0.00000000000E+00 0. -1.
        -13    1    4    4    0    0  0.85340279517E+01  0.18444324469E+02  0.31289402306E+01  0.20562417299E+02  0.00000000000E+00 0.  1.
         13    1    4    4    0    0 -0.82471034810E+02 -0.67214784270E+02  0.21620604583E+02  0.10856679672E+03  0.00000000000E+00 0. -1.
          1    1    1    2  501    0  0.42160579623E+02 -0.66543941186E+02  0.64590935016E+02  0.10187050343E+03  0.00000000000E+00 0. -1.
<scales pt_clust_5="13000.00000" pt_clust_6="13000.00000" pt_clust_7="13000.00000" pt_clust_8="13000.00000" pt_clust_9="78.77570"></scales>
<clustering>
<clus scale="   78.776">  2  9  1 -1</clus>
<clus scale="   80.425">  5  6 -1 -1</clus>
<clus scale="   90.645">  7  8 -1 -1</clus>
<clus scale="  133.562">  1  5  2 -1</clus>
<clus scale="   78.776">  2  5  1 -1</clus>
</clustering>
</event>
<event>
 9    2  0.1665830E-004  0.2936153E+03  0.7546771E-02  0.1088553E+00
         21   -1    0    0  501  502  0.00000000000E+00  0.00000000000E+00  0.63036473337E+02  0.63036473337E+02  0.00000000000E+00 0. -1.
          2   -1    0    0  502    0 -0.00000000000E+00 -0.00000000000E+00 -0.17430897963E+04  0.17430897963E+04  0.00000000000E+00 0. -1.
         24    2    1    2    0    0 -0.76411133263E+02 -0.27914581622E+03 -0.11867674486E+04  0.12240452240E+04  0.78158079829E+02 0.  0.
         23    2    1    2    0    0  0.68476777265E+02  0.25936240428E+03 -0.40784577333E+03  0.49402226830E+03  0.75907186632E+02 0.  0.
        -13    1    3    3    0    0 -0.23780965119E+02 -0.11578884793E+03 -0.33727711984E+03  0.35739116829E+03  0.00000000000E+00 0.  1.
         14    1    3    3    0    0 -0.52630168144E+02 -0.16335696829E+03 -0.84949032872E+03  0.86665405571E+03  0.00000000000E+00 0. -1.
        -11    1    4    4    0    0  0.67407574589E+02  0.19051663343E+03 -0.24755102665E+03  0.31956514128E+03  0.00000000000E+00 0. -1.
         11    1    4    4    0    0  0.10692026765E+01  0.68845770853E+02 -0.16029474667E+03  0.17445712703E+03  0.00000000000E+00 0.  1.
          1    1    1    2  501    0  0.79343559974E+01  0.19783411940E+02 -0.85440101117E+02  0.88058777370E+02  0.00000000000E+00 0. -1.
<scales pt_clust_5="13000.00000" pt_clust_6="13000.00000" pt_clust_7="13000.00000" pt_clust_8="13000.00000" pt_clust_9="21.31520"></scales>
<clustering>
<clus scale="   21.315">  1  9  2 -1</clus>
<clus scale="   75.907">  7  8 -1 -1</clus>
<clus scale="   78.158">  5  6 -1 -1</clus>
<clus scale="  293.024">  1  7  2 -1</clus>
<clus scale="   21.315">  1  5  2 -1</clus>
</clustering>
</event>
<event>
 9    2  0.1665830E-004  0.9166460E+02  0.7546771E-02  0.1305678E+00
         21   -1    0    0  501  502  0.00000000000E+00  0.00000000000E+00  0.75798152593E+02  0.75798152593E+02  0.00000000000E+00 0. -1.
          2   -1    0    0  502    0 -0.00000000000E+00 -0.00000000000E+00 -0.25200407926E+03  0.25200407926E+03  0.00000000000E+00 0. -1.
         23    2    1    2    0    0  0.82020722547E-01 -0.21836483141E+02 -0.10932627386E+03  0.14416115058E+03  0.91396742048E+02 0.  0.
         24    2    1    2    0    0 -0.16903426299E+02 -0.38809755859E+02  0.10570079620E+01  0.91032680646E+02  0.80584792047E+02 0.  0.
        -11    1    4    4    0    0  0.27185889056E+01 -0.55599086773E+02 -0.18477513464E+02  0.58652090154E+02  0.00000000000E+00 0.  1.
         12    1    4    4    0    0 -0.19622015205E+02  0.16789330915E+02  0.19534521426E+02  0.32380590491E+02  0.00000000000E+00 0. -1.
        -11    1    3    3    0    0  0.91511024806E+01  0.34689438271E+02 -0.32954739218E+02  0.48714624509E+02  0.00000000000E+00 0.  1.
         11    1    3    3    0    0 -0.90690817580E+01 -0.56525921412E+02 -0.76371534643E+02  0.95446526071E+02  0.00000000000E+00 0. -1.
          1    1    1    2  501    0  0.16821405576E+02  0.60646239000E+02 -0.67936660772E+02  0.92608400630E+02  0.00000000000E+00 0. -1.
<scales pt_clust_5="13000.00000" pt_clust_6="13000.00000" pt_clust_7="13000.00000" pt_clust_8="13000.00000" pt_clust_9="62.93592"></scales>
<clustering>
<clus scale="   62.936">  1  9  2 -1</clus>
<clus scale="   80.585">  5  6 -1 -1</clus>
<clus scale="   80.888">  1  5  2 -1</clus>
<clus scale="   91.397">  7  8 -1 -1</clus>
<clus scale="   62.936">  1  5  2 -1</clus>
</clustering>
</event>
<event>
 9    2  0.1665830E-004  0.1639961E+03  0.7546771E-02  0.1186024E+00
         21   -1    0    0  501  502  0.00000000000E+00  0.00000000000E+00  0.54344336112E+02  0.54344336112E+02  0.00000000000E+00 0.  1.
          2   -1    0    0  502    0 -0.00000000000E+00 -0.00000000000E+00 -0.83702713974E+03  0.83702713974E+03  0.00000000000E+00 0. -1.
         24    2    1    2    0    0  0.90022565036E+02  0.10760592446E+03 -0.65300271169E+03  0.67271645572E+03  0.80323042324E+02 0.  0.
         23    2    1    2    0    0 -0.81876125640E+02 -0.83838920154E+02 -0.98748920395E+02  0.17880564947E+03  0.92127338628E+02 0.  0.
        -11    1    3    3    0    0  0.20392595975E+02  0.85233542878E+02 -0.39069417103E+03  0.40040298461E+03  0.00000000000E+00 0.  1.
         12    1    3    3    0    0  0.69629969061E+02  0.22372381586E+02 -0.26230854066E+03  0.27231347112E+03  0.00000000000E+00 0. -1.
        -13    1    4    4    0    0 -0.82669400347E+02 -0.43600645802E+02 -0.28268789118E+02  0.97644101237E+02  0.00000000000E+00 0.  1.
         13    1    4    4    0    0  0.79327470746E+00 -0.40238274352E+02 -0.70480131277E+02  0.81161548238E+02  0.00000000000E+00 0. -1.
          1    1    1    2  501    0 -0.81464393959E+01 -0.23767004310E+02 -0.30931171542E+02  0.39849370656E+02  0.00000000000E+00 0. -1.
<scales pt_clust_5="13000.00000" pt_clust_6="13000.00000" pt_clust_7="13000.00000" pt_clust_8="13000.00000" pt_clust_9="25.12439"></scales>
<clustering>
<clus scale="   25.124">  1  9  2 -1</clus>
<clus scale="   80.323">  5  6 -1 -1</clus>
<clus scale="   92.127">  7  8 -1 -1</clus>
<clus scale="  157.668">  2  5  1 -1</clus>
<clus scale="   25.124">  1  5  2 -1</clus>
</clustering>
</event>
<event>
 9    2  0.1665830E-004  0.2119336E+03  0.7546771E-02  0.1181463E+00
         21   -1    0    0  501  502  0.00000000000E+00  0.00000000000E+00  0.54074517183E+02  0.54074517183E+02  0.00000000000E+00 0. -1.
          2   -1    0    0  502    0 -0.00000000000E+00 -0.00000000000E+00 -0.12516565953E+04  0.12516565953E+04  0.00000000000E+00 0. -1.
         24    2    1    2    0    0  0.72079215596E+01 -0.31852692443E+01 -0.82791512075E+02  0.11574627387E+03  0.80502579890E+02 0.  0.
         23    2    1    2    0    0  0.78062864454E+02  0.17129468569E+03 -0.75045666695E+03  0.77977626622E+03  0.97108888573E+02 0.  0.
        -13    1    3    3    0    0  0.30022020702E+02 -0.67324453733E+01 -0.86997656097E+02  0.92278056514E+02  0.00000000000E+00 0.  1.
         14    1    3    3    0    0 -0.22814099142E+02  0.35471761290E+01  0.42061440215E+01  0.23468217352E+02  0.00000000000E+00 0. -1.
        -13    1    4    4    0    0 -0.22920855416E+02  0.34927815003E+02 -0.13111393422E+03  0.13760879921E+03  0.00000000000E+00 0.  1.
         13    1    4    4    0    0  0.10098371987E+03  0.13636687068E+03 -0.61934273273E+03  0.64216746701E+03  0.00000000000E+00 0. -1.
          1    1    1    2  501    0 -0.85270786013E+02 -0.16810941644E+03 -0.36433389914E+03  0.41020857245E+03  0.00000000000E+00 0. -1.
<scales pt_clust_5="13000.00000" pt_clust_6="13000.00000" pt_clust_7="13000.00000" pt_clust_8="13000.00000" pt_clust_9="188.37648"></scales>
<clustering>
<clus scale="   80.503">  5  6 -1 -1</clus>
<clus scale="   80.887">  2  5  1 -1</clus>
<clus scale="   97.109">  7  8 -1 -1</clus>
<clus scale="  188.376">  1  9  2 -1</clus>
<clus scale="  188.376">  1  5  2 -1</clus>
</clustering>
</event>
<event>
 9    2  0.1665830E-004  0.1084500E+03  0.7546771E-02  0.1269423E+00
          4   -1    0    0  502    0 -0.00000000000E+00  0.00000000000E+00  0.17775324857E+03  0.17775324857E+03  0.00000000000E+00 0. -1.
         21   -1    0    0  501  502  0.00000000000E+00 -0.00000000000E+00 -0.16703448425E+03  0.16703448425E+03  0.00000000000E+00 0. -1.
         24    2    1    2    0    0  0.13428655359E+02 -0.11299854140E+02 -0.23715978425E+02  0.10758631223E+03  0.10346183576E+03 0.  0.
         23    2    1    2    0    0 -0.22898350834E+02 -0.74806099441E+02 -0.36327035417E+02  0.12534821490E+03  0.90951825115E+02 0.  0.
        -13    1    3    3    0    0 -0.26633233571E+02  0.11672421980E+02 -0.47459204124E+02  0.55659236623E+02  0.00000000000E+00 0.  1.
         14    1    3    3    0    0  0.40061888930E+02 -0.22972276120E+02  0.23743225699E+02  0.51927075609E+02  0.00000000000E+00 0. -1.
        -11    1    4    4    0    0 -0.32240073389E+02 -0.41652382444E+02  0.22422256299E+02  0.57245968181E+02  0.00000000000E+00 0.  1.
         11    1    4    4    0    0  0.93417225553E+01 -0.33153716996E+02 -0.58749291716E+02  0.68102246718E+02  0.00000000000E+00 0. -1.
          3    1    1    2  501    0  0.94696954752E+01  0.86105953580E+02  0.70761778167E+02  0.11185320569E+03  0.00000000000E+00 0. -1.
<scales pt_clust_5="13000.00000" pt_clust_6="13000.00000" pt_clust_7="13000.00000" pt_clust_8="13000.00000" pt_clust_9="86.62516"></scales>
<clustering>
<clus scale="   86.625">  2  9  1 -1</clus>
<clus scale="   90.952">  7  8 -1 -1</clus>
<clus scale="   96.588">  2  7  1 -1</clus>
<clus scale="  103.462">  5  6 -1 -1</clus>
<clus scale="   86.625">  2  5  1 -1</clus>
</clustering>
</event>
<event>
 9    2  0.1665830E-004  0.1484702E+03  0.7546771E-02  0.1203993E+00
         21   -1    0    0  501  502  0.00000000000E+00  0.00000000000E+00  0.12979222524E+03  0.12979222524E+03  0.00000000000E+00 0. -1.
          2   -1    0    0  502    0 -0.00000000000E+00 -0.00000000000E+00 -0.19960233252E+03  0.19960233252E+03  0.00000000000E+00 0. -1.
         24    2    1    2    0    0 -0.87484648238E+02  0.69428933710E+02 -0.30101783571E+02  0.14030521021E+03  0.79407141522E+02 0.  0.
         23    2    1    2    0    0  0.10951205900E+03 -0.69068698504E+02 -0.17335431375E+02  0.15769057519E+03  0.88331331600E+02 0.  0.
        -11    1    3    3    0    0 -0.60083735008E+02 -0.87309580874E+00 -0.23650194484E+02  0.64576692452E+02  0.00000000000E+00 0.  1.
         12    1    3    3    0    0 -0.27400913230E+02  0.70302029519E+02 -0.64515890873E+01  0.75728517759E+02  0.00000000000E+00 0. -1.
        -13    1    4    4    0    0 -0.23766578486E+00 -0.37470377275E+02  0.12759572207E+02  0.39583990970E+02  0.00000000000E+00 0.  1.
         13    1    4    4    0    0  0.10974972478E+03 -0.31598321228E+02 -0.30095003582E+02  0.11810658422E+03  0.00000000000E+00 0. -1.
          1    1    1    2  501    0 -0.22027410761E+02 -0.36023520643E+00 -0.22372892338E+02  0.31398772361E+02  0.00000000000E+00 0. -1.
<scales pt_clust_5="13000.00000" pt_clust_6="13000.00000" pt_clust_7="13000.00000" pt_clust_8="13000.00000" pt_clust_9="22.03037"></scales>
<clustering>
<clus scale="   22.030">  1  9  2 -1</clus>
<clus scale="   79.407">  5  6 -1 -1</clus>
<clus scale="   88.331">  7  8 -1 -1</clus>
<clus scale="  143.340">  2  5  1 -1</clus>
<clus scale="   22.030">  1  5  2 -1</clus>
</clustering>
</event>
<event>
 9    2  0.1665830E-004  0.9104070E+02  0.7546771E-02  0.1305434E+00
         21   -1    0    0  501  502  0.00000000000E+00  0.00000000000E+00  0.15555242182E+03  0.15555242182E+03  0.00000000000E+00 0. -1.
          2   -1    0    0  502    0 -0.00000000000E+00 -0.00000000000E+00 -0.18935854886E+03  0.18935854886E+03  0.00000000000E+00 0. -1.
         24    2    1    2    0    0 -0.14674632172E+02 -0.86152537942E+01 -0.61336559139E+02  0.10291883887E+03  0.80873645151E+02 0.  0.
         23    2    1    2    0    0  0.38148383529E+02 -0.63119350154E+02  0.87920064952E+02  0.14532891148E+03  0.89169519242E+02 0.  0.
        -11    1    3    3    0    0  0.17108966740E+02  0.23493596176E+02 -0.31231443061E+01  0.29230460731E+02  0.00000000000E+00 0.  1.
         12    1    3    3    0    0 -0.31783598911E+02 -0.32108849970E+02 -0.58213414833E+02  0.73688378139E+02  0.00000000000E+00 0. -1.
        -13    1    4    4    0    0  0.66301528295E+02 -0.32385213517E+02  0.51546692572E+02  0.90009756271E+02  0.00000000000E+00 0.  1.
         13    1    4    4    0    0 -0.28153144766E+02 -0.30734136637E+02  0.36373372381E+02  0.55319155212E+02  0.00000000000E+00 0. -1.
          1    1    1    2  501    0 -0.23473751358E+02  0.71734603948E+02 -0.60389632852E+02  0.96663220319E+02  0.00000000000E+00 0. -1.
<scales pt_clust_5="13000.00000" pt_clust_6="13000.00000" pt_clust_7="13000.00000" pt_clust_8="13000.00000" pt_clust_9="75.47765"></scales>
<clustering>
<clus scale="   75.478">  1  9  2 -1</clus>
<clus scale="   80.874">  5  6 -1 -1</clus>
<clus scale="   82.932">  2  5  1 -1</clus>
<clus scale="   89.170">  7  8 -1 -1</clus>
<clus scale="   75.478">  1  5  2 -1</clus>
</clustering>
</event>
<event>
 9    2  0.1665830E-004  0.1266356E+03  0.7546771E-02  0.1234896E+00
         21   -1    0    0  501  502  0.00000000000E+00  0.00000000000E+00  0.37782090896E+02  0.37782090896E+02  0.00000000000E+00 0. -1.
          2   -1    0    0  502    0 -0.00000000000E+00 -0.00000000000E+00 -0.17651529325E+04  0.17651529325E+04  0.00000000000E+00 0. -1.
         24    2    1    2    0    0 -0.75854460609E+02  0.59455181897E+02 -0.13980091669E+04  0.14037687035E+04  0.82753394174E+02 0.  0.
         23    2    1    2    0    0  0.66898696152E+02 -0.83128810328E+01 -0.32817155231E+03  0.34723215929E+03  0.91263712167E+02 0.  0.
        -13    1    3    3    0    0 -0.18468522126E+02  0.40978606092E+02 -0.23882767329E+03  0.24302055468E+03  0.00000000000E+00 0.  1.
         14    1    3    3    0    0 -0.57385938483E+02  0.18476575805E+02 -0.11591814936E+04  0.11607481488E+04  0.00000000000E+00 0. -1.
        -11    1    4    4    0    0 -0.39017691086E+00 -0.39354993122E+02 -0.11315400811E+03  0.11980316053E+03  0.00000000000E+00 0.  1.
         11    1    4    4    0    0  0.67288873062E+02  0.31042112089E+02 -0.21501754420E+03  0.22742899876E+03  0.00000000000E+00 0. -1.
          1    1    1    2  501    0  0.89557644572E+01 -0.51142300864E+02 -0.11901224350E+01  0.51934160686E+02  0.00000000000E+00 0. -1.
<scales pt_clust_5="13000.00000" pt_clust_6="13000.00000" pt_clust_7="13000.00000" pt_clust_8="13000.00000" pt_clust_9="51.92052"></scales>
<clustering>
<clus scale="   51.921">  1  9  2 -1</clus>
<clus scale="   82.753">  5  6 -1 -1</clus>
<clus scale="   91.264">  7  8 -1 -1</clus>
<clus scale="  120.647">  2  5  1 -1</clus>
<clus scale="   51.921">  1  5  2 -1</clus>
</clustering>
</event>
<event>
 9    2  0.1665830E-004  0.1015303E+03  0.7546771E-02  0.1285550E+00
         21   -1    0    0  501  502  0.00000000000E+00  0.00000000000E+00  0.81554657528E+02  0.81554657528E+02  0.00000000000E+00 0.  1.
         -3   -1    0    0    0  501 -0.00000000000E+00 -0.00000000000E+00 -0.33925567928E+03  0.33925567928E+03  0.00000000000E+00 0.  1.
         23    2    1    2    0    0 -0.39679210916E+02  0.29070722768E+02 -0.22243395378E+03  0.24656002009E+03  0.94315603228E+02 0.  0.
         24    2    1    2    0    0 -0.18246661233E+02  0.17893340942E+01  0.26321691728E+02  0.84245177446E+02  0.77899140591E+02 0.  0.
        -11    1    4    4    0    0 -0.44513873089E+02 -0.10925793681E+01  0.34778868754E+02  0.56499985300E+02  0.00000000000E+00 0.  1.
         12    1    4    4    0    0  0.26267211857E+02  0.28819134623E+01 -0.84571770267E+01  0.27745192145E+02  0.00000000000E+00 0. -1.
        -11    1    3    3    0    0  0.20899048241E+02  0.26888961163E+02 -0.32074209794E+02  0.46781848870E+02  0.00000000000E+00 0. -1.
         11    1    3    3    0    0 -0.60578259157E+02  0.21817616047E+01 -0.19035974399E+03  0.19977817122E+03  0.00000000000E+00 0.  1.
         -4    1    1    2    0  502  0.57925872149E+02 -0.30860056862E+02 -0.61588759695E+02  0.90005139267E+02  0.00000000000E+00 0.  1.
<scales pt_clust_5="13000.00000" pt_clust_6="13000.00000" pt_clust_7="13000.00000" pt_clust_8="13000.00000" pt_clust_9="65.63348"></scales>
<clustering>
<clus scale="   65.633">  1  9  2 -1</clus>
<clus scale="   77.899">  5  6 -1 -1</clus>
<clus scale="   86.494">  1  5  2 -1</clus>
<clus scale="   94.316">  7  8 -1 -1</clus>
<clus scale="   65.633">  1  5  2 -1</clus>
</clustering>
</event>
<event>
 9    2  0.1665830E-004  0.9228130E+02  0.7546771E-02  0.1304901E+00
         21   -1    0    0  501  502  0.00000000000E+00  0.00000000000E+00  0.28171131061E+02  0.28171131061E+02  0.00000000000E+00 0.  1.
          4   -1    0    0  502    0 -0.00000000000E+00 -0.00000000000E+00 -0.11915438124E+04  0.11915438124E+04  0.00000000000E+00 0. -1.
         24    2    1    2    0    0  0.57117924434E+01 -0.57670936549E+01 -0.10132251272E+04  0.10163907370E+04  0.79743890283E+02 0.  0.
         23    2    1    2    0    0 -0.20299682061E+02  0.21935868862E+02 -0.15350535509E+03  0.18128990039E+03  0.91699915519E+02 0.  0.
        -11    1    3    3    0    0 -0.65255575347E+01  0.19418973960E+02 -0.74991182431E+02  0.77739030694E+02  0.00000000000E+00 0.  1.
         12    1    3    3    0    0  0.12237349978E+02 -0.25186067615E+02 -0.93823394473E+03  0.93865170632E+03  0.00000000000E+00 0. -1.
        -11    1    4    4    0    0  0.33702367038E+02  0.24647041975E+02 -0.77227346460E+02  0.87791738013E+02  0.00000000000E+00 0.  1.
         11    1    4    4    0    0 -0.54002049100E+02 -0.27111731128E+01 -0.76278008631E+02  0.93498162374E+02  0.00000000000E+00 0. -1.
          3    1    1    2  501    0  0.14587889618E+02 -0.16168775207E+02  0.33578009383E+01  0.22034306033E+02  0.00000000000E+00 0. -1.
<scales pt_clust_5="13000.00000" pt_clust_6="13000.00000" pt_clust_7="13000.00000" pt_clust_8="13000.00000" pt_clust_9="21.77696"></scales>
<clustering>
<clus scale="   21.777">  1  9  2 -1</clus>
<clus scale="   79.744">  5  6 -1 -1</clus>
<clus scale="   80.412">  2  5  1 -1</clus>
<clus scale="   91.700">  7  8 -1 -1</clus>
<clus scale="   21.777">  1  5  2 -1</clus>
</clustering>
</event>
<event>
 9    2  0.1665830E-004  0.1175324E+03  0.7546771E-02  0.1249934E+00
         21   -1    0    0  501  502  0.00000000000E+00  0.00000000000E+00  0.53473400098E+02  0.53473400098E+02  0.00000000000E+00 0.  1.
         -1   -1    0    0    0  501 -0.00000000000E+00 -0.00000000000E+00 -0.60518049949E+03  0.60518049949E+03  0.00000000000E+00 0.  1.
         24    2    1    2    0    0  0.52671340622E+02  0.23438964293E+02 -0.15780979307E+03  0.18611531592E+03  0.80070749109E+02 0.  0.
         23    2    1    2    0    0 -0.26454346906E+02 -0.11325511640E+03 -0.32499062455E+03  0.35633874402E+03  0.88497686901E+02 0.  0.
        -11    1    3    3    0    0 -0.13094487919E+02 -0.15337199090E+02 -0.50852151729E+02  0.54704996346E+02  0.00000000000E+00 0.  1.
         12    1    3    3    0    0  0.65765828542E+02  0.38776163382E+02 -0.10695764134E+03  0.13141031958E+03  0.00000000000E+00 0. -1.
        -11    1    4    4    0    0 -0.36980769243E+02 -0.51709346293E+01 -0.91698444491E+02  0.99009699428E+02  0.00000000000E+00 0. -1.
         11    1    4    4    0    0  0.10526422337E+02 -0.10808418177E+03 -0.23329218005E+03  0.25732904459E+03  0.00000000000E+00 0.  1.
         -2    1    1    2    0  502 -0.26216993717E+02  0.89816152111E+02 -0.68906681781E+02  0.11619983965E+03  0.00000000000E+00 0.  1.
<scales pt_clust_5="13000.00000" pt_clust_6="13000.00000" pt_clust_7="13000.00000" pt_clust_8="13000.00000" pt_clust_9="93.56427"></scales>
<clustering>
<clus scale="   80.071">  5  6 -1 -1</clus>
<clus scale="   88.498">  7  8 -1 -1</clus>
<clus scale="   93.564">  1  9  2 -1</clus>
<clus scale="  111.325">  2  5  1 -1</clus>
<clus scale="   93.564">  1  5  2 -1</clus>
</clustering>
</event>
<event>
 9    2  0.1665830E-004  0.1612974E+03  0.7546771E-02  0.1189114E+00
         21   -1    0    0  501  502  0.00000000000E+00  0.00000000000E+00  0.45012348502E+02  0.45012348502E+02  0.00000000000E+00 0. -1.
          2   -1    0    0  502    0 -0.00000000000E+00 -0.00000000000E+00 -0.17377744928E+04  0.17377744928E+04  0.00000000000E+00 0. -1.
         24    2    1    2    0    0 -0.14180024910E+03 -0.23895557896E+02 -0.15154867775E+04  0.15243331764E+04  0.78823547194E+02 0.  0.
         23    2    1    2    0    0  0.70923551466E+02  0.10520888812E+02 -0.10597415586E+03  0.15703250972E+03  0.91037619390E+02 0.  0.
        -13    1    3    3    0    0 -0.63960513234E+02  0.52088883257E+01 -0.34622242769E+03  0.35211936784E+03  0.00000000000E+00 0.  1.
         14    1    3    3    0    0 -0.77839735865E+02 -0.29104446221E+02 -0.11692643498E+04  0.11722138085E+04  0.00000000000E+00 0. -1.
        -13    1    4    4    0    0  0.30155539650E+02 -0.20548002402E+01  0.11277014965E+02  0.32260654707E+02  0.00000000000E+00 0. -1.
         13    1    4    4    0    0  0.40768011816E+02  0.12575689053E+02 -0.11725117083E+03  0.12477185501E+03  0.00000000000E+00 0.  1.
          1    1    1    2  501    0  0.70876697633E+02  0.13374669083E+02 -0.71301211011E+02  0.10142115525E+03  0.00000000000E+00 0. -1.
<scales pt_clust_5="13000.00000" pt_clust_6="13000.00000" pt_clust_7="13000.00000" pt_clust_8="13000.00000" pt_clust_9="72.12758"></scales>
<clustering>
<clus scale="   72.128">  1  9  2 -1</clus>
<clus scale="   78.824">  5  6 -1 -1</clus>
<clus scale="   91.038">  7  8 -1 -1</clus>
<clus scale="  154.733">  2  5  1 -1</clus>
<clus scale="   72.128">  1  5  2 -1</clus>
</clustering>
</event>
<event>
 9    2  0.1665830E-004  0.1445752E+03  0.7546771E-02  0.1229023E+00
          2   -1    0    0  502    0 -0.00000000000E+00  0.00000000000E+00  0.25016655176E+03  0.25016655176E+03  0.00000000000E+00 0. -1.
         21   -1    0    0  501  502  0.00000000000E+00 -0.00000000000E+00 -0.12972445391E+03  0.12972445391E+03  0.00000000000E+00 0.  1.
         23    2    1    2    0    0  0.11899395504E+02 -0.32487892889E+01  0.55151542418E+02  0.10683143597E+03  0.90659322931E+02 0.  0.
         24    2    1    2    0    0 -0.38665513202E+02  0.11763417141E+03  0.37734677220E+02  0.15239570965E+03  0.80422175172E+02 0.  0.
        -13    1    4    4    0    0 -0.30296228577E+02  0.12897797203E+03  0.39344665932E+02  0.13820702396E+03  0.00000000000E+00 0.  1.
         14    1    4    4    0    0 -0.83692846247E+01 -0.11343800624E+02 -0.16099887122E+01  0.14188685682E+02  0.00000000000E+00 0. -1.
        -11    1    3    3    0    0  0.36722677494E+02 -0.35467032015E+01 -0.90586205239E+01  0.37989376827E+02  0.00000000000E+00 0.  1.
         11    1    3    3    0    0 -0.24823281990E+02  0.29791391261E+00  0.64210162942E+02  0.68842059139E+02  0.00000000000E+00 0. -1.
          1    1    1    2  501    0  0.26766117699E+02 -0.11438538212E+03  0.27555878211E+02  0.12066386006E+03  0.00000000000E+00 0. -1.
<scales pt_clust_5="13000.00000" pt_clust_6="13000.00000" pt_clust_7="13000.00000" pt_clust_8="13000.00000" pt_clust_9="120.14271"></scales>
<clustering>
<clus scale="   80.422">  5  6 -1 -1</clus>
<clus scale="   90.659">  7  8 -1 -1</clus>
<clus scale="   91.495">  1  7  2 -1</clus>
<clus scale="  120.143">  2  9  1 -1</clus>
<clus scale="  120.143">  2  5  1 -1</clus>
</clustering>
</event>
<event>
 9    2  0.1665830E-004  0.1312531E+03  0.7546771E-02  0.1253359E+00
          2   -1    0    0  502    0 -0.00000000000E+00  0.00000000000E+00  0.28316982285E+03  0.28316982285E+03  0.00000000000E+00 0. -1.
         21   -1    0    0  501  502  0.00000000000E+00 -0.00000000000E+00 -0.84609790388E+02  0.84609790388E+02  0.00000000000E+00 0.  1.
         24    2    1    2    0    0 -0.25331895357E+01  0.38160959048E+01  0.27067999511E+02  0.79416864929E+02  0.74521018514E+02 0.  0.
         23    2    1    2    0    0  0.48749666213E+02  0.78302260785E+02  0.13416245771E+03  0.18700750962E+03  0.92002552117E+02 0.  0.
        -11    1    3    3    0    0 -0.20547279244E+02 -0.33159167501E+01 -0.19784752500E+02  0.28716239651E+02  0.00000000000E+00 0.  1.
         12    1    3    3    0    0  0.18014089708E+02  0.71320126550E+01  0.46852752011E+02  0.50700625278E+02  0.00000000000E+00 0. -1.
        -13    1    4    4    0    0  0.72878024637E+02  0.36912105772E+02  0.93568986326E+02  0.12421298334E+03  0.00000000000E+00 0.  1.
         13    1    4    4    0    0 -0.24128358424E+02  0.41390155013E+02  0.40593471387E+02  0.62794526286E+02  0.00000000000E+00 0. -1.
          1    1    1    2  501    0 -0.46216476677E+02 -0.82118356690E+02  0.37329575240E+02  0.10135523869E+03  0.00000000000E+00 0. -1.
<scales pt_clust_5="13000.00000" pt_clust_6="13000.00000" pt_clust_7="13000.00000" pt_clust_8="13000.00000" pt_clust_9="93.61034"></scales>
<clustering>
<clus scale="   74.521">  5  6 -1 -1</clus>
<clus scale="   74.662">  1  5  2 -1</clus>
<clus scale="   92.003">  7  8 -1 -1</clus>
<clus scale="   93.610">  2  9  1 -1</clus>
<clus scale="   93.610">  2  5  1 -1</clus>
</clustering>
</event>
<event>
 9    2  0.1665830E-004  0.1269692E+03  0.7546771E-02  0.1236386E+00
          2   -1    0    0  502    0 -0.00000000000E+00  0.00000000000E+00  0.15378434962E+03  0.15378434962E+03  0.00000000000E+00 0. -1.
         21   -1    0    0  501  502  0.00000000000E+00 -0.00000000000E+00 -0.16969136215E+03  0.16969136215E+03  0.00000000000E+00 0. -1.
         24    2    1    2    0    0  0.54581967073E+02 -0.65316322675E+02  0.48110744674E+02  0.12406434469E+03  0.76366908622E+02 0.  0.
         23    2    1    2    0    0 -0.92523640623E+02  0.42011476646E+02 -0.70901126312E+02  0.15435509992E+03  0.92048568239E+02 0.  0.
        -13    1    3    3    0    0  0.44401717388E+02  0.16943019746E+01  0.75366593811E+01  0.45068663180E+02  0.00000000000E+00 0.  1.
         14    1    3    3    0    0  0.10180249684E+02 -0.67010624649E+02  0.40574085292E+02  0.78995681508E+02  0.00000000000E+00 0. -1.
        -11    1    4    4    0    0 -0.62559339652E+02 -0.19329554087E+02 -0.51728698220E+02  0.83445556254E+02  0.00000000000E+00 0. -1.
         11    1    4    4    0    0 -0.29964300971E+02  0.61341030733E+02 -0.19172428092E+02  0.70909543666E+02  0.00000000000E+00 0.  1.
          1    1    1    2  501    0  0.37941673550E+02  0.23304846029E+02  0.68833691030E+01  0.45056267161E+02  0.00000000000E+00 0. -1.
<scales pt_clust_5="13000.00000" pt_clust_6="13000.00000" pt_clust_7="13000.00000" pt_clust_8="13000.00000" pt_clust_9="44.52739"></scales>
<clustering>
<clus scale="   44.527">  2  9  1 -1</clus>
<clus scale="   76.367">  5  6 -1 -1</clus>
<clus scale="   92.049">  7  8 -1 -1</clus>
<clus scale="  116.104">  1  5  2 -1</clus>
<clus scale="   44.527">  2  5  1 -1</clus>
</clustering>
</event>
<event>
 9    2  0.1665830E-004  0.1206767E+03  0.7546771E-02  0.1249603E+00
          2   -1    0    0  502    0 -0.00000000000E+00  0.00000000000E+00  0.30565275005E+03  0.30565275005E+03  0.00000000000E+00 0. -1.
         21   -1    0    0  501  502  0.00000000000E+00 -0.00000000000E+00 -0.55778866246E+02  0.55778866246E+02  0.00000000000E+00 0.  1.
         24    2    1    2    0    0 -0.28886412005E+02 -0.55479489447E+02  0.14342254505E+03  0.17515034919E+03  0.78709718880E+02 0.  0.
         23    2    1    2    0    0  0.50570068898E+02  0.60890117045E+02  0.76296624162E+02  0.14874777966E+03  0.10019874687E+03 0.  0.
        -11    1    3    3    0    0 -0.52780369313E+02 -0.17483436448E+02  0.82135614676E+02  0.99185165892E+02  0.00000000000E+00 0.  1.
         12    1    3    3    0    0  0.23893957308E+02 -0.37996052999E+02  0.61286930373E+02  0.75965183301E+02  0.00000000000E+00 0. -1.
        -11    1    4    4    0    0 -0.17394363245E+02  0.13045214694E+02 -0.14126108073E+02  0.25928525381E+02  0.00000000000E+00 0.  1.
         11    1    4    4    0    0  0.67964432143E+02  0.47844902350E+02  0.90422732235E+02  0.12281925428E+03  0.00000000000E+00 0. -1.
          1    1    1    2  501    0 -0.21683656893E+02 -0.54106275975E+01  0.30154714588E+02  0.37533487436E+02  0.00000000000E+00 0. -1.
<scales pt_clust_5="13000.00000" pt_clust_6="13000.00000" pt_clust_7="13000.00000" pt_clust_8="13000.00000" pt_clust_9="22.34852"></scales>
<clustering>
<clus scale="   22.349">  2  9  1 -1</clus>
<clus scale="   78.710">  5  6 -1 -1</clus>
<clus scale="  100.199">  7  8 -1 -1</clus>
<clus scale="  103.529">  1  5  2 -1</clus>
<clus scale="   22.349">  2  5  1 -1</clus>
</clustering>
</event>
<event>
 9    2  0.1665830E-004  0.9968434E+02  0.7546771E-02  0.1285858E+00
         21   -1    0    0  501  502  0.00000000000E+00  0.00000000000E+00  0.32554770131E+02  0.32554770131E+02  0.00000000000E+00 0.  1.
         -1   -1    0    0    0  501 -0.00000000000E+00 -0.00000000000E+00 -0.51159570936E+03  0.51159570936E+03  0.00000000000E+00 0.  1.
         24    2    1    2    0    0 -0.27866078126E+02  0.11110511461E+01 -0.25444181216E+03  0.26907199515E+03  0.82953903205E+02 0.  0.
         23    2    1    2    0    0  0.57667685017E+02 -0.32167272787E+02 -0.14163562400E+03  0.18161422637E+03  0.92535300830E+02 0.  0.
        -13    1    3    3    0    0 -0.23822934794E+02  0.27840868494E+02 -0.45648035602E+02  0.58535368241E+02  0.00000000000E+00 0.  1.
         14    1    3    3    0    0 -0.40431433316E+01 -0.26729817348E+02 -0.20879377656E+03  0.21053662691E+03  0.00000000000E+00 0. -1.
        -11    1    4    4    0    0  0.81973495320E+02 -0.33320163581E+02 -0.11968378048E+03  0.14884251592E+03  0.00000000000E+00 0.  1.
         11    1    4    4    0    0 -0.24305810303E+02  0.11528907940E+01 -0.21951843522E+02  0.32771710448E+02  0.00000000000E+00 0. -1.
         -2    1    1    2    0  502 -0.29801606891E+02  0.31056221641E+02 -0.82963503065E+02  0.93464257964E+02  0.00000000000E+00 0.  1.
<scales pt_clust_5="13000.00000" pt_clust_6="13000.00000" pt_clust_7="13000.00000" pt_clust_8="13000.00000" pt_clust_9="43.04215"></scales>
<clustering>
<clus scale="   43.042">  1  9  2 -1</clus>
<clus scale="   82.954">  5  6 -1 -1</clus>
<clus scale="   90.860">  2  5  1 -1</clus>
<clus scale="   92.535">  7  8 -1 -1</clus>
<clus scale="   43.042">  1  5  2 -1</clus>
</clustering>
</event>
<event>
 9    2  0.1665830E-004  0.9701315E+02  0.7546771E-02  0.1292802E+00
         21   -1    0    0  501  502  0.00000000000E+00  0.00000000000E+00  0.18194670970E+03  0.18194670970E+03  0.00000000000E+00 0. -1.
          2   -1    0    0  502    0 -0.00000000000E+00 -0.00000000000E+00 -0.16170511820E+03  0.16170511820E+03  0.00000000000E+00 0. -1.
         23    2    1    2    0    0 -0.23918064358E+02  0.15387516072E+02 -0.29481412459E+02  0.98977300476E+02  0.90102735116E+02 0.  0.
         24    2    1    2    0    0  0.51324035074E+02 -0.43240384224E+02  0.12355524548E+03  0.16113968808E+03  0.78716027490E+02 0.  0.
        -11    1    4    4    0    0  0.45257506529E+02  0.11409493143E+02  0.42055611266E+02  0.62825893308E+02  0.00000000000E+00 0.  1.
         12    1    4    4    0    0  0.60665285444E+01 -0.54649877367E+02  0.81499634215E+02  0.98313794770E+02  0.00000000000E+00 0. -1.
        -11    1    3    3    0    0  0.23210759376E+02  0.34217141055E+02 -0.23123274138E+01  0.41411338434E+02  0.00000000000E+00 0.  1.
         11    1    3    3    0    0 -0.47128823734E+02 -0.18829624983E+02 -0.27169085045E+02  0.57565962042E+02  0.00000000000E+00 0. -1.
          1    1    1    2  501    0 -0.27405970715E+02  0.27852868152E+02 -0.73832241528E+02  0.83534839344E+02  0.00000000000E+00 0. -1.
<scales pt_clust_5="13000.00000" pt_clust_6="13000.00000" pt_clust_7="13000.00000" pt_clust_8="13000.00000" pt_clust_9="39.07520"></scales>
<clustering>
<clus scale="   39.075">  1  9  2 -1</clus>
<clus scale="   78.716">  5  6 -1 -1</clus>
<clus scale="   86.541">  1  5  2 -1</clus>
<clus scale="   90.103">  7  8 -1 -1</clus>
<clus scale="   39.075">  1  5  2 -1</clus>
</clustering>
</event>
<event>
 9    2  0.1665830E-004  0.1711560E+03  0.7546771E-02  0.1209275E+00
         21   -1    0    0  501  502  0.00000000000E+00  0.00000000000E+00  0.13043885932E+03  0.13043885932E+03  0.00000000000E+00 0. -1.
          2   -1    0    0  502    0 -0.00000000000E+00 -0.00000000000E+00 -0.31772466438E+03  0.31772466438E+03  0.00000000000E+00 0. -1.
         24    2    1    2    0    0  0.24999939089E+02  0.97227192868E+01 -0.29418112706E+02  0.88559656099E+02  0.79106631254E+02 0.  0.
         23    2    1    2    0    0  0.98565953483E+02  0.93425532789E+02 -0.65881009122E+02  0.17421335651E+03  0.86985107110E+02 0.  0.
        -11    1    3    3    0    0 -0.69599216199E+00  0.22023780205E+02 -0.49178150003E+02  0.53888976028E+02  0.00000000000E+00 0.  1.
         12    1    3    3    0    0  0.25695931251E+02 -0.12301060918E+02  0.19760037297E+02  0.34670680071E+02  0.00000000000E+00 0. -1.
        -11    1    4    4    0    0  0.78844423655E+02  0.67061524936E+02 -0.33698726744E+01  0.10356180430E+03  0.00000000000E+00 0. -1.
         11    1    4    4    0    0  0.19721529828E+02  0.26364007853E+02 -0.62511136448E+02  0.70651552204E+02  0.00000000000E+00 0.  1.
          1    1    1    2  501    0 -0.12356589257E+03 -0.10314825208E+03 -0.91986683229E+02  0.18539051110E+03  0.00000000000E+00 0. -1.
<scales pt_clust_5="13000.00000" pt_clust_6="13000.00000" pt_clust_7="13000.00000" pt_clust_8="13000.00000" pt_clust_9="147.40423"></scales>
<clustering>
<clus scale="   79.107">  5  6 -1 -1</clus>
<clus scale="   83.531">  2  5  1 -1</clus>
<clus scale="   86.985">  7  8 -1 -1</clus>
<clus scale="  147.404">  1  9  2 -1</clus>
<clus scale="  147.404">  1  5  2 -1</clus>
</clustering>
</event>
<event>
 9    2  0.1665830E-004  0.3779370E+03  0.7546771E-02  0.1097588E+00
          2   -1    0    0  502    0 -0.00000000000E+00  0.00000000000E+00  0.10603896382E+04  0.10603896382E+04  0.00000000000E+00 0. -1.
         21   -1    0    0  501  502  0.00000000000E+00 -0.00000000000E+00 -0.66806630147E+03  0.66806630147E+03  0.00000000000E+00 0. -1.
         23    2    1    2    0    0 -0.30216139950E+02  0.42368417462E+02  0.73454950748E+01  0.10860007882E+03  0.95036429378E+02 0.  0.
         24    2    1    2    0    0  0.39820468012E+03 -0.39240788994E+02  0.89932312319E+03  0.98741897354E+03  0.78149488925E+02 0.  0.
        -11    1    4    4    0    0  0.15219967666E+03 -0.86338991088E+01  0.43699157548E+03  0.46281845558E+03  0.00000000000E+00 0.  1.
         12    1    4    4    0    0  0.24600500346E+03 -0.30606889885E+02  0.46233154771E+03  0.52460051796E+03  0.00000000000E+00 0. -1.
        -13    1    3    3    0    0  0.58831852142E+01  0.51541497438E+02 -0.26517837838E+02  0.58260909279E+02  0.00000000000E+00 0.  1.
         13    1    3    3    0    0 -0.36099325164E+02 -0.91730799757E+01  0.33863332913E+02  0.50339169536E+02  0.00000000000E+00 0. -1.
          1    1    1    2  501    0 -0.36798854017E+03 -0.31276284688E+01 -0.51434528155E+03  0.63243688729E+03  0.00000000000E+00 0. -1.
<scales pt_clust_5="13000.00000" pt_clust_6="13000.00000" pt_clust_7="13000.00000" pt_clust_8="13000.00000" pt_clust_9="369.76891"></scales>
<clustering>
<clus scale="   78.149">  5  6 -1 -1</clus>
<clus scale="   95.036">  7  8 -1 -1</clus>
<clus scale="  108.351">  1  7  2 -1</clus>
<clus scale="  369.769">  2  9  1 -1</clus>
<clus scale="  369.769">  2  5  1 -1</clus>
</clustering>
</event>
<event>
 9    2  0.1665830E-004  0.1589329E+03  0.7546771E-02  0.1191920E+00
         21   -1    0    0  501  502  0.00000000000E+00  0.00000000000E+00  0.57313922459E+02  0.57313922459E+02  0.00000000000E+00 0.  1.
         -3   -1    0    0    0  501 -0.00000000000E+00 -0.00000000000E+00 -0.71583567417E+03  0.71583567417E+03  0.00000000000E+00 0.  1.
         23    2    1    2    0    0  0.60176747572E+02 -0.96077473971E+02 -0.27992308630E+03  0.31513321455E+03  0.89999370634E+02 0.  0.
         24    2    1    2    0    0 -0.24688897356E+02  0.16226585064E+03 -0.28784885101E+03  0.34022072200E+03  0.77158477940E+02 0.  0.
        -13    1    4    4    0    0 -0.79043574412E+01  0.16103441475E+03 -0.23685928517E+03  0.28652553563E+03  0.00000000000E+00 0.  1.
         14    1    4    4    0    0 -0.16784539915E+02  0.12314358861E+01 -0.50989565840E+02  0.53695186368E+02  0.00000000000E+00 0. -1.
        -11    1    3    3    0    0  0.78302629148E+02 -0.59056432060E+02 -0.23225980549E+03  0.25211818884E+03  0.00000000000E+00 0.  1.
         11    1    3    3    0    0 -0.18125881576E+02 -0.37021041911E+02 -0.47663280813E+02  0.63015025708E+02  0.00000000000E+00 0. -1.
         -4    1    1    2    0  502 -0.35487850215E+02 -0.66188376667E+02 -0.90749814401E+02  0.11779566007E+03  0.00000000000E+00 0.  1.
<scales pt_clust_5="13000.00000" pt_clust_6="13000.00000" pt_clust_7="13000.00000" pt_clust_8="13000.00000" pt_clust_9="75.10186"></scales>
<clustering>
<clus scale="   75.102">  1  9  2 -1</clus>
<clus scale="   77.158">  5  6 -1 -1</clus>
<clus scale="   89.999">  7  8 -1 -1</clus>
<clus scale="  152.030">  1  5  2 -1</clus>
<clus scale="   75.102">  1  5  2 -1</clus>
</clustering>
</event>
<event>
 9    2  0.1665830E-004  0.9319357E+02  0.7546771E-02  0.1301221E+00
         21   -1    0    0  501  502  0.00000000000E+00  0.00000000000E+00  0.12762119090E+03  0.12762119090E+03  0.00000000000E+00 0.  1.
          2   -1    0    0  502    0 -0.00000000000E+00 -0.00000000000E+00 -0.48774473672E+03  0.48774473672E+03  0.00000000000E+00 0. -1.
         24    2    1    2    0    0  0.19660307919E+02  0.11785877114E+02 -0.44136917669E+03  0.44913398347E+03  0.79932161025E+02 0.  0.
         23    2    1    2    0    0 -0.55367128689E+02 -0.65223459855E+01  0.44821895249E+02  0.11495455804E+03  0.89986044381E+02 0.  0.
        -11    1    3    3    0    0  0.30770416688E+02  0.35110661813E+02 -0.16258195737E+03  0.16915220950E+03  0.00000000000E+00 0.  1.
         12    1    3    3    0    0 -0.11110108768E+02 -0.23324784699E+02 -0.27878721932E+03  0.27998177397E+03  0.00000000000E+00 0. -1.
        -11    1    4    4    0    0 -0.16823791444E+02  0.35825406870E+02  0.41871063115E+02  0.57616713394E+02  0.00000000000E+00 0.  1.
         11    1    4    4    0    0 -0.38543337246E+02 -0.42347752856E+02  0.29508321337E+01  0.57337844643E+02  0.00000000000E+00 0. -1.
          1    1    1    2  501    0  0.35706820770E+02 -0.52635311287E+01  0.36423735631E+02  0.51277386115E+02  0.00000000000E+00 0. -1.
<scales pt_clust_5="13000.00000" pt_clust_6="13000.00000" pt_clust_7="13000.00000" pt_clust_8="13000.00000" pt_clust_9="36.09268"></scales>
<clustering>
<clus scale="   36.093">  1  9  2 -1</clus>
<clus scale="   79.932">  5  6 -1 -1</clus>
<clus scale="   83.527">  2  5  1 -1</clus>
<clus scale="   89.986">  7  8 -1 -1</clus>
<clus scale="   36.093">  1  5  2 -1</clus>
</clustering>
</event>
<event>
 9    2  0.1665830E-004  0.9629439E+02  0.7546771E-02  0.1294088E+00
         21   -1    0    0  501  502  0.00000000000E+00  0.00000000000E+00  0.62977075294E+03  0.62977075294E+03  0.00000000000E+00 0. -1.
          2   -1    0    0  502    0 -0.00000000000E+00 -0.00000000000E+00 -0.20606842282E+03  0.20606842282E+03  0.00000000000E+00 0. -1.
         24    2    1    2    0    0  0.28624741437E+02 -0.42094518059E+02 -0.13025711780E+03  0.16120690052E+03  0.80183687648E+02 0.  0.
         23    2    1    2    0    0  0.34900213033E+02 -0.14055003451E+01 -0.16811818391E+02  0.98691731529E+02  0.90760235420E+02 0.  0.
        -11    1    3    3    0    0 -0.91111311528E+01 -0.53825479018E+02 -0.64628446558E+02  0.84599237626E+02  0.00000000000E+00 0.  1.
         12    1    3    3    0    0  0.37735872590E+02  0.11730960959E+02 -0.65628671241E+02  0.76607662894E+02  0.00000000000E+00 0. -1.
        -13    1    4    4    0    0  0.32691197883E+02  0.37228609602E+02 -0.29867954710E+02  0.57851348390E+02  0.00000000000E+00 0.  1.
         13    1    4    4    0    0  0.22090151501E+01 -0.38634109948E+02  0.13056136319E+02  0.40840383139E+02  0.00000000000E+00 0. -1.
          1    1    1    2  501    0 -0.63524954470E+02  0.43500018404E+02  0.57077126631E+03  0.57594054371E+03  0.00000000000E+00 0. -1.
<scales pt_clust_5="13000.00000" pt_clust_6="13000.00000" pt_clust_7="13000.00000" pt_clust_8="13000.00000" pt_clust_9="76.99137"></scales>
<clustering>
<clus scale="   76.991">  1  9  2 -1</clus>
<clus scale="   80.184">  5  6 -1 -1</clus>
<clus scale="   86.398">  2  5  1 -1</clus>
<clus scale="   90.760">  7  8 -1 -1</clus>
<clus scale="   76.991">  1  5  2 -1</clus>
</clustering>
</event>
<event>
 9    2  0.1665830E-004  0.1346088E+03  0.7546771E-02  0.1225453E+00
          2   -1    0    0  502    0 -0.00000000000E+00  0.00000000000E+00  0.16805390249E+03  0.16805390249E+03  0.00000000000E+00 0. -1.
         21   -1    0    0  501  502  0.00000000000E+00 -0.00000000000E+00 -0.36016597573E+03  0.36016597573E+03  0.00000000000E+00 0. -1.
         24    2    1    2    0    0  0.30093975713E+02 -0.87425807382E+02 -0.33093494965E+02  0.12647993884E+03  0.79706187642E+02 0.  0.
         23    2    1    2    0    0  0.80945789603E+02 -0.18790549024E+02 -0.20419939635E+03  0.24157424339E+03  0.98769509536E+02 0.  0.
        -11    1    3    3    0    0  0.52223575040E+02 -0.43099639476E+02 -0.36309114503E+02  0.76832496439E+02  0.00000000000E+00 0.  1.
         12    1    3    3    0    0 -0.22129599328E+02 -0.44326167906E+02  0.32156195384E+01  0.49647442398E+02  0.00000000000E+00 0. -1.
        -11    1    4    4    0    0  0.73980897980E+02 -0.42916789989E+02 -0.19803854358E+03  0.21571807729E+03  0.00000000000E+00 0. -1.
         11    1    4    4    0    0  0.69648916226E+01  0.24126240965E+02 -0.61608527708E+01  0.25856166098E+02  0.00000000000E+00 0.  1.
          1    1    1    2  501    0 -0.11103976532E+03  0.10621635641E+03  0.45180818077E+02  0.16016569599E+03  0.00000000000E+00 0. -1.
<scales pt_clust_5="13000.00000" pt_clust_6="13000.00000" pt_clust_7="13000.00000" pt_clust_8="13000.00000" pt_clust_9="91.45561"></scales>
<clustering>
<clus scale="   79.706">  5  6 -1 -1</clus>
<clus scale="   98.770">  7  8 -1 -1</clus>
<clus scale="  122.074">  1  5  2 -1</clus>
<clus scale="   91.456">  2  9  1 -1</clus>
<clus scale="   91.456">  2  5  1 -1</clus>
</clustering>
</event>
<event>
 9    2  0.1665830E-004  0.1929686E+03  0.7546771E-02  0.1187022E+00
          2   -1    0    0  502    0 -0.00000000000E+00  0.00000000000E+00  0.96076795934E+03  0.96076795934E+03  0.00000000000E+00 0. -1.
         21   -1    0    0  501  502  0.00000000000E+00 -0.00000000000E+00 -0.67163541785E+02  0.67163541785E+02  0.00000000000E+00 0.  1.
         23    2    1    2    0    0  0.15901007516E+02 -0.77336768314E+01  0.18695814164E+03  0.20955499738E+03  0.92990851178E+02 0.  0.
         24    2    1    2    0    0 -0.86665090540E+02 -0.14875295340E+03  0.17872041883E+03  0.26321766930E+03  0.87773995354E+02 0.  0.
        -13    1    4    4    0    0 -0.36458410150E+02 -0.12553453023E+03  0.90149551756E+02  0.15879255534E+03  0.00000000000E+00 0.  1.
         14    1    4    4    0    0 -0.50206680390E+02 -0.23218423171E+02  0.88570867070E+02  0.10442511395E+03  0.00000000000E+00 0. -1.
        -11    1    3    3    0    0 -0.34044548428E+01  0.34759677450E+02  0.30785466713E+02  0.46557173990E+02  0.00000000000E+00 0. -1.
         11    1    3    3    0    0  0.19305462359E+02 -0.42493354281E+02  0.15617267493E+03  0.16299782339E+03  0.00000000000E+00 0.  1.
          1    1    1    2  501    0  0.70764083024E+02  0.15648663023E+03  0.52792585709E+03  0.55515883445E+03  0.00000000000E+00 0. -1.
<scales pt_clust_5="13000.00000" pt_clust_6="13000.00000" pt_clust_7="13000.00000" pt_clust_8="13000.00000" pt_clust_9="171.85057"></scales>
<clustering>
<clus scale="   87.774">  5  6 -1 -1</clus>
<clus scale="   92.991">  7  8 -1 -1</clus>
<clus scale="   94.657">  1  7  2 -1</clus>
<clus scale="  171.851">  2  9  1 -1</clus>
<clus scale="  171.851">  2  5  1 -1</clus>
</clustering>
</event>
<event>
 9    2  0.1665830E-004  0.1011585E+03  0.7546771E-02  0.1284683E+00
          2   -1    0    0  502    0 -0.00000000000E+00  0.00000000000E+00  0.54732877249E+03  0.54732877249E+03  0.00000000000E+00 0. -1.
         21   -1    0    0  501  502  0.00000000000E+00 -0.00000000000E+00 -0.36652020504E+02  0.36652020504E+02  0.00000000000E+00 0.  1.
         24    2    1    2    0    0 -0.42298248442E+02 -0.27688705589E+02  0.36720957866E+03  0.37922516783E+03  0.80081502345E+02 0.  0.
         23    2    1    2    0    0 -0.93324516967E+00  0.12474521529E+02  0.12179633812E+03  0.15405988042E+03  0.93507294586E+02 0.  0.
        -11    1    3    3    0    0 -0.52702433399E+02  0.91704544031E+01  0.16611772989E+03  0.17451860619E+03  0.00000000000E+00 0.  1.
         12    1    3    3    0    0  0.10404184957E+02 -0.36859159992E+02  0.20109184877E+03  0.20470656165E+03  0.00000000000E+00 0. -1.
        -13    1    4    4    0    0  0.20233686385E+02  0.44153871610E+02  0.36868921092E+02  0.60977731882E+02  0.00000000000E+00 0.  1.
         13    1    4    4    0    0 -0.21166931555E+02 -0.31679350081E+02  0.84927417030E+02  0.93082148538E+02  0.00000000000E+00 0. -1.
          1    1    1    2  501    0  0.43231493612E+02  0.15214184060E+02  0.21670835199E+02  0.50695744740E+02  0.00000000000E+00 0. -1.
<scales pt_clust_5="13000.00000" pt_clust_6="13000.00000" pt_clust_7="13000.00000" pt_clust_8="13000.00000" pt_clust_9="45.83049"></scales>
<clustering>
<clus scale="   45.830">  2  9  1 -1</clus>
<clus scale="   80.082">  5  6 -1 -1</clus>
<clus scale="   88.896">  1  5  2 -1</clus>
<clus scale="   93.507">  7  8 -1 -1</clus>
<clus scale="   45.830">  2  5  1 -1</clus>
</clustering>
</event>
<event>
 9    2  0.1665830E-004  0.1056654E+03  0.7546771E-02  0.1273158E+00
         21   -1    0    0  501  502  0.00000000000E+00  0.00000000000E+00  0.43755294333E+02  0.43755294333E+02  0.00000000000E+00 0.  1.
          4   -1    0    0  502    0 -0.00000000000E+00 -0.00000000000E+00 -0.82295520258E+03  0.82295520258E+03  0.00000000000E+00 0. -1.
         24    2    1    2    0    0 -0.51949240304E+02  0.45583301352E+02 -0.38213821657E+03  0.39683221677E+03  0.81667807408E+02 0.  0.
         23    2    1    2    0    0  0.24643421894E+02  0.54096641456E+02 -0.77229182746E+02  0.13376143665E+03  0.91618941313E+02 0.  0.
        -11    1    3    3    0    0 -0.38657300183E+02 -0.15639795987E+02 -0.11165108076E+03  0.11918453722E+03  0.00000000000E+00 0.  1.
         12    1    3    3    0    0 -0.13291940120E+02  0.61223097339E+02 -0.27048713581E+03  0.27764767955E+03  0.00000000000E+00 0. -1.
        -11    1    4    4    0    0 -0.22838462670E+02  0.50633521079E+02 -0.19354162877E+02  0.58821190524E+02  0.00000000000E+00 0.  1.
         11    1    4    4    0    0  0.47481884564E+02  0.34631203765E+01 -0.57875019869E+02  0.74940246125E+02  0.00000000000E+00 0. -1.
          3    1    1    2  501    0  0.27305818410E+02 -0.99679942808E+02 -0.31983250893E+03  0.33611684350E+03  0.00000000000E+00 0. -1.
<scales pt_clust_5="13000.00000" pt_clust_6="13000.00000" pt_clust_7="13000.00000" pt_clust_8="13000.00000" pt_clust_9="103.35236"></scales>
<clustering>
<clus scale="   81.668">  5  6 -1 -1</clus>
<clus scale="   91.619">  7  8 -1 -1</clus>
<clus scale="  103.352">  1  9  2 -1</clus>
<clus scale="   97.164">  2  5  1 -1</clus>
<clus scale="  103.352">  1  5  2 -1</clus>
</clustering>
</event>
<event>
 9    2  0.1665830E-004  0.2412409E+03  0.7546771E-02  0.1120105E+00
         21   -1    0    0  501  502  0.00000000000E+00  0.00000000000E+00  0.13937860927E+03  0.13937860927E+03  0.00000000000E+00 0. -1.
          2   -1    0    0  502    0 -0.00000000000E+00 -0.00000000000E+00 -0.10071775780E+04  0.10071775780E+04  0.00000000000E+00 0. -1.
         24    2    1    2    0    0 -0.12944876119E+02  0.26273101292E+03 -0.68503073093E+03  0.73827911346E+03  0.81202167973E+02 0.  0.
         23    2    1    2    0    0 -0.16368045365E+02 -0.16337612708E+03 -0.22568479372E+03  0.29615004105E+03  0.99053262891E+02 0.  0.
        -11    1    3    3    0    0  0.11678595456E+02  0.63768993639E+02 -0.26560786004E+03  0.27340521110E+03  0.00000000000E+00 0.  1.
         12    1    3    3    0    0 -0.24623471576E+02  0.19896201928E+03 -0.41942287089E+03  0.46487390235E+03  0.00000000000E+00 0. -1.
        -13    1    4    4    0    0 -0.48899526175E+02 -0.67272563722E+02 -0.62655185532E+02  0.10412700785E+03  0.00000000000E+00 0.  1.
         13    1    4    4    0    0  0.32531480810E+02 -0.96103563360E+02 -0.16302960818E+03  0.19202303320E+03  0.00000000000E+00 0. -1.
          1    1    1    2  501    0  0.29312921485E+02 -0.99354885836E+02  0.42916555905E+02  0.11212703276E+03  0.00000000000E+00 0. -1.
<scales pt_clust_5="13000.00000" pt_clust_6="13000.00000" pt_clust_7="13000.00000" pt_clust_8="13000.00000" pt_clust_9="103.58881"></scales>
<clustering>
<clus scale="   81.202">  5  6 -1 -1</clus>
<clus scale="   99.053">  7  8 -1 -1</clus>
<clus scale="  103.589">  1  9  2 -1</clus>
<clus scale="  234.477">  2  5  1 -1</clus>
<clus scale="  103.589">  1  5  2 -1</clus>
</clustering>
</event>
<event>
 9    2  0.1665830E-004  0.1243424E+03  0.7546771E-02  0.1240152E+00
          2   -1    0    0  502    0 -0.00000000000E+00  0.00000000000E+00  0.11835936949E+04  0.11835936949E+04  0.00000000000E+00 0. -1.
         21   -1    0    0  501  502  0.00000000000E+00 -0.00000000000E+00 -0.51558860095E+02  0.51558860095E+02  0.00000000000E+00 0. -1.
         24    2    1    2    0    0  0.35391236726E+02 -0.72715082282E+02  0.83529271438E+03  0.84310980486E+03  0.81118441379E+02 0.  0.
         23    2    1    2    0    0 -0.97554147555E+02  0.38570546228E+02  0.76349314281E+02  0.16051939100E+03  0.94513270782E+02 0.  0.
        -13    1    3    3    0    0  0.39609352578E+02 -0.11771108632E+01  0.20836583308E+03  0.21210046393E+03  0.00000000000E+00 0.  1.
         14    1    3    3    0    0 -0.42181158515E+01 -0.71537971419E+02  0.62692688130E+03  0.63100934094E+03  0.00000000000E+00 0. -1.
        -13    1    4    4    0    0  0.76223217999E+01 -0.18958860034E+02  0.50923743883E+01  0.21058737861E+02  0.00000000000E+00 0.  1.
         13    1    4    4    0    0 -0.10517646936E+03  0.57529406261E+02  0.71256939893E+02  0.13946065314E+03  0.00000000000E+00 0. -1.
          1    1    1    2  501    0  0.62162910829E+02  0.34144536055E+02  0.22039280618E+03  0.23152335917E+03  0.00000000000E+00 0. -1.
<scales pt_clust_5="13000.00000" pt_clust_6="13000.00000" pt_clust_7="13000.00000" pt_clust_8="13000.00000" pt_clust_9="70.92307"></scales>
<clustering>
<clus scale="   70.923">  2  9  1 -1</clus>
<clus scale="   81.118">  5  6 -1 -1</clus>
<clus scale="   94.513">  7  8 -1 -1</clus>
<clus scale="  114.492">  1  5  2 -1</clus>
<clus scale="   70.923">  2  5  1 -1</clus>
</clustering>
</event>
<event>
 9    2  0.1665830E-004  0.1230676E+03  0.7546771E-02  0.1241148E+00
          4   -1    0    0  502    0 -0.00000000000E+00  0.00000000000E+00  0.51728535699E+03  0.51728535699E+03  0.00000000000E+00 0. -1.
         21   -1    0    0  501  502  0.00000000000E+00 -0.00000000000E+00 -0.13374587572E+03  0.13374587572E+03  0.00000000000E+00 0. -1.
         23    2    1    2    0    0  0.67038214043E+02 -0.51804945834E+02  0.46867972290E+03  0.48474863434E+03  0.90236806680E+02 0.  0.
         24    2    1    2    0    0 -0.41636784895E+02  0.64213905094E+02 -0.50696393626E+02  0.12172259907E+03  0.79932592437E+02 0.  0.
        -13    1    4    4    0    0 -0.30295637849E+02 -0.12587294470E+02 -0.18626040571E+02  0.37725257350E+02  0.00000000000E+00 0.  1.
         14    1    4    4    0    0 -0.11341147046E+02  0.76801199564E+02 -0.32070353055E+02  0.83997341719E+02  0.00000000000E+00 0. -1.
        -11    1    3    3    0    0  0.20708974973E+02  0.18206596315E+02  0.44574696388E+02  0.52414171289E+02  0.00000000000E+00 0.  1.
         11    1    3    3    0    0  0.46329239070E+02 -0.70011542150E+02  0.42410502651E+03  0.43233446305E+03  0.00000000000E+00 0. -1.
          3    1    1    2  501    0 -0.25401429148E+02 -0.12408959259E+02 -0.34443848004E+02  0.44559999304E+02  0.00000000000E+00 0. -1.
<scales pt_clust_5="13000.00000" pt_clust_6="13000.00000" pt_clust_7="13000.00000" pt_clust_8="13000.00000" pt_clust_9="28.27039"></scales>
<clustering>
<clus scale="   28.270">  2  9  1 -1</clus>
<clus scale="   79.933">  5  6 -1 -1</clus>
<clus scale="   90.237">  7  8 -1 -1</clus>
<clus scale="  115.725">  2  5  1 -1</clus>
<clus scale="   28.270">  2  5  1 -1</clus>
</clustering>
</event>
<event>
 9    2  0.1665830E-004  0.1053399E+03  0.7546771E-02  0.1275008E+00
         21   -1    0    0  501  502  0.00000000000E+00  0.00000000000E+00  0.21515639358E+03  0.21515639358E+03  0.00000000000E+00 0.  1.
         -3   -1    0    0    0  501 -0.00000000000E+00 -0.00000000000E+00 -0.10127343532E+03  0.10127343532E+03  0.00000000000E+00 0.  1.
         23    2    1    2    0    0  0.19144593586E+02  0.51671275019E+02 -0.68579889330E+00  0.10679537183E+03  0.91478658702E+02 0.  0.
         24    2    1    2    0    0  0.35506567036E+02 -0.52236744639E+02  0.24071574699E+02  0.10391402790E+03  0.78925855673E+02 0.  0.
        -11    1    4    4    0    0 -0.81445888838E+01 -0.35272038149E+02 -0.18474346967E+02  0.40641758072E+02  0.00000000000E+00 0.  1.
         12    1    4    4    0    0  0.43651155919E+02 -0.16964706489E+02  0.42545921667E+02  0.63272269833E+02  0.00000000000E+00 0. -1.
        -13    1    3    3    0    0 -0.19061354321E+02  0.50218331107E+02  0.26486736596E+02  0.59889591945E+02  0.00000000000E+00 0. -1.
         13    1    3    3    0    0  0.38205947907E+02  0.14529439113E+01 -0.27172535490E+02  0.46905779883E+02  0.00000000000E+00 0.  1.
         -4    1    1    2    0  502 -0.54651160622E+02  0.56546961993E+00  0.90497182449E+02  0.10572042917E+03  0.00000000000E+00 0.  1.
<scales pt_clust_5="13000.00000" pt_clust_6="13000.00000" pt_clust_7="13000.00000" pt_clust_8="13000.00000" pt_clust_9="54.65409"></scales>
<clustering>
<clus scale="   54.654">  1  9  2 -1</clus>
<clus scale="   78.926">  5  6 -1 -1</clus>
<clus scale="   91.479">  7  8 -1 -1</clus>
<clus scale="   94.644">  1  5  2 -1</clus>
<clus scale="   54.654">  1  5  2 -1</clus>
</clustering>
</event>
<event>
 9    2  0.1665830E-004  0.2013717E+03  0.7546771E-02  0.1149678E+00
         -3   -1    0    0    0  501 -0.00000000000E+00  0.00000000000E+00  0.11473056444E+03  0.11473056444E+03  0.00000000000E+00 0.  1.
         21   -1    0    0  501  502  0.00000000000E+00 -0.00000000000E+00 -0.39905205553E+03  0.39905205553E+03  0.00000000000E+00 0. -1.
         23    2    1    2    0    0 -0.48663904191E+02  0.16279286407E+03 -0.14303642339E+03  0.24098081273E+03  0.93502093698E+02 0.  0.
         24    2    1    2    0    0  0.33236642609E+02 -0.18434010174E+03 -0.13671094088E+03  0.24590930852E+03  0.81826396325E+02 0.  0.
        -11    1    4    4    0    0  0.39495764313E+02 -0.13889613895E+03 -0.59669814371E+02  0.15624512652E+03  0.00000000000E+00 0.  1.
         12    1    4    4    0    0 -0.62591217045E+01 -0.45443962791E+02 -0.77041126513E+02  0.89664181996E+02  0.00000000000E+00 0. -1.
        -11    1    3    3    0    0  0.26141918808E+02  0.69468563737E+02 -0.50856105883E+02  0.89975689896E+02  0.00000000000E+00 0.  1.
         11    1    3    3    0    0 -0.74805823000E+02  0.93324300332E+02 -0.92180317503E+02  0.15100512283E+03  0.00000000000E+00 0. -1.
         -4    1    1    2    0  502  0.15427261583E+02  0.21547237675E+02 -0.45741268251E+01  0.26892498723E+02  0.00000000000E+00 0.  1.
<scales pt_clust_5="13000.00000" pt_clust_6="13000.00000" pt_clust_7="13000.00000" pt_clust_8="13000.00000" pt_clust_9="26.50065"></scales>
<clustering>
<clus scale="   26.501">  2  9  1 -1</clus>
<clus scale="   81.826">  5  6 -1 -1</clus>
<clus scale="   93.502">  7  8 -1 -1</clus>
<clus scale="  196.223">  2  5  1 -1</clus>
<clus scale="   26.501">  2  5  1 -1</clus>
</clustering>
</event>
<event>
 9    2  0.1665830E-004  0.4057899E+03  0.7546771E-02  0.1041922E+00
         21   -1    0    0  501  502  0.00000000000E+00  0.00000000000E+00  0.16728207999E+03  0.16728207999E+03  0.00000000000E+00 0.  1.
          2   -1    0    0  502    0 -0.00000000000E+00 -0.00000000000E+00 -0.11112664811E+04  0.11112664811E+04  0.00000000000E+00 0. -1.
         23    2    1    2    0    0 -0.39014046403E+03  0.84946146678E+02 -0.58544550341E+03  0.71462038656E+03  0.92251991378E+02 0.  0.
         24    2    1    2    0    0  0.38675967732E+03 -0.51092484119E+02 -0.34340254199E+03  0.52669096930E+03  0.85349759017E+02 0.  0.
        -13    1    4    4    0    0  0.31931644642E+03 -0.70351378906E+02 -0.30280912416E+03  0.44565196639E+03  0.00000000000E+00 0.  1.
         14    1    4    4    0    0  0.67443230896E+02  0.19258894787E+02 -0.40593417831E+02  0.81039002914E+02  0.00000000000E+00 0. -1.
        -13    1    3    3    0    0 -0.30256279071E+03  0.61435502451E+02 -0.37686451086E+03  0.48718109860E+03  0.00000000000E+00 0. -1.
         13    1    3    3    0    0 -0.87577673321E+02  0.23510644227E+02 -0.20858099255E+03  0.22743928796E+03  0.00000000000E+00 0.  1.
          1    1    1    2  501    0  0.33807867083E+01 -0.33853662559E+02 -0.15136355662E+02  0.37237205187E+02  0.00000000000E+00 0. -1.
<scales pt_clust_5="13000.00000" pt_clust_6="13000.00000" pt_clust_7="13000.00000" pt_clust_8="13000.00000" pt_clust_9="34.02205"></scales>
<clustering>
<clus scale="   34.022">  1  9  2 -1</clus>
<clus scale="   85.350">  5  6 -1 -1</clus>
<clus scale="   92.252">  7  8 -1 -1</clus>
<clus scale="  404.277">  1  5  2 -1</clus>
<clus scale="   34.022">  1  5  2 -1</clus>
</clustering>
</event>
<event>
 9    2  0.1665830E-004  0.9351945E+02  0.7546771E-02  0.1301090E+00
          2   -1    0    0  502    0 -0.00000000000E+00  0.00000000000E+00  0.26250030328E+03  0.26250030328E+03  0.00000000000E+00 0. -1.
         21   -1    0    0  501  502  0.00000000000E+00 -0.00000000000E+00 -0.11637479821E+03  0.11637479821E+03  0.00000000000E+00 0.  1.
         24    2    1    2    0    0 -0.11773223813E+02  0.13434461378E+02  0.21193550567E+03  0.22771917262E+03  0.81365038330E+02 0.  0.
         23    2    1    2    0    0  0.17140793317E+02  0.23728136010E+02 -0.36014967277E+02  0.10322250152E+03  0.92200735996E+02 0.  0.
        -13    1    3    3    0    0  0.26018607895E+02 -0.17713566582E+02  0.55586972976E+02  0.63879965267E+02  0.00000000000E+00 0.  1.
         14    1    3    3    0    0 -0.37791831708E+02  0.31148027961E+02  0.15634853269E+03  0.16383920735E+03  0.00000000000E+00 0. -1.
        -13    1    4    4    0    0  0.65793479477E+01  0.54621804704E+02 -0.43009012202E+02  0.69832689331E+02  0.00000000000E+00 0.  1.
         13    1    4    4    0    0  0.10561445369E+02 -0.30893668694E+02  0.69940449249E+01  0.33389812190E+02  0.00000000000E+00 0. -1.
          1    1    1    2  501    0 -0.53675695037E+01 -0.37162597388E+02 -0.29795033325E+02  0.47933427353E+02  0.00000000000E+00 0. -1.
<scales pt_clust_5="13000.00000" pt_clust_6="13000.00000" pt_clust_7="13000.00000" pt_clust_8="13000.00000" pt_clust_9="37.54823"></scales>
<clustering>
<clus scale="   37.548">  2  9  1 -1</clus>
<clus scale="   81.365">  5  6 -1 -1</clus>
<clus scale="   82.856">  1  5  2 -1</clus>
<clus scale="   92.201">  7  8 -1 -1</clus>
<clus scale="   37.548">  2  5  1 -1</clus>
</clustering>
</event>
<event>
 9    2  0.1665830E-004  0.9686607E+02  0.7546771E-02  0.1293794E+00
          2   -1    0    0  502    0 -0.00000000000E+00  0.00000000000E+00  0.93112338891E+02  0.93112338891E+02  0.00000000000E+00 0. -1.
         21   -1    0    0  501  502  0.00000000000E+00 -0.00000000000E+00 -0.15396043442E+03  0.15396043442E+03  0.00000000000E+00 0. -1.
         23    2    1    2    0    0  0.21072957497E+02  0.21870821131E+02  0.23819800856E+02  0.10142725592E+03  0.93796071222E+02 0.  0.
         24    2    1    2    0    0 -0.22310351146E+02  0.98651034969E+01 -0.51511900737E+02  0.99732337336E+02  0.81841255841E+02 0.  0.
        -13    1    4    4    0    0  0.24612734986E+02 -0.13286785008E+02 -0.25720124825E+01  0.28088086933E+02  0.00000000000E+00 0.  1.
         14    1    4    4    0    0 -0.46923086132E+02  0.23151888505E+02 -0.48939888254E+02  0.71644250403E+02  0.00000000000E+00 0. -1.
        -13    1    3    3    0    0  0.49355374536E+02 -0.55205905821E+01  0.34693312108E+02  0.60580985639E+02  0.00000000000E+00 0.  1.
         13    1    3    3    0    0 -0.28282417039E+02  0.27391411713E+02 -0.10873511252E+02  0.40846270284E+02  0.00000000000E+00 0. -1.
          1    1    1    2  501    0  0.12373936487E+01 -0.31735924628E+02 -0.33155995651E+02  0.45913180054E+02  0.00000000000E+00 0. -1.
<scales pt_clust_5="13000.00000" pt_clust_6="13000.00000" pt_clust_7="13000.00000" pt_clust_8="13000.00000" pt_clust_9="31.76004"></scales>
<clustering>
<clus scale="   31.760">  2  9  1 -1</clus>
<clus scale="   81.841">  5  6 -1 -1</clus>
<clus scale="   85.342">  2  5  1 -1</clus>
<clus scale="   93.796">  7  8 -1 -1</clus>
<clus scale="   31.760">  2  5  1 -1</clus>
</clustering>
</event>
<event>
 9    2  0.1665830E-004  0.2085357E+03  0.7546771E-02  0.1144440E+00
          2   -1    0    0  502    0 -0.00000000000E+00  0.00000000000E+00  0.20275540453E+04  0.20275540453E+04  0.00000000000E+00 0. -1.
         21   -1    0    0  501  502  0.00000000000E+00 -0.00000000000E+00 -0.41003062894E+02  0.41003062894E+02  0.00000000000E+00 0.  1.
         23    2    1    2    0    0 -0.12394403462E+02 -0.20232058692E+03  0.10388482856E+04  0.10628580161E+04  0.96820249465E+02 0.  0.
         24    2    1    2    0    0 -0.51791680779E+02  0.14550062420E+03  0.25642379752E+03  0.30912542181E+03  0.77152787596E+02 0.  0.
        -13    1    4    4    0    0 -0.45627287555E+02  0.12467907611E+03  0.14917137843E+03  0.19969682404E+03  0.00000000000E+00 0.  1.
         14    1    4    4    0    0 -0.61643932235E+01  0.20821548086E+02  0.10725241909E+03  0.10942859777E+03  0.00000000000E+00 0. -1.
        -13    1    3    3    0    0 -0.51951740335E+02 -0.10700882858E+03  0.47677259484E+03  0.49138781009E+03  0.00000000000E+00 0. -1.
         13    1    3    3    0    0  0.39557336873E+02 -0.95311758340E+02  0.56207569075E+03  0.57147020597E+03  0.00000000000E+00 0.  1.
          1    1    1    2  501    0  0.64186084241E+02  0.56819962725E+02  0.69127889926E+03  0.69657367028E+03  0.00000000000E+00 0. -1.
<scales pt_clust_5="13000.00000" pt_clust_6="13000.00000" pt_clust_7="13000.00000" pt_clust_8="13000.00000" pt_clust_9="85.72263"></scales>
<clustering>
<clus scale="   77.153">  5  6 -1 -1</clus>
<clus scale="   85.723">  2  9  1 -1</clus>
<clus scale="   96.820">  7  8 -1 -1</clus>
<clus scale="  200.164">  2  5  1 -1</clus>
<clus scale="   85.723">  2  5  1 -1</clus>
</clustering>
</event>
<event>
 9    2  0.1665830E-004  0.2729835E+03  0.7546771E-02  0.1099965E+00
          2   -1    0    0  502    0 -0.00000000000E+00  0.00000000000E+00  0.41783868770E+03  0.41783868770E+03  0.00000000000E+00 0. -1.
         21   -1    0    0  501  502  0.00000000000E+00 -0.00000000000E+00 -0.30666391849E+03  0.30666391849E+03  0.00000000000E+00 0. -1.
         23    2    1    2    0    0 -0.14528654397E+02 -0.25374343713E+03  0.20537067256E+03  0.33924378387E+03  0.91172463268E+02 0.  0.
         24    2    1    2    0    0 -0.49268365807E+02  0.26502993845E+03 -0.14244643364E+02  0.28235280270E+03  0.82776537652E+02 0.  0.
        -11    1    4    4    0    0 -0.58786548212E+02  0.21204070851E+03 -0.38366295072E+02  0.22335866429E+03  0.00000000000E+00 0.  1.
         12    1    4    4    0    0  0.95181824052E+01  0.52989229944E+02  0.24121651708E+02  0.58994138416E+02  0.00000000000E+00 0. -1.
        -11    1    3    3    0    0  0.10146218006E+02 -0.24173464273E+03  0.19109099580E+03  0.30830885798E+03  0.00000000000E+00 0. -1.
         11    1    3    3    0    0 -0.24674872403E+02 -0.12008794407E+02  0.14279676758E+02  0.30934925885E+02  0.00000000000E+00 0.  1.
          1    1    1    2  501    0  0.63797020204E+02 -0.11286501319E+02 -0.79951259988E+02  0.10290601961E+03  0.00000000000E+00 0. -1.
<scales pt_clust_5="13000.00000" pt_clust_6="13000.00000" pt_clust_7="13000.00000" pt_clust_8="13000.00000" pt_clust_9="64.78769"></scales>
<clustering>
<clus scale="   64.788">  2  9  1 -1</clus>
<clus scale="   82.777">  5  6 -1 -1</clus>
<clus scale="   91.172">  7  8 -1 -1</clus>
<clus scale="  270.295">  2  5  1 -1</clus>
<clus scale="   64.788">  2  5  1 -1</clus>
</clustering>
</event>
<event>
 9    2  0.1665830E-004  0.1609806E+03  0.7546771E-02  0.1188751E+00
          2   -1    0    0  502    0 -0.00000000000E+00  0.00000000000E+00  0.82771486863E+03  0.82771486863E+03  0.00000000000E+00 0. -1.
         21   -1    0    0  501  502  0.00000000000E+00 -0.00000000000E+00 -0.13095835906E+03  0.13095835906E+03  0.00000000000E+00 0. -1.
         24    2    1    2    0    0  0.63481653221E+02 -0.11875038334E+03  0.68087596564E+03  0.69946636514E+03  0.86772930896E+02 0.  0.
         23    2    1    2    0    0 -0.40237058817E+02  0.10715801984E+03  0.95000479521E+02  0.17593226696E+03  0.93942585296E+02 0.  0.
        -13    1    3    3    0    0  0.53861206495E+02 -0.21141025968E+02  0.17979317996E+03  0.18887445593E+03  0.00000000000E+00 0.  1.
         14    1    3    3    0    0  0.96204467266E+01 -0.97609357373E+02  0.50108278569E+03  0.51059190921E+03  0.00000000000E+00 0. -1.
        -13    1    4    4    0    0 -0.43091635648E+02  0.43289141285E+02 -0.41025536476E+00  0.61081970543E+02  0.00000000000E+00 0.  1.
         13    1    4    4    0    0  0.28545768306E+01  0.63868878551E+02  0.95410734886E+02  0.11485029642E+03  0.00000000000E+00 0. -1.
          1    1    1    2  501    0 -0.23244594404E+02  0.11592363506E+02 -0.79119935600E+02  0.83274595586E+02  0.00000000000E+00 0. -1.
<scales pt_clust_5="13000.00000" pt_clust_6="13000.00000" pt_clust_7="13000.00000" pt_clust_8="13000.00000" pt_clust_9="25.97487"></scales>
<clustering>
<clus scale="   25.975">  2  9  1 -1</clus>
<clus scale="   86.773">  5  6 -1 -1</clus>
<clus scale="   93.943">  7  8 -1 -1</clus>
<clus scale="  156.905">  1  5  2 -1</clus>
<clus scale="   25.975">  2  5  1 -1</clus>
</clustering>
</event>
<event>
 9    2  0.1665830E-004  0.1269586E+03  0.7546771E-02  0.1234026E+00
          2   -1    0    0  502    0 -0.00000000000E+00  0.00000000000E+00  0.12273048168E+04  0.12273048168E+04  0.00000000000E+00 0. -1.
         21   -1    0    0  501  502  0.00000000000E+00 -0.00000000000E+00 -0.37924385091E+02  0.37924385091E+02  0.00000000000E+00 0. -1.
         24    2    1    2    0    0 -0.68835860359E+02 -0.94250758075E+02  0.80375288948E+03  0.81625824313E+03  0.81469203060E+02 0.  0.
         23    2    1    2    0    0 -0.94313283724E+01  0.66185241266E+02  0.33174265442E+03  0.34989014732E+03  0.88884702351E+02 0.  0.
        -11    1    3    3    0    0 -0.19020584649E+02  0.13440702645E+02  0.11098819319E+03  0.11340552965E+03  0.00000000000E+00 0.  1.
         12    1    3    3    0    0 -0.49815275710E+02 -0.10769146072E+03  0.69276469629E+03  0.70285271347E+03  0.00000000000E+00 0. -1.
        -11    1    4    4    0    0 -0.25734731393E+02  0.82628441478E+02  0.28280840295E+03  0.29575383094E+03  0.00000000000E+00 0.  1.
         11    1    4    4    0    0  0.16303403021E+02 -0.16443200212E+02  0.48934251478E+02  0.54136316378E+02  0.00000000000E+00 0. -1.
          1    1    1    2  501    0  0.78267188732E+02  0.28065516809E+02  0.53884887829E+02  0.99080811473E+02  0.00000000000E+00 0. -1.
<scales pt_clust_5="13000.00000" pt_clust_6="13000.00000" pt_clust_7="13000.00000" pt_clust_8="13000.00000" pt_clust_9="83.14701"></scales>
<clustering>
<clus scale="   81.469">  5  6 -1 -1</clus>
<clus scale="   83.147">  2  9  1 -1</clus>
<clus scale="   88.885">  7  8 -1 -1</clus>
<clus scale="  121.882">  1  5  2 -1</clus>
<clus scale="   83.147">  2  5  1 -1</clus>
</clustering>
</event>
<event>
 9    2  0.1665830E-004  0.1108278E+03  0.7546771E-02  0.1265834E+00
         21   -1    0    0  501  502  0.00000000000E+00  0.00000000000E+00  0.21096965134E+03  0.21096965134E+03  0.00000000000E+00 0.  1.
         -3   -1    0    0    0  501 -0.00000000000E+00 -0.00000000000E+00 -0.12889325904E+03  0.12889325904E+03  0.00000000000E+00 0.  1.
         23    2    1    2    0    0 -0.24576602725E+02 -0.14177204060E+02  0.61874838640E+02  0.11432891811E+03  0.91856427878E+02 0.  0.
         24    2    1    2    0    0  0.73839937047E+01  0.10380399512E+03  0.35747633085E+02  0.13295846598E+03  0.74634225653E+02 0.  0.
        -11    1    4    4    0    0 -0.37404944029E+01  0.83489095235E+02  0.57292699704E+02  0.10132558295E+03  0.00000000000E+00 0.  1.
         12    1    4    4    0    0  0.11124488108E+02  0.20314899889E+02 -0.21545066619E+02  0.31632883030E+02  0.00000000000E+00 0. -1.
        -13    1    3    3    0    0 -0.90845492426E+01  0.24630953624E+02 -0.12455938959E+02  0.29057930531E+02  0.00000000000E+00 0. -1.
         13    1    3    3    0    0 -0.15492053482E+02 -0.38808157684E+02  0.74330777599E+02  0.85270987577E+02  0.00000000000E+00 0.  1.
         -4    1    1    2    0  502  0.17192609020E+02 -0.89626791064E+02 -0.15546079422E+02  0.92575526284E+02  0.00000000000E+00 0.  1.
<scales pt_clust_5="13000.00000" pt_clust_6="13000.00000" pt_clust_7="13000.00000" pt_clust_8="13000.00000" pt_clust_9="91.26092"></scales>
<clustering>
<clus scale="   74.634">  5  6 -1 -1</clus>
<clus scale="   91.261">  1  9  2 -1</clus>
<clus scale="   91.856">  7  8 -1 -1</clus>
<clus scale="   97.033">  1  5  2 -1</clus>
<clus scale="   91.261">  1  5  2 -1</clus>
</clustering>
</event>
<event>
 9    2  0.1665830E-004  0.5530590E+03  0.7546771E-02  0.1000788E+00
          2   -1    0    0  502    0 -0.00000000000E+00  0.00000000000E+00  0.12109178657E+04  0.12109178657E+04  0.00000000000E+00 0. -1.
         21   -1    0    0  501  502  0.00000000000E+00 -0.00000000000E+00 -0.23061564677E+03  0.23061564677E+03  0.00000000000E+00 0. -1.
         24    2    1    2    0    0 -0.12893057474E+03  0.37965675798E+03  0.33529787399E+03  0.52879073059E+03  0.80203649993E+02 0.  0.
         23    2    1    2    0    0  0.57146291648E+01  0.10354960342E+03  0.10886493648E+03  0.18054334030E+03  0.99945715156E+02 0.  0.
        -11    1    3    3    0    0 -0.57379083837E+01  0.63105205062E+02  0.88832434533E+02  0.10911641455E+03  0.00000000000E+00 0.  1.
         12    1    3    3    0    0 -0.12319266636E+03  0.31655155292E+03  0.24646543946E+03  0.41967431605E+03  0.00000000000E+00 0. -1.
        -11    1    4    4    0    0 -0.30606426145E+02  0.47200433499E+01  0.28072152592E+01  0.31095218091E+02  0.00000000000E+00 0.  1.
         11    1    4    4    0    0  0.36321055310E+02  0.98829560071E+02  0.10605772122E+03  0.14944812221E+03  0.00000000000E+00 0. -1.
          1    1    1    2  501    0  0.12321594557E+03 -0.48320636141E+03  0.53613940849E+03  0.73219944160E+03  0.00000000000E+00 0. -1.
<scales pt_clust_5="13000.00000" pt_clust_6="13000.00000" pt_clust_7="13000.00000" pt_clust_8="13000.00000" pt_clust_9="498.66903"></scales>
<clustering>
<clus scale="   80.204">  5  6 -1 -1</clus>
<clus scale="   99.946">  7  8 -1 -1</clus>
<clus scale="  107.935">  5  7 -1 -1</clus>
<clus scale="  498.669">  2  9  1 -1</clus>
<clus scale="  498.669">  2  5  1 -1</clus>
</clustering>
</event>
<event>
 9    2  0.1665830E-004  0.1375142E+03  0.7546771E-02  0.1237527E+00
         21   -1    0    0  501  502  0.00000000000E+00  0.00000000000E+00  0.14610588970E+03  0.14610588970E+03  0.00000000000E+00 0.  1.
          2   -1    0    0  502    0 -0.00000000000E+00 -0.00000000000E+00 -0.30069517145E+03  0.30069517145E+03  0.00000000000E+00 0. -1.
         24    2    1    2    0    0  0.73463475526E+01  0.39815046802E+02 -0.10201239939E+03  0.13556830825E+03  0.79580335500E+02 0.  0.
         23    2    1    2    0    0 -0.10717154178E+03 -0.46477855764E+02 -0.11934960809E+03  0.19094950665E+03  0.92582151063E+02 0.  0.
        -11    1    3    3    0    0 -0.30996876051E+02  0.28651793982E+02 -0.78756815156E+02  0.89355288354E+02  0.00000000000E+00 0.  1.
         12    1    3    3    0    0  0.38343223604E+02  0.11163252820E+02 -0.23255584234E+02  0.46213019896E+02  0.00000000000E+00 0. -1.
        -11    1    4    4    0    0 -0.10141903004E+02 -0.29667149301E+02 -0.78147489226E+02  0.84202304105E+02  0.00000000000E+00 0. -1.
         11    1    4    4    0    0 -0.97029638775E+02 -0.16810706463E+02 -0.41202118862E+02  0.10674720255E+03  0.00000000000E+00 0.  1.
          1    1    1    2  501    0  0.99825194227E+02  0.66628089623E+01  0.66772725738E+02  0.12028324625E+03  0.00000000000E+00 0. -1.
<scales pt_clust_5="13000.00000" pt_clust_6="13000.00000" pt_clust_7="13000.00000" pt_clust_8="13000.00000" pt_clust_9="101.67935"></scales>
<clustering>
<clus scale="   79.580">  5  6 -1 -1</clus>
<clus scale="   89.287">  2  5  1 -1</clus>
<clus scale="   92.582">  7  8 -1 -1</clus>
<clus scale="  101.679">  1  9  2 -1</clus>
<clus scale="  101.679">  1  5  2 -1</clus>
</clustering>
</event>
<event>
 9    2  0.1665830E-004  0.1027491E+03  0.7546771E-02  0.1281443E+00
          2   -1    0    0  502    0 -0.00000000000E+00  0.00000000000E+00  0.84859060569E+03  0.84859060569E+03  0.00000000000E+00 0. -1.
         21   -1    0    0  501  502  0.00000000000E+00 -0.00000000000E+00 -0.14062565083E+02  0.14062565083E+02  0.00000000000E+00 0. -1.
         23    2    1    2    0    0  0.42826171989E+01  0.41044856603E+02  0.43433953266E+03  0.44586255845E+03  0.91867134121E+02 0.  0.
         24    2    1    2    0    0  0.12671342421E+02 -0.52095643392E+02  0.29611607841E+03  0.31076878803E+03  0.77575696876E+02 0.  0.
        -13    1    4    4    0    0  0.59756714209E+01 -0.53102233252E+02  0.29875895521E+03  0.30350036103E+03  0.00000000000E+00 0.  1.
         14    1    4    4    0    0  0.66956709997E+01  0.10065898601E+01 -0.26428768070E+01  0.72684270031E+01  0.00000000000E+00 0. -1.
        -11    1    3    3    0    0  0.16051567739E+02  0.68661954819E+02  0.31643080793E+03  0.32419218540E+03  0.00000000000E+00 0.  1.
         11    1    3    3    0    0 -0.11768950541E+02 -0.27617098216E+02  0.11790872473E+03  0.12167037305E+03  0.00000000000E+00 0. -1.
          1    1    1    2  501    0 -0.16953959620E+02  0.11050786789E+02  0.10407242954E+03  0.10602182429E+03  0.00000000000E+00 0. -1.
<scales pt_clust_5="13000.00000" pt_clust_6="13000.00000" pt_clust_7="13000.00000" pt_clust_8="13000.00000" pt_clust_9="20.23752"></scales>
<clustering>
<clus scale="   20.238">  2  9  1 -1</clus>
<clus scale="   77.576">  5  6 -1 -1</clus>
<clus scale="   90.199">  2  5  1 -1</clus>
<clus scale="   91.867">  7  8 -1 -1</clus>
<clus scale="   20.238">  2  5  1 -1</clus>
</clustering>
</event>
<event>
 9    2  0.1665830E-004  0.1062399E+03  0.7546771E-02  0.1272842E+00
         21   -1    0    0  501  502  0.00000000000E+00  0.00000000000E+00  0.69184036021E+02  0.69184036021E+02  0.00000000000E+00 0.  1.
          4   -1    0    0  502    0 -0.00000000000E+00 -0.00000000000E+00 -0.27029428179E+03  0.27029428179E+03  0.00000000000E+00 0. -1.
         23    2    1    2    0    0 -0.60641941840E+02  0.22315311449E+02 -0.17975397582E+03  0.21200030326E+03  0.91963136759E+02 0.  0.
         24    2    1    2    0    0  0.20677365584E+02 -0.17797027899E+02 -0.76698280679E+01  0.84993888900E+02  0.80130189306E+02 0.  0.
        -11    1    4    4    0    0  0.41017310357E+02 -0.28700185831E+02  0.15386151314E+02  0.52372264300E+02  0.00000000000E+00 0.  1.
         12    1    4    4    0    0 -0.20339944773E+02  0.10903157932E+02 -0.23055979382E+02  0.32621624600E+02  0.00000000000E+00 0. -1.
        -13    1    3    3    0    0 -0.78675339871E+02  0.74030703993E+01 -0.16833923249E+03  0.18596427547E+03  0.00000000000E+00 0. -1.
         13    1    3    3    0    0  0.18033398031E+02  0.14912241050E+02 -0.11414743328E+02  0.26036027787E+02  0.00000000000E+00 0.  1.
          3    1    1    2  501    0  0.39964576256E+02 -0.45182835500E+01 -0.13686441887E+02  0.42484125660E+02  0.00000000000E+00 0. -1.
<scales pt_clust_5="13000.00000" pt_clust_6="13000.00000" pt_clust_7="13000.00000" pt_clust_8="13000.00000" pt_clust_9="40.21918"></scales>
<clustering>
<clus scale="   40.219">  1  9  2 -1</clus>
<clus scale="   80.130">  5  6 -1 -1</clus>
<clus scale="   91.963">  7  8 -1 -1</clus>
<clus scale="   96.180">  1  5  2 -1</clus>
<clus scale="   40.219">  1  5  2 -1</clus>
</clustering>
</event>
<event>
 9    2  0.1665830E-004  0.9271525E+02  0.7546771E-02  0.1300843E+00
         21   -1    0    0  501  502  0.00000000000E+00  0.00000000000E+00  0.65692886221E+02  0.65692886221E+02  0.00000000000E+00 0. -1.
          2   -1    0    0  502    0 -0.00000000000E+00 -0.00000000000E+00 -0.33598249198E+03  0.33598249198E+03  0.00000000000E+00 0. -1.
         23    2    1    2    0    0 -0.40756949173E+01 -0.30772469726E+01 -0.18822335764E+03  0.20932587124E+03  0.91450572830E+02 0.  0.
         24    2    1    2    0    0  0.16034073722E+02  0.59199409034E+02 -0.16709614473E+02  0.10537715814E+03  0.84044468535E+02 0.  0.
        -13    1    4    4    0    0 -0.19537411127E+02  0.25647605871E+02 -0.39866815411E+02  0.51272537401E+02  0.00000000000E+00 0.  1.
         14    1    4    4    0    0  0.35571484849E+02  0.33551803162E+02  0.23157200938E+02  0.54104620737E+02  0.00000000000E+00 0. -1.
        -11    1    3    3    0    0 -0.82652813945E+01 -0.46763450085E+02 -0.90589712111E+02  0.10228211516E+03  0.00000000000E+00 0. -1.
         11    1    3    3    0    0  0.41895864772E+01  0.43686203113E+02 -0.97633645531E+02  0.10704375609E+03  0.00000000000E+00 0.  1.
          1    1    1    2  501    0 -0.11958378805E+02 -0.56122162061E+02 -0.65356633639E+02  0.86972348817E+02  0.00000000000E+00 0. -1.
<scales pt_clust_5="13000.00000" pt_clust_6="13000.00000" pt_clust_7="13000.00000" pt_clust_8="13000.00000" pt_clust_9="57.38208"></scales>
<clustering>
<clus scale="   57.382">  1  9  2 -1</clus>
<clus scale="   84.044">  5  6 -1 -1</clus>
<clus scale="   85.419">  1  5  2 -1</clus>
<clus scale="   91.451">  7  8 -1 -1</clus>
<clus scale="   57.382">  1  5  2 -1</clus>
</clustering>
</event>
<event>
 9    2  0.1665830E-004  0.2333377E+03  0.7546771E-02  0.1124575E+00
         21   -1    0    0  501  502  0.00000000000E+00  0.00000000000E+00  0.10724833319E+03  0.10724833319E+03  0.00000000000E+00 0. -1.
          2   -1    0    0  502    0 -0.00000000000E+00 -0.00000000000E+00 -0.13261588851E+04  0.13261588851E+04  0.00000000000E+00 0. -1.
         24    2    1    2    0    0 -0.84083625195E+02 -0.20954652023E+03 -0.86595375320E+03  0.89854036799E+03  0.80740882232E+02 0.  0.
         23    2    1    2    0    0  0.37550438705E+01  0.18307655164E+03 -0.33791570457E+02  0.20468541056E+03  0.84988957809E+02 0.  0.
        -11    1    3    3    0    0 -0.37995011840E+02 -0.75834217127E+02 -0.19191703424E+03  0.20982515923E+03  0.00000000000E+00 0.  1.
         12    1    3    3    0    0 -0.46088613356E+02 -0.13371230311E+03 -0.67403671895E+03  0.68871520876E+03  0.00000000000E+00 0. -1.
        -11    1    4    4    0    0  0.33630884964E+02  0.13611585246E+03 -0.12552719988E+01  0.14021461201E+03  0.00000000000E+00 0. -1.
         11    1    4    4    0    0 -0.29875841093E+02  0.46960699177E+02 -0.32536298458E+02  0.64470798549E+02  0.00000000000E+00 0.  1.
          1    1    1    2  501    0  0.80328581325E+02  0.26469968596E+02 -0.31916522828E+03  0.33018143975E+03  0.00000000000E+00 0. -1.
<scales pt_clust_5="13000.00000" pt_clust_6="13000.00000" pt_clust_7="13000.00000" pt_clust_8="13000.00000" pt_clust_9="84.57746"></scales>
<clustering>
<clus scale="   80.741">  5  6 -1 -1</clus>
<clus scale="   84.577">  1  9  2 -1</clus>
<clus scale="   84.989">  7  8 -1 -1</clus>
<clus scale="  231.824">  2  5  1 -1</clus>
<clus scale="   84.577">  1  5  2 -1</clus>
</clustering>
</event>
<event>
 9    2  0.1665830E-004  0.1680342E+03  0.7546771E-02  0.1213797E+00
         21   -1    0    0  501  502  0.00000000000E+00  0.00000000000E+00  0.18919451225E+03  0.18919451225E+03  0.00000000000E+00 0. -1.
          2   -1    0    0  502    0 -0.00000000000E+00 -0.00000000000E+00 -0.20311992164E+03  0.20311992164E+03  0.00000000000E+00 0. -1.
         24    2    1    2    0    0 -0.10981200888E+02 -0.48897081214E+01  0.10185900273E+02  0.80812752330E+02  0.79261922487E+02 0.  0.
         23    2    1    2    0    0 -0.12956415497E+03 -0.34926729754E+02 -0.31413830173E+02  0.16524275846E+03  0.91167942798E+02 0.  0.
        -13    1    3    3    0    0  0.30685582198E+02  0.14352396805E+02  0.36356132466E+00  0.33878140825E+02  0.00000000000E+00 0.  1.
         14    1    3    3    0    0 -0.41666783086E+02 -0.19242104927E+02  0.98223389480E+01  0.46934611506E+02  0.00000000000E+00 0. -1.
        -13    1    4    4    0    0 -0.79063586241E+02  0.25760578064E+02 -0.19340744604E+02  0.85374015094E+02  0.00000000000E+00 0. -1.
         13    1    4    4    0    0 -0.50500568728E+02 -0.60687307818E+02 -0.12073085568E+02  0.79868743368E+02  0.00000000000E+00 0.  1.
          1    1    1    2  501    0  0.14054535586E+03  0.39816437875E+02  0.73025205132E+01  0.14625892309E+03  0.00000000000E+00 0. -1.
<scales pt_clust_5="13000.00000" pt_clust_6="13000.00000" pt_clust_7="13000.00000" pt_clust_8="13000.00000" pt_clust_9="141.15198"></scales>
<clustering>
<clus scale="   79.262">  5  6 -1 -1</clus>
<clus scale="   80.168">  2  5  1 -1</clus>
<clus scale="   91.168">  7  8 -1 -1</clus>
<clus scale="  141.152">  1  9  2 -1</clus>
<clus scale="  141.152">  1  5  2 -1</clus>
</clustering>
</event>
<event>
 9    2  0.1665830E-004  0.1160861E+03  0.7546771E-02  0.1254778E+00
          2   -1    0    0  502    0 -0.00000000000E+00  0.00000000000E+00  0.10057534918E+04  0.10057534918E+04  0.00000000000E+00 0. -1.
         21   -1    0    0  501  502  0.00000000000E+00 -0.00000000000E+00 -0.27582116495E+02  0.27582116495E+02  0.00000000000E+00 0.  1.
         23    2    1    2    0    0  0.83334421416E+01 -0.76743527920E+02  0.49968626717E+03  0.51375283714E+03  0.91085655993E+02 0.  0.
         24    2    1    2    0    0 -0.70322567959E+02  0.43357676030E+02  0.17498661003E+03  0.20802442161E+03  0.76345888301E+02 0.  0.
        -13    1    4    4    0    0 -0.60421955285E+02  0.63782239823E+02  0.12164929488E+03  0.15005844776E+03  0.00000000000E+00 0.  1.
         14    1    4    4    0    0 -0.99006126733E+01 -0.20424563793E+02  0.53337315152E+02  0.57965973856E+02  0.00000000000E+00 0. -1.
        -11    1    3    3    0    0  0.47756037304E+02 -0.24912099758E+02  0.24763199769E+03  0.25342229202E+03  0.00000000000E+00 0. -1.
         11    1    3    3    0    0 -0.39422595163E+02 -0.51831428163E+02  0.25205426948E+03  0.26033054511E+03  0.00000000000E+00 0.  1.
          1    1    1    2  501    0  0.61989125817E+02  0.33385851891E+02  0.30349849814E+03  0.31155834959E+03  0.00000000000E+00 0. -1.
<scales pt_clust_5="13000.00000" pt_clust_6="13000.00000" pt_clust_7="13000.00000" pt_clust_8="13000.00000" pt_clust_9="70.40790"></scales>
<clustering>
<clus scale="   70.408">  2  9  1 -1</clus>
<clus scale="   76.346">  5  6 -1 -1</clus>
<clus scale="   91.086">  7  8 -1 -1</clus>
<clus scale="  104.919">  2  5  1 -1</clus>
<clus scale="   70.408">  2  5  1 -1</clus>
</clustering>
</event>
<event>
 9    2  0.1665830E-004  0.9186564E+02  0.7546771E-02  0.1299218E+00
          2   -1    0    0  502    0 -0.00000000000E+00  0.00000000000E+00  0.37327256264E+03  0.37327256264E+03  0.00000000000E+00 0. -1.
         21   -1    0    0  501  502  0.00000000000E+00 -0.00000000000E+00 -0.16940336215E+03  0.16940336215E+03  0.00000000000E+00 0.  1.
         23    2    1    2    0    0  0.35393026903E+02  0.10911889157E+01  0.70510495738E+02  0.11697896861E+03  0.86362561579E+02 0.  0.
         24    2    1    2    0    0  0.31767419208E+01 -0.58135376826E+02 -0.12292015374E+03  0.16032830741E+03  0.84888092410E+02 0.  0.
        -11    1    4    4    0    0  0.33815175442E+02 -0.15071173312E+02 -0.91827393117E+02  0.99009476728E+02  0.00000000000E+00 0.  1.
         12    1    4    4    0    0 -0.30638433521E+02 -0.43064203514E+02 -0.31092760624E+02  0.61318830682E+02  0.00000000000E+00 0. -1.
        -13    1    3    3    0    0  0.17408435457E+02  0.38914514481E+02  0.10683126471E+02  0.43949087062E+02  0.00000000000E+00 0. -1.
         13    1    3    3    0    0  0.17984591446E+02 -0.37823325565E+02  0.59827369267E+02  0.73029881553E+02  0.00000000000E+00 0.  1.
          1    1    1    2  501    0 -0.38569768824E+02  0.57044187910E+02  0.25627885849E+03  0.26536864877E+03  0.00000000000E+00 0. -1.
<scales pt_clust_5="13000.00000" pt_clust_6="13000.00000" pt_clust_7="13000.00000" pt_clust_8="13000.00000" pt_clust_9="68.85979"></scales>
<clustering>
<clus scale="   68.860">  2  9  1 -1</clus>
<clus scale="   84.888">  5  6 -1 -1</clus>
<clus scale="   86.363">  7  8 -1 -1</clus>
<clus scale="   90.481">  2  5  1 -1</clus>
<clus scale="   68.860">  2  5  1 -1</clus>
</clustering>
</event>
<event>
 9    2  0.1665830E-004  0.1555511E+03  0.7546771E-02  0.1214179E+00
         21   -1    0    0  501  502  0.00000000000E+00  0.00000000000E+00  0.13117864203E+03  0.13117864203E+03  0.00000000000E+00 0.  1.
          2   -1    0    0  502    0 -0.00000000000E+00 -0.00000000000E+00 -0.47737224057E+03  0.47737224057E+03  0.00000000000E+00 0. -1.
         24    2    1    2    0    0 -0.20421892122E+02  0.52322687619E+02 -0.98832991109E+02  0.14077218531E+03  0.83030902128E+02 0.  0.
         23    2    1    2    0    0 -0.84141069606E+02 -0.98898356750E+02  0.35120206303E+02  0.16298677474E+03  0.92036162934E+02 0.  0.
        -11    1    3    3    0    0 -0.32799193544E+02  0.66776369249E+01 -0.26328050186E+01  0.33575431409E+02  0.00000000000E+00 0.  1.
         12    1    3    3    0    0  0.12377301422E+02  0.45645050694E+02 -0.96200186091E+02  0.10719675390E+03  0.00000000000E+00 0. -1.
        -13    1    4    4    0    0 -0.51295969161E+02 -0.26385567950E+01  0.33390222743E+02  0.61262920343E+02  0.00000000000E+00 0.  1.
         13    1    4    4    0    0 -0.32845100446E+02 -0.96259799955E+02  0.17299835604E+01  0.10172385440E+03  0.00000000000E+00 0. -1.
          1    1    1    2  501    0  0.10456296173E+03  0.46575669131E+02 -0.28248081374E+03  0.30479192255E+03  0.00000000000E+00 0. -1.
<scales pt_clust_5="13000.00000" pt_clust_6="13000.00000" pt_clust_7="13000.00000" pt_clust_8="13000.00000" pt_clust_9="125.40136"></scales>
<clustering>
<clus scale="   83.031">  5  6 -1 -1</clus>
<clus scale="   92.036">  7  8 -1 -1</clus>
<clus scale="  100.244">  2  5  1 -1</clus>
<clus scale="  125.401">  1  9  2 -1</clus>
<clus scale="  125.401">  1  5  2 -1</clus>
</clustering>
</event>
<event>
 9    2  0.1665830E-004  0.1450365E+03  0.7546771E-02  0.1227950E+00
         21   -1    0    0  501  502  0.00000000000E+00  0.00000000000E+00  0.22085257597E+03  0.22085257597E+03  0.00000000000E+00 0. -1.
          2   -1    0    0  502    0 -0.00000000000E+00 -0.00000000000E+00 -0.23403781399E+03  0.23403781399E+03  0.00000000000E+00 0. -1.
         23    2    1    2    0    0 -0.12381013002E+02 -0.19030593553E+02 -0.10054019809E+03  0.13672711191E+03  0.89836065841E+02 0.  0.
         24    2    1    2    0    0  0.82055812781E+02  0.97161317966E+02  0.13588642667E+03  0.20277570909E+03  0.80494652761E+02 0.  0.
        -11    1    4    4    0    0  0.36415092363E+02  0.67159166309E+02  0.27122960847E+02  0.81068289585E+02  0.00000000000E+00 0.  1.
         12    1    4    4    0    0  0.45640720418E+02  0.30002151657E+02  0.10876346582E+03  0.12170741950E+03  0.00000000000E+00 0. -1.
        -11    1    3    3    0    0 -0.17621471674E+02  0.32351432641E+02 -0.22574255310E+02  0.43205653110E+02  0.00000000000E+00 0.  1.
         11    1    3    3    0    0  0.52404586721E+01 -0.51382026194E+02 -0.77965942780E+02  0.93521458802E+02  0.00000000000E+00 0. -1.
          1    1    1    2  501    0 -0.69674799779E+02 -0.78130724413E+02 -0.48531466594E+02  0.11538756896E+03  0.00000000000E+00 0. -1.
<scales pt_clust_5="13000.00000" pt_clust_6="13000.00000" pt_clust_7="13000.00000" pt_clust_8="13000.00000" pt_clust_9="120.64916"></scales>
<clustering>
<clus scale="   80.495">  5  6 -1 -1</clus>
<clus scale="   89.836">  7  8 -1 -1</clus>
<clus scale="   92.661">  2  7  1 -1</clus>
<clus scale="  120.649">  1  9  2 -1</clus>
<clus scale="  120.649">  1  5  2 -1</clus>
</clustering>
</event>
<event>
 9    2  0.1665830E-004  0.9828859E+02  0.7546771E-02  0.1289269E+00
         21   -1    0    0  501  502  0.00000000000E+00  0.00000000000E+00  0.46889920157E+02  0.46889920157E+02  0.00000000000E+00 0.  1.
          2   -1    0    0  502    0 -0.00000000000E+00 -0.00000000000E+00 -0.56268589732E+03  0.56268589732E+03  0.00000000000E+00 0. -1.
         24    2    1    2    0    0 -0.59805196965E+02  0.32222222590E+02 -0.13909549865E+03  0.17472138092E+03  0.81025119517E+02 0.  0.
         23    2    1    2    0    0  0.84459771705E+01  0.46241478134E+02 -0.10244371237E+03  0.14500776060E+03  0.91230080563E+02 0.  0.
        -13    1    3    3    0    0 -0.44541871515E+01 -0.25421959308E+02 -0.32919931876E+02  0.41831061580E+02  0.00000000000E+00 0.  1.
         14    1    3    3    0    0 -0.55351009814E+02  0.57644181897E+02 -0.10617556677E+03  0.13289031934E+03  0.00000000000E+00 0. -1.
        -13    1    4    4    0    0  0.18726369986E+02 -0.24431975253E+02 -0.37098648863E+02  0.48206929949E+02  0.00000000000E+00 0. -1.
         13    1    4    4    0    0 -0.10280392816E+02  0.70673453387E+02 -0.65345063511E+02  0.96800830654E+02  0.00000000000E+00 0.  1.
          1    1    1    2  501    0  0.51359219795E+02 -0.78463700724E+02 -0.27425676614E+03  0.28984667595E+03  0.00000000000E+00 0. -1.
<scales pt_clust_5="13000.00000" pt_clust_6="13000.00000" pt_clust_7="13000.00000" pt_clust_8="13000.00000" pt_clust_9="93.77809"></scales>
<clustering>
<clus scale="   81.025">  5  6 -1 -1</clus>
<clus scale="   91.230">  7  8 -1 -1</clus>
<clus scale="   93.778">  1  9  2 -1</clus>
<clus scale="   88.898">  2  5  1 -1</clus>
<clus scale="   93.778">  1  5  2 -1</clus>
</clustering>
</event>
<event>
 9    2  0.1665830E-004  0.9703826E+02  0.7546771E-02  0.1295223E+00
         21   -1    0    0  501  502  0.00000000000E+00  0.00000000000E+00  0.15975150233E+03  0.15975150233E+03  0.00000000000E+00 0. -1.
          2   -1    0    0  502    0 -0.00000000000E+00 -0.00000000000E+00 -0.18190088724E+03  0.18190088724E+03  0.00000000000E+00 0. -1.
         23    2    1    2    0    0 -0.12484623226E+01  0.17830732286E+01 -0.60605853685E+02  0.11244864875E+03  0.94693669784E+02 0.  0.
         24    2    1    2    0    0 -0.17397363915E+02  0.37286494980E+02 -0.69033703197E+02  0.11332347906E+03  0.79897482747E+02 0.  0.
        -13    1    4    4    0    0  0.19678262813E+02  0.14909533927E+02  0.71402474798E+01  0.25700415626E+02  0.00000000000E+00 0.  1.
         14    1    4    4    0    0 -0.37075626728E+02  0.22376961053E+02 -0.76173950676E+02  0.87623063430E+02  0.00000000000E+00 0. -1.
        -11    1    3    3    0    0  0.26224372893E+02 -0.33095020099E+02 -0.52403399261E+02  0.67298694959E+02  0.00000000000E+00 0.  1.
         11    1    3    3    0    0 -0.27472835216E+02  0.34878093328E+02 -0.82024544233E+01  0.45149953794E+02  0.00000000000E+00 0. -1.
          1    1    1    2  501    0  0.18645826238E+02 -0.39069568208E+02  0.10749017197E+03  0.11588026176E+03  0.00000000000E+00 0. -1.
<scales pt_clust_5="13000.00000" pt_clust_6="13000.00000" pt_clust_7="13000.00000" pt_clust_8="13000.00000" pt_clust_9="43.29085"></scales>
<clustering>
<clus scale="   43.291">  1  9  2 -1</clus>
<clus scale="   79.897">  5  6 -1 -1</clus>
<clus scale="   82.663">  1  5  2 -1</clus>
<clus scale="   94.694">  7  8 -1 -1</clus>
<clus scale="   43.291">  1  5  2 -1</clus>
</clustering>
</event>
<event>
 9    2  0.1665830E-004  0.1151896E+03  0.7546771E-02  0.1256212E+00
         21   -1    0    0  501  502  0.00000000000E+00  0.00000000000E+00  0.18792754010E+03  0.18792754010E+03  0.00000000000E+00 0.  1.
         -1   -1    0    0    0  501 -0.00000000000E+00 -0.00000000000E+00 -0.21321691236E+03  0.21321691236E+03  0.00000000000E+00 0.  1.
         23    2    1    2    0    0 -0.75846006903E+02 -0.16912761706E+02 -0.14338198248E+03  0.18585984427E+03  0.89144997283E+02 0.  0.
         24    2    1    2    0    0  0.38046478168E+02  0.39279198339E+01  0.14470900472E+03  0.16726541466E+03  0.74659626566E+02 0.  0.
        -13    1    4    4    0    0  0.13349209939E+02 -0.25978819699E+02  0.11431966677E+03  0.11799189248E+03  0.00000000000E+00 0.  1.
         14    1    4    4    0    0  0.24697268230E+02  0.29906739532E+02  0.30389337944E+02  0.49273522181E+02  0.00000000000E+00 0. -1.
        -11    1    3    3    0    0 -0.35090620830E+02 -0.20846404408E+02 -0.13877962919E+03  0.14465721456E+03  0.00000000000E+00 0.  1.
         11    1    3    3    0    0 -0.40755386073E+02  0.39336427020E+01 -0.46023532881E+01  0.41202629705E+02  0.00000000000E+00 0. -1.
         -2    1    1    2    0  502  0.37799528735E+02  0.12984841873E+02 -0.26616394498E+02  0.48019193528E+02  0.00000000000E+00 0.  1.
<scales pt_clust_5="13000.00000" pt_clust_6="13000.00000" pt_clust_7="13000.00000" pt_clust_8="13000.00000" pt_clust_9="39.96764"></scales>
<clustering>
<clus scale="   39.968">  1  9  2 -1</clus>
<clus scale="   74.660">  5  6 -1 -1</clus>
<clus scale="   89.145">  7  8 -1 -1</clus>
<clus scale="  104.383">  1  5  2 -1</clus>
<clus scale="   39.968">  1  5  2 -1</clus>
</clustering>
</event>
<event>
 9    2  0.1665830E-004  0.2629350E+03  0.7546771E-02  0.1105518E+00
          2   -1    0    0  502    0 -0.00000000000E+00  0.00000000000E+00  0.11356070248E+04  0.11356070248E+04  0.00000000000E+00 0. -1.
         21   -1    0    0  501  502  0.00000000000E+00 -0.00000000000E+00 -0.87428884272E+02  0.87428884272E+02  0.00000000000E+00 0.  1.
         23    2    1    2    0    0  0.15153564312E+03 -0.21448684505E+03  0.81901518654E+03  0.86292022486E+03  0.69841111440E+02 0.  0.
         24    2    1    2    0    0 -0.11875193146E+03  0.19315541837E+03  0.18910615216E+03  0.30413042824E+03  0.72959877475E+02 0.  0.
        -11    1    4    4    0    0 -0.12153171700E+03  0.19669644884E+03  0.19031971353E+03  0.29946793582E+03  0.00000000000E+00 0.  1.
         12    1    4    4    0    0  0.27797855413E+01 -0.35410304634E+01 -0.12135613678E+01  0.46624924227E+01  0.00000000000E+00 0. -1.
        -11    1    3    3    0    0  0.71192550166E+02 -0.11002694708E+03  0.29885632761E+03  0.32632715614E+03  0.00000000000E+00 0. -1.
         11    1    3    3    0    0  0.80343092951E+02 -0.10445989797E+03  0.52015885893E+03  0.53659306872E+03  0.00000000000E+00 0.  1.
          1    1    1    2  501    0 -0.32783711653E+02  0.21331426681E+02  0.40056801812E+02  0.55985255965E+02  0.00000000000E+00 0. -1.
<scales pt_clust_5="13000.00000" pt_clust_6="13000.00000" pt_clust_7="13000.00000" pt_clust_8="13000.00000" pt_clust_9="39.11268"></scales>
<clustering>
<clus scale="   39.113">  2  9  1 -1</clus>
<clus scale="   69.841">  7  8 -1 -1</clus>
<clus scale="   72.960">  5  6 -1 -1</clus>
<clus scale="  262.087">  1  7  2 -1</clus>
<clus scale="   39.113">  2  5  1 -1</clus>
</clustering>
</event>
<event>
 9    2  0.1665830E-004  0.1396756E+03  0.7546771E-02  0.1215774E+00
          2   -1    0    0  502    0 -0.00000000000E+00  0.00000000000E+00  0.38152675695E+03  0.38152675695E+03  0.00000000000E+00 0. -1.
         21   -1    0    0  501  502  0.00000000000E+00 -0.00000000000E+00 -0.14343767014E+03  0.14343767014E+03  0.00000000000E+00 0.  1.
         23    2    1    2    0    0 -0.48656791942E+01 -0.10999990570E+03  0.15609700457E+03  0.21125705563E+03  0.90219812855E+02 0.  0.
         24    2    1    2    0    0 -0.88690788918E+02  0.89280325693E+02 -0.43500318038E+02  0.15581355825E+03  0.80923140508E+02 0.  0.
        -11    1    4    4    0    0 -0.88686683351E+02  0.97060268698E+02 -0.54513393713E+02  0.14232966542E+03  0.00000000000E+00 0.  1.
         12    1    4    4    0    0 -0.41055663365E-02 -0.77799430058E+01  0.11013075675E+02  0.13483892830E+02  0.00000000000E+00 0. -1.
        -13    1    3    3    0    0 -0.59525394733E+01 -0.50185664551E+02  0.75272267423E+01  0.51094939036E+02  0.00000000000E+00 0.  1.
         13    1    3    3    0    0  0.10868602791E+01 -0.59814241144E+02  0.14856977783E+03  0.16016211659E+03  0.00000000000E+00 0. -1.
          1    1    1    2  501    0  0.93556468112E+02  0.20719580003E+02  0.12549240028E+03  0.15789381321E+03  0.00000000000E+00 0. -1.
<scales pt_clust_5="13000.00000" pt_clust_6="13000.00000" pt_clust_7="13000.00000" pt_clust_8="13000.00000" pt_clust_9="95.82339"></scales>
<clustering>
<clus scale="   80.923">  5  6 -1 -1</clus>
<clus scale="   90.220">  7  8 -1 -1</clus>
<clus scale="   95.823">  2  9  1 -1</clus>
<clus scale="  133.859">  2  5  1 -1</clus>
<clus scale="   95.823">  2  5  1 -1</clus>
</clustering>
</event>
<event>
 9    2  0.1665830E-004  0.1496725E+03  0.7546771E-02  0.1224371E+00
          2   -1    0    0  502    0 -0.00000000000E+00  0.00000000000E+00  0.55459554032E+03  0.55459554032E+03  0.00000000000E+00 0. -1.
         21   -1    0    0  501  502  0.00000000000E+00 -0.00000000000E+00 -0.78688856743E+02  0.78688856743E+02  0.00000000000E+00 0.  1.
         23    2    1    2    0    0  0.15032240279E+02  0.20816082787E+02  0.22504887066E+03  0.24268453174E+03  0.87117795038E+02 0.  0.
         24    2    1    2    0    0  0.74045777628E+02 -0.10721052682E+03  0.61002005624E+02  0.16378690097E+03  0.78281734742E+02 0.  0.
        -13    1    4    4    0    0  0.71241334777E+02 -0.69123658003E+02  0.95671879255E+01  0.99724314795E+02  0.00000000000E+00 0.  1.
         14    1    4    4    0    0  0.28044428512E+01 -0.38086868814E+02  0.51434817699E+02  0.64062586175E+02  0.00000000000E+00 0. -1.
        -13    1    3    3    0    0 -0.53599116196E+01  0.46344691778E+02  0.69268466737E+02  0.83514547192E+02  0.00000000000E+00 0. -1.
         13    1    3    3    0    0  0.20392151898E+02 -0.25528608991E+02  0.15578040392E+03  0.15916998455E+03  0.00000000000E+00 0.  1.
          1    1    1    2  501    0 -0.89078017907E+02  0.86394444030E+02  0.18985580729E+03  0.22681296435E+03  0.00000000000E+00 0. -1.
<scales pt_clust_5="13000.00000" pt_clust_6="13000.00000" pt_clust_7="13000.00000" pt_clust_8="13000.00000" pt_clust_9="127.56896"></scales>
<clustering>
<clus scale="   78.282">  5  6 -1 -1</clus>
<clus scale="   87.118">  7  8 -1 -1</clus>
<clus scale="   90.823">  1  7  2 -1</clus>
<clus scale="  127.569">  2  9  1 -1</clus>
<clus scale="  127.569">  2  5  1 -1</clus>
</clustering>
</event>
<event>
 9    2  0.1665830E-004  0.1253665E+03  0.7546771E-02  0.1249871E+00
         21   -1    0    0  501  502  0.00000000000E+00  0.00000000000E+00  0.44589928647E+03  0.44589928647E+03  0.00000000000E+00 0.  1.
         -1   -1    0    0    0  501 -0.00000000000E+00 -0.00000000000E+00 -0.16411894317E+03  0.16411894317E+03  0.00000000000E+00 0.  1.
         23    2    1    2    0    0 -0.11291635913E+02  0.32554466568E+01 -0.10034398807E+03  0.13603242547E+03  0.91092293112E+02 0.  0.
         24    2    1    2    0    0  0.81896093315E+02 -0.65203302660E+02  0.73712056509E+02  0.15158751393E+03  0.81159511622E+02 0.  0.
        -13    1    4    4    0    0  0.63066464505E+02 -0.14048749482E+02  0.63359868446E+01  0.64922192172E+02  0.00000000000E+00 0.  1.
         14    1    4    4    0    0  0.18829628810E+02 -0.51154553178E+02  0.67376069665E+02  0.86665321758E+02  0.00000000000E+00 0. -1.
        -11    1    3    3    0    0 -0.34608145937E+02  0.27452336155E+02 -0.90999285697E+02  0.10115445874E+03  0.00000000000E+00 0. -1.
         11    1    3    3    0    0  0.23316510024E+02 -0.24196889498E+02 -0.93447023713E+01  0.34877966734E+02  0.00000000000E+00 0.  1.
         -2    1    1    2    0  502 -0.70604457402E+02  0.61947856004E+02  0.30841227486E+03  0.32239829024E+03  0.00000000000E+00 0.  1.
<scales pt_clust_5="13000.00000" pt_clust_6="13000.00000" pt_clust_7="13000.00000" pt_clust_8="13000.00000" pt_clust_9="95.55050"></scales>
<clustering>
<clus scale="   81.160">  5  6 -1 -1</clus>
<clus scale="   91.092">  7  8 -1 -1</clus>
<clus scale="   91.847">  2  7  1 -1</clus>
<clus scale="   95.550">  1  9  2 -1</clus>
<clus scale="   95.550">  1  5  2 -1</clus>
</clustering>
</event>
<event>
 9    2  0.1665830E-004  0.1495855E+03  0.7546771E-02  0.1202014E+00
          2   -1    0    0  502    0 -0.00000000000E+00  0.00000000000E+00  0.18493790405E+03  0.18493790405E+03  0.00000000000E+00 0. -1.
         21   -1    0    0  501  502  0.00000000000E+00 -0.00000000000E+00 -0.24462715561E+03  0.24462715561E+03  0.00000000000E+00 0. -1.
         23    2    1    2    0    0  0.25396845380E+02 -0.13383846489E+03  0.57240323071E+02  0.17458737412E+03  0.92986892505E+02 0.  0.
         24    2    1    2    0    0  0.46082230407E+02  0.91859148494E+02 -0.37411570684E+02  0.14010978649E+03  0.87575404815E+02 0.  0.
        -13    1    4    4    0    0 -0.16039810744E+02  0.64748095637E+02 -0.24800259791E+02  0.71166314384E+02  0.00000000000E+00 0.  1.
         14    1    4    4    0    0  0.62122041151E+02  0.27111052857E+02 -0.12611310893E+02  0.68943472108E+02  0.00000000000E+00 0. -1.
        -11    1    3    3    0    0 -0.17831275847E+02 -0.93038996942E+02  0.40445569760E+01  0.94818604669E+02  0.00000000000E+00 0. -1.
         11    1    3    3    0    0  0.43228121226E+02 -0.40799467952E+02  0.53195766095E+02  0.79768769455E+02  0.00000000000E+00 0.  1.
          1    1    1    2  501    0 -0.71479075787E+02  0.41979316400E+02 -0.79518003938E+02  0.11486789904E+03  0.00000000000E+00 0. -1.
<scales pt_clust_5="13000.00000" pt_clust_6="13000.00000" pt_clust_7="13000.00000" pt_clust_8="13000.00000" pt_clust_9="82.89464"></scales>
<clustering>
<clus scale="   82.895">  2  9  1 -1</clus>
<clus scale="   87.575">  5  6 -1 -1</clus>
<clus scale="   92.987">  7  8 -1 -1</clus>
<clus scale="  146.283">  2  5  1 -1</clus>
<clus scale="   82.895">  2  5  1 -1</clus>
</clustering>
</event>
<event>
 9    2  0.1665830E-004  0.1836702E+03  0.7546771E-02  0.1165674E+00
          2   -1    0    0  502    0 -0.00000000000E+00  0.00000000000E+00  0.45777401393E+03  0.45777401393E+03  0.00000000000E+00 0. -1.
         21   -1    0    0  501  502  0.00000000000E+00 -0.00000000000E+00 -0.11843149130E+03  0.11843149130E+03  0.00000000000E+00 0. -1.
         24    2    1    2    0    0 -0.69948314860E+01  0.13058519437E+03  0.89699068213E+02  0.17714383465E+03  0.78946783720E+02 0.  0.
         23    2    1    2    0    0  0.84700015432E+02 -0.17974216691E+03  0.18833738598E+03  0.28854951021E+03  0.91151026917E+02 0.  0.
        -11    1    3    3    0    0 -0.33730141543E+02  0.23273498771E+02  0.14778060392E+02  0.43563393606E+02  0.00000000000E+00 0.  1.
         12    1    3    3    0    0  0.26735310057E+02  0.10731169560E+03  0.74921007821E+02  0.13358044104E+03  0.00000000000E+00 0. -1.
        -13    1    4    4    0    0  0.52924954767E+02 -0.15133799427E+03  0.96047858784E+02  0.18689416931E+03  0.00000000000E+00 0. -1.
         13    1    4    4    0    0  0.31775060665E+02 -0.28404172639E+02  0.92289527194E+02  0.10165534090E+03  0.00000000000E+00 0.  1.
          1    1    1    2  501    0 -0.77705183946E+02  0.49156972537E+02  0.61306068436E+02  0.11051216036E+03  0.00000000000E+00 0. -1.
<scales pt_clust_5="13000.00000" pt_clust_6="13000.00000" pt_clust_7="13000.00000" pt_clust_8="13000.00000" pt_clust_9="91.94837"></scales>
<clustering>
<clus scale="   78.947">  5  6 -1 -1</clus>
<clus scale="   91.151">  7  8 -1 -1</clus>
<clus scale="   91.948">  2  9  1 -1</clus>
<clus scale="  177.929">  1  5  2 -1</clus>
<clus scale="   91.948">  2  5  1 -1</clus>
</clustering>
</event>
<event>
 9    2  0.1665830E-004  0.1308235E+03  0.7546771E-02  0.1229272E+00
         21   -1    0    0  501  502  0.00000000000E+00  0.00000000000E+00  0.56216909646E+02  0.56216909646E+02  0.00000000000E+00 0.  1.
          2   -1    0    0  502    0 -0.00000000000E+00 -0.00000000000E+00 -0.10136645554E+04  0.10136645554E+04  0.00000000000E+00 0. -1.
         24    2    1    2    0    0 -0.82318951751E+02  0.50360817313E+02 -0.88703884842E+03  0.89591801435E+03  0.80737525928E+02 0.  0.
         23    2    1    2    0    0  0.62349757762E+02 -0.25621223963E+02 -0.81322415334E+02  0.14034911979E+03  0.92415370907E+02 0.  0.
        -13    1    3    3    0    0 -0.25381644181E+02  0.10954385151E+02 -0.60881448520E+02  0.66863870582E+02  0.00000000000E+00 0.  1.
         14    1    3    3    0    0 -0.56937307570E+02  0.39406432162E+02 -0.82615739990E+03  0.82905414377E+03  0.00000000000E+00 0. -1.
        -11    1    4    4    0    0  0.43038760200E+02  0.15108588732E+02  0.19545303848E+01  0.45655498267E+02  0.00000000000E+00 0.  1.
         11    1    4    4    0    0  0.19310997561E+02 -0.40729812695E+02 -0.83276945718E+02  0.94693621523E+02  0.00000000000E+00 0. -1.
          1    1    1    2  501    0  0.19969193989E+02 -0.24739593350E+02  0.10913617963E+02  0.33614330943E+02  0.00000000000E+00 0. -1.
<scales pt_clust_5="13000.00000" pt_clust_6="13000.00000" pt_clust_7="13000.00000" pt_clust_8="13000.00000" pt_clust_9="31.79334"></scales>
<clustering>
<clus scale="   31.793">  1  9  2 -1</clus>
<clus scale="   80.738">  5  6 -1 -1</clus>
<clus scale="   92.415">  7  8 -1 -1</clus>
<clus scale="  122.853">  2  5  1 -1</clus>
<clus scale="   31.793">  1  5  2 -1</clus>
</clustering>
</event>
<event>
 9    2  0.1665830E-004  0.2767360E+03  0.7546771E-02  0.1143899E+00
         21   -1    0    0  501  502  0.00000000000E+00  0.00000000000E+00  0.44798432463E+02  0.44798432463E+02  0.00000000000E+00 0.  1.
          2   -1    0    0  502    0 -0.00000000000E+00 -0.00000000000E+00 -0.21993155607E+04  0.21993155607E+04  0.00000000000E+00 0. -1.
         24    2    1    2    0    0  0.19330806643E+02 -0.33268906371E+02 -0.26333649759E+03  0.27726304943E+03  0.77770093240E+02 0.  0.
         23    2    1    2    0    0  0.92910483913E+02  0.25840144031E+03 -0.98378780344E+03  0.10252329171E+04  0.88659064933E+02 0.  0.
        -11    1    3    3    0    0 -0.45498106379E+01 -0.45472743261E+02 -0.81319160548E+02  0.93280635872E+02  0.00000000000E+00 0.  1.
         12    1    3    3    0    0  0.23880617281E+02  0.12203836890E+02 -0.18201733704E+03  0.18398241356E+03  0.00000000000E+00 0. -1.
        -13    1    4    4    0    0  0.59338938779E+01  0.11453037601E+03 -0.30253414796E+03  0.32354185016E+03  0.00000000000E+00 0.  1.
         13    1    4    4    0    0  0.86976590035E+02  0.14387106431E+03 -0.68125365548E+03  0.70169106697E+03  0.00000000000E+00 0. -1.
          1    1    1    2  501    0 -0.11224129056E+03 -0.22513253394E+03 -0.90739282722E+03  0.94161802661E+03  0.00000000000E+00 0. -1.
<scales pt_clust_5="13000.00000" pt_clust_6="13000.00000" pt_clust_7="13000.00000" pt_clust_8="13000.00000" pt_clust_9="262.14952"></scales>
<clustering>
<clus scale="   77.770">  5  6 -1 -1</clus>
<clus scale="   86.768">  2  5  1 -1</clus>
<clus scale="   88.659">  7  8 -1 -1</clus>
<clus scale="  262.150">  1  9  2 -1</clus>
<clus scale="  262.150">  1  5  2 -1</clus>
</clustering>
</event>
<event>
 9    2  0.1665830E-004  0.2752667E+03  0.7546771E-02  0.1137480E+00
         -1   -1    0    0    0  501 -0.00000000000E+00  0.00000000000E+00  0.18765174756E+03  0.18765174756E+03  0.00000000000E+00 0.  1.
         21   -1    0    0  501  502  0.00000000000E+00 -0.00000000000E+00 -0.68003911891E+03  0.68003911891E+03  0.00000000000E+00 0.  1.
         23    2    1    2    0    0  0.44892318552E+02  0.18738171449E+02  0.33343908385E+02  0.10817780489E+03  0.90687275348E+02 0.  0.
         24    2    1    2    0    0 -0.34498059892E+02  0.25130066632E+03 -0.18496767714E+03  0.32460060215E+03  0.82524955617E+02 0.  0.
        -13    1    4    4    0    0 -0.16675879946E+02  0.24519749026E+03 -0.18131975824E+03  0.30541242432E+03  0.00000000000E+00 0.  1.
         14    1    4    4    0    0 -0.17822179946E+02  0.61031760639E+01 -0.36479188964E+01  0.19188177828E+02  0.00000000000E+00 0. -1.
        -11    1    3    3    0    0  0.46345745736E+02  0.48016309055E+02  0.40420932150E+02  0.78021444738E+02  0.00000000000E+00 0.  1.
         11    1    3    3    0    0 -0.14534271842E+01 -0.29278137605E+02 -0.70770237650E+01  0.30156360152E+02  0.00000000000E+00 0. -1.
         -2    1    1    2    0  502 -0.10394258660E+02 -0.27003883777E+03 -0.34076360259E+03  0.43491245943E+03  0.00000000000E+00 0.  1.
<scales pt_clust_5="13000.00000" pt_clust_6="13000.00000" pt_clust_7="13000.00000" pt_clust_8="13000.00000" pt_clust_9="262.60505"></scales>
<clustering>
<clus scale="   82.525">  5  6 -1 -1</clus>
<clus scale="   90.687">  7  8 -1 -1</clus>
<clus scale="  102.911">  1  7  2 -1</clus>
<clus scale="  262.605">  2  9  1 -1</clus>
<clus scale="  262.605">  2  5  1 -1</clus>
</clustering>
</event>
<event>
 9    2  0.1665830E-004  0.9739349E+02  0.7546771E-02  0.1295576E+00
         -1   -1    0    0    0  501 -0.00000000000E+00  0.00000000000E+00  0.47307175688E+02  0.47307175688E+02  0.00000000000E+00 0.  1.
         21   -1    0    0  501  502  0.00000000000E+00 -0.00000000000E+00 -0.48010510252E+03  0.48010510252E+03  0.00000000000E+00 0.  1.
         24    2    1    2    0    0  0.21306956657E+01 -0.65451463628E+01 -0.82470106976E+01  0.81457499182E+02  0.80746097011E+02 0.  0.
         23    2    1    2    0    0  0.14517671277E+02  0.21642343908E+02 -0.24181007098E+03  0.26183712647E+03  0.96991837498E+02 0.  0.
        -13    1    3    3    0    0  0.29136023245E+02  0.25719521230E+02 -0.19374764471E+01  0.38912150259E+02  0.00000000000E+00 0.  1.
         14    1    3    3    0    0 -0.27005327579E+02 -0.32264667593E+02 -0.63095342506E+01  0.42545348923E+02  0.00000000000E+00 0. -1.
        -13    1    4    4    0    0  0.34315869488E+02 -0.28687458916E+02 -0.86501045438E+02  0.97380593855E+02  0.00000000000E+00 0.  1.
         13    1    4    4    0    0 -0.19798198210E+02  0.50329802824E+02 -0.15530902554E+03  0.16445653261E+03  0.00000000000E+00 0. -1.
         -2    1    1    2    0  502 -0.16648366943E+02 -0.15097197545E+02 -0.18274084515E+03  0.18411765255E+03  0.00000000000E+00 0.  1.
<scales pt_clust_5="13000.00000" pt_clust_6="13000.00000" pt_clust_7="13000.00000" pt_clust_8="13000.00000" pt_clust_9="22.47429"></scales>
<clustering>
<clus scale="   22.474">  2  9  1 -1</clus>
<clus scale="   80.746">  5  6 -1 -1</clus>
<clus scale="   81.228">  1  5  2 -1</clus>
<clus scale="   96.992">  7  8 -1 -1</clus>
<clus scale="   22.474">  2  5  1 -1</clus>
</clustering>
</event>
<event>
 9    2  0.1665830E-004  0.1067617E+03  0.7546771E-02  0.1271279E+00
         21   -1    0    0  501  502  0.00000000000E+00  0.00000000000E+00  0.13779524001E+03  0.13779524001E+03  0.00000000000E+00 0.  1.
          2   -1    0    0  502    0 -0.00000000000E+00 -0.00000000000E+00 -0.39510711876E+03  0.39510711876E+03  0.00000000000E+00 0. -1.
         23    2    1    2    0    0  0.52344144431E+02 -0.84306868449E+01 -0.16535222428E+03  0.19630003327E+03  0.91549762704E+02 0.  0.
         24    2    1    2    0    0 -0.59459512193E+02  0.55257341358E+02  0.91845419525E+02  0.14679276501E+03  0.80769594566E+02 0.  0.
        -11    1    4    4    0    0 -0.26501669652E+02  0.64908880757E+02  0.87580979124E+02  0.11218702777E+03  0.00000000000E+00 0.  1.
         12    1    4    4    0    0 -0.32957842541E+02 -0.96515393990E+01  0.42644404003E+01  0.34605737236E+02  0.00000000000E+00 0. -1.
        -11    1    3    3    0    0  0.46439571534E+02  0.23433646618E+02 -0.36780123462E+02  0.63706727116E+02  0.00000000000E+00 0.  1.
         11    1    3    3    0    0  0.59045728972E+01 -0.31864333463E+02 -0.12857210082E+03  0.13259330616E+03  0.00000000000E+00 0. -1.
          1    1    1    2  501    0  0.71153677625E+01 -0.46826654513E+02 -0.18380507399E+03  0.18980956049E+03  0.00000000000E+00 0. -1.
<scales pt_clust_5="13000.00000" pt_clust_6="13000.00000" pt_clust_7="13000.00000" pt_clust_8="13000.00000" pt_clust_9="47.36419"></scales>
<clustering>
<clus scale="   47.364">  1  9  2 -1</clus>
<clus scale="   80.770">  5  6 -1 -1</clus>
<clus scale="   91.550">  7  8 -1 -1</clus>
<clus scale="   97.675">  1  5  2 -1</clus>
<clus scale="   47.364">  1  5  2 -1</clus>
</clustering>
</event>
<event>
 9    2  0.1665830E-004  0.9375501E+02  0.7546771E-02  0.1297357E+00
         -1   -1    0    0    0  501 -0.00000000000E+00  0.00000000000E+00  0.59483800939E+03  0.59483800939E+03  0.00000000000E+00 0.  1.
         21   -1    0    0  501  502  0.00000000000E+00 -0.00000000000E+00 -0.50598016183E+02  0.50598016183E+02  0.00000000000E+00 0.  1.
         24    2    1    2    0    0 -0.24035220890E+02  0.34257902395E+02  0.49099187787E+03  0.49926081123E+03  0.80231152128E+02 0.  0.
         23    2    1    2    0    0  0.12742926215E+01 -0.90207494025E+01  0.66793912765E+02  0.10959021230E+03  0.86403646377E+02 0.  0.
        -13    1    3    3    0    0 -0.49748818572E+02  0.38854789988E+02  0.30685747830E+03  0.31328286203E+03  0.00000000000E+00 0.  1.
         14    1    3    3    0    0  0.25713597683E+02 -0.45968875925E+01  0.18413439957E+03  0.18597794920E+03  0.00000000000E+00 0. -1.
        -11    1    4    4    0    0 -0.34635455507E+02  0.20427889480E+02  0.27024868908E+02  0.48448498287E+02  0.00000000000E+00 0.  1.
         11    1    4    4    0    0  0.35909748129E+02 -0.29448638883E+02  0.39769043856E+02  0.61141714009E+02  0.00000000000E+00 0. -1.
         -2    1    1    2    0  502  0.22760928268E+02 -0.25237152993E+02 -0.13545797431E+02  0.36585002048E+02  0.00000000000E+00 0.  1.
<scales pt_clust_5="13000.00000" pt_clust_6="13000.00000" pt_clust_7="13000.00000" pt_clust_8="13000.00000" pt_clust_9="33.98490"></scales>
<clustering>
<clus scale="   33.985">  2  9  1 -1</clus>
<clus scale="   80.231">  5  6 -1 -1</clus>
<clus scale="   86.404">  7  8 -1 -1</clus>
<clus scale="   88.099">  1  5  2 -1</clus>
<clus scale="   33.985">  2  5  1 -1</clus>
</clustering>
</event>
<event>
 9    2  0.1665830E-004  0.1428433E+03  0.7546771E-02  0.1212174E+00
         21   -1    0    0  501  502  0.00000000000E+00  0.00000000000E+00  0.15786431040E+03  0.15786431040E+03  0.00000000000E+00 0. -1.
          2   -1    0    0  502    0 -0.00000000000E+00 -0.00000000000E+00 -0.60040852438E+03  0.60040852438E+03  0.00000000000E+00 0. -1.
         23    2    1    2    0    0  0.11528275768E+03 -0.23494376136E+02 -0.51095107941E+03  0.53234176703E+03  0.92057870111E+02 0.  0.
         24    2    1    2    0    0 -0.58591665675E+02  0.58429631095E+02 -0.18737821690E+02  0.11625632843E+03  0.79482217272E+02 0.  0.
        -13    1    4    4    0    0 -0.35271781077E+02 -0.13809798588E+02  0.74368161972E+00  0.37886173464E+02  0.00000000000E+00 0.  1.
         14    1    4    4    0    0 -0.23319884598E+02  0.72239429683E+02 -0.19481503310E+02  0.78370154968E+02  0.00000000000E+00 0. -1.
        -13    1    3    3    0    0  0.48451324133E+02 -0.49356767495E+02 -0.16264004799E+03  0.17673541388E+03  0.00000000000E+00 0.  1.
         13    1    3    3    0    0  0.66831433549E+02  0.25862391359E+02 -0.34831103141E+03  0.35560635315E+03  0.00000000000E+00 0. -1.
          1    1    1    2  501    0 -0.56691092006E+02 -0.34935254959E+02  0.87144687117E+02  0.10967473932E+03  0.00000000000E+00 0. -1.
<scales pt_clust_5="13000.00000" pt_clust_6="13000.00000" pt_clust_7="13000.00000" pt_clust_8="13000.00000" pt_clust_9="66.59093"></scales>
<clustering>
<clus scale="   66.591">  1  9  2 -1</clus>
<clus scale="   79.482">  5  6 -1 -1</clus>
<clus scale="   92.058">  7  8 -1 -1</clus>
<clus scale="  135.081">  1  5  2 -1</clus>
<clus scale="   66.591">  1  5  2 -1</clus>
</clustering>
</event>
<event>
 9    2  0.1665830E-004  0.1096516E+03  0.7546771E-02  0.1261621E+00
          4   -1    0    0  502    0 -0.00000000000E+00  0.00000000000E+00  0.95828320250E+02  0.95828320250E+02  0.00000000000E+00 0. -1.
         21   -1    0    0  501  502  0.00000000000E+00 -0.00000000000E+00 -0.22107939247E+03  0.22107939247E+03  0.00000000000E+00 0. -1.
         23    2    1    2    0    0 -0.45968259292E+02 -0.67288319934E+02 -0.12482145086E+02  0.12346296356E+03  0.91904845154E+02 0.  0.
         24    2    1    2    0    0  0.25174053878E+02  0.11107085432E+02 -0.75920326168E+02  0.12311303880E+03  0.92929134625E+02 0.  0.
        -13    1    4    4    0    0  0.40973939020E+02 -0.20473733033E+02 -0.74888043967E+02  0.87785286651E+02  0.00000000000E+00 0.  1.
         14    1    4    4    0    0 -0.15799885142E+02  0.31580818466E+02 -0.10322822005E+01  0.35327752151E+02  0.00000000000E+00 0. -1.
        -11    1    3    3    0    0 -0.45115605994E+02  0.39984928185E+01 -0.23981529645E+02  0.51249581590E+02  0.00000000000E+00 0. -1.
         11    1    3    3    0    0 -0.85265329785E+00 -0.71286812753E+02  0.11499384559E+02  0.72213381968E+02  0.00000000000E+00 0.  1.
          3    1    1    2  501    0  0.20794205414E+02  0.56181234502E+02 -0.36848600966E+02  0.70331710359E+02  0.00000000000E+00 0. -1.
<scales pt_clust_5="13000.00000" pt_clust_6="13000.00000" pt_clust_7="13000.00000" pt_clust_8="13000.00000" pt_clust_9="59.90601"></scales>
<clustering>
<clus scale="   59.906">  2  9  1 -1</clus>
<clus scale="   91.905">  7  8 -1 -1</clus>
<clus scale="   92.929">  5  6 -1 -1</clus>
<clus scale="  108.785">  1  7  2 -1</clus>
<clus scale="   59.906">  2  5  1 -1</clus>
</clustering>
</event>
<event>
 9    2  0.1665830E-004  0.1265203E+03  0.7546771E-02  0.1249526E+00
         21   -1    0    0  501  502  0.00000000000E+00  0.00000000000E+00  0.11265724135E+03  0.11265724135E+03  0.00000000000E+00 0.  1.
         -3   -1    0    0    0  501 -0.00000000000E+00 -0.00000000000E+00 -0.25365323668E+03  0.25365323668E+03  0.00000000000E+00 0.  1.
         24    2    1    2    0    0 -0.10391251211E+02 -0.33290224667E+02 -0.85548655839E+02  0.12415438141E+03  0.82942876415E+02 0.  0.
         23    2    1    2    0    0  0.41926736167E+02 -0.57380212180E+02 -0.84176841656E+02  0.14195131018E+03  0.89521471368E+02 0.  0.
        -11    1    3    3    0    0  0.22894690903E+02  0.14158567409E+02 -0.48186949041E+02  0.55196140812E+02  0.00000000000E+00 0.  1.
         12    1    3    3    0    0 -0.33285942114E+02 -0.47448792076E+02 -0.37361706798E+02  0.68958240601E+02  0.00000000000E+00 0. -1.
        -11    1    4    4    0    0  0.19662947344E+02 -0.15903080046E+02 -0.90942216136E+02  0.94392934741E+02  0.00000000000E+00 0. -1.
         11    1    4    4    0    0  0.22263788823E+02 -0.41477132134E+02  0.67653744802E+01  0.47558375442E+02  0.00000000000E+00 0.  1.
         -4    1    1    2    0  502 -0.31535484957E+02  0.90670436847E+02  0.28729502160E+02  0.10020478643E+03  0.00000000000E+00 0.  1.
<scales pt_clust_5="13000.00000" pt_clust_6="13000.00000" pt_clust_7="13000.00000" pt_clust_8="13000.00000" pt_clust_9="89.40524"></scales>
<clustering>
<clus scale="   82.943">  5  6 -1 -1</clus>
<clus scale="   89.521">  7  8 -1 -1</clus>
<clus scale="   89.976">  2  5  1 -1</clus>
<clus scale="   89.405">  1  9  2 -1</clus>
<clus scale="   89.405">  1  5  2 -1</clus>
</clustering>
</event>
<event>
 9    2  0.2312291E-004  0.1269784E+03  0.7546771E-02  0.1236054E+00
          4   -1    0    0  502    0 -0.00000000000E+00  0.00000000000E+00  0.53342572287E+03  0.53342572287E+03  0.00000000000E+00 0. -1.
         21   -1    0    0  501  502  0.00000000000E+00 -0.00000000000E+00 -0.12518664445E+03  0.12518664445E+03  0.00000000000E+00 0.  1.
         23    2    1    2    0    0  0.27628717548E+02  0.78309448388E+02  0.43747129413E+03  0.45577966643E+03  0.97253562431E+02 0.  0.
         24    2    1    2    0    0 -0.72662398391E+01 -0.65471708210E+02 -0.88772473908E+02  0.13861058306E+03  0.83624151987E+02 0.  0.
        -11    1    4    4    0    0 -0.20836760214E+02 -0.82217847221E+02 -0.72930223145E+02  0.11186045962E+03  0.00000000000E+00 0.  1.
         12    1    4    4    0    0  0.13570520374E+02  0.16746139011E+02 -0.15842250763E+02  0.26750123444E+02  0.00000000000E+00 0. -1.
        -11    1    3    3    0    0  0.16930712816E+02 -0.14218620318E+02  0.27121676579E+02  0.34991478115E+02  0.00000000000E+00 0.  1.
         11    1    3    3    0    0  0.10698004732E+02  0.92528068706E+02  0.41034961755E+03  0.42078818832E+03  0.00000000000E+00 0. -1.
          3    1    1    2  501    0 -0.20362477709E+02 -0.12837740179E+02  0.59540258197E+02  0.64222117822E+02  0.00000000000E+00 0. -1.
<scales pt_clust_5="13000.00000" pt_clust_6="13000.00000" pt_clust_7="13000.00000" pt_clust_8="13000.00000" pt_clust_9="24.07153"></scales>
<clustering>
<clus scale="   24.072">  2  9  1 -1</clus>
<clus scale="   83.624">  5  6 -1 -1</clus>
<clus scale="   97.254">  7  8 -1 -1</clus>
<clus scale="  116.869">  2  5  1 -1</clus>
<clus scale="   24.072">  2  5  1 -1</clus>
</clustering>
</event>
<event>
 9    2  0.1665830E-004  0.1429560E+03  0.7546771E-02  0.1222718E+00
         21   -1    0    0  501  502  0.00000000000E+00  0.00000000000E+00  0.16215013815E+03  0.16215013815E+03  0.00000000000E+00 0.  1.
          2   -1    0    0  502    0 -0.00000000000E+00 -0.00000000000E+00 -0.31808488272E+03  0.31808488272E+03  0.00000000000E+00 0. -1.
         24    2    1    2    0    0 -0.58153417863E+01 -0.66091908234E+02  0.71698102278E+02  0.12954486353E+03  0.85084048222E+02 0.  0.
         23    2    1    2    0    0 -0.10636564956E+03  0.11502674092E+02 -0.15070834779E+03  0.20412297868E+03  0.86644223200E+02 0.  0.
        -13    1    3    3    0    0  0.15361947945E+02 -0.28383723158E+02  0.79316186113E+02  0.85631084102E+02  0.00000000000E+00 0.  1.
         14    1    3    3    0    0 -0.21177289732E+02 -0.37708185075E+02 -0.76180838351E+01  0.43913779425E+02  0.00000000000E+00 0. -1.
        -13    1    4    4    0    0 -0.68875450353E+02  0.35016276331E+01 -0.15076381006E+03  0.16578846607E+03  0.00000000000E+00 0.  1.
         13    1    4    4    0    0 -0.37490199209E+02  0.80010464589E+01  0.55462269963E-01  0.38334512612E+02  0.00000000000E+00 0. -1.
          1    1    1    2  501    0  0.11218099135E+03  0.54589234142E+02 -0.76924499064E+02  0.14656717866E+03  0.00000000000E+00 0. -1.
<scales pt_clust_5="13000.00000" pt_clust_6="13000.00000" pt_clust_7="13000.00000" pt_clust_8="13000.00000" pt_clust_9="113.70667"></scales>
<clustering>
<clus scale="   85.084">  5  6 -1 -1</clus>
<clus scale="   86.644">  7  8 -1 -1</clus>
<clus scale="  107.895">  2  5  1 -1</clus>
<clus scale="  113.707">  1  9  2 -1</clus>
<clus scale="  113.707">  1  5  2 -1</clus>
</clustering>
</event>
<event>
 9    2  0.1665830E-004  0.9866324E+02  0.7546771E-02  0.1286644E+00
         21   -1    0    0  501  502  0.00000000000E+00  0.00000000000E+00  0.75426877112E+02  0.75426877112E+02  0.00000000000E+00 0.  1.
         -1   -1    0    0    0  501 -0.00000000000E+00 -0.00000000000E+00 -0.25790083642E+03  0.25790083642E+03  0.00000000000E+00 0.  1.
         24    2    1    2    0    0 -0.83751269436E+01  0.41058488796E+02 -0.49906211353E+02  0.10305611581E+03  0.79837277139E+02 0.  0.
         23    2    1    2    0    0 -0.59275581150E+02 -0.42807200733E+02 -0.51940338621E+02  0.12500785546E+03  0.87081078283E+02 0.  0.
        -13    1    3    3    0    0 -0.22298228199E+02 -0.59006436871E+01 -0.48898959231E+02  0.54066041011E+02  0.00000000000E+00 0.  1.
         14    1    3    3    0    0  0.13923101255E+02  0.46959132483E+02 -0.10072521224E+01  0.48990074801E+02  0.00000000000E+00 0. -1.
        -13    1    4    4    0    0 -0.48763840424E+02  0.33629936586E+00  0.90166582989E+01  0.49591585547E+02  0.00000000000E+00 0.  1.
         13    1    4    4    0    0 -0.10511740725E+02 -0.43143500099E+02 -0.60956996919E+02  0.75416269911E+02  0.00000000000E+00 0. -1.
         -2    1    1    2    0  502  0.67650708093E+02  0.17487119365E+01 -0.80627409330E+02  0.10526374226E+03  0.00000000000E+00 0.  1.
<scales pt_clust_5="13000.00000" pt_clust_6="13000.00000" pt_clust_7="13000.00000" pt_clust_8="13000.00000" pt_clust_9="67.67334"></scales>
<clustering>
<clus scale="   67.673">  1  9  2 -1</clus>
<clus scale="   79.837">  5  6 -1 -1</clus>
<clus scale="   87.081">  7  8 -1 -1</clus>
<clus scale="   92.333">  2  5  1 -1</clus>
<clus scale="   67.673">  1  5  2 -1</clus>
</clustering>
</event>
<event>
 9    2  0.1665830E-004  0.1421835E+03  0.7546771E-02  0.1214557E+00
         21   -1    0    0  501  502  0.00000000000E+00  0.00000000000E+00  0.14367893264E+04  0.14367893264E+04  0.00000000000E+00 0.  1.
         -3   -1    0    0    0  501 -0.00000000000E+00 -0.00000000000E+00 -0.18284392840E+02  0.18284392840E+02  0.00000000000E+00 0.  1.
         23    2    1    2    0    0  0.84988546134E+02 -0.50953935444E+02  0.47708207129E+03  0.49722068710E+03  0.99003800054E+02 0.  0.
         24    2    1    2    0    0 -0.80702089008E+02  0.73100199229E+02  0.90428825161E+03  0.91440409633E+03  0.80877333578E+02 0.  0.
        -11    1    4    4    0    0  0.13625890803E+02  0.27480343147E+02  0.18548804370E+03  0.18800704379E+03  0.00000000000E+00 0.  1.
         12    1    4    4    0    0 -0.94327979811E+02  0.45619856083E+02  0.71880020790E+03  0.72639705253E+03  0.00000000000E+00 0. -1.
        -11    1    3    3    0    0  0.29779037432E+02  0.27294838977E+02  0.93273687789E+02  0.10164536457E+03  0.00000000000E+00 0. -1.
         11    1    3    3    0    0  0.55209508702E+02 -0.78248774421E+02  0.38380838350E+03  0.39557532253E+03  0.00000000000E+00 0.  1.
         -4    1    1    2    0  502 -0.42864571269E+01 -0.22146263785E+02  0.37134610688E+02  0.43448935836E+02  0.00000000000E+00 0.  1.
<scales pt_clust_5="13000.00000" pt_clust_6="13000.00000" pt_clust_7="13000.00000" pt_clust_8="13000.00000" pt_clust_9="22.55729"></scales>
<clustering>
<clus scale="   22.557">  1  9  2 -1</clus>
<clus scale="   80.877">  5  6 -1 -1</clus>
<clus scale="   99.004">  7  8 -1 -1</clus>
<clus scale="  130.213">  1  5  2 -1</clus>
<clus scale="   22.557">  1  5  2 -1</clus>
</clustering>
</event>
<event>
 9    2  0.1665830E-004  0.9364741E+02  0.7546771E-02  0.1301927E+00
         21   -1    0    0  501  502  0.00000000000E+00  0.00000000000E+00  0.61736137815E+03  0.61736137815E+03  0.00000000000E+00 0. -1.
          4   -1    0    0  502    0 -0.00000000000E+00 -0.00000000000E+00 -0.71056413782E+02  0.71056413782E+02  0.00000000000E+00 0. -1.
         23    2    1    2    0    0  0.10822589858E+02 -0.15016540224E+02 -0.31867279040E+02  0.98947748220E+02  0.91828690903E+02 0.  0.
         24    2    1    2    0    0  0.12950476589E+02  0.27836569918E+02  0.48834255983E+03  0.49566767753E+03  0.79154288185E+02 0.  0.
        -11    1    4    4    0    0  0.12168899243E+02 -0.18687843977E+02  0.48624095077E+02  0.53494114100E+02  0.00000000000E+00 0.  1.
         12    1    4    4    0    0  0.78157734599E+00  0.46524413896E+02  0.43971846475E+03  0.44217356343E+03  0.00000000000E+00 0. -1.
        -13    1    3    3    0    0 -0.26556137364E+02 -0.40437150643E+02 -0.18691769601E+02  0.51863029555E+02  0.00000000000E+00 0.  1.
         13    1    3    3    0    0  0.37378727222E+02  0.25420610419E+02 -0.13175509439E+02  0.47084718665E+02  0.00000000000E+00 0. -1.
          3    1    1    2  501    0 -0.23773066447E+02 -0.12820029694E+02  0.89829683573E+02  0.93802366177E+02  0.00000000000E+00 0. -1.
<scales pt_clust_5="13000.00000" pt_clust_6="13000.00000" pt_clust_7="13000.00000" pt_clust_8="13000.00000" pt_clust_9="27.00948"></scales>
<clustering>
<clus scale="   27.009">  1  9  2 -1</clus>
<clus scale="   79.154">  5  6 -1 -1</clus>
<clus scale="   81.257">  1  5  2 -1</clus>
<clus scale="   91.829">  7  8 -1 -1</clus>
<clus scale="   27.009">  1  5  2 -1</clus>
</clustering>
</event>
<event>
 9    2  0.1665830E-004  0.3533750E+03  0.7546771E-02  0.1090184E+00
         21   -1    0    0  501  502  0.00000000000E+00  0.00000000000E+00  0.50596561475E+03  0.50596561475E+03  0.00000000000E+00 0. -1.
          2   -1    0    0  502    0 -0.00000000000E+00 -0.00000000000E+00 -0.46917413142E+03  0.46917413142E+03  0.00000000000E+00 0. -1.
         23    2    1    2    0    0  0.25536661498E+02  0.12881389724E+03  0.18815760597E+01  0.16099402974E+03  0.93114961643E+02 0.  0.
         24    2    1    2    0    0 -0.10093348030E+03  0.23727251511E+03 -0.23099204702E+03  0.35544342639E+03  0.80603285920E+02 0.  0.
        -11    1    4    4    0    0 -0.43569584705E+02  0.10351275429E+03 -0.49315752859E+02  0.12265904978E+03  0.00000000000E+00 0.  1.
         12    1    4    4    0    0 -0.57363895599E+02  0.13375976082E+03 -0.18167629416E+03  0.23278437661E+03  0.00000000000E+00 0. -1.
        -11    1    3    3    0    0  0.30868896727E+02  0.11793078212E+02 -0.24230683269E+02  0.40976718884E+02  0.00000000000E+00 0.  1.
         11    1    3    3    0    0 -0.53322352294E+01  0.11702081902E+03  0.26112259329E+02  0.12001731086E+03  0.00000000000E+00 0. -1.
          1    1    1    2  501    0  0.75396818806E+02 -0.36608641235E+03  0.26590195429E+03  0.45870229004E+03  0.00000000000E+00 0. -1.
<scales pt_clust_5="13000.00000" pt_clust_6="13000.00000" pt_clust_7="13000.00000" pt_clust_8="13000.00000" pt_clust_9="344.05962"></scales>
<clustering>
<clus scale="   80.603">  5  6 -1 -1</clus>
<clus scale="   93.115">  7  8 -1 -1</clus>
<clus scale="  160.983">  2  7  1 -1</clus>
<clus scale="  344.060">  1  9  2 -1</clus>
<clus scale="  344.060">  1  5  2 -1</clus>
</clustering>
</event>
<event>
 9    2  0.1665830E-004  0.1412908E+03  0.7546771E-02  0.1214099E+00
         -3   -1    0    0    0  501 -0.00000000000E+00  0.00000000000E+00  0.77506559278E+03  0.77506559278E+03  0.00000000000E+00 0.  1.
         21   -1    0    0  501  502  0.00000000000E+00 -0.00000000000E+00 -0.33194963443E+02  0.33194963443E+02  0.00000000000E+00 0. -1.
         23    2    1    2    0    0  0.66957067061E+01 -0.12609672308E+03  0.39670888684E+03  0.42643388259E+03  0.92318466523E+02 0.  0.
         24    2    1    2    0    0 -0.13801102402E+01  0.86899924810E+02  0.21207965710E+03  0.24299048954E+03  0.80703750941E+02 0.  0.
        -13    1    4    4    0    0 -0.34244145034E+02  0.11272207801E+02  0.68966568520E+02  0.77821023581E+02  0.00000000000E+00 0.  1.
         14    1    4    4    0    0  0.32864034794E+02  0.75627717009E+02  0.14311308858E+03  0.16516946596E+03  0.00000000000E+00 0. -1.
        -11    1    3    3    0    0 -0.34630974668E+02 -0.87098659881E+02  0.29962624526E+03  0.31394484836E+03  0.00000000000E+00 0. -1.
         11    1    3    3    0    0  0.41326681374E+02 -0.38998063196E+02  0.97082641582E+02  0.11248903423E+03  0.00000000000E+00 0.  1.
         -4    1    1    2    0  502 -0.53155964659E+01  0.39196798268E+02  0.13308208539E+03  0.13883618409E+03  0.00000000000E+00 0.  1.
<scales pt_clust_5="13000.00000" pt_clust_6="13000.00000" pt_clust_7="13000.00000" pt_clust_8="13000.00000" pt_clust_9="39.55561"></scales>
<clustering>
<clus scale="   39.556">  2  9  1 -1</clus>
<clus scale="   80.704">  5  6 -1 -1</clus>
<clus scale="   92.318">  7  8 -1 -1</clus>
<clus scale="  133.991">  2  5  1 -1</clus>
<clus scale="   39.556">  2  5  1 -1</clus>
</clustering>
</event>
<event>
 9    2  0.1665830E-004  0.1024133E+03  0.7546771E-02  0.1278817E+00
         21   -1    0    0  501  502  0.00000000000E+00  0.00000000000E+00  0.47546289767E+02  0.47546289767E+02  0.00000000000E+00 0.  1.
          2   -1    0    0  502    0 -0.00000000000E+00 -0.00000000000E+00 -0.42244837233E+03  0.42244837233E+03  0.00000000000E+00 0. -1.
         24    2    1    2    0    0 -0.55504799282E+02  0.56531684753E+02 -0.22434626122E+03  0.25111399203E+03  0.80314244973E+02 0.  0.
         23    2    1    2    0    0 -0.22349990358E+00 -0.15570344704E+02 -0.79430537909E+02  0.11967240099E+03  0.88146398797E+02 0.  0.
        -11    1    3    3    0    0 -0.63997689855E+01  0.55106266454E+02 -0.16497979405E+03  0.17405743331E+03  0.00000000000E+00 0.  1.
         12    1    3    3    0    0 -0.49105030296E+02  0.14254182991E+01 -0.59366467175E+02  0.77056558725E+02  0.00000000000E+00 0. -1.
        -11    1    4    4    0    0 -0.26141052312E+02 -0.36838386914E+02 -0.15990090248E+02  0.47917683088E+02  0.00000000000E+00 0.  1.
         11    1    4    4    0    0  0.25917552408E+02  0.21268042211E+02 -0.63440447662E+02  0.71754717907E+02  0.00000000000E+00 0. -1.
          1    1    1    2  501    0  0.55728299185E+02 -0.40961340049E+02 -0.71125283435E+02  0.99208269073E+02  0.00000000000E+00 0. -1.
<scales pt_clust_5="13000.00000" pt_clust_6="13000.00000" pt_clust_7="13000.00000" pt_clust_8="13000.00000" pt_clust_9="69.16267"></scales>
<clustering>
<clus scale="   69.163">  1  9  2 -1</clus>
<clus scale="   80.314">  5  6 -1 -1</clus>
<clus scale="   88.146">  7  8 -1 -1</clus>
<clus scale="   95.755">  2  5  1 -1</clus>
<clus scale="   69.163">  1  5  2 -1</clus>
</clustering>
</event>
<event>
 9    2  0.1665830E-004  0.3135042E+03  0.7546771E-02  0.1129412E+00
         21   -1    0    0  501  502  0.00000000000E+00  0.00000000000E+00  0.95188988921E+03  0.95188988921E+03  0.00000000000E+00 0.  1.
         -1   -1    0    0    0  501 -0.00000000000E+00 -0.00000000000E+00 -0.20045435345E+03  0.20045435345E+03  0.00000000000E+00 0.  1.
         24    2    1    2    0    0 -0.21950838088E+01  0.27329262536E+02 -0.81474439300E+02  0.11761352413E+03  0.80269233303E+02 0.  0.
         23    2    1    2    0    0  0.14834919928E+03  0.24732023660E+03  0.39742227618E+03  0.49952710427E+03  0.91695572051E+02 0.  0.
        -13    1    3    3    0    0  0.22962723447E+02  0.40836479587E+02 -0.74846185093E+02  0.88299808359E+02  0.00000000000E+00 0.  1.
         14    1    3    3    0    0 -0.25157807256E+02 -0.13507217051E+02 -0.66282542062E+01  0.29313715769E+02  0.00000000000E+00 0. -1.
        -13    1    4    4    0    0  0.12460877554E+03  0.23368862636E+03  0.38953773647E+03  0.47103860688E+03  0.00000000000E+00 0.  1.
         13    1    4    4    0    0  0.23740423741E+02  0.13631610241E+02  0.78845397068E+01  0.28488497391E+02  0.00000000000E+00 0. -1.
         -2    1    1    2    0  502 -0.14615411547E+03 -0.27464949914E+03  0.43548769888E+03  0.53520361427E+03  0.00000000000E+00 0.  1.
<scales pt_clust_5="13000.00000" pt_clust_6="13000.00000" pt_clust_7="13000.00000" pt_clust_8="13000.00000" pt_clust_9="299.79471"></scales>
<clustering>
<clus scale="   80.269">  5  6 -1 -1</clus>
<clus scale="   84.823">  2  5  1 -1</clus>
<clus scale="   91.696">  7  8 -1 -1</clus>
<clus scale="  299.795">  1  9  2 -1</clus>
<clus scale="  299.795">  1  5  2 -1</clus>
</clustering>
</event>
<event>
 9    2  0.1665830E-004  0.9867546E+02  0.7546771E-02  0.1290800E+00
          2   -1    0    0  502    0 -0.00000000000E+00  0.00000000000E+00  0.15212658704E+03  0.15212658704E+03  0.00000000000E+00 0. -1.
         21   -1    0    0  501  502  0.00000000000E+00 -0.00000000000E+00 -0.14618202467E+03  0.14618202467E+03  0.00000000000E+00 0.  1.
         24    2    1    2    0    0  0.20493171575E+02 -0.25243736458E+02  0.23978048129E+02  0.89839834216E+02  0.80243583596E+02 0.  0.
         23    2    1    2    0    0 -0.50027015538E+02 -0.47454911526E+02 -0.45475829379E+02  0.12533981995E+03  0.94272734642E+02 0.  0.
        -11    1    3    3    0    0  0.23589293821E+02  0.24703033440E+02  0.20134926874E+02  0.39649841416E+02  0.00000000000E+00 0.  1.
         12    1    3    3    0    0 -0.30961222458E+01 -0.49946769898E+02  0.38431212544E+01  0.50189992799E+02  0.00000000000E+00 0. -1.
        -11    1    4    4    0    0 -0.32384320946E+02 -0.76344650911E+02 -0.33316279271E+02  0.89371272959E+02  0.00000000000E+00 0.  1.
         11    1    4    4    0    0 -0.17642694593E+02  0.28889739384E+02 -0.12159550108E+02  0.35968546996E+02  0.00000000000E+00 0. -1.
          1    1    1    2  501    0  0.29533843963E+02  0.72698647984E+02  0.27442343622E+02  0.83128957539E+02  0.00000000000E+00 0. -1.
<scales pt_clust_5="13000.00000" pt_clust_6="13000.00000" pt_clust_7="13000.00000" pt_clust_8="13000.00000" pt_clust_9="78.46877"></scales>
<clustering>
<clus scale="   78.469">  2  9  1 -1</clus>
<clus scale="   80.244">  5  6 -1 -1</clus>
<clus scale="   85.373">  1  5  2 -1</clus>
<clus scale="   94.273">  7  8 -1 -1</clus>
<clus scale="   78.469">  2  5  1 -1</clus>
</clustering>
</event>
<event>
 9    2  0.1665830E-004  0.2021224E+03  0.7546771E-02  0.1160323E+00
          2   -1    0    0  502    0 -0.00000000000E+00  0.00000000000E+00  0.11367736508E+04  0.11367736508E+04  0.00000000000E+00 0. -1.
         21   -1    0    0  501  502  0.00000000000E+00 -0.00000000000E+00 -0.75486727957E+02  0.75486727957E+02  0.00000000000E+00 0. -1.
         23    2    1    2    0    0  0.11652619415E+03 -0.27362192027E+02  0.17839135347E+03  0.23379920346E+03  0.92258056952E+02 0.  0.
         24    2    1    2    0    0  0.50086059978E+02 -0.14692794211E+03  0.32019466821E+03  0.36627738078E+03  0.86822004967E+02 0.  0.
        -13    1    4    4    0    0  0.26035616485E+02 -0.35674220426E+02  0.27000814436E+02  0.51764343992E+02  0.00000000000E+00 0.  1.
         14    1    4    4    0    0  0.24050443494E+02 -0.11125372168E+03  0.29319385377E+03  0.31451303679E+03  0.00000000000E+00 0. -1.
        -11    1    3    3    0    0  0.10328071410E+03  0.66746934484E+01  0.86390683003E+02  0.13481397386E+03  0.00000000000E+00 0. -1.
         11    1    3    3    0    0  0.13245480054E+02 -0.34036885476E+02  0.92000670464E+02  0.98985229608E+02  0.00000000000E+00 0.  1.
          1    1    1    2  501    0 -0.16661225413E+03  0.17429013414E+03  0.56270090113E+03  0.61218379447E+03  0.00000000000E+00 0. -1.
<scales pt_clust_5="13000.00000" pt_clust_6="13000.00000" pt_clust_7="13000.00000" pt_clust_8="13000.00000" pt_clust_9="182.52515"></scales>
<clustering>
<clus scale="   86.822">  5  6 -1 -1</clus>
<clus scale="   92.258">  7  8 -1 -1</clus>
<clus scale="  151.125">  1  7  2 -1</clus>
<clus scale="  182.525">  2  9  1 -1</clus>
<clus scale="  182.525">  2  5  1 -1</clus>
</clustering>
</event>
<event>
 9    2  0.1665830E-004  0.2413756E+03  0.7546771E-02  0.1119564E+00
          2   -1    0    0  502    0 -0.00000000000E+00  0.00000000000E+00  0.13092042012E+04  0.13092042012E+04  0.00000000000E+00 0. -1.
         21   -1    0    0  501  502  0.00000000000E+00 -0.00000000000E+00 -0.10133875331E+03  0.10133875331E+03  0.00000000000E+00 0. -1.
         24    2    1    2    0    0  0.14824818257E+03 -0.17579700906E+03  0.39255258769E+03  0.46184872865E+03  0.79527366493E+02 0.  0.
         23    2    1    2    0    0  0.80484777234E+01  0.25253362139E+03  0.28989863566E+03  0.39518066593E+03  0.91041374343E+02 0.  0.
        -13    1    3    3    0    0 -0.30980498279E+01 -0.30095609205E+02  0.28698515705E+02  0.41700700352E+02  0.00000000000E+00 0.  1.
         14    1    3    3    0    0  0.15134623239E+03 -0.14570139985E+03  0.36385407199E+03  0.42014802830E+03  0.00000000000E+00 0. -1.
        -11    1    4    4    0    0  0.24018430698E+02  0.14896541160E+02  0.17069785641E+02  0.33017715450E+02  0.00000000000E+00 0.  1.
         11    1    4    4    0    0 -0.15969952975E+02  0.23763708023E+03  0.27282885002E+03  0.36216295048E+03  0.00000000000E+00 0. -1.
          1    1    1    2  501    0 -0.15629666029E+03 -0.76736612335E+02  0.52541422450E+03  0.55351355990E+03  0.00000000000E+00 0. -1.
<scales pt_clust_5="13000.00000" pt_clust_6="13000.00000" pt_clust_7="13000.00000" pt_clust_8="13000.00000" pt_clust_9="174.11830"></scales>
<clustering>
<clus scale="   79.527">  5  6 -1 -1</clus>
<clus scale="   91.041">  7  8 -1 -1</clus>
<clus scale="  174.118">  2  9  1 -1</clus>
<clus scale="  237.273">  1  5  2 -1</clus>
<clus scale="  174.118">  2  5  1 -1</clus>
</clustering>
</event>
<event>
 9    2  0.1665830E-004  0.9838631E+02  0.7546771E-02  0.1290463E+00
         21   -1    0    0  501  502  0.00000000000E+00  0.00000000000E+00  0.56398449815E+03  0.56398449815E+03  0.00000000000E+00 0.  1.
         -1   -1    0    0    0  501 -0.00000000000E+00 -0.00000000000E+00 -0.16916237704E+03  0.16916237704E+03  0.00000000000E+00 0.  1.
         24    2    1    2    0    0 -0.28234407131E+02  0.22698763067E+02 -0.13906573091E+03  0.16475493754E+03  0.80576028327E+02 0.  0.
         23    2    1    2    0    0 -0.35332250062E+02  0.33460842505E+02  0.22910397532E+03  0.25202532641E+03  0.93059861214E+02 0.  0.
        -13    1    3    3    0    0 -0.51646534823E+02  0.18569695872E+02 -0.56228396930E+02  0.78573728341E+02  0.00000000000E+00 0.  1.
         14    1    3    3    0    0  0.23412127692E+02  0.41290671949E+01 -0.82837333979E+02  0.86181209203E+02  0.00000000000E+00 0. -1.
        -13    1    4    4    0    0  0.84794719066E+01  0.45469350033E+02  0.53887368436E+02  0.71015573737E+02  0.00000000000E+00 0.  1.
         13    1    4    4    0    0 -0.43811721969E+02 -0.12008507528E+02  0.17521660688E+03  0.18100975267E+03  0.00000000000E+00 0. -1.
         -2    1    1    2    0  502  0.63566657193E+02 -0.56159605572E+02  0.30478387670E+03  0.31636661123E+03  0.00000000000E+00 0.  1.
<scales pt_clust_5="13000.00000" pt_clust_6="13000.00000" pt_clust_7="13000.00000" pt_clust_8="13000.00000" pt_clust_9="84.82111"></scales>
<clustering>
<clus scale="   80.576">  5  6 -1 -1</clus>
<clus scale="   84.821">  1  9  2 -1</clus>
<clus scale="   86.673">  2  5  1 -1</clus>
<clus scale="   93.060">  7  8 -1 -1</clus>
<clus scale="   84.821">  1  5  2 -1</clus>
</clustering>
</event>
<event>
 9    2  0.1665830E-004  0.1105647E+03  0.7546771E-02  0.1263154E+00
         -1   -1    0    0    0  501 -0.00000000000E+00  0.00000000000E+00  0.19629126732E+02  0.19629126732E+02  0.00000000000E+00 0.  1.
         21   -1    0    0  501  502  0.00000000000E+00 -0.00000000000E+00 -0.86851448202E+03  0.86851448202E+03  0.00000000000E+00 0.  1.
         23    2    1    2    0    0  0.61577876274E+02 -0.33412363878E+02 -0.23214433527E+03  0.25885063440E+03  0.90578350759E+02 0.  0.
         24    2    1    2    0    0 -0.36317994112E+02  0.39217003557E+02 -0.43544722965E+03  0.44615588386E+03  0.81140697712E+02 0.  0.
        -13    1    4    4    0    0 -0.38594024106E+02  0.62668373604E+02 -0.33136078343E+03  0.33943599182E+03  0.00000000000E+00 0.  1.
         14    1    4    4    0    0  0.22760299942E+01 -0.23451370047E+02 -0.10408644622E+03  0.10671989203E+03  0.00000000000E+00 0. -1.
        -11    1    3    3    0    0  0.83550591257E+02 -0.13743742011E+02 -0.18066264333E+03  0.19952088221E+03  0.00000000000E+00 0.  1.
         11    1    3    3    0    0 -0.21972714983E+02 -0.19668621868E+02 -0.51481691941E+02  0.59329752190E+02  0.00000000000E+00 0. -1.
         -2    1    1    2    0  502 -0.25259882163E+02 -0.58046396783E+01 -0.18129379037E+03  0.18313709050E+03  0.00000000000E+00 0.  1.
<scales pt_clust_5="13000.00000" pt_clust_6="13000.00000" pt_clust_7="13000.00000" pt_clust_8="13000.00000" pt_clust_9="25.91825"></scales>
<clustering>
<clus scale="   25.918">  2  9  1 -1</clus>
<clus scale="   81.141">  5  6 -1 -1</clus>
<clus scale="   90.578">  7  8 -1 -1</clus>
<clus scale="  102.975">  2  5  1 -1</clus>
<clus scale="   25.918">  2  5  1 -1</clus>
</clustering>
</event>
<event>
 9    2  0.1665830E-004  0.1160035E+03  0.7546771E-02  0.1252567E+00
          2   -1    0    0  502    0 -0.00000000000E+00  0.00000000000E+00  0.91664425480E+03  0.91664425480E+03  0.00000000000E+00 0. -1.
         21   -1    0    0  501  502  0.00000000000E+00 -0.00000000000E+00 -0.44879118661E+02  0.44879118661E+02  0.00000000000E+00 0. -1.
         24    2    1    2    0    0  0.25643204020E+02 -0.76282034479E+02  0.40730239307E+03  0.42371127181E+03  0.84613709078E+02 0.  0.
         23    2    1    2    0    0 -0.93758680573E+02 -0.97694315438E+01  0.12796028100E+03  0.18386510006E+03  0.92446792982E+02 0.  0.
        -13    1    3    3    0    0  0.46328211903E+02 -0.73882055744E+02  0.24457814014E+03  0.25966002391E+03  0.00000000000E+00 0.  1.
         14    1    3    3    0    0 -0.20685007883E+02 -0.23999787354E+01  0.16272425293E+03  0.16405124791E+03  0.00000000000E+00 0. -1.
        -11    1    4    4    0    0 -0.42491705776E+02 -0.40397024145E+02  0.22752767655E+02  0.62890007597E+02  0.00000000000E+00 0. -1.
         11    1    4    4    0    0 -0.51266974797E+02  0.30627592602E+02  0.10520751334E+03  0.12097509247E+03  0.00000000000E+00 0.  1.
          1    1    1    2  501    0  0.68115476553E+02  0.86051466023E+02  0.33650246207E+03  0.35394700158E+03  0.00000000000E+00 0. -1.
<scales pt_clust_5="13000.00000" pt_clust_6="13000.00000" pt_clust_7="13000.00000" pt_clust_8="13000.00000" pt_clust_9="109.74782"></scales>
<clustering>
<clus scale="   84.614">  5  6 -1 -1</clus>
<clus scale="   92.447">  7  8 -1 -1</clus>
<clus scale="  109.748">  2  9  1 -1</clus>
<clus scale="  109.863">  1  5  2 -1</clus>
<clus scale="  109.748">  2  5  1 -1</clus>
</clustering>
</event>
<event>
 9    2  0.1665830E-004  0.1023932E+03  0.7546771E-02  0.1283176E+00
         -1   -1    0    0    0  501 -0.00000000000E+00  0.00000000000E+00  0.58007317314E+02  0.58007317314E+02  0.00000000000E+00 0.  1.
         21   -1    0    0  501  502  0.00000000000E+00 -0.00000000000E+00 -0.47158217127E+03  0.47158217127E+03  0.00000000000E+00 0.  1.
         23    2    1    2    0    0 -0.87482054010E+01 -0.32592836235E+02 -0.86567400572E+02  0.13017350192E+03  0.91172373490E+02 0.  0.
         24    2    1    2    0    0  0.57459472277E+02  0.69088563933E+02 -0.31679515890E+03  0.33769875553E+03  0.74876272364E+02 0.  0.
        -11    1    4    4    0    0  0.71588339505E+02  0.68513221010E+02 -0.24066343814E+03  0.26026494629E+03  0.00000000000E+00 0.  1.
         12    1    4    4    0    0 -0.14128867228E+02  0.57534292293E+00 -0.76131720758E+02  0.77433809245E+02  0.00000000000E+00 0. -1.
        -13    1    3    3    0    0 -0.16414791894E+02 -0.61658911035E+02 -0.41903174387E+02  0.76335723791E+02  0.00000000000E+00 0.  1.
         13    1    3    3    0    0  0.76665864932E+01  0.29066074800E+02 -0.44664226185E+02  0.53837778126E+02  0.00000000000E+00 0. -1.
         -2    1    1    2    0  502 -0.48711266876E+02 -0.36495727698E+02 -0.10212294486E+02  0.61717231139E+02  0.00000000000E+00 0.  1.
<scales pt_clust_5="13000.00000" pt_clust_6="13000.00000" pt_clust_7="13000.00000" pt_clust_8="13000.00000" pt_clust_9="60.86649"></scales>
<clustering>
<clus scale="   60.866">  2  9  1 -1</clus>
<clus scale="   74.876">  5  6 -1 -1</clus>
<clus scale="   88.195">  2  5  1 -1</clus>
<clus scale="   91.172">  7  8 -1 -1</clus>
<clus scale="   60.866">  2  5  1 -1</clus>
</clustering>
</event>
<event>
 9    2  0.1665830E-004  0.2515929E+03  0.7546771E-02  0.1112302E+00
          2   -1    0    0  502    0 -0.00000000000E+00  0.00000000000E+00  0.54483963915E+03  0.54483963915E+03  0.00000000000E+00 0. -1.
         21   -1    0    0  501  502  0.00000000000E+00 -0.00000000000E+00 -0.11012511149E+03  0.11012511149E+03  0.00000000000E+00 0. -1.
         24    2    1    2    0    0 -0.43798696818E+02 -0.11482068837E+03  0.24498137064E+03  0.28513081465E+03  0.78623108437E+02 0.  0.
         23    2    1    2    0    0 -0.82885983884E+01 -0.43379359223E+02  0.17261874209E+03  0.20240262298E+03  0.96016259032E+02 0.  0.
        -13    1    3    3    0    0 -0.46549794369E+02 -0.49073952803E+02  0.66287228797E+02  0.94705506182E+02  0.00000000000E+00 0.  1.
         14    1    3    3    0    0  0.27510975506E+01 -0.65746735563E+02  0.17869414184E+03  0.19042530846E+03  0.00000000000E+00 0. -1.
        -11    1    4    4    0    0 -0.32856104848E+02 -0.15828579046E+02  0.13230621883E+02  0.38795836063E+02  0.00000000000E+00 0. -1.
         11    1    4    4    0    0  0.24567506460E+02 -0.27550780177E+02  0.15938812021E+03  0.16360678691E+03  0.00000000000E+00 0.  1.
          1    1    1    2  501    0  0.52087295206E+02  0.15820004759E+03  0.17114414935E+02  0.16743131301E+03  0.00000000000E+00 0. -1.
<scales pt_clust_5="13000.00000" pt_clust_6="13000.00000" pt_clust_7="13000.00000" pt_clust_8="13000.00000" pt_clust_9="166.55432"></scales>
<clustering>
<clus scale="   78.623">  5  6 -1 -1</clus>
<clus scale="   96.016">  7  8 -1 -1</clus>
<clus scale="   98.082">  5  7 -1 -1</clus>
<clus scale="  166.554">  2  9  1 -1</clus>
<clus scale="  166.554">  2  5  1 -1</clus>
</clustering>
</event>
<event>
 9    2  0.1665830E-004  0.1632134E+03  0.7546771E-02  0.1186782E+00
         21   -1    0    0  501  502  0.00000000000E+00  0.00000000000E+00  0.22200856593E+03  0.22200856593E+03  0.00000000000E+00 0.  1.
         -3   -1    0    0    0  501 -0.00000000000E+00 -0.00000000000E+00 -0.27485836340E+03  0.27485836340E+03  0.00000000000E+00 0.  1.
         24    2    1    2    0    0  0.11293124884E+03 -0.53660382828E+02 -0.75266980168E+02  0.16617487669E+03  0.79473691809E+02 0.  0.
         23    2    1    2    0    0 -0.13565061185E+03  0.57314093734E+02 -0.10426740938E+03  0.20193450946E+03  0.90663441442E+02 0.  0.
        -11    1    3    3    0    0  0.68190613389E+02 -0.58436353248E+02 -0.80847949697E+02  0.12083525192E+03  0.00000000000E+00 0.  1.
         12    1    3    3    0    0  0.44740635447E+02  0.47759704197E+01  0.55809695284E+01  0.45339624773E+02  0.00000000000E+00 0. -1.
        -11    1    4    4    0    0 -0.98517991661E+02  0.55518816966E+02 -0.11692378693E+03  0.16266316629E+03  0.00000000000E+00 0.  1.
         11    1    4    4    0    0 -0.37132620194E+02  0.17952767686E+01  0.12656377553E+02  0.39271343164E+02  0.00000000000E+00 0. -1.
         -4    1    1    2    0  502  0.22719363018E+02 -0.36537109061E+01  0.12668459207E+03  0.12875754319E+03  0.00000000000E+00 0.  1.
<scales pt_clust_5="13000.00000" pt_clust_6="13000.00000" pt_clust_7="13000.00000" pt_clust_8="13000.00000" pt_clust_9="23.01128"></scales>
<clustering>
<clus scale="   23.011">  1  9  2 -1</clus>
<clus scale="   79.474">  5  6 -1 -1</clus>
<clus scale="   90.663">  7  8 -1 -1</clus>
<clus scale="  157.273">  2  5  1 -1</clus>
<clus scale="   23.011">  1  5  2 -1</clus>
</clustering>
</event>
<event>
 9    2  0.1815149E-004  0.1013774E+03  0.7546771E-02  0.1284616E+00
         21   -1    0    0  501  502  0.00000000000E+00  0.00000000000E+00  0.37859173206E+03  0.37859173206E+03  0.00000000000E+00 0.  1.
          4   -1    0    0  502    0 -0.00000000000E+00 -0.00000000000E+00 -0.16013642657E+03  0.16013642657E+03  0.00000000000E+00 0. -1.
         23    2    1    2    0    0 -0.18888140360E+02 -0.27260732387E+02 -0.75764331641E+02  0.12543549211E+03  0.94307578464E+02 0.  0.
         24    2    1    2    0    0  0.96378140016E+02  0.37848368841E+02  0.30724795871E+03  0.33400499248E+03  0.80229557969E+02 0.  0.
        -11    1    4    4    0    0  0.10443017810E+03  0.29799481161E+02  0.30296537493E+03  0.32184109368E+03  0.00000000000E+00 0.  1.
         12    1    4    4    0    0 -0.80520380822E+01  0.80488876796E+01  0.42825837825E+01  0.12163898800E+02  0.00000000000E+00 0. -1.
        -13    1    3    3    0    0  0.37976268366E+02 -0.35879484325E+01 -0.33137287131E+02  0.50528706013E+02  0.00000000000E+00 0.  1.
         13    1    3    3    0    0 -0.56864408726E+02 -0.23672783954E+02 -0.42627044510E+02  0.74906786099E+02  0.00000000000E+00 0. -1.
          3    1    1    2  501    0 -0.77489999656E+02 -0.10587636454E+02 -0.13028321577E+02  0.79287674045E+02  0.00000000000E+00 0. -1.
<scales pt_clust_5="13000.00000" pt_clust_6="13000.00000" pt_clust_7="13000.00000" pt_clust_8="13000.00000" pt_clust_9="78.21000"></scales>
<clustering>
<clus scale="   78.210">  1  9  2 -1</clus>
<clus scale="   80.230">  5  6 -1 -1</clus>
<clus scale="   88.432">  1  5  2 -1</clus>
<clus scale="   94.308">  7  8 -1 -1</clus>
<clus scale="   78.210">  1  5  2 -1</clus>
</clustering>
</event>
<event>
 9    2  0.1665830E-004  0.9234783E+02  0.7546771E-02  0.1304286E+00
         21   -1    0    0  501  502  0.00000000000E+00  0.00000000000E+00  0.41468911361E+02  0.41468911361E+02  0.00000000000E+00 0. -1.
          2   -1    0    0  502    0 -0.00000000000E+00 -0.00000000000E+00 -0.53760485111E+03  0.53760485111E+03  0.00000000000E+00 0. -1.
         23    2    1    2    0    0 -0.44155038417E+01 -0.24487855583E+02 -0.10858759490E+03  0.14365801827E+03  0.90703961882E+02 0.  0.
         24    2    1    2    0    0  0.27785244898E+02 -0.10211310251E+02 -0.56527057149E+02  0.10176132745E+03  0.79270226973E+02 0.  0.
        -13    1    4    4    0    0  0.38767896139E+01 -0.23078844271E+02 -0.68277351021E+02  0.72176583550E+02  0.00000000000E+00 0.  1.
         14    1    4    4    0    0  0.23908455284E+02  0.12867534019E+02  0.11750293872E+02  0.29584743904E+02  0.00000000000E+00 0. -1.
        -13    1    3    3    0    0  0.29168369554E+02 -0.43757373551E+02 -0.45019084142E+02  0.69225858315E+02  0.00000000000E+00 0. -1.
         13    1    3    3    0    0 -0.33583873396E+02  0.19269517968E+02 -0.63568510763E+02  0.74432159955E+02  0.00000000000E+00 0.  1.
          1    1    1    2  501    0 -0.23369741056E+02  0.34699165834E+02 -0.33102128770E+03  0.33365441675E+03  0.00000000000E+00 0. -1.
<scales pt_clust_5="13000.00000" pt_clust_6="13000.00000" pt_clust_7="13000.00000" pt_clust_8="13000.00000" pt_clust_9="41.83514"></scales>
<clustering>
<clus scale="   41.835">  1  9  2 -1</clus>
<clus scale="   79.270">  5  6 -1 -1</clus>
<clus scale="   81.146">  1  5  2 -1</clus>
<clus scale="   90.704">  7  8 -1 -1</clus>
<clus scale="   41.835">  1  5  2 -1</clus>
</clustering>
</event>
<event>
 9    2  0.1665830E-004  0.1157953E+03  0.7546771E-02  0.1253289E+00
          2   -1    0    0  502    0 -0.00000000000E+00  0.00000000000E+00  0.54896961153E+03  0.54896961153E+03  0.00000000000E+00 0. -1.
         21   -1    0    0  501  502  0.00000000000E+00 -0.00000000000E+00 -0.35044239124E+02  0.35044239124E+02  0.00000000000E+00 0.  1.
         24    2    1    2    0    0 -0.73309716283E+02 -0.91820687629E+01  0.23912378913E+03  0.26364672918E+03  0.82890206863E+02 0.  0.
         23    2    1    2    0    0  0.65763489712E+02 -0.27288107054E+02  0.14760704608E+03  0.18783233527E+03  0.91780546716E+02 0.  0.
        -11    1    3    3    0    0 -0.14326194547E+02  0.25360917994E+02  0.23431062287E+02  0.37382224273E+02  0.00000000000E+00 0.  1.
         12    1    3    3    0    0 -0.58983521737E+02 -0.34542986756E+02  0.21569272684E+03  0.22626450491E+03  0.00000000000E+00 0. -1.
        -11    1    4    4    0    0  0.52032277201E+02  0.78817248315E+01  0.22644824846E+02  0.57291077398E+02  0.00000000000E+00 0.  1.
         11    1    4    4    0    0  0.13731212510E+02 -0.35169831885E+02  0.12496222123E+03  0.13054125787E+03  0.00000000000E+00 0. -1.
          1    1    1    2  501    0  0.75462265717E+01  0.36470175817E+02  0.12719453720E+03  0.13253478620E+03  0.00000000000E+00 0. -1.
<scales pt_clust_5="13000.00000" pt_clust_6="13000.00000" pt_clust_7="13000.00000" pt_clust_8="13000.00000" pt_clust_9="37.24273"></scales>
<clustering>
<clus scale="   37.243">  2  9  1 -1</clus>
<clus scale="   82.890">  5  6 -1 -1</clus>
<clus scale="   91.781">  7  8 -1 -1</clus>
<clus scale="  108.884">  1  5  2 -1</clus>
<clus scale="   37.243">  2  5  1 -1</clus>
</clustering>
</event>
<event>
 9    2  0.1665830E-004  0.1102076E+03  0.7546771E-02  0.1275659E+00
         21   -1    0    0  501  502  0.00000000000E+00  0.00000000000E+00  0.80119599779E+02  0.80119599779E+02  0.00000000000E+00 0.  1.
          2   -1    0    0  502    0 -0.00000000000E+00 -0.00000000000E+00 -0.43820598008E+03  0.43820598008E+03  0.00000000000E+00 0. -1.
         23    2    1    2    0    0 -0.15399994923E+02  0.86056202947E+01 -0.38334295071E+03  0.39886278324E+03  0.10875884082E+03 0.  0.
         24    2    1    2    0    0 -0.75733948062E+00 -0.33269971844E+02  0.12091886098E+02  0.87171952624E+02  0.79657209499E+02 0.  0.
        -11    1    4    4    0    0 -0.25472681479E+02  0.12249621230E+02  0.20204679213E+02  0.34743917225E+02  0.00000000000E+00 0.  1.
         12    1    4    4    0    0  0.24715341998E+02 -0.45519593074E+02 -0.81127931153E+01  0.52428035399E+02  0.00000000000E+00 0. -1.
        -13    1    3    3    0    0 -0.48584765594E+02  0.39752194335E+02 -0.25754371909E+03  0.26508391811E+03  0.00000000000E+00 0.  1.
         13    1    3    3    0    0  0.33184770670E+02 -0.31146574041E+02 -0.12579923162E+03  0.13377886513E+03  0.00000000000E+00 0. -1.
          1    1    1    2  501    0  0.16157334404E+02  0.24664351549E+02  0.13164684312E+02  0.32290843987E+02  0.00000000000E+00 0. -1.
<scales pt_clust_5="13000.00000" pt_clust_6="13000.00000" pt_clust_7="13000.00000" pt_clust_8="13000.00000" pt_clust_9="29.48541"></scales>
<clustering>
<clus scale="   29.485">  1  9  2 -1</clus>
<clus scale="   79.657">  5  6 -1 -1</clus>
<clus scale="   81.624">  1  5  2 -1</clus>
<clus scale="  108.759">  7  8 -1 -1</clus>
<clus scale="   29.485">  1  5  2 -1</clus>
</clustering>
</event>
<event>
 9    2  0.1665830E-004  0.2004029E+03  0.7546771E-02  0.1166200E+00
         21   -1    0    0  501  502  0.00000000000E+00  0.00000000000E+00  0.15695060289E+03  0.15695060289E+03  0.00000000000E+00 0.  1.
         -1   -1    0    0    0  501 -0.00000000000E+00 -0.00000000000E+00 -0.55983004878E+03  0.55983004878E+03  0.00000000000E+00 0.  1.
         23    2    1    2    0    0  0.47693792181E+02  0.87754037372E+02  0.15808269361E+02  0.13624649499E+03  0.91311210320E+02 0.  0.
         24    2    1    2    0    0  0.43768948181E+02 -0.22144001271E+03 -0.25753039095E+03  0.35204114572E+03  0.81606776467E+02 0.  0.
        -13    1    4    4    0    0  0.30313972989E+02 -0.18574394434E+03 -0.25038670497E+03  0.31323034950E+03  0.00000000000E+00 0.  1.
         14    1    4    4    0    0  0.13454975192E+02 -0.35696068369E+02 -0.71436859750E+01  0.38810796226E+02  0.00000000000E+00 0. -1.
        -13    1    3    3    0    0  0.23836678410E+02  0.39234283472E+02 -0.38276339129E+02  0.59771183477E+02  0.00000000000E+00 0. -1.
         13    1    3    3    0    0  0.23857113771E+02  0.48519753900E+02  0.54084608489E+02  0.76475311516E+02  0.00000000000E+00 0.  1.
         -2    1    1    2    0  502 -0.91462740362E+02  0.13368597534E+03 -0.16115732430E+03  0.22849301095E+03  0.00000000000E+00 0.  1.
<scales pt_clust_5="13000.00000" pt_clust_6="13000.00000" pt_clust_7="13000.00000" pt_clust_8="13000.00000" pt_clust_9="183.03453"></scales>
<clustering>
<clus scale="   81.607">  5  6 -1 -1</clus>
<clus scale="   91.311">  7  8 -1 -1</clus>
<clus scale="  135.326">  2  7  1 -1</clus>
<clus scale="  183.035">  1  9  2 -1</clus>
<clus scale="  183.035">  1  5  2 -1</clus>
</clustering>
</event>
<event>
 9    2  0.1665830E-004  0.1060801E+03  0.7546771E-02  0.1268340E+00
         21   -1    0    0  501  502  0.00000000000E+00  0.00000000000E+00  0.49782659429E+02  0.49782659429E+02  0.00000000000E+00 0.  1.
         -1   -1    0    0    0  501 -0.00000000000E+00 -0.00000000000E+00 -0.35093412342E+03  0.35093412342E+03  0.00000000000E+00 0.  1.
         24    2    1    2    0    0  0.65590798435E+02 -0.31835562431E+01 -0.20309463044E+03  0.22818463331E+03  0.80675337593E+02 0.  0.
         23    2    1    2    0    0 -0.77857259489E+02 -0.14868043534E+02 -0.57098067137E+02  0.12612151641E+03  0.79772401600E+02 0.  0.
        -11    1    3    3    0    0  0.73239064899E+02 -0.23730387516E+02 -0.12268971275E+03  0.14484425268E+03  0.00000000000E+00 0.  1.
         12    1    3    3    0    0 -0.76482664644E+01  0.20546831273E+02 -0.80404917692E+02  0.83340380634E+02  0.00000000000E+00 0. -1.
        -11    1    4    4    0    0 -0.50338062956E+02 -0.39203412440E+02 -0.72705433743E+01  0.64215955417E+02  0.00000000000E+00 0.  1.
         11    1    4    4    0    0 -0.27519196532E+02  0.24335368905E+02 -0.49827523763E+02  0.61905560993E+02  0.00000000000E+00 0. -1.
         -2    1    1    2    0  502  0.12266461054E+02  0.18051599777E+02 -0.40958766413E+02  0.46410633128E+02  0.00000000000E+00 0.  1.
<scales pt_clust_5="13000.00000" pt_clust_6="13000.00000" pt_clust_7="13000.00000" pt_clust_8="13000.00000" pt_clust_9="21.82491"></scales>
<clustering>
<clus scale="   21.825">  1  9  2 -1</clus>
<clus scale="   79.772">  7  8 -1 -1</clus>
<clus scale="   80.675">  5  6 -1 -1</clus>
<clus scale="  105.395">  1  7  2 -1</clus>
<clus scale="   21.825">  1  5  2 -1</clus>
</clustering>
</event>
<event>
 9    2  0.1665830E-004  0.1353440E+03  0.7546771E-02  0.1238922E+00
          4   -1    0    0  502    0 -0.00000000000E+00  0.00000000000E+00  0.90191495916E+02  0.90191495916E+02  0.00000000000E+00 0. -1.
         21   -1    0    0  501  502  0.00000000000E+00 -0.00000000000E+00 -0.81253714312E+03  0.81253714312E+03  0.00000000000E+00 0. -1.
         23    2    1    2    0    0 -0.15815735201E+01  0.40544686268E+01  0.42740294379E+02  0.10056111839E+03  0.90922305716E+02 0.  0.
         24    2    1    2    0    0  0.11685160630E+02  0.10224342814E+03 -0.39400920051E+03  0.41603377038E+03  0.85150375424E+02 0.  0.
        -11    1    4    4    0    0 -0.36452107608E+02  0.49616653321E+02 -0.20360530202E+03  0.21271033695E+03  0.00000000000E+00 0.  1.
         12    1    4    4    0    0  0.48137268238E+02  0.52626774824E+02 -0.19040389849E+03  0.20332343343E+03  0.00000000000E+00 0. -1.
        -13    1    3    3    0    0  0.35052037812E+02  0.18726006739E+02 -0.33541968177E+01  0.39881816902E+02  0.00000000000E+00 0.  1.
         13    1    3    3    0    0 -0.36633611332E+02 -0.14671538112E+02  0.46094491196E+02  0.60679301483E+02  0.00000000000E+00 0. -1.
          3    1    1    2  501    0 -0.10103587110E+02 -0.10629789677E+03 -0.37107674108E+03  0.38613375027E+03  0.00000000000E+00 0. -1.
<scales pt_clust_5="13000.00000" pt_clust_6="13000.00000" pt_clust_7="13000.00000" pt_clust_8="13000.00000" pt_clust_9="105.20183"></scales>
<clustering>
<clus scale="   85.150">  5  6 -1 -1</clus>
<clus scale="   90.922">  7  8 -1 -1</clus>
<clus scale="   91.026">  1  7  2 -1</clus>
<clus scale="  105.202">  2  9  1 -1</clus>
<clus scale="  105.202">  2  5  1 -1</clus>
</clustering>
</event>
<event>
 9    2  0.1665830E-004  0.3215110E+03  0.7546771E-02  0.1108108E+00
         21   -1    0    0  501  502  0.00000000000E+00  0.00000000000E+00  0.72864730577E+03  0.72864730577E+03  0.00000000000E+00 0. -1.
          4   -1    0    0  502    0 -0.00000000000E+00 -0.00000000000E+00 -0.45951838784E+03  0.45951838784E+03  0.00000000000E+00 0. -1.
         23    2    1    2    0    0 -0.90995475574E+02 -0.38257751341E+02  0.14113352457E+03  0.19471587507E+03  0.90839243349E+02 0.  0.
         24    2    1    2    0    0 -0.12462623987E+03 -0.19155448483E+03 -0.34445694616E+03  0.42554348719E+03  0.10105370558E+03 0.  0.
        -13    1    4    4    0    0  0.13171452170E+02 -0.39920949737E+02 -0.85995702570E+02  0.95720584206E+02  0.00000000000E+00 0.  1.
         14    1    4    4    0    0 -0.13779769204E+03 -0.15163353510E+03 -0.25846124359E+03  0.32982290299E+03  0.00000000000E+00 0. -1.
        -11    1    3    3    0    0 -0.93137853657E+02 -0.12898263255E+02  0.64646783673E+02  0.11410622953E+03  0.00000000000E+00 0. -1.
         11    1    3    3    0    0  0.21423780825E+01 -0.25359488086E+02  0.76486740900E+02  0.80609645536E+02  0.00000000000E+00 0.  1.
          3    1    1    2  501    0  0.21562171545E+03  0.22981223617E+03  0.47245233952E+03  0.56790633135E+03  0.00000000000E+00 0. -1.
<scales pt_clust_5="13000.00000" pt_clust_6="13000.00000" pt_clust_7="13000.00000" pt_clust_8="13000.00000" pt_clust_9="305.21705"></scales>
<clustering>
<clus scale="   90.839">  7  8 -1 -1</clus>
<clus scale="  101.054">  5  6 -1 -1</clus>
<clus scale="  134.148">  2  7  1 -1</clus>
<clus scale="  305.217">  1  9  2 -1</clus>
<clus scale="  305.217">  1  5  2 -1</clus>
</clustering>
</event>
<event>
 9    2  0.1665830E-004  0.6164953E+03  0.7546771E-02  0.1046580E+00
         21   -1    0    0  501  502  0.00000000000E+00  0.00000000000E+00  0.24196972010E+03  0.24196972010E+03  0.00000000000E+00 0.  1.
         -1   -1    0    0    0  501 -0.00000000000E+00 -0.00000000000E+00 -0.21519510778E+04  0.21519510778E+04  0.00000000000E+00 0.  1.
         23    2    1    2    0    0 -0.23968255293E+02 -0.43369561848E+02 -0.41874265840E+03  0.43070247463E+03  0.87771359413E+02 0.  0.
         24    2    1    2    0    0 -0.57538498312E+03  0.19602054763E+03 -0.48338328251E+03  0.78072131734E+03  0.79840113035E+02 0.  0.
        -13    1    4    4    0    0 -0.29725390769E+03  0.14227939734E+03 -0.24872855480E+03  0.41287916697E+03  0.00000000000E+00 0.  1.
         14    1    4    4    0    0 -0.27813107543E+03  0.53741150287E+02 -0.23465472770E+03  0.36784215037E+03  0.00000000000E+00 0. -1.
        -11    1    3    3    0    0  0.22425462387E+02  0.90227126592E+01 -0.52014210339E+02  0.57356680380E+02  0.00000000000E+00 0.  1.
         11    1    3    3    0    0 -0.46393717680E+02 -0.52392274507E+02 -0.36672844806E+03  0.37334579425E+03  0.00000000000E+00 0. -1.
         -2    1    1    2    0  502  0.59935323842E+03 -0.15265098578E+03 -0.10078554168E+04  0.11824970059E+04  0.00000000000E+00 0.  1.
<scales pt_clust_5="13000.00000" pt_clust_6="13000.00000" pt_clust_7="13000.00000" pt_clust_8="13000.00000" pt_clust_9="611.30388"></scales>
<clustering>
<clus scale="   79.840">  5  6 -1 -1</clus>
<clus scale="   87.771">  7  8 -1 -1</clus>
<clus scale="  100.793">  2  7  1 -1</clus>
<clus scale="  611.304">  1  9  2 -1</clus>
<clus scale="  611.304">  1  5  2 -1</clus>
</clustering>
</event>
<event>
 9    2  0.1665830E-004  0.9816657E+02  0.7546771E-02  0.1290836E+00
         21   -1    0    0  501  502  0.00000000000E+00  0.00000000000E+00  0.97955958104E+02  0.97955958104E+02  0.00000000000E+00 0.  1.
          2   -1    0    0  502    0 -0.00000000000E+00 -0.00000000000E+00 -0.33732213410E+03  0.33732213410E+03  0.00000000000E+00 0. -1.
         24    2    1    2    0    0 -0.19671312725E+02 -0.29457461550E+02 -0.28250227246E+03  0.29575472503E+03  0.80053862172E+02 0.  0.
         23    2    1    2    0    0 -0.40009017541E+01  0.21191117874E+02  0.64666849449E+01  0.95100941333E+02  0.92397512611E+02 0.  0.
        -13    1    3    3    0    0 -0.37735933645E+02 -0.31006952437E+01 -0.59849047099E+02  0.70820360333E+02  0.00000000000E+00 0.  1.
         14    1    3    3    0    0  0.18064620920E+02 -0.26356766306E+02 -0.22265322536E+03  0.22493436470E+03  0.00000000000E+00 0. -1.
        -11    1    4    4    0    0  0.36911038787E+02  0.20293320298E+02 -0.19728599505E+02  0.46513022601E+02  0.00000000000E+00 0. -1.
         11    1    4    4    0    0 -0.40911940541E+02  0.89779757564E+00  0.26195284450E+02  0.48587918732E+02  0.00000000000E+00 0.  1.
          1    1    1    2  501    0  0.23672214479E+02  0.82663436762E+01  0.36669411520E+02  0.44422425838E+02  0.00000000000E+00 0. -1.
<scales pt_clust_5="13000.00000" pt_clust_6="13000.00000" pt_clust_7="13000.00000" pt_clust_8="13000.00000" pt_clust_9="25.07401"></scales>
<clustering>
<clus scale="   25.074">  1  9  2 -1</clus>
<clus scale="   80.054">  5  6 -1 -1</clus>
<clus scale="   86.649">  2  5  1 -1</clus>
<clus scale="   92.398">  7  8 -1 -1</clus>
<clus scale="   25.074">  1  5  2 -1</clus>
</clustering>
</event>
<event>
 9    2  0.1665830E-004  0.1150288E+03  0.7546771E-02  0.1253849E+00
         21   -1    0    0  501  502  0.00000000000E+00  0.00000000000E+00  0.16681557758E+03  0.16681557758E+03  0.00000000000E+00 0. -1.
          4   -1    0    0  502    0 -0.00000000000E+00 -0.00000000000E+00 -0.32643774646E+03  0.32643774646E+03  0.00000000000E+00 0. -1.
         24    2    1    2    0    0 -0.13026539520E+02  0.60162746369E+02 -0.16326889284E+03  0.19282476508E+03  0.82069555124E+02 0.  0.
         23    2    1    2    0    0  0.78166761246E+02 -0.79756169150E+02 -0.10153888922E+03  0.17516418284E+03  0.88889008559E+02 0.  0.
        -13    1    3    3    0    0 -0.22567826358E+02  0.57918887112E+02 -0.51768142234E+02  0.80894034521E+02  0.00000000000E+00 0.  1.
         14    1    3    3    0    0  0.95412868381E+01  0.22438592576E+01 -0.11150075060E+03  0.11193073056E+03  0.00000000000E+00 0. -1.
        -13    1    4    4    0    0  0.82663983510E+02 -0.25929855500E+02 -0.47691832545E+02  0.98894906176E+02  0.00000000000E+00 0. -1.
         13    1    4    4    0    0 -0.44972222646E+01 -0.53826313650E+02 -0.53847056678E+02  0.76269276660E+02  0.00000000000E+00 0.  1.
          3    1    1    2  501    0 -0.65140221726E+02  0.19593422781E+02  0.10518561318E+03  0.12526437611E+03  0.00000000000E+00 0. -1.
<scales pt_clust_5="13000.00000" pt_clust_6="13000.00000" pt_clust_7="13000.00000" pt_clust_8="13000.00000" pt_clust_9="68.02316"></scales>
<clustering>
<clus scale="   68.023">  1  9  2 -1</clus>
<clus scale="   82.070">  5  6 -1 -1</clus>
<clus scale="   88.889">  7  8 -1 -1</clus>
<clus scale="  109.844">  2  5  1 -1</clus>
<clus scale="   68.023">  1  5  2 -1</clus>
</clustering>
</event>
<event>
 9    2  0.1665830E-004  0.1668956E+03  0.7546771E-02  0.1195287E+00
          2   -1    0    0  502    0 -0.00000000000E+00  0.00000000000E+00  0.43140419036E+03  0.43140419036E+03  0.00000000000E+00 0. -1.
         21   -1    0    0  501  502  0.00000000000E+00 -0.00000000000E+00 -0.13208103629E+03  0.13208103629E+03  0.00000000000E+00 0. -1.
         24    2    1    2    0    0  0.92202209581E+02  0.39367167297E+01  0.23166986971E+02  0.12411575104E+03  0.79694825313E+02 0.  0.
         23    2    1    2    0    0 -0.54319550707E+02 -0.14173109649E+03  0.22738240063E+03  0.28836859073E+03  0.91735329630E+02 0.  0.
        -11    1    3    3    0    0  0.57841619420E+02 -0.16692593684E+02  0.47976270674E+02  0.76980635024E+02  0.00000000000E+00 0.  1.
         12    1    3    3    0    0  0.34360590161E+02  0.20629310413E+02 -0.24809283703E+02  0.47135116020E+02  0.00000000000E+00 0. -1.
        -11    1    4    4    0    0 -0.38003485587E+02 -0.10177328544E+03  0.80324210141E+02  0.13510753229E+03  0.00000000000E+00 0. -1.
         11    1    4    4    0    0 -0.16316065120E+02 -0.39957811049E+02  0.14705819049E+03  0.15326105844E+03  0.00000000000E+00 0.  1.
          1    1    1    2  501    0 -0.37882658874E+02  0.13779437976E+03  0.48773766470E+02  0.15100088487E+03  0.00000000000E+00 0. -1.
<scales pt_clust_5="13000.00000" pt_clust_6="13000.00000" pt_clust_7="13000.00000" pt_clust_8="13000.00000" pt_clust_9="139.42303"></scales>
<clustering>
<clus scale="   79.695">  5  6 -1 -1</clus>
<clus scale="   91.735">  7  8 -1 -1</clus>
<clus scale="  121.935">  1  5  2 -1</clus>
<clus scale="  139.423">  2  9  1 -1</clus>
<clus scale="  139.423">  2  5  1 -1</clus>
</clustering>
</event>
<event>
 9    2  0.1665830E-004  0.2328508E+03  0.7546771E-02  0.1125305E+00
         21   -1    0    0  501  502  0.00000000000E+00  0.00000000000E+00  0.85548686457E+03  0.85548686457E+03  0.00000000000E+00 0.  1.
         -1   -1    0    0    0  501 -0.00000000000E+00 -0.00000000000E+00 -0.19564450745E+03  0.19564450745E+03  0.00000000000E+00 0.  1.
         23    2    1    2    0    0 -0.26636022867E+02 -0.19075286523E+03  0.37793943647E+02  0.21547217532E+03  0.88902996887E+02 0.  0.
         24    2    1    2    0    0  0.17610820177E+03  0.28997734846E+03  0.52959302138E+03  0.63382899612E+03  0.78545952638E+02 0.  0.
        -13    1    4    4    0    0  0.31281488682E+02  0.11313027728E+03  0.14646771509E+03  0.18769598487E+03  0.00000000000E+00 0.  1.
         14    1    4    4    0    0  0.14482671309E+03  0.17684707118E+03  0.38312530629E+03  0.44613301125E+03  0.00000000000E+00 0. -1.
        -13    1    3    3    0    0 -0.84578407708E+01 -0.10293029871E+03 -0.24665278170E+02  0.10618171882E+03  0.00000000000E+00 0. -1.
         13    1    3    3    0    0 -0.18178182096E+02 -0.87822566513E+02  0.62459221817E+02  0.10929045651E+03  0.00000000000E+00 0.  1.
         -2    1    1    2    0  502 -0.14947217890E+03 -0.99224483237E+02  0.92455392097E+02  0.20183020058E+03  0.00000000000E+00 0.  1.
<scales pt_clust_5="13000.00000" pt_clust_6="13000.00000" pt_clust_7="13000.00000" pt_clust_8="13000.00000" pt_clust_9="179.40865"></scales>
<clustering>
<clus scale="   78.546">  5  6 -1 -1</clus>
<clus scale="   88.903">  7  8 -1 -1</clus>
<clus scale="  179.409">  1  9  2 -1</clus>
<clus scale="  229.097">  1  5  2 -1</clus>
<clus scale="  179.409">  1  5  2 -1</clus>
</clustering>
</event>
<event>
 9    2  0.1665830E-004  0.1509126E+03  0.7546771E-02  0.1213955E+00
          2   -1    0    0  502    0 -0.00000000000E+00  0.00000000000E+00  0.45623491704E+03  0.45623491704E+03  0.00000000000E+00 0. -1.
         21   -1    0    0  501  502  0.00000000000E+00 -0.00000000000E+00 -0.90659284746E+02  0.90659284746E+02  0.00000000000E+00 0.  1.
         23    2    1    2    0    0  0.63659786268E+02  0.20092851937E+02  0.15687617964E+03  0.19176986908E+03  0.87802368196E+02 0.  0.
         24    2    1    2    0    0 -0.10882045334E+03  0.92543818859E+02  0.97387379186E+02  0.19045228542E+03  0.79884428541E+02 0.  0.
        -11    1    4    4    0    0 -0.40054990396E+02  0.76670313099E+02  0.26613347409E+02  0.90504195630E+02  0.00000000000E+00 0.  1.
         12    1    4    4    0    0 -0.68765462943E+02  0.15873505760E+02  0.70774031776E+02  0.99948089791E+02  0.00000000000E+00 0. -1.
        -13    1    3    3    0    0 -0.18856786977E+02  0.10711777972E+02  0.61985429210E+02  0.65669734557E+02  0.00000000000E+00 0.  1.
         13    1    3    3    0    0  0.82516573245E+02  0.93810739645E+01  0.94890750428E+02  0.12610013452E+03  0.00000000000E+00 0. -1.
          1    1    1    2  501    0  0.45160667070E+02 -0.11263667080E+03  0.11131207347E+03  0.16467204729E+03  0.00000000000E+00 0. -1.
<scales pt_clust_5="13000.00000" pt_clust_6="13000.00000" pt_clust_7="13000.00000" pt_clust_8="13000.00000" pt_clust_9="128.03554"></scales>
<clustering>
<clus scale="   79.884">  5  6 -1 -1</clus>
<clus scale="   87.802">  7  8 -1 -1</clus>
<clus scale="  110.298">  1  7  2 -1</clus>
<clus scale="  128.036">  2  9  1 -1</clus>
<clus scale="  128.036">  2  5  1 -1</clus>
</clustering>
</event>
<event>
 9    2  0.1665830E-004  0.1704837E+03  0.7546771E-02  0.1180885E+00
          2   -1    0    0  502    0 -0.00000000000E+00  0.00000000000E+00  0.55302886137E+03  0.55302886137E+03  0.00000000000E+00 0. -1.
         21   -1    0    0  501  502  0.00000000000E+00 -0.00000000000E+00 -0.12000981698E+03  0.12000981698E+03  0.00000000000E+00 0. -1.
         23    2    1    2    0    0  0.11068539674E+03 -0.85267552379E+02  0.45519993367E+03  0.48716838785E+03  0.10297691961E+03 0.  0.
         24    2    1    2    0    0 -0.80848440343E+02  0.79279961386E+02 -0.47496726476E+02  0.14628510607E+03  0.79508557085E+02 0.  0.
        -13    1    4    4    0    0 -0.19706826590E+02  0.74463833185E+02 -0.26134749085E+02  0.81340313354E+02  0.00000000000E+00 0.  1.
         14    1    4    4    0    0 -0.61141613754E+02  0.48161282005E+01 -0.21361977392E+02  0.64944792719E+02  0.00000000000E+00 0. -1.
        -13    1    3    3    0    0  0.40793455464E+02 -0.73470879011E+02  0.35253059374E+03  0.36240846513E+03  0.00000000000E+00 0. -1.
         13    1    3    3    0    0  0.69891941277E+02 -0.11796673368E+02  0.10266933993E+03  0.12475992273E+03  0.00000000000E+00 0.  1.
          1    1    1    2  501    0 -0.29836956397E+02  0.59875909931E+01  0.25315837190E+02  0.39585184420E+02  0.00000000000E+00 0. -1.
<scales pt_clust_5="13000.00000" pt_clust_6="13000.00000" pt_clust_7="13000.00000" pt_clust_8="13000.00000" pt_clust_9="30.43181"></scales>
<clustering>
<clus scale="   30.432">  2  9  1 -1</clus>
<clus scale="   79.509">  5  6 -1 -1</clus>
<clus scale="  102.977">  7  8 -1 -1</clus>
<clus scale="  157.423">  2  5  1 -1</clus>
<clus scale="   30.432">  2  5  1 -1</clus>
</clustering>
</event>
<event>
 9    2  0.1665830E-004  0.1038982E+03  0.7546771E-02  0.1277395E+00
         21   -1    0    0  501  502  0.00000000000E+00  0.00000000000E+00  0.87949756151E+02  0.87949756151E+02  0.00000000000E+00 0.  1.
         -1   -1    0    0    0  501 -0.00000000000E+00 -0.00000000000E+00 -0.22563171405E+03  0.22563171405E+03  0.00000000000E+00 0.  1.
         23    2    1    2    0    0 -0.47803080570E+02 -0.14569898171E+02 -0.12550290941E+03  0.16370101645E+03  0.92464188054E+02 0.  0.
         24    2    1    2    0    0  0.28912386017E+02  0.32930856580E+02  0.32480696060E+02  0.98029938636E+02  0.81452476157E+02 0.  0.
        -13    1    4    4    0    0 -0.22852999970E+02  0.33574294190E+02  0.16647886385E+02  0.43893563983E+02  0.00000000000E+00 0.  1.
         14    1    4    4    0    0  0.51765385987E+02 -0.64343761008E+00  0.15832809675E+02  0.54136374653E+02  0.00000000000E+00 0. -1.
        -11    1    3    3    0    0 -0.46339806474E+02 -0.45731633115E+02 -0.50263721296E+02  0.82250845649E+02  0.00000000000E+00 0. -1.
         11    1    3    3    0    0 -0.14632740952E+01  0.31161734944E+02 -0.75239188117E+02  0.81450170806E+02  0.00000000000E+00 0.  1.
         -2    1    1    2    0  502  0.18890694552E+02 -0.18360958410E+02 -0.44659744550E+02  0.51850515115E+02  0.00000000000E+00 0.  1.
<scales pt_clust_5="13000.00000" pt_clust_6="13000.00000" pt_clust_7="13000.00000" pt_clust_8="13000.00000" pt_clust_9="26.34357"></scales>
<clustering>
<clus scale="   26.344">  1  9  2 -1</clus>
<clus scale="   81.452">  5  6 -1 -1</clus>
<clus scale="   92.464">  7  8 -1 -1</clus>
<clus scale="   94.232">  1  5  2 -1</clus>
<clus scale="   26.344">  1  5  2 -1</clus>
</clustering>
</event>
<event>
 9    2  0.1665830E-004  0.2000640E+03  0.7546771E-02  0.1150901E+00
         21   -1    0    0  501  502  0.00000000000E+00  0.00000000000E+00  0.16862905389E+03  0.16862905389E+03  0.00000000000E+00 0. -1.
          2   -1    0    0  502    0 -0.00000000000E+00 -0.00000000000E+00 -0.44815780519E+03  0.44815780519E+03  0.00000000000E+00 0. -1.
         24    2    1    2    0    0 -0.49581914415E+02 -0.16847131740E+03 -0.89713603674E+02  0.21227904006E+03  0.78567863274E+02 0.  0.
         23    2    1    2    0    0 -0.76776977499E+02  0.18921091363E+03 -0.86515981947E+02  0.23998603308E+03  0.91721354287E+02 0.  0.
        -11    1    3    3    0    0  0.17145243349E+02 -0.61564850671E+02 -0.14545606084E+02  0.65542084679E+02  0.00000000000E+00 0.  1.
         12    1    3    3    0    0 -0.66727157764E+02 -0.10690646673E+03 -0.75167997591E+02  0.14673695538E+03  0.00000000000E+00 0. -1.
        -11    1    4    4    0    0 -0.74006425388E+02  0.93483220792E+02 -0.14390784955E+02  0.12009645399E+03  0.00000000000E+00 0.  1.
         11    1    4    4    0    0 -0.27705521112E+01  0.95727692836E+02 -0.72125196992E+02  0.11988957910E+03  0.00000000000E+00 0. -1.
          1    1    1    2  501    0  0.12635889191E+03 -0.20739596225E+02 -0.10329916569E+03  0.16452178594E+03  0.00000000000E+00 0. -1.
<scales pt_clust_5="13000.00000" pt_clust_6="13000.00000" pt_clust_7="13000.00000" pt_clust_8="13000.00000" pt_clust_9="128.04967"></scales>
<clustering>
<clus scale="   78.568">  5  6 -1 -1</clus>
<clus scale="   91.721">  7  8 -1 -1</clus>
<clus scale="  128.050">  1  9  2 -1</clus>
<clus scale="  194.385">  2  5  1 -1</clus>
<clus scale="  128.050">  1  5  2 -1</clus>
</clustering>
</event>
<event>
 9    2  0.1665830E-004  0.1584542E+03  0.7546771E-02  0.1192642E+00
         21   -1    0    0  501  502  0.00000000000E+00  0.00000000000E+00  0.72212050367E+02  0.72212050367E+02  0.00000000000E+00 0. -1.
          2   -1    0    0  502    0 -0.00000000000E+00 -0.00000000000E+00 -0.59036809231E+03  0.59036809231E+03  0.00000000000E+00 0. -1.
         24    2    1    2    0    0  0.13169189412E+03 -0.12148642279E+02 -0.44035005490E+03  0.46635495125E+03  0.78028361613E+02 0.  0.
         23    2    1    2    0    0 -0.11463783814E+03  0.35711337407E+02 -0.65994970777E+02  0.16483185563E+03  0.91635533020E+02 0.  0.
        -13    1    3    3    0    0  0.48329079521E+02 -0.30074383739E+02 -0.96021541361E+02  0.11162573579E+03  0.00000000000E+00 0.  1.
         14    1    3    3    0    0  0.83362814596E+02  0.17925741460E+02 -0.34432851354E+03  0.35472921546E+03  0.00000000000E+00 0. -1.
        -13    1    4    4    0    0 -0.45075491077E+01 -0.24498953276E+02 -0.55504558446E+01  0.25521055438E+02  0.00000000000E+00 0.  1.
         13    1    4    4    0    0 -0.11013028903E+03  0.60210290683E+02 -0.60444514932E+02  0.13931080020E+03  0.00000000000E+00 0. -1.
          1    1    1    2  501    0 -0.17054055979E+02 -0.23562695128E+02 -0.11811016262E+02  0.31393335792E+02  0.00000000000E+00 0. -1.
<scales pt_clust_5="13000.00000" pt_clust_6="13000.00000" pt_clust_7="13000.00000" pt_clust_8="13000.00000" pt_clust_9="29.08679"></scales>
<clustering>
<clus scale="   29.087">  1  9  2 -1</clus>
<clus scale="   78.028">  5  6 -1 -1</clus>
<clus scale="   91.636">  7  8 -1 -1</clus>
<clus scale="  150.994">  2  5  1 -1</clus>
<clus scale="   29.087">  1  5  2 -1</clus>
</clustering>
</event>
<event>
 9    2  0.1665830E-004  0.1163760E+03  0.7546771E-02  0.1252389E+00
         21   -1    0    0  501  502  0.00000000000E+00  0.00000000000E+00  0.28905037784E+03  0.28905037784E+03  0.00000000000E+00 0.  1.
          4   -1    0    0  502    0 -0.00000000000E+00 -0.00000000000E+00 -0.66986406049E+02  0.66986406049E+02  0.00000000000E+00 0. -1.
         24    2    1    2    0    0 -0.32284388339E+02  0.59892982613E+02  0.29392611350E+02  0.11058673931E+03  0.82073444014E+02 0.  0.
         23    2    1    2    0    0  0.21668917570E+02 -0.79281907390E+02  0.12962865014E+03  0.17864434164E+03  0.91405968260E+02 0.  0.
        -13    1    3    3    0    0 -0.29614541890E+02 -0.11646861164E+02  0.21848107882E+02  0.38600651346E+02  0.00000000000E+00 0.  1.
         14    1    3    3    0    0 -0.26698464497E+01  0.71539843777E+02  0.75445034676E+01  0.71986087963E+02  0.00000000000E+00 0. -1.
        -13    1    4    4    0    0  0.29080780550E+02  0.80802681228E+01  0.58178290867E+02  0.65541559781E+02  0.00000000000E+00 0.  1.
         13    1    4    4    0    0 -0.74118629798E+01 -0.87362175513E+02  0.71450359274E+02  0.11310278186E+03  0.00000000000E+00 0. -1.
          3    1    1    2  501    0  0.10615470769E+02  0.19388924777E+02  0.63042710296E+02  0.66805702938E+02  0.00000000000E+00 0. -1.
<scales pt_clust_5="13000.00000" pt_clust_6="13000.00000" pt_clust_7="13000.00000" pt_clust_8="13000.00000" pt_clust_9="22.10472"></scales>
<clustering>
<clus scale="   22.105">  1  9  2 -1</clus>
<clus scale="   82.073">  5  6 -1 -1</clus>
<clus scale="   91.406">  7  8 -1 -1</clus>
<clus scale="  109.199">  2  5  1 -1</clus>
<clus scale="   22.105">  1  5  2 -1</clus>
</clustering>
</event>
<event>
 9    2  0.1665830E-004  0.1136937E+03  0.7546771E-02  0.1257208E+00
         21   -1    0    0  501  502  0.00000000000E+00  0.00000000000E+00  0.17628389172E+03  0.17628389172E+03  0.00000000000E+00 0.  1.
          4   -1    0    0  502    0 -0.00000000000E+00 -0.00000000000E+00 -0.17935855945E+03  0.17935855945E+03  0.00000000000E+00 0. -1.
         23    2    1    2    0    0  0.13052534394E+02  0.70107569611E+02 -0.12488270133E+03  0.17005438399E+03  0.90759927566E+02 0.  0.
         24    2    1    2    0    0 -0.29498822098E+02 -0.52549615871E+02  0.56604356529E+02  0.11608783966E+03  0.81490433221E+02 0.  0.
        -13    1    4    4    0    0 -0.37509568804E+02 -0.14957840873E+02  0.65209401638E+02  0.76700526839E+02  0.00000000000E+00 0.  1.
         14    1    4    4    0    0  0.80107467056E+01 -0.37591774998E+02 -0.86050451087E+01  0.39387312825E+02  0.00000000000E+00 0. -1.
        -11    1    3    3    0    0 -0.36581426416E+02  0.18031965989E+02 -0.63585559372E+02  0.75541219984E+02  0.00000000000E+00 0.  1.
         11    1    3    3    0    0  0.49633960810E+02  0.52075603622E+02 -0.61297141963E+02  0.94513164009E+02  0.00000000000E+00 0. -1.
          3    1    1    2  501    0  0.16446287704E+02 -0.17557953740E+02  0.65203677082E+02  0.69500227509E+02  0.00000000000E+00 0. -1.
<scales pt_clust_5="13000.00000" pt_clust_6="13000.00000" pt_clust_7="13000.00000" pt_clust_8="13000.00000" pt_clust_9="24.05748"></scales>
<clustering>
<clus scale="   24.057">  1  9  2 -1</clus>
<clus scale="   81.490">  5  6 -1 -1</clus>
<clus scale="   90.760">  7  8 -1 -1</clus>
<clus scale="  106.441">  1  5  2 -1</clus>
<clus scale="   24.057">  1  5  2 -1</clus>
</clustering>
</event>
<event>
 9    2  0.1665830E-004  0.1912962E+03  0.7546771E-02  0.1158288E+00
         21   -1    0    0  501  502  0.00000000000E+00  0.00000000000E+00  0.22399341816E+03  0.22399341816E+03  0.00000000000E+00 0. -1.
         -1   -1    0    0    0  501 -0.00000000000E+00 -0.00000000000E+00 -0.58788062446E+03  0.58788062446E+03  0.00000000000E+00 0.  1.
         24    2    1    2    0    0  0.15321931182E+03 -0.54515091941E+02 -0.43029865927E+03  0.46707064438E+03  0.80932057354E+02 0.  0.
         23    2    1    2    0    0 -0.18027417050E+03  0.76856218101E+02 -0.51356884057E+02  0.22191941839E+03  0.90581697426E+02 0.  0.
        -13    1    3    3    0    0  0.11097561030E+03 -0.42730819868E+02 -0.38921642108E+03  0.40697780220E+03  0.00000000000E+00 0.  1.
         14    1    3    3    0    0  0.42243701516E+02 -0.11784272073E+02 -0.41082238194E+02  0.60092842178E+02  0.00000000000E+00 0. -1.
        -13    1    4    4    0    0 -0.98510690190E+02 -0.59136025260E+01 -0.13712697369E+02  0.99636162339E+02  0.00000000000E+00 0.  1.
         13    1    4    4    0    0 -0.81763480307E+02  0.82769820627E+02 -0.37644186688E+02  0.12228325605E+03  0.00000000000E+00 0. -1.
         -2    1    1    2    0  502  0.27054858681E+02 -0.22341126160E+02  0.11776833703E+03  0.12288397985E+03  0.00000000000E+00 0.  1.
<scales pt_clust_5="13000.00000" pt_clust_6="13000.00000" pt_clust_7="13000.00000" pt_clust_8="13000.00000" pt_clust_9="35.08691"></scales>
<clustering>
<clus scale="   35.087">  1  9  2 -1</clus>
<clus scale="   80.932">  5  6 -1 -1</clus>
<clus scale="   90.582">  7  8 -1 -1</clus>
<clus scale="  186.920">  2  5  1 -1</clus>
<clus scale="   35.087">  1  5  2 -1</clus>
</clustering>
</event>
<event>
 9    2  0.1665830E-004  0.1984976E+03  0.7546771E-02  0.1190220E+00
         21   -1    0    0  501  502  0.00000000000E+00  0.00000000000E+00  0.44395323863E+03  0.44395323863E+03  0.00000000000E+00 0.  1.
          2   -1    0    0  502    0 -0.00000000000E+00 -0.00000000000E+00 -0.48054587523E+03  0.48054587523E+03  0.00000000000E+00 0. -1.
         24    2    1    2    0    0  0.13101547433E+02 -0.60098917016E+01  0.19802425066E+03  0.21395726979E+03  0.79726658668E+02 0.  0.
         23    2    1    2    0    0 -0.55357388431E+02 -0.16780978414E+03  0.17439719120E+03  0.26412124398E+03  0.90117074504E+02 0.  0.
        -11    1    3    3    0    0  0.17214345769E+02 -0.38244601415E+02  0.15156779446E+03  0.15726340818E+03  0.00000000000E+00 0.  1.
         12    1    3    3    0    0 -0.41127983360E+01  0.32234709713E+02  0.46456456204E+02  0.56693861603E+02  0.00000000000E+00 0. -1.
        -13    1    4    4    0    0  0.10777997140E+02 -0.42830228893E+02  0.65434046818E+01  0.44647618909E+02  0.00000000000E+00 0. -1.
         13    1    4    4    0    0 -0.66135385571E+02 -0.12497955525E+03  0.16785378652E+03  0.21947362507E+03  0.00000000000E+00 0.  1.
          1    1    1    2  501    0  0.42255840998E+02  0.17381967584E+03 -0.40901407846E+03  0.44642060009E+03  0.00000000000E+00 0. -1.
<scales pt_clust_5="13000.00000" pt_clust_6="13000.00000" pt_clust_7="13000.00000" pt_clust_8="13000.00000" pt_clust_9="176.86222"></scales>
<clustering>
<clus scale="   79.727">  5  6 -1 -1</clus>
<clus scale="   81.019">  2  5  1 -1</clus>
<clus scale="   90.117">  7  8 -1 -1</clus>
<clus scale="  176.862">  1  9  2 -1</clus>
<clus scale="  176.862">  1  5  2 -1</clus>
</clustering>
</event>
<event>
 9    2  0.1665830E-004  0.1535548E+03  0.7546771E-02  0.1224043E+00
         21   -1    0    0  501  502  0.00000000000E+00  0.00000000000E+00  0.78366282645E+02  0.78366282645E+02  0.00000000000E+00 0. -1.
          2   -1    0    0  502    0 -0.00000000000E+00 -0.00000000000E+00 -0.62358619380E+03  0.62358619380E+03  0.00000000000E+00 0. -1.
         24    2    1    2    0    0 -0.33969591444E+02  0.81491251401E+01 -0.29182445030E+03  0.30386356850E+03  0.77144131877E+02 0.  0.
         23    2    1    2    0    0  0.12893928290E+03 -0.39211882277E+02 -0.48525267789E+02  0.17015046630E+03  0.91834466198E+02 0.  0.
        -11    1    3    3    0    0 -0.26474290835E+02 -0.33048898526E+02 -0.13081053140E+03  0.13749368310E+03  0.00000000000E+00 0.  1.
         12    1    3    3    0    0 -0.74953006088E+01  0.41198023666E+02 -0.16101391891E+03  0.16636988540E+03  0.00000000000E+00 0. -1.
        -11    1    4    4    0    0  0.81334289348E+02 -0.41569263530E+02 -0.72667915376E+02  0.11672144713E+03  0.00000000000E+00 0. -1.
         11    1    4    4    0    0  0.47604993548E+02  0.23573812534E+01  0.24142647587E+02  0.53429019171E+02  0.00000000000E+00 0.  1.
          1    1    1    2  501    0 -0.94969691452E+02  0.31062757137E+02 -0.20487019306E+03  0.22793844165E+03  0.00000000000E+00 0. -1.
<scales pt_clust_5="13000.00000" pt_clust_6="13000.00000" pt_clust_7="13000.00000" pt_clust_8="13000.00000" pt_clust_9="123.06718"></scales>
<clustering>
<clus scale="   77.144">  5  6 -1 -1</clus>
<clus scale="   84.685">  2  5  1 -1</clus>
<clus scale="   91.834">  7  8 -1 -1</clus>
<clus scale="  123.067">  1  9  2 -1</clus>
<clus scale="  123.067">  1  5  2 -1</clus>
</clustering>
</event>
<event>
 9    2  0.1665830E-004  0.1111122E+03  0.7546771E-02  0.1262538E+00
          4   -1    0    0  502    0 -0.00000000000E+00  0.00000000000E+00  0.91635792127E+03  0.91635792127E+03  0.00000000000E+00 0. -1.
         21   -1    0    0  501  502  0.00000000000E+00 -0.00000000000E+00 -0.39378767035E+02  0.39378767035E+02  0.00000000000E+00 0.  1.
         24    2    1    2    0    0  0.80505666854E+02 -0.22177766078E+02  0.38340290226E+03  0.40063161036E+03  0.80838642114E+02 0.  0.
         23    2    1    2    0    0 -0.10379673229E+02 -0.38225675397E+02  0.70347919741E+02  0.12187482515E+03  0.91300072937E+02 0.  0.
        -13    1    3    3    0    0  0.80137725905E+02 -0.36532944477E+01  0.18863359780E+03  0.20498301367E+03  0.00000000000E+00 0.  1.
         14    1    3    3    0    0  0.36794094815E+00 -0.18524471630E+02  0.19476930446E+03  0.19564859670E+03  0.00000000000E+00 0. -1.
        -13    1    4    4    0    0  0.35963567504E+02 -0.21018809982E+02  0.81849765916E+01  0.42451883379E+02  0.00000000000E+00 0. -1.
         13    1    4    4    0    0 -0.46343240732E+02 -0.17206865415E+02  0.62162943149E+02  0.79422941773E+02  0.00000000000E+00 0.  1.
          3    1    1    2  501    0 -0.70125993625E+02  0.60403441475E+02  0.42322833223E+03  0.43323025279E+03  0.00000000000E+00 0. -1.
<scales pt_clust_5="13000.00000" pt_clust_6="13000.00000" pt_clust_7="13000.00000" pt_clust_8="13000.00000" pt_clust_9="92.55398"></scales>
<clustering>
<clus scale="   80.839">  5  6 -1 -1</clus>
<clus scale="   91.300">  7  8 -1 -1</clus>
<clus scale="   92.554">  2  9  1 -1</clus>
<clus scale="  102.689">  1  5  2 -1</clus>
<clus scale="   92.554">  2  5  1 -1</clus>
</clustering>
</event>
<event>
 9    2  0.1665830E-004  0.1616845E+03  0.7546771E-02  0.1198477E+00
          2   -1    0    0  502    0 -0.00000000000E+00  0.00000000000E+00  0.12819821027E+03  0.12819821027E+03  0.00000000000E+00 0. -1.
         21   -1    0    0  501  502  0.00000000000E+00 -0.00000000000E+00 -0.39467352093E+03  0.39467352093E+03  0.00000000000E+00 0. -1.
         24    2    1    2    0    0  0.55166458035E+02  0.79205479436E+02 -0.19560009225E+02  0.12660455222E+03  0.79556725788E+02 0.  0.
         23    2    1    2    0    0 -0.13160156759E+03  0.41903413010E+02 -0.12093713272E+03  0.20553126522E+03  0.92425333651E+02 0.  0.
        -13    1    3    3    0    0  0.44979676130E+02  0.90492519919E+02  0.96769417871E+00  0.10105940757E+03  0.00000000000E+00 0.  1.
         14    1    3    3    0    0  0.10186781905E+02 -0.11287040483E+02 -0.20527703404E+02  0.25545144656E+02  0.00000000000E+00 0. -1.
        -13    1    4    4    0    0 -0.16761996015E+02 -0.22851352351E+02 -0.27493734008E+01  0.28472932212E+02  0.00000000000E+00 0.  1.
         13    1    4    4    0    0 -0.11483957157E+03  0.64754765361E+02 -0.11818775932E+03  0.17705833301E+03  0.00000000000E+00 0. -1.
          1    1    1    2  501    0  0.76435109553E+02 -0.12110889245E+03 -0.12597816872E+03  0.19073591375E+03  0.00000000000E+00 0. -1.
<scales pt_clust_5="13000.00000" pt_clust_6="13000.00000" pt_clust_7="13000.00000" pt_clust_8="13000.00000" pt_clust_9="132.66288"></scales>
<clustering>
<clus scale="   79.557">  5  6 -1 -1</clus>
<clus scale="   92.425">  7  8 -1 -1</clus>
<clus scale="  125.084">  1  5  2 -1</clus>
<clus scale="  132.663">  2  9  1 -1</clus>
<clus scale="  132.663">  2  5  1 -1</clus>
</clustering>
</event>
<event>
 9    2  0.1665830E-004  0.1870758E+03  0.7546771E-02  0.1162261E+00
          2   -1    0    0  502    0 -0.00000000000E+00  0.00000000000E+00  0.18252126006E+04  0.18252126006E+04  0.00000000000E+00 0. -1.
         21   -1    0    0  501  502  0.00000000000E+00 -0.00000000000E+00 -0.26387721053E+02  0.26387721053E+02  0.00000000000E+00 0.  1.
         24    2    1    2    0    0  0.96838780299E+02 -0.14372617018E+03  0.11097013955E+04  0.11260135747E+04  0.80214849121E+02 0.  0.
         23    2    1    2    0    0 -0.68753353162E+02  0.13403333153E+03  0.66332600722E+03  0.68623891152E+03  0.90722071683E+02 0.  0.
        -11    1    3    3    0    0  0.82230728813E+02 -0.12979581976E+03  0.74113949833E+03  0.75689933517E+03  0.00000000000E+00 0.  1.
         12    1    3    3    0    0  0.14608051486E+02 -0.13930350417E+02  0.36856189715E+03  0.36911423958E+03  0.00000000000E+00 0. -1.
        -11    1    4    4    0    0  0.98465441195E+01  0.77908998344E+02  0.32899609061E+03  0.33823836875E+03  0.00000000000E+00 0.  1.
         11    1    4    4    0    0 -0.78599897281E+02  0.56124333189E+02  0.33432991661E+03  0.34800054277E+03  0.00000000000E+00 0. -1.
          1    1    1    2  501    0 -0.28085427138E+02  0.96928386476E+01  0.25797476859E+02  0.39347835402E+02  0.00000000000E+00 0. -1.
<scales pt_clust_5="13000.00000" pt_clust_6="13000.00000" pt_clust_7="13000.00000" pt_clust_8="13000.00000" pt_clust_9="29.71098"></scales>
<clustering>
<clus scale="   29.711">  2  9  1 -1</clus>
<clus scale="   80.215">  5  6 -1 -1</clus>
<clus scale="   90.722">  7  8 -1 -1</clus>
<clus scale="  182.212">  1  5  2 -1</clus>
<clus scale="   29.711">  2  5  1 -1</clus>
</clustering>
</event>
<event>
 9    2  0.1665830E-004  0.3869196E+03  0.7546771E-02  0.1048405E+00
          2   -1    0    0  502    0 -0.00000000000E+00  0.00000000000E+00  0.31417128724E+04  0.31417128724E+04  0.00000000000E+00 0. -1.
         21   -1    0    0  501  502  0.00000000000E+00 -0.00000000000E+00 -0.65930510368E+02  0.65930510368E+02  0.00000000000E+00 0.  1.
         24    2    1    2    0    0  0.75711339678E+02 -0.64324873992E+02  0.26984950253E+03  0.30148305257E+03  0.90572515703E+02 0.  0.
         23    2    1    2    0    0  0.26363882610E+02 -0.22926841907E+03  0.34025285900E+03  0.42096532022E+03  0.90447390694E+02 0.  0.
        -13    1    3    3    0    0  0.65062299831E+02 -0.20363712934E+02  0.23411140020E+03  0.24383586973E+03  0.00000000000E+00 0.  1.
         14    1    3    3    0    0  0.10649039848E+02 -0.43961161058E+02  0.35738102334E+02  0.57647182842E+02  0.00000000000E+00 0. -1.
        -13    1    4    4    0    0  0.37225332622E+02 -0.18234868704E+03  0.31674287820E+03  0.36737286229E+03  0.00000000000E+00 0.  1.
         13    1    4    4    0    0 -0.10861450012E+02 -0.46919732034E+02  0.23509980796E+02  0.53592457935E+02  0.00000000000E+00 0. -1.
          1    1    1    2  501    0 -0.10207522229E+03  0.29359329306E+03  0.24656800005E+04  0.24851950100E+04  0.00000000000E+00 0. -1.
<scales pt_clust_5="13000.00000" pt_clust_6="13000.00000" pt_clust_7="13000.00000" pt_clust_8="13000.00000" pt_clust_9="310.83190"></scales>
<clustering>
<clus scale="   90.447">  7  8 -1 -1</clus>
<clus scale="   90.573">  5  6 -1 -1</clus>
<clus scale="  118.360">  5  7 -1 -1</clus>
<clus scale="  310.832">  2  9  1 -1</clus>
<clus scale="  310.832">  2  5  1 -1</clus>
</clustering>
</event>
<event>
 9    2  0.1665830E-004  0.1616968E+03  0.7546771E-02  0.1187322E+00
         21   -1    0    0  501  502  0.00000000000E+00  0.00000000000E+00  0.34923229409E+02  0.34923229409E+02  0.00000000000E+00 0.  1.
          2   -1    0    0  502    0 -0.00000000000E+00 -0.00000000000E+00 -0.12222212990E+04  0.12222212990E+04  0.00000000000E+00 0. -1.
         23    2    1    2    0    0 -0.11768477518E+03  0.93139680122E+02 -0.55374252005E+03  0.58074204097E+03  0.90032401428E+02 0.  0.
         24    2    1    2    0    0  0.11388417742E+03 -0.31743186662E+02 -0.26567309398E+03  0.30341257464E+03  0.86601165202E+02 0.  0.
        -11    1    4    4    0    0  0.36827809576E+02 -0.42943589159E+02 -0.55381453176E+02  0.79167826570E+02  0.00000000000E+00 0.  1.
         12    1    4    4    0    0  0.77056367845E+02  0.11200402497E+02 -0.21029164081E+03  0.22424474807E+03  0.00000000000E+00 0. -1.
        -13    1    3    3    0    0 -0.14315276995E+02  0.47482950174E+02 -0.28380589286E+03  0.28810647777E+03  0.00000000000E+00 0.  1.
         13    1    3    3    0    0 -0.10336949818E+03  0.45656729948E+02 -0.26993662720E+03  0.29263556320E+03  0.00000000000E+00 0. -1.
          1    1    1    2  501    0  0.38005977570E+01 -0.61396493460E+02 -0.36788245555E+03  0.37298991281E+03  0.00000000000E+00 0. -1.
<scales pt_clust_5="13000.00000" pt_clust_6="13000.00000" pt_clust_7="13000.00000" pt_clust_8="13000.00000" pt_clust_9="61.51405"></scales>
<clustering>
<clus scale="   61.514">  1  9  2 -1</clus>
<clus scale="   86.601">  5  6 -1 -1</clus>
<clus scale="   90.032">  7  8 -1 -1</clus>
<clus scale="  159.812">  1  5  2 -1</clus>
<clus scale="   61.514">  1  5  2 -1</clus>
</clustering>
</event>
<event>
 9    2  0.1665830E-004  0.1080424E+03  0.7546771E-02  0.1268339E+00
         21   -1    0    0  501  502  0.00000000000E+00  0.00000000000E+00  0.19121691452E+03  0.19121691452E+03  0.00000000000E+00 0. -1.
          2   -1    0    0  502    0 -0.00000000000E+00 -0.00000000000E+00 -0.66271585498E+03  0.66271585498E+03  0.00000000000E+00 0. -1.
         23    2    1    2    0    0  0.62378728823E+02  0.31539715289E+02 -0.57649444607E+03  0.58756631158E+03  0.89456496193E+02 0.  0.
         24    2    1    2    0    0 -0.19022161889E+02 -0.14138028773E+02 -0.55233302125E+02  0.99465644809E+02  0.79252573038E+02 0.  0.
        -13    1    4    4    0    0  0.75577667653E+01 -0.29198772223E+02  0.62580148314E+01  0.30803423307E+02  0.00000000000E+00 0.  1.
         14    1    4    4    0    0 -0.26579928654E+02  0.15060743450E+02 -0.61491316957E+02  0.68662221502E+02  0.00000000000E+00 0. -1.
        -13    1    3    3    0    0  0.36573563029E+02 -0.28608191271E+02 -0.19155682520E+03  0.19710421457E+03  0.00000000000E+00 0.  1.
         13    1    3    3    0    0  0.25805165794E+02  0.60147906560E+02 -0.38493762087E+03  0.39046209701E+03  0.00000000000E+00 0. -1.
          1    1    1    2  501    0 -0.43356566934E+02 -0.17401686516E+02  0.16022880773E+03  0.16690081311E+03  0.00000000000E+00 0. -1.
<scales pt_clust_5="13000.00000" pt_clust_6="13000.00000" pt_clust_7="13000.00000" pt_clust_8="13000.00000" pt_clust_9="46.71842"></scales>
<clustering>
<clus scale="   46.718">  1  9  2 -1</clus>
<clus scale="   79.253">  5  6 -1 -1</clus>
<clus scale="   89.456">  7  8 -1 -1</clus>
<clus scale="   99.758">  1  5  2 -1</clus>
<clus scale="   46.718">  1  5  2 -1</clus>
</clustering>
</event>
<event>
 9    2  0.1665830E-004  0.1407711E+03  0.7546771E-02  0.1214347E+00
         21   -1    0    0  501  502  0.00000000000E+00  0.00000000000E+00  0.90592044295E+02  0.90592044295E+02  0.00000000000E+00 0.  1.
          2   -1    0    0  502    0 -0.00000000000E+00 -0.00000000000E+00 -0.62754274678E+03  0.62754274678E+03  0.00000000000E+00 0. -1.
         23    2    1    2    0    0 -0.16265445531E+02  0.10053101201E+03 -0.34231070244E+03  0.36870148089E+03  0.91613950435E+02 0.  0.
         24    2    1    2    0    0 -0.24328481413E+02 -0.13894364314E+03 -0.18040979208E+02  0.16420207282E+03  0.82095266668E+02 0.  0.
        -13    1    4    4    0    0 -0.18213356141E+02 -0.12059409082E+03  0.18015821179E+02  0.12328516089E+03  0.00000000000E+00 0.  1.
         14    1    4    4    0    0 -0.61151252725E+01 -0.18349552318E+02 -0.36056800387E+02  0.40916911925E+02  0.00000000000E+00 0. -1.
        -13    1    3    3    0    0  0.14536710727E+02  0.10227689594E+03 -0.29143121077E+03  0.30919901360E+03  0.00000000000E+00 0.  1.
         13    1    3    3    0    0 -0.30802156258E+02 -0.17458839392E+01 -0.50879491673E+02  0.59502467292E+02  0.00000000000E+00 0. -1.
          1    1    1    2  501    0  0.40593926945E+02  0.38412631134E+02 -0.17659902084E+03  0.18523123737E+03  0.00000000000E+00 0. -1.
<scales pt_clust_5="13000.00000" pt_clust_6="13000.00000" pt_clust_7="13000.00000" pt_clust_8="13000.00000" pt_clust_9="55.88739"></scales>
<clustering>
<clus scale="   55.887">  1  9  2 -1</clus>
<clus scale="   82.095">  5  6 -1 -1</clus>
<clus scale="   91.614">  7  8 -1 -1</clus>
<clus scale="  134.770">  1  5  2 -1</clus>
<clus scale="   55.887">  1  5  2 -1</clus>
</clustering>
</event>
<event>
 9    2  0.1665830E-004  0.9440437E+02  0.7546771E-02  0.1297840E+00
         21   -1    0    0  501  502  0.00000000000E+00  0.00000000000E+00  0.75164209210E+03  0.75164209210E+03  0.00000000000E+00 0.  1.
         -1   -1    0    0    0  501 -0.00000000000E+00 -0.00000000000E+00 -0.56586041566E+02  0.56586041566E+02  0.00000000000E+00 0.  1.
         24    2    1    2    0    0 -0.23192681067E+02 -0.53272609974E+01 -0.12378844710E+01  0.86363721228E+02  0.83011323454E+02 0.  0.
         23    2    1    2    0    0 -0.24734784114E+02  0.53183879362E+02  0.28844805081E+03  0.30843296335E+03  0.92131863628E+02 0.  0.
        -13    1    3    3    0    0 -0.25311924444E+02 -0.40599832967E+02 -0.12184070245E+02  0.49370958303E+02  0.00000000000E+00 0.  1.
         14    1    3    3    0    0  0.21192433766E+01  0.35272571969E+02  0.10946185774E+02  0.36992762925E+02  0.00000000000E+00 0. -1.
        -11    1    4    4    0    0 -0.14955694496E+02  0.77851036121E+02  0.17821819617E+03  0.19505430543E+03  0.00000000000E+00 0.  1.
         11    1    4    4    0    0 -0.97790896176E+01 -0.24667156759E+02  0.11022985465E+03  0.11337865792E+03  0.00000000000E+00 0. -1.
         -2    1    1    2    0  502  0.47927465181E+02 -0.47856618364E+02  0.40784588420E+03  0.41343144909E+03  0.00000000000E+00 0.  1.
<scales pt_clust_5="13000.00000" pt_clust_6="13000.00000" pt_clust_7="13000.00000" pt_clust_8="13000.00000" pt_clust_9="67.72959"></scales>
<clustering>
<clus scale="   67.730">  1  9  2 -1</clus>
<clus scale="   83.011">  5  6 -1 -1</clus>
<clus scale="   85.527">  2  5  1 -1</clus>
<clus scale="   92.132">  7  8 -1 -1</clus>
<clus scale="   67.730">  1  5  2 -1</clus>
</clustering>
</event>
<event>
 9    2  0.1665830E-004  0.1872215E+03  0.7546771E-02  0.1162072E+00
         21   -1    0    0  501  502  0.00000000000E+00  0.00000000000E+00  0.91729475456E+02  0.91729475456E+02  0.00000000000E+00 0.  1.
          2   -1    0    0  502    0 -0.00000000000E+00 -0.00000000000E+00 -0.82129940483E+03  0.82129940483E+03  0.00000000000E+00 0. -1.
         24    2    1    2    0    0 -0.32825622203E+02 -0.16531607959E+03 -0.54100531459E+03  0.57246889695E+03  0.81406141760E+02 0.  0.
         23    2    1    2    0    0  0.65548114499E+02  0.14161356292E+03 -0.22326594570E+03  0.28729880455E+03  0.91334353183E+02 0.  0.
        -13    1    3    3    0    0 -0.56840033017E+02 -0.12553021060E+03 -0.44427282605E+03  0.46515262774E+03  0.00000000000E+00 0.  1.
         14    1    3    3    0    0  0.24014410813E+02 -0.39785868995E+02 -0.96732488545E+02  0.10731626922E+03  0.00000000000E+00 0. -1.
        -13    1    4    4    0    0 -0.75864850405E+01  0.53498439315E+02 -0.12583949190E+03  0.13694968232E+03  0.00000000000E+00 0. -1.
         13    1    4    4    0    0  0.73134599540E+02  0.88115123601E+02 -0.97426453793E+02  0.15034912223E+03  0.00000000000E+00 0.  1.
          1    1    1    2  501    0 -0.32722492296E+02  0.23702516675E+02  0.34701330912E+02  0.53261178787E+02  0.00000000000E+00 0. -1.
<scales pt_clust_5="13000.00000" pt_clust_6="13000.00000" pt_clust_7="13000.00000" pt_clust_8="13000.00000" pt_clust_9="40.40508"></scales>
<clustering>
<clus scale="   40.405">  1  9  2 -1</clus>
<clus scale="   81.406">  5  6 -1 -1</clus>
<clus scale="   91.334">  7  8 -1 -1</clus>
<clus scale="  182.584">  2  5  1 -1</clus>
<clus scale="   40.405">  1  5  2 -1</clus>
</clustering>
</event>
<event>
 9    2  0.1665830E-004  0.1370234E+03  0.7546771E-02  0.1219771E+00
          2   -1    0    0  502    0 -0.00000000000E+00  0.00000000000E+00  0.90829409045E+02  0.90829409045E+02  0.00000000000E+00 0. -1.
         21   -1    0    0  501  502  0.00000000000E+00 -0.00000000000E+00 -0.46315218686E+03  0.46315218686E+03  0.00000000000E+00 0. -1.
         23    2    1    2    0    0  0.10732425089E+03  0.13123728092E+02 -0.20883228124E+02  0.14204626901E+03  0.89723498898E+02 0.  0.
         24    2    1    2    0    0 -0.90724977138E+02  0.62110444321E+02 -0.25246113572E+03  0.28650629110E+03  0.79123327917E+02 0.  0.
        -13    1    4    4    0    0 -0.46081234473E+02 -0.12181499177E+02 -0.10779457215E+03  0.11786237261E+03  0.00000000000E+00 0.  1.
         14    1    4    4    0    0 -0.44643742665E+02  0.74291943498E+02 -0.14466656357E+03  0.16864391849E+03  0.00000000000E+00 0. -1.
        -11    1    3    3    0    0  0.68764882226E+02  0.30888965255E+02  0.25108034139E+02  0.79455337017E+02  0.00000000000E+00 0. -1.
         11    1    3    3    0    0  0.38559368667E+02 -0.17765237163E+02 -0.45991262263E+02  0.62590931995E+02  0.00000000000E+00 0.  1.
          1    1    1    2  501    0 -0.16599273755E+02 -0.75234172413E+02 -0.98978413969E+02  0.12542903579E+03  0.00000000000E+00 0. -1.
<scales pt_clust_5="13000.00000" pt_clust_6="13000.00000" pt_clust_7="13000.00000" pt_clust_8="13000.00000" pt_clust_9="77.04360"></scales>
<clustering>
<clus scale="   77.044">  2  9  1 -1</clus>
<clus scale="   79.123">  5  6 -1 -1</clus>
<clus scale="   89.723">  7  8 -1 -1</clus>
<clus scale="  130.329">  2  5  1 -1</clus>
<clus scale="   77.044">  2  5  1 -1</clus>
</clustering>
</event>
<event>
 9    2  0.1665830E-004  0.8912406E+02  0.7546771E-02  0.1310055E+00
         -1   -1    0    0    0  501 -0.00000000000E+00  0.00000000000E+00  0.10532055928E+03  0.10532055928E+03  0.00000000000E+00 0.  1.
         21   -1    0    0  501  502  0.00000000000E+00 -0.00000000000E+00 -0.11185753681E+03  0.11185753681E+03  0.00000000000E+00 0. -1.
         23    2    1    2    0    0 -0.54801594986E+01  0.70223139857E+01  0.25836627070E+02  0.91914827598E+02  0.87757957999E+02 0.  0.
         24    2    1    2    0    0 -0.16446125623E+02 -0.31121392843E+02 -0.31404799439E+02  0.92667775477E+02  0.79762391160E+02 0.  0.
        -11    1    4    4    0    0 -0.16364059983E+02 -0.25113957708E+02  0.23093584751E+02  0.37839225515E+02  0.00000000000E+00 0.  1.
         12    1    4    4    0    0 -0.82065640326E-01 -0.60074351355E+01 -0.54498384190E+02  0.54828549963E+02  0.00000000000E+00 0. -1.
        -11    1    3    3    0    0 -0.14957881080E+02  0.34418805937E+02 -0.16179979440E+02  0.40867886454E+02  0.00000000000E+00 0.  1.
         11    1    3    3    0    0  0.94777215814E+01 -0.27396491951E+02  0.42016606510E+02  0.51046941145E+02  0.00000000000E+00 0. -1.
         -2    1    1    2    0  502  0.21926285122E+02  0.24099078858E+02 -0.96880516252E+00  0.32595493009E+02  0.00000000000E+00 0.  1.
<scales pt_clust_5="13000.00000" pt_clust_6="13000.00000" pt_clust_7="13000.00000" pt_clust_8="13000.00000" pt_clust_9="32.58111"></scales>
<clustering>
<clus scale="   32.581">  2  9  1 -1</clus>
<clus scale="   79.762">  5  6 -1 -1</clus>
<clus scale="   81.263">  2  5  1 -1</clus>
<clus scale="   87.758">  7  8 -1 -1</clus>
<clus scale="   32.581">  2  5  1 -1</clus>
</clustering>
</event>
<event>
 9    2  0.1665830E-004  0.1055607E+03  0.7546771E-02  0.1273869E+00
         21   -1    0    0  501  502  0.00000000000E+00  0.00000000000E+00  0.16744738858E+03  0.16744738858E+03  0.00000000000E+00 0. -1.
          2   -1    0    0  502    0 -0.00000000000E+00 -0.00000000000E+00 -0.13723680086E+03  0.13723680086E+03  0.00000000000E+00 0. -1.
         24    2    1    2    0    0 -0.30355789585E+02 -0.52523585734E+02 -0.75340050714E+02  0.12565607889E+03  0.80206769665E+02 0.  0.
         23    2    1    2    0    0  0.31660021116E+02  0.55050866611E+01  0.79547101356E+02  0.12528218777E+03  0.91297438748E+02 0.  0.
        -11    1    3    3    0    0 -0.57933216927E+02 -0.34027295071E+02 -0.53834545921E+02  0.86094557133E+02  0.00000000000E+00 0.  1.
         12    1    3    3    0    0  0.27577427343E+02 -0.18496290663E+02 -0.21505504794E+02  0.39561521755E+02  0.00000000000E+00 0. -1.
        -11    1    4    4    0    0  0.21186709854E+02  0.47916349633E+02  0.50873948664E+02  0.73027473523E+02  0.00000000000E+00 0.  1.
         11    1    4    4    0    0  0.10473311262E+02 -0.42411262972E+02  0.28673152692E+02  0.52254714246E+02  0.00000000000E+00 0. -1.
          1    1    1    2  501    0 -0.13042315310E+01  0.47018499072E+02  0.26003537075E+02  0.53745922778E+02  0.00000000000E+00 0. -1.
<scales pt_clust_5="13000.00000" pt_clust_6="13000.00000" pt_clust_7="13000.00000" pt_clust_8="13000.00000" pt_clust_9="47.03658"></scales>
<clustering>
<clus scale="   47.037">  1  9  2 -1</clus>
<clus scale="   80.207">  5  6 -1 -1</clus>
<clus scale="   91.297">  7  8 -1 -1</clus>
<clus scale="   96.130">  2  5  1 -1</clus>
<clus scale="   47.037">  1  5  2 -1</clus>
</clustering>
</event>
<event>
 9    2  0.1665830E-004  0.1162028E+03  0.7546771E-02  0.1253829E+00
          2   -1    0    0  502    0 -0.00000000000E+00  0.00000000000E+00  0.59612421552E+03  0.59612421552E+03  0.00000000000E+00 0. -1.
         21   -1    0    0  501  502  0.00000000000E+00 -0.00000000000E+00 -0.26125686925E+02  0.26125686925E+02  0.00000000000E+00 0.  1.
         24    2    1    2    0    0 -0.37447366593E+02 -0.64429408727E+02  0.30355622448E+03  0.32256696520E+03  0.79684450430E+02 0.  0.
         23    2    1    2    0    0  0.15422764559E+02  0.65073045891E+02  0.20631665988E+03  0.23564708434E+03  0.92144567094E+02 0.  0.
        -13    1    3    3    0    0 -0.24909119380E+02 -0.39822973981E+02  0.54348899170E+02  0.71834088885E+02  0.00000000000E+00 0.  1.
         14    1    3    3    0    0 -0.12538247213E+02 -0.24606434746E+02  0.24920732531E+03  0.25073287631E+03  0.00000000000E+00 0. -1.
        -13    1    4    4    0    0 -0.33550904542E+02  0.45079497977E+01  0.84844673279E+02  0.91348800708E+02  0.00000000000E+00 0.  1.
         13    1    4    4    0    0  0.48973669101E+02  0.60565096093E+02  0.12147198660E+03  0.14429828363E+03  0.00000000000E+00 0. -1.
          1    1    1    2  501    0  0.22024602034E+02 -0.64363716370E+00  0.60125644234E+02  0.64035852912E+02  0.00000000000E+00 0. -1.
<scales pt_clust_5="13000.00000" pt_clust_6="13000.00000" pt_clust_7="13000.00000" pt_clust_8="13000.00000" pt_clust_9="22.03402"></scales>
<clustering>
<clus scale="   22.034">  2  9  1 -1</clus>
<clus scale="   79.684">  5  6 -1 -1</clus>
<clus scale="   92.145">  7  8 -1 -1</clus>
<clus scale="  106.593">  1  5  2 -1</clus>
<clus scale="   22.034">  2  5  1 -1</clus>
</clustering>
</event>
<event>
 9    2  0.1665830E-004  0.1634508E+03  0.7546771E-02  0.1209517E+00
         21   -1    0    0  501  502  0.00000000000E+00  0.00000000000E+00  0.46691278322E+02  0.46691278322E+02  0.00000000000E+00 0. -1.
          2   -1    0    0  502    0 -0.00000000000E+00 -0.00000000000E+00 -0.12668721285E+04  0.12668721285E+04  0.00000000000E+00 0. -1.
         24    2    1    2    0    0  0.44373857108E+02 -0.26181475489E+02 -0.59656297099E+02  0.11253003943E+03  0.80309570649E+02 0.  0.
         23    2    1    2    0    0  0.39243165953E+02 -0.10009688263E+03 -0.75572095878E+03  0.76882510714E+03  0.91752197993E+02 0.  0.
        -13    1    3    3    0    0  0.37826013511E+02 -0.16957508955E+02 -0.79517285076E+02  0.89673647377E+02  0.00000000000E+00 0.  1.
         14    1    3    3    0    0  0.65478435979E+01 -0.92239665336E+01  0.19860987977E+02  0.22856392056E+02  0.00000000000E+00 0. -1.
        -13    1    4    4    0    0  0.15573028094E+02  0.15911910329E+02 -0.94492487611E+02  0.97080061337E+02  0.00000000000E+00 0.  1.
         13    1    4    4    0    0  0.23670137858E+02 -0.11600879296E+03 -0.66122847117E+03  0.67174504580E+03  0.00000000000E+00 0. -1.
          1    1    1    2  501    0 -0.83617023061E+02  0.12627835812E+03 -0.40480359433E+03  0.43220826029E+03  0.00000000000E+00 0. -1.
<scales pt_clust_5="13000.00000" pt_clust_6="13000.00000" pt_clust_7="13000.00000" pt_clust_8="13000.00000" pt_clust_9="135.26901"></scales>
<clustering>
<clus scale="   80.310">  5  6 -1 -1</clus>
<clus scale="   91.752">  7  8 -1 -1</clus>
<clus scale="   95.416">  2  5  1 -1</clus>
<clus scale="  135.269">  1  9  2 -1</clus>
<clus scale="  135.269">  1  5  2 -1</clus>
</clustering>
</event>
<event>
 9    2  0.1665830E-004  0.1012398E+03  0.7546771E-02  0.1281599E+00
         21   -1    0    0  501  502  0.00000000000E+00  0.00000000000E+00  0.60810414421E+02  0.60810414421E+02  0.00000000000E+00 0.  1.
          4   -1    0    0  502    0 -0.00000000000E+00 -0.00000000000E+00 -0.37243208796E+03  0.37243208796E+03  0.00000000000E+00 0. -1.
         24    2    1    2    0    0 -0.21221545807E+02 -0.49789712289E+02 -0.27312829967E+03  0.29005203322E+03  0.81251119609E+02 0.  0.
         23    2    1    2    0    0 -0.51366208467E+01  0.28374794591E+02 -0.51020768458E+02  0.10699257882E+03  0.89514128865E+02 0.  0.
        -13    1    3    3    0    0 -0.15302849260E+02  0.16640338582E+02 -0.13244758154E+03  0.13436308987E+03  0.00000000000E+00 0.  1.
         14    1    3    3    0    0 -0.59186965468E+01 -0.66430050871E+02 -0.14068071813E+03  0.15568894335E+03  0.00000000000E+00 0. -1.
        -11    1    4    4    0    0  0.91251931455E+01 -0.20223824447E+02  0.12723565309E+02  0.25576577946E+02  0.00000000000E+00 0. -1.
         11    1    4    4    0    0 -0.14261813992E+02  0.48598619039E+02 -0.63744333767E+02  0.81416000873E+02  0.00000000000E+00 0.  1.
          3    1    1    2  501    0  0.26358166654E+02  0.21414917698E+02  0.12527394597E+02  0.36197890336E+02  0.00000000000E+00 0. -1.
<scales pt_clust_5="13000.00000" pt_clust_6="13000.00000" pt_clust_7="13000.00000" pt_clust_8="13000.00000" pt_clust_9="33.96103"></scales>
<clustering>
<clus scale="   33.961">  1  9  2 -1</clus>
<clus scale="   81.251">  5  6 -1 -1</clus>
<clus scale="   89.514">  7  8 -1 -1</clus>
<clus scale="   94.013">  2  5  1 -1</clus>
<clus scale="   33.961">  1  5  2 -1</clus>
</clustering>
</event>
<event>
 9    2  0.1665830E-004  0.1098532E+03  0.7546771E-02  0.1266609E+00
          2   -1    0    0  502    0 -0.00000000000E+00  0.00000000000E+00  0.61299765514E+03  0.61299765514E+03  0.00000000000E+00 0. -1.
         21   -1    0    0  501  502  0.00000000000E+00 -0.00000000000E+00 -0.23655883156E+03  0.23655883156E+03  0.00000000000E+00 0. -1.
         23    2    1    2    0    0  0.28587949124E+02  0.36799454615E+02  0.40529736962E+03  0.41880856630E+03  0.94674107821E+02 0.  0.
         24    2    1    2    0    0 -0.53357397157E+02 -0.55524515771E+02  0.18423243289E+03  0.21540651990E+03  0.80798488867E+02 0.  0.
        -11    1    4    4    0    0 -0.63692460925E+02 -0.11135916464E+02  0.91019068853E+02  0.11164770087E+03  0.00000000000E+00 0.  1.
         12    1    4    4    0    0  0.10335063768E+02 -0.44388599307E+02  0.93213364042E+02  0.10375881903E+03  0.00000000000E+00 0. -1.
        -13    1    3    3    0    0  0.39394798404E+01  0.65307278213E+02  0.21178321402E+03  0.22165894935E+03  0.00000000000E+00 0.  1.
         13    1    3    3    0    0  0.24648469284E+02 -0.28507823597E+02  0.19351415560E+03  0.19714961694E+03  0.00000000000E+00 0. -1.
          1    1    1    2  501    0  0.24769448032E+02  0.18725061156E+02 -0.21309097893E+03  0.21534140051E+03  0.00000000000E+00 0. -1.
<scales pt_clust_5="13000.00000" pt_clust_6="13000.00000" pt_clust_7="13000.00000" pt_clust_8="13000.00000" pt_clust_9="31.05082"></scales>
<clustering>
<clus scale="   31.051">  2  9  1 -1</clus>
<clus scale="   80.798">  5  6 -1 -1</clus>
<clus scale="   94.674">  7  8 -1 -1</clus>
<clus scale="   98.147">  2  5  1 -1</clus>
<clus scale="   31.051">  2  5  1 -1</clus>
</clustering>
</event>
<event>
 9    2  0.1665830E-004  0.1343192E+03  0.7546771E-02  0.1239753E+00
         21   -1    0    0  501  502  0.00000000000E+00  0.00000000000E+00  0.85544964705E+02  0.85544964705E+02  0.00000000000E+00 0. -1.
          2   -1    0    0  502    0 -0.00000000000E+00 -0.00000000000E+00 -0.58763606840E+03  0.58763606840E+03  0.00000000000E+00 0. -1.
         24    2    1    2    0    0 -0.44336840032E+02  0.69149202161E+01 -0.40735914494E+03  0.41752344890E+03  0.79817203122E+02 0.  0.
         23    2    1    2    0    0 -0.67299630421E+02  0.31954658576E+02 -0.61718754697E+02  0.13292446996E+03  0.91155743496E+02 0.  0.
        -11    1    3    3    0    0 -0.37093207889E+02 -0.16172130794E+02 -0.83776063444E+02  0.93036942621E+02  0.00000000000E+00 0.  1.
         12    1    3    3    0    0 -0.72436321427E+01  0.23087051010E+02 -0.32358308149E+03  0.32448650628E+03  0.00000000000E+00 0. -1.
        -13    1    4    4    0    0  0.38750273057E+01  0.42362179289E+02 -0.38400715633E+02  0.57307809519E+02  0.00000000000E+00 0.  1.
         13    1    4    4    0    0 -0.71174657727E+02 -0.10407520713E+02 -0.23318039063E+02  0.75616660437E+02  0.00000000000E+00 0. -1.
          1    1    1    2  501    0  0.11163647045E+03 -0.38869578793E+02 -0.33013204066E+02  0.12273311425E+03  0.00000000000E+00 0. -1.
<scales pt_clust_5="13000.00000" pt_clust_6="13000.00000" pt_clust_7="13000.00000" pt_clust_8="13000.00000" pt_clust_9="98.65240"></scales>
<clustering>
<clus scale="   79.817">  5  6 -1 -1</clus>
<clus scale="   91.156">  7  8 -1 -1</clus>
<clus scale="   91.566">  2  5  1 -1</clus>
<clus scale="   98.652">  1  9  2 -1</clus>
<clus scale="   98.652">  1  5  2 -1</clus>
</clustering>
</event>
<event>
 9    2  0.1665830E-004  0.9117101E+02  0.7546771E-02  0.1305850E+00
         -3   -1    0    0    0  501 -0.00000000000E+00  0.00000000000E+00  0.21458165652E+03  0.21458165652E+03  0.00000000000E+00 0.  1.
         21   -1    0    0  501  502  0.00000000000E+00 -0.00000000000E+00 -0.11874254695E+03  0.11874254695E+03  0.00000000000E+00 0. -1.
         23    2    1    2    0    0  0.18235787891E+01  0.80279713408E+01  0.16149981210E+03  0.18549992462E+03  0.90885966808E+02 0.  0.
         24    2    1    2    0    0  0.33678455809E+02  0.23599689199E+01 -0.66898943555E+02  0.11081296971E+03  0.81634782834E+02 0.  0.
        -11    1    4    4    0    0  0.49423370729E+02 -0.78386772176E+01 -0.10171801738E+02  0.51064468912E+02  0.00000000000E+00 0.  1.
         12    1    4    4    0    0 -0.15744914920E+02  0.10198646137E+02 -0.56727141818E+02  0.59748500798E+02  0.00000000000E+00 0. -1.
        -13    1    3    3    0    0 -0.30902361214E+02 -0.93453229864E+00  0.14407785333E+03  0.14735758243E+03  0.00000000000E+00 0.  1.
         13    1    3    3    0    0  0.32725940003E+02  0.89625036395E+01  0.17421958771E+02  0.38142342193E+02  0.00000000000E+00 0. -1.
         -4    1    1    2    0  502 -0.35502034598E+02 -0.10387940261E+02  0.12382410273E+01  0.37011309141E+02  0.00000000000E+00 0.  1.
<scales pt_clust_5="13000.00000" pt_clust_6="13000.00000" pt_clust_7="13000.00000" pt_clust_8="13000.00000" pt_clust_9="36.99059"></scales>
<clustering>
<clus scale="   36.991">  2  9  1 -1</clus>
<clus scale="   81.635">  5  6 -1 -1</clus>
<clus scale="   81.952">  2  5  1 -1</clus>
<clus scale="   90.886">  7  8 -1 -1</clus>
<clus scale="   36.991">  2  5  1 -1</clus>
</clustering>
</event>
<event>
 9    2  0.1665830E-004  0.2880306E+03  0.7546771E-02  0.1135190E+00
          2   -1    0    0  502    0 -0.00000000000E+00  0.00000000000E+00  0.49979783295E+03  0.49979783295E+03  0.00000000000E+00 0. -1.
         21   -1    0    0  501  502  0.00000000000E+00 -0.00000000000E+00 -0.25378674330E+03  0.25378674330E+03  0.00000000000E+00 0. -1.
         24    2    1    2    0    0 -0.27469950353E+02 -0.43749209919E+02 -0.47094183235E+02  0.10599816020E+03  0.79681593423E+02 0.  0.
         23    2    1    2    0    0 -0.20108614429E+03  0.19100178235E+03  0.79688218771E+02  0.30194491467E+03  0.88899949348E+02 0.  0.
        -11    1    3    3    0    0 -0.41109214843E+02 -0.63194996459E+00 -0.57213766370E+00  0.41118052572E+02  0.00000000000E+00 0.  1.
         12    1    3    3    0    0  0.13639264490E+02 -0.43117259955E+02 -0.46522045571E+02  0.64880107629E+02  0.00000000000E+00 0. -1.
        -11    1    4    4    0    0 -0.10143651813E+03  0.44772059067E+02  0.84871572463E+01  0.11120223164E+03  0.00000000000E+00 0.  1.
         11    1    4    4    0    0 -0.99649626165E+02  0.14622972328E+03  0.71201061525E+02  0.19074268303E+03  0.00000000000E+00 0. -1.
          1    1    1    2  501    0  0.22855609465E+03 -0.14725257243E+03  0.21341705411E+03  0.34564150138E+03  0.00000000000E+00 0. -1.
<scales pt_clust_5="13000.00000" pt_clust_6="13000.00000" pt_clust_7="13000.00000" pt_clust_8="13000.00000" pt_clust_9="273.96802"></scales>
<clustering>
<clus scale="   79.682">  5  6 -1 -1</clus>
<clus scale="   88.900">  7  8 -1 -1</clus>
<clus scale="   94.962">  1  5  2 -1</clus>
<clus scale="  273.968">  2  9  1 -1</clus>
<clus scale="  273.968">  2  5  1 -1</clus>
</clustering>
</event>
<event>
 9    2  0.1665830E-004  0.1269291E+03  0.7546771E-02  0.1236513E+00
         21   -1    0    0  501  502  0.00000000000E+00  0.00000000000E+00  0.10500768026E+03  0.10500768026E+03  0.00000000000E+00 0. -1.
          4   -1    0    0  502    0 -0.00000000000E+00 -0.00000000000E+00 -0.31102060518E+03  0.31102060518E+03  0.00000000000E+00 0. -1.
         24    2    1    2    0    0  0.88963026251E+02 -0.36182347440E+02 -0.22110720525E+03  0.25418428190E+03  0.80608130162E+02 0.  0.
         23    2    1    2    0    0 -0.38551010587E+02  0.23165364462E+02 -0.52636206424E+01  0.10594000278E+03  0.95774547553E+02 0.  0.
        -11    1    3    3    0    0  0.22127403838E+02 -0.41126625571E+02 -0.14713015571E+03  0.15436419290E+03  0.00000000000E+00 0.  1.
         12    1    3    3    0    0  0.66835622413E+02  0.49442781310E+01 -0.73977049535E+02  0.99820088998E+02  0.00000000000E+00 0. -1.
        -13    1    4    4    0    0  0.72490265290E+01 -0.27761402997E+02  0.17686057105E+02  0.33705199864E+02  0.00000000000E+00 0. -1.
         13    1    4    4    0    0 -0.45800037116E+02  0.50926767459E+02 -0.22949677747E+02  0.72234802916E+02  0.00000000000E+00 0.  1.
          3    1    1    2  501    0 -0.50412015665E+02  0.13016982977E+02  0.20357900963E+02  0.55904000759E+02  0.00000000000E+00 0. -1.
<scales pt_clust_5="13000.00000" pt_clust_6="13000.00000" pt_clust_7="13000.00000" pt_clust_8="13000.00000" pt_clust_9="52.06547"></scales>
<clustering>
<clus scale="   52.065">  1  9  2 -1</clus>
<clus scale="   80.608">  5  6 -1 -1</clus>
<clus scale="   95.775">  7  8 -1 -1</clus>
<clus scale="  115.913">  2  5  1 -1</clus>
<clus scale="   52.065">  1  5  2 -1</clus>
</clustering>
</event>
<event>
 9    2  0.1665830E-004  0.4978006E+03  0.7546771E-02  0.1014355E+00
          2   -1    0    0  502    0 -0.00000000000E+00  0.00000000000E+00  0.17849709020E+04  0.17849709020E+04  0.00000000000E+00 0. -1.
         21   -1    0    0  501  502  0.00000000000E+00 -0.00000000000E+00 -0.15360663234E+03  0.15360663234E+03  0.00000000000E+00 0. -1.
         24    2    1    2    0    0 -0.47952230450E+01  0.21735793675E+03  0.16409024638E+03  0.28095656479E+03  0.68873184222E+02 0.  0.
         23    2    1    2    0    0  0.22944723269E+01  0.24844042585E+03  0.29511131734E+03  0.39629635726E+03  0.90731490458E+02 0.  0.
        -11    1    3    3    0    0 -0.14269987539E+02  0.24460075362E+02  0.47680244027E+02  0.55455689533E+02  0.00000000000E+00 0.  1.
         12    1    3    3    0    0  0.94747644937E+01  0.19289786139E+03  0.11641000235E+03  0.22550087525E+03  0.00000000000E+00 0. -1.
        -11    1    4    4    0    0  0.36702686566E+02  0.44728552859E+02  0.67542282722E+02  0.88936441335E+02  0.00000000000E+00 0.  1.
         11    1    4    4    0    0 -0.34408214239E+02  0.20371187299E+03  0.22756903461E+03  0.30735991593E+03  0.00000000000E+00 0. -1.
          1    1    1    2  501    0  0.25007507181E+01 -0.46579836261E+03  0.11721627060E+04  0.12613246123E+04  0.00000000000E+00 0. -1.
<scales pt_clust_5="13000.00000" pt_clust_6="13000.00000" pt_clust_7="13000.00000" pt_clust_8="13000.00000" pt_clust_9="465.80531"></scales>
<clustering>
<clus scale="   68.873">  5  6 -1 -1</clus>
<clus scale="   90.731">  7  8 -1 -1</clus>
<clus scale="  112.122">  5  7 -1 -1</clus>
<clus scale="  465.805">  2  9  1 -1</clus>
<clus scale="  465.805">  2  5  1 -1</clus>
</clustering>
</event>
<event>
 9    2  0.1665830E-004  0.9690794E+02  0.7546771E-02  0.1292290E+00
          2   -1    0    0  502    0 -0.00000000000E+00  0.00000000000E+00  0.14713443977E+03  0.14713443977E+03  0.00000000000E+00 0. -1.
         21   -1    0    0  501  502  0.00000000000E+00 -0.00000000000E+00 -0.17437656777E+03  0.17437656777E+03  0.00000000000E+00 0.  1.
         24    2    1    2    0    0 -0.18240910648E+02  0.52315553155E+01  0.38962414841E+02  0.91974932363E+02  0.81124709064E+02 0.  0.
         23    2    1    2    0    0  0.10101376750E+02 -0.79147360596E+02  0.11962602834E+02  0.12164770256E+03  0.91042392159E+02 0.  0.
        -13    1    3    3    0    0  0.31247110003E+02  0.91406631737E+01  0.22881314508E+02  0.39793066738E+02  0.00000000000E+00 0.  1.
         14    1    3    3    0    0 -0.49488020651E+02 -0.39091078582E+01  0.16081100333E+02  0.52181865625E+02  0.00000000000E+00 0. -1.
        -13    1    4    4    0    0  0.87696072508E+01 -0.37175971807E+02 -0.39686759654E+02  0.55081737291E+02  0.00000000000E+00 0.  1.
         13    1    4    4    0    0  0.13317694988E+01 -0.41971388789E+02  0.51649362488E+02  0.66565965269E+02  0.00000000000E+00 0. -1.
          1    1    1    2  501    0  0.81395338979E+01  0.73915805281E+02 -0.78167145678E+02  0.10788837262E+03  0.00000000000E+00 0. -1.
<scales pt_clust_5="13000.00000" pt_clust_6="13000.00000" pt_clust_7="13000.00000" pt_clust_8="13000.00000" pt_clust_9="74.36261"></scales>
<clustering>
<clus scale="   74.363">  2  9  1 -1</clus>
<clus scale="   81.125">  5  6 -1 -1</clus>
<clus scale="   87.656">  1  5  2 -1</clus>
<clus scale="   91.042">  7  8 -1 -1</clus>
<clus scale="   74.363">  2  5  1 -1</clus>
</clustering>
</event>
<event>
 9    2  0.1665830E-004  0.9195739E+02  0.7546771E-02  0.1303412E+00
         21   -1    0    0  501  502  0.00000000000E+00  0.00000000000E+00  0.13369716806E+03  0.13369716806E+03  0.00000000000E+00 0. -1.
          2   -1    0    0  502    0 -0.00000000000E+00 -0.00000000000E+00 -0.58490559703E+03  0.58490559703E+03  0.00000000000E+00 0. -1.
         24    2    1    2    0    0  0.13455261708E+02 -0.13940909646E+02 -0.42567907484E+03  0.43389880257E+03  0.81793050329E+02 0.  0.
         23    2    1    2    0    0  0.20043979312E+02  0.21928649401E+02 -0.13769190936E+03  0.16737348083E+03  0.90400184796E+02 0.  0.
        -11    1    3    3    0    0  0.31208800500E+02 -0.33685714000E+02 -0.14818072349E+03  0.15513298608E+03  0.00000000000E+00 0.  1.
         12    1    3    3    0    0 -0.17753538792E+02  0.19744804355E+02 -0.27749835135E+03  0.27876581648E+03  0.00000000000E+00 0. -1.
        -13    1    4    4    0    0  0.19562312096E+02 -0.33997080985E+02 -0.57645365678E+02  0.69724269477E+02  0.00000000000E+00 0.  1.
         13    1    4    4    0    0  0.48166721579E+00  0.55925730386E+02 -0.80046543686E+02  0.97649211357E+02  0.00000000000E+00 0. -1.
          1    1    1    2  501    0 -0.33499241019E+02 -0.79877397559E+01  0.11216255523E+03  0.11733048168E+03  0.00000000000E+00 0. -1.
<scales pt_clust_5="13000.00000" pt_clust_6="13000.00000" pt_clust_7="13000.00000" pt_clust_8="13000.00000" pt_clust_9="34.43840"></scales>
<clustering>
<clus scale="   34.438">  1  9  2 -1</clus>
<clus scale="   81.793">  5  6 -1 -1</clus>
<clus scale="   83.511">  2  5  1 -1</clus>
<clus scale="   90.400">  7  8 -1 -1</clus>
<clus scale="   34.438">  1  5  2 -1</clus>
</clustering>
</event>
<event>
 9    2  0.1665830E-004  0.1532287E+03  0.7546771E-02  0.1198606E+00
          2   -1    0    0  502    0 -0.00000000000E+00  0.00000000000E+00  0.10714623087E+04  0.10714623087E+04  0.00000000000E+00 0. -1.
         21   -1    0    0  501  502  0.00000000000E+00 -0.00000000000E+00 -0.46385914238E+02  0.46385914238E+02  0.00000000000E+00 0. -1.
         23    2    1    2    0    0 -0.66323852606E+02  0.53548503070E+02  0.25806925576E+03  0.28683684391E+03  0.91702446244E+02 0.  0.
         24    2    1    2    0    0  0.12275450406E+03 -0.14260294291E+03  0.40101350769E+03  0.45013548111E+03  0.80036556723E+02 0.  0.
        -11    1    4    4    0    0 -0.72315352467E+01 -0.34528508049E+02  0.62873140690E+02  0.72093999683E+02  0.00000000000E+00 0.  1.
         12    1    4    4    0    0  0.12998603931E+03 -0.10807443486E+03  0.33814036700E+03  0.37804148143E+03  0.00000000000E+00 0. -1.
        -11    1    3    3    0    0 -0.53620763173E+02  0.12500233149E+02  0.22759104507E+03  0.23415619973E+03  0.00000000000E+00 0.  1.
         11    1    3    3    0    0 -0.12703089432E+02  0.41048269921E+02  0.30478210690E+02  0.52680644183E+02  0.00000000000E+00 0. -1.
          1    1    1    2  501    0 -0.56430651459E+02  0.89054439836E+02  0.36599363105E+03  0.38087589796E+03  0.00000000000E+00 0. -1.
<scales pt_clust_5="13000.00000" pt_clust_6="13000.00000" pt_clust_7="13000.00000" pt_clust_8="13000.00000" pt_clust_9="105.42828"></scales>
<clustering>
<clus scale="   80.037">  5  6 -1 -1</clus>
<clus scale="   91.702">  7  8 -1 -1</clus>
<clus scale="  105.428">  2  9  1 -1</clus>
<clus scale="  146.545">  2  5  1 -1</clus>
<clus scale="  105.428">  2  5  1 -1</clus>
</clustering>
</event>
<event>
 9    2  0.1665830E-004  0.2882069E+03  0.7546771E-02  0.1116418E+00
         21   -1    0    0  501  502  0.00000000000E+00  0.00000000000E+00  0.15781584601E+03  0.15781584601E+03  0.00000000000E+00 0.  1.
          2   -1    0    0  502    0 -0.00000000000E+00 -0.00000000000E+00 -0.88771408785E+03  0.88771408785E+03  0.00000000000E+00 0. -1.
         23    2    1    2    0    0 -0.94809268807E+02  0.63354792030E+02 -0.17078625092E+03  0.22786031930E+03  0.98740845058E+02 0.  0.
         24    2    1    2    0    0  0.25801935966E+03 -0.18855374096E+03 -0.15518038838E+03  0.36437826222E+03  0.81018898142E+02 0.  0.
        -13    1    4    4    0    0  0.12251301141E+03 -0.13833595459E+03 -0.95773040542E+02  0.20813156799E+03  0.00000000000E+00 0.  1.
         14    1    4    4    0    0  0.13550634825E+03 -0.50217786364E+02 -0.59407347835E+02  0.15624669424E+03  0.00000000000E+00 0. -1.
        -11    1    3    3    0    0 -0.57166032204E+02 -0.12854266878E+02 -0.36812827313E+02  0.69198061170E+02  0.00000000000E+00 0. -1.
         11    1    3    3    0    0 -0.37643236603E+02  0.76209058908E+02 -0.13397342360E+03  0.15866225813E+03  0.00000000000E+00 0.  1.
          1    1    1    2  501    0 -0.16321009085E+03  0.12519894893E+03 -0.40393160254E+03  0.45329135234E+03  0.00000000000E+00 0. -1.
<scales pt_clust_5="13000.00000" pt_clust_6="13000.00000" pt_clust_7="13000.00000" pt_clust_8="13000.00000" pt_clust_9="276.58499"></scales>
<clustering>
<clus scale="   81.019">  5  6 -1 -1</clus>
<clus scale="   98.741">  7  8 -1 -1</clus>
<clus scale="  150.839">  2  7  1 -1</clus>
<clus scale="  276.585">  1  9  2 -1</clus>
<clus scale="  276.585">  1  5  2 -1</clus>
</clustering>
</event>
<event>
 9    2  0.1665830E-004  0.9344900E+02  0.7546771E-02  0.1303422E+00
         -1   -1    0    0    0  501 -0.00000000000E+00  0.00000000000E+00  0.73852933265E+02  0.73852933265E+02  0.00000000000E+00 0.  1.
         21   -1    0    0  501  502  0.00000000000E+00 -0.00000000000E+00 -0.18145570489E+03  0.18145570489E+03  0.00000000000E+00 0.  1.
         24    2    1    2    0    0  0.63962935533E+01 -0.12558570764E+02  0.17056672033E+02  0.82064657617E+02  0.79025614190E+02 0.  0.
         23    2    1    2    0    0  0.53853702224E+01 -0.86217200368E+01 -0.11190751267E+03  0.14585741333E+03  0.92993318913E+02 0.  0.
        -11    1    3    3    0    0 -0.10786708258E+02 -0.19882393764E+02  0.43886630399E+02  0.49373059300E+02  0.00000000000E+00 0.  1.
         12    1    3    3    0    0  0.17183001811E+02  0.73238230001E+01 -0.26829958366E+02  0.32691598317E+02  0.00000000000E+00 0. -1.
        -13    1    4    4    0    0  0.36092604460E+02 -0.28212738313E+02 -0.26301067988E+02  0.52824055857E+02  0.00000000000E+00 0. -1.
         13    1    4    4    0    0 -0.30707234238E+02  0.19591018276E+02 -0.85606444682E+02  0.93033357473E+02  0.00000000000E+00 0.  1.
         -2    1    1    2    0  502 -0.11781663776E+02  0.21180290801E+02 -0.12751930991E+02  0.27386567213E+02  0.00000000000E+00 0.  1.
<scales pt_clust_5="13000.00000" pt_clust_6="13000.00000" pt_clust_7="13000.00000" pt_clust_8="13000.00000" pt_clust_9="24.23659"></scales>
<clustering>
<clus scale="   24.237">  2  9  1 -1</clus>
<clus scale="   79.026">  5  6 -1 -1</clus>
<clus scale="   79.561">  1  5  2 -1</clus>
<clus scale="   92.993">  7  8 -1 -1</clus>
<clus scale="   24.237">  2  5  1 -1</clus>
</clustering>
</event>
<event>
 9    2  0.1665830E-004  0.1091322E+03  0.7546771E-02  0.1266453E+00
         21   -1    0    0  501  502  0.00000000000E+00  0.00000000000E+00  0.38723585147E+02  0.38723585147E+02  0.00000000000E+00 0.  1.
          2   -1    0    0  502    0 -0.00000000000E+00 -0.00000000000E+00 -0.40037038273E+03  0.40037038273E+03  0.00000000000E+00 0. -1.
         23    2    1    2    0    0 -0.20921773712E+02 -0.48597762667E+02 -0.16635924425E+03  0.19687416612E+03  0.91019646155E+02 0.  0.
         24    2    1    2    0    0  0.49029138223E+02  0.48711347937E+02 -0.18314229960E+03  0.21160046099E+03  0.80355468843E+02 0.  0.
        -11    1    4    4    0    0 -0.22003849171E+02  0.68776194801E+01 -0.49001343354E+02  0.54153510307E+02  0.00000000000E+00 0.  1.
         12    1    4    4    0    0  0.71032987394E+02  0.41833728457E+02 -0.13414095625E+03  0.15744695068E+03  0.00000000000E+00 0. -1.
        -11    1    3    3    0    0 -0.29600313006E+02  0.36784762586E+01 -0.94979688738E+01  0.31303691961E+02  0.00000000000E+00 0.  1.
         11    1    3    3    0    0  0.86785392940E+01 -0.52276238926E+02 -0.15686127537E+03  0.16557047415E+03  0.00000000000E+00 0. -1.
          1    1    1    2  501    0 -0.28107364511E+02 -0.11358526987E+00 -0.12145253738E+02  0.30619340779E+02  0.00000000000E+00 0. -1.
<scales pt_clust_5="13000.00000" pt_clust_6="13000.00000" pt_clust_7="13000.00000" pt_clust_8="13000.00000" pt_clust_9="28.10759"></scales>
<clustering>
<clus scale="   28.108">  1  9  2 -1</clus>
<clus scale="   80.355">  5  6 -1 -1</clus>
<clus scale="   91.020">  7  8 -1 -1</clus>
<clus scale="  100.410">  1  5  2 -1</clus>
<clus scale="   28.108">  1  5  2 -1</clus>
</clustering>
</event>
<event>
 9    2  0.1665830E-004  0.1392629E+03  0.7546771E-02  0.1231495E+00
          2   -1    0    0  502    0 -0.00000000000E+00  0.00000000000E+00  0.70024766498E+03  0.70024766498E+03  0.00000000000E+00 0. -1.
         21   -1    0    0  501  502  0.00000000000E+00 -0.00000000000E+00 -0.45990643457E+02  0.45990643457E+02  0.00000000000E+00 0. -1.
         24    2    1    2    0    0 -0.26112396893E+02 -0.47637872586E+02  0.25199603450E+03  0.27012002874E+03  0.80694512481E+02 0.  0.
         23    2    1    2    0    0  0.11696855641E+03  0.72615684712E+01  0.18401266643E+03  0.23629038912E+03  0.90764051370E+02 0.  0.
        -11    1    3    3    0    0 -0.36513157913E+02 -0.45703437523E+01  0.43538510594E+02  0.57006145700E+02  0.00000000000E+00 0.  1.
         12    1    3    3    0    0  0.10400761020E+02 -0.43067528834E+02  0.20845752391E+03  0.21311388304E+03  0.00000000000E+00 0. -1.
        -11    1    4    4    0    0  0.19297446743E+02  0.40555631224E+02  0.51340213897E+02  0.68212669189E+02  0.00000000000E+00 0.  1.
         11    1    4    4    0    0  0.97671109667E+02 -0.33294062753E+02  0.13267245253E+03  0.16807771994E+03  0.00000000000E+00 0. -1.
          1    1    1    2  501    0 -0.90856159517E+02  0.40376304115E+02  0.21824832059E+03  0.23982789057E+03  0.00000000000E+00 0. -1.
<scales pt_clust_5="13000.00000" pt_clust_6="13000.00000" pt_clust_7="13000.00000" pt_clust_8="13000.00000" pt_clust_9="105.62228"></scales>
<clustering>
<clus scale="   80.695">  5  6 -1 -1</clus>
<clus scale="   90.764">  7  8 -1 -1</clus>
<clus scale="   97.277">  1  5  2 -1</clus>
<clus scale="  105.622">  2  9  1 -1</clus>
<clus scale="  105.622">  2  5  1 -1</clus>
</clustering>
</event>
<event>
 9    2  0.1665830E-004  0.9714162E+02  0.7546771E-02  0.1292192E+00
         -1   -1    0    0    0  501 -0.00000000000E+00  0.00000000000E+00  0.62094798882E+02  0.62094798882E+02  0.00000000000E+00 0.  1.
         21   -1    0    0  501  502  0.00000000000E+00 -0.00000000000E+00 -0.23901005375E+03  0.23901005375E+03  0.00000000000E+00 0. -1.
         24    2    1    2    0    0 -0.43013891466E+01  0.34417642499E+02 -0.21971359518E+01  0.88306753039E+02  0.81179918466E+02 0.  0.
         23    2    1    2    0    0 -0.17705237217E+02 -0.22543602655E+02 -0.14453633258E+03  0.17360339775E+03  0.91791605437E+02 0.  0.
        -11    1    3    3    0    0 -0.26534730062E+02  0.46531237004E+02  0.17366165534E+02  0.56310137826E+02  0.00000000000E+00 0.  1.
         12    1    3    3    0    0  0.22233340915E+02 -0.12113594505E+02 -0.19563301486E+02  0.31996615213E+02  0.00000000000E+00 0. -1.
        -13    1    4    4    0    0  0.31574471155E+02  0.13071805111E+02 -0.65570088377E+02  0.73940894012E+02  0.00000000000E+00 0.  1.
         13    1    4    4    0    0 -0.49279708371E+02 -0.35615407766E+02 -0.78966244202E+02  0.99662503736E+02  0.00000000000E+00 0. -1.
         -2    1    1    2    0  502  0.22006626363E+02 -0.11874039844E+02 -0.30181786333E+02  0.39194701840E+02  0.00000000000E+00 0.  1.
<scales pt_clust_5="13000.00000" pt_clust_6="13000.00000" pt_clust_7="13000.00000" pt_clust_8="13000.00000" pt_clust_9="25.00569"></scales>
<clustering>
<clus scale="   25.006">  2  9  1 -1</clus>
<clus scale="   81.180">  5  6 -1 -1</clus>
<clus scale="   87.184">  1  5  2 -1</clus>
<clus scale="   91.792">  7  8 -1 -1</clus>
<clus scale="   25.006">  2  5  1 -1</clus>
</clustering>
</event>
<event>
 9    2  0.1665830E-004  0.9034784E+02  0.7546771E-02  0.1317909E+00
          4   -1    0    0  502    0 -0.00000000000E+00  0.00000000000E+00  0.48535509692E+03  0.48535509692E+03  0.00000000000E+00 0. -1.
         21   -1    0    0  501  502  0.00000000000E+00 -0.00000000000E+00 -0.31458006378E+02  0.31458006378E+02  0.00000000000E+00 0. -1.
         24    2    1    2    0    0  0.19619869028E+01  0.18647753667E+02  0.22487331201E+03  0.23441496838E+03  0.63488446502E+02 0.  0.
         23    2    1    2    0    0  0.54486270110E+02 -0.30925066304E+02  0.14564306675E+03  0.18096105480E+03  0.87234666871E+02 0.  0.
        -13    1    3    3    0    0  0.20798191589E+00  0.37666988686E+02  0.81602901623E+02  0.89877020681E+02  0.00000000000E+00 0.  1.
         14    1    3    3    0    0  0.17540049869E+01 -0.19019235019E+02  0.14327041038E+03  0.14453794770E+03  0.00000000000E+00 0. -1.
        -13    1    4    4    0    0  0.47095384172E+02  0.17619836456E+02  0.39269738779E+02  0.63800832525E+02  0.00000000000E+00 0. -1.
         13    1    4    4    0    0  0.73908859374E+01 -0.48544902761E+02  0.10637332797E+03  0.11716022227E+03  0.00000000000E+00 0.  1.
          3    1    1    2  501    0 -0.56448257012E+02  0.12277312637E+02  0.83380711784E+02  0.10143708012E+03  0.00000000000E+00 0. -1.
<scales pt_clust_5="13000.00000" pt_clust_6="13000.00000" pt_clust_7="13000.00000" pt_clust_8="13000.00000" pt_clust_9="57.76797"></scales>
<clustering>
<clus scale="   57.768">  2  9  1 -1</clus>
<clus scale="   63.488">  5  6 -1 -1</clus>
<clus scale="   67.702">  1  5  2 -1</clus>
<clus scale="   87.235">  7  8 -1 -1</clus>
<clus scale="   57.768">  2  5  1 -1</clus>
</clustering>
</event>
<event>
 9    2  0.1665830E-004  0.1010218E+03  0.7546771E-02  0.1290230E+00
         -1   -1    0    0    0  501 -0.00000000000E+00  0.00000000000E+00  0.81370380908E+02  0.81370380908E+02  0.00000000000E+00 0.  1.
         21   -1    0    0  501  502  0.00000000000E+00 -0.00000000000E+00 -0.21343556815E+03  0.21343556815E+03  0.00000000000E+00 0.  1.
         23    2    1    2    0    0 -0.44761209037E+02 -0.24885084479E+02 -0.63553367410E+02  0.12295660967E+03  0.91959034841E+02 0.  0.
         24    2    1    2    0    0  0.36978157865E+02 -0.13550274661E+02 -0.95643983786E+02  0.12416278952E+03  0.68685024302E+02 0.  0.
        -11    1    4    4    0    0  0.25166415903E+02 -0.35950880408E+02 -0.86934667369E+02  0.97383010233E+02  0.00000000000E+00 0.  1.
         12    1    4    4    0    0  0.11811741962E+02  0.22400605746E+02 -0.87093164171E+01  0.26779779283E+02  0.00000000000E+00 0. -1.
        -11    1    3    3    0    0 -0.67782180790E+02 -0.39358404720E+01 -0.22686981099E+02  0.71586409214E+02  0.00000000000E+00 0.  1.
         11    1    3    3    0    0  0.23020971753E+02 -0.20949244007E+02 -0.40866386311E+02  0.51370200457E+02  0.00000000000E+00 0. -1.
         -2    1    1    2    0  502  0.77830511720E+01  0.38435359140E+02  0.27132163953E+02  0.47686549871E+02  0.00000000000E+00 0.  1.
<scales pt_clust_5="13000.00000" pt_clust_6="13000.00000" pt_clust_7="13000.00000" pt_clust_8="13000.00000" pt_clust_9="39.21548"></scales>
<clustering>
<clus scale="   39.215">  2  9  1 -1</clus>
<clus scale="   68.685">  5  6 -1 -1</clus>
<clus scale="   80.415">  2  5  1 -1</clus>
<clus scale="   91.959">  7  8 -1 -1</clus>
<clus scale="   39.215">  2  5  1 -1</clus>
</clustering>
</event>
<event>
 9    2  0.1665830E-004  0.9596435E+02  0.7546771E-02  0.1299762E+00
         -1   -1    0    0    0  501 -0.00000000000E+00  0.00000000000E+00  0.17830889357E+03  0.17830889357E+03  0.00000000000E+00 0.  1.
         21   -1    0    0  501  502  0.00000000000E+00 -0.00000000000E+00 -0.30247223634E+03  0.30247223634E+03  0.00000000000E+00 0.  1.
         23    2    1    2    0    0  0.30957872240E+02 -0.16191867968E+02  0.13872113148E+03  0.16851618754E+03  0.89070683751E+02 0.  0.
         24    2    1    2    0    0 -0.10481918039E+02  0.58977676916E+02 -0.75929599812E+02  0.11938670299E+03  0.69997455259E+02 0.  0.
        -11    1    4    4    0    0  0.19937013619E+02  0.28967124107E+02 -0.35620051781E+01  0.35344966713E+02  0.00000000000E+00 0.  1.
         12    1    4    4    0    0 -0.30418931659E+02  0.30010552810E+02 -0.72367594634E+02  0.84041736276E+02  0.00000000000E+00 0. -1.
        -11    1    3    3    0    0  0.50853767293E+02  0.19436466971E+02  0.71315106518E+02  0.89720267018E+02  0.00000000000E+00 0.  1.
         11    1    3    3    0    0 -0.19895895053E+02 -0.35628334939E+02  0.67406024959E+02  0.78795920524E+02  0.00000000000E+00 0. -1.
         -2    1    1    2    0  502 -0.20475954200E+02 -0.42785808948E+02 -0.18695487444E+03  0.19287823937E+03  0.00000000000E+00 0.  1.
<scales pt_clust_5="13000.00000" pt_clust_6="13000.00000" pt_clust_7="13000.00000" pt_clust_8="13000.00000" pt_clust_9="47.43301"></scales>
<clustering>
<clus scale="   47.433">  2  9  1 -1</clus>
<clus scale="   69.997">  5  6 -1 -1</clus>
<clus scale="   78.583">  2  5  1 -1</clus>
<clus scale="   89.071">  7  8 -1 -1</clus>
<clus scale="   47.433">  2  5  1 -1</clus>
</clustering>
</event>
<event>
 9    2  0.1665830E-004  0.1363989E+03  0.7546771E-02  0.1220916E+00
          2   -1    0    0  502    0 -0.00000000000E+00  0.00000000000E+00  0.15968661162E+04  0.15968661162E+04  0.00000000000E+00 0. -1.
         21   -1    0    0  501  502  0.00000000000E+00 -0.00000000000E+00 -0.37310454820E+02  0.37310454820E+02  0.00000000000E+00 0.  1.
         24    2    1    2    0    0 -0.65655422994E+01 -0.88907465606E+02  0.97823487564E+03  0.98557204687E+03  0.80381240814E+02 0.  0.
         23    2    1    2    0    0  0.45426577860E+02  0.13838377279E+03  0.55378366253E+03  0.57992863162E+03  0.91799947379E+02 0.  0.
        -13    1    3    3    0    0 -0.26891430028E+02 -0.31118417365E+02  0.16557461874E+03  0.17060615253E+03  0.00000000000E+00 0.  1.
         14    1    3    3    0    0  0.20325887729E+02 -0.57789048241E+02  0.81266025689E+03  0.81496589434E+03  0.00000000000E+00 0. -1.
        -13    1    4    4    0    0 -0.20732793867E+02  0.70365712979E+02  0.18199860241E+03  0.19622607773E+03  0.00000000000E+00 0.  1.
         13    1    4    4    0    0  0.66159371727E+02  0.68018059814E+02  0.37178506012E+03  0.38370255388E+03  0.00000000000E+00 0. -1.
          1    1    1    2  501    0 -0.38861035561E+02 -0.49476307187E+02  0.27537123187E+02  0.68675892503E+02  0.00000000000E+00 0. -1.
<scales pt_clust_5="13000.00000" pt_clust_6="13000.00000" pt_clust_7="13000.00000" pt_clust_8="13000.00000" pt_clust_9="62.91331"></scales>
<clustering>
<clus scale="   62.913">  2  9  1 -1</clus>
<clus scale="   80.381">  5  6 -1 -1</clus>
<clus scale="   91.800">  7  8 -1 -1</clus>
<clus scale="  128.991">  1  5  2 -1</clus>
<clus scale="   62.913">  2  5  1 -1</clus>
</clustering>
</event>
<event>
 9    2  0.1665830E-004  0.1275204E+03  0.7546771E-02  0.1233511E+00
         -1   -1    0    0    0  501 -0.00000000000E+00  0.00000000000E+00  0.57668140114E+03  0.57668140114E+03  0.00000000000E+00 0.  1.
         21   -1    0    0  501  502  0.00000000000E+00 -0.00000000000E+00 -0.10267494256E+03  0.10267494256E+03  0.00000000000E+00 0.  1.
         24    2    1    2    0    0 -0.95530994634E+02  0.69734017371E+01  0.44258285854E+03  0.46000753425E+03  0.80947795689E+02 0.  0.
         23    2    1    2    0    0  0.72721868930E+02 -0.20233795080E+02  0.94772690765E+02  0.15072518712E+03  0.89656803602E+02 0.  0.
        -11    1    3    3    0    0 -0.86516840192E+02 -0.25857821667E+02  0.34643259999E+03  0.35800745372E+03  0.00000000000E+00 0.  1.
         12    1    3    3    0    0 -0.90141544414E+01  0.32831223404E+02  0.96150258543E+02  0.10200008053E+03  0.00000000000E+00 0. -1.
        -13    1    4    4    0    0 -0.17615468663E+02  0.11155837456E+02  0.23735501797E+02  0.31593219069E+02  0.00000000000E+00 0.  1.
         13    1    4    4    0    0  0.90337337593E+02 -0.31389632536E+02  0.71037188968E+02  0.11913196805E+03  0.00000000000E+00 0. -1.
         -2    1    1    2    0  502  0.22809125704E+02  0.13260393343E+02 -0.63349090725E+02  0.68623622337E+02  0.00000000000E+00 0.  1.
<scales pt_clust_5="13000.00000" pt_clust_6="13000.00000" pt_clust_7="13000.00000" pt_clust_8="13000.00000" pt_clust_9="26.38360"></scales>
<clustering>
<clus scale="   26.384">  2  9  1 -1</clus>
<clus scale="   80.948">  5  6 -1 -1</clus>
<clus scale="   89.657">  7  8 -1 -1</clus>
<clus scale="  121.555">  1  5  2 -1</clus>
<clus scale="   26.384">  2  5  1 -1</clus>
</clustering>
</event>
<event>
 9    2  0.1665830E-004  0.1532345E+03  0.7546771E-02  0.1197872E+00
          2   -1    0    0  502    0 -0.00000000000E+00  0.00000000000E+00  0.59534122681E+03  0.59534122681E+03  0.00000000000E+00 0. -1.
         21   -1    0    0  501  502  0.00000000000E+00 -0.00000000000E+00 -0.68891809574E+02  0.68891809574E+02  0.00000000000E+00 0. -1.
         23    2    1    2    0    0 -0.92031145433E+02  0.10052316591E+01  0.11517515338E+03  0.17252494845E+03  0.89603569479E+02 0.  0.
         24    2    1    2    0    0  0.15924302748E+03  0.34764150525E+02  0.21977988607E+03  0.28563290137E+03  0.81951620248E+02 0.  0.
        -11    1    4    4    0    0  0.23206790238E+02  0.33862243782E+02  0.25050503260E+02  0.48090897066E+02  0.00000000000E+00 0.  1.
         12    1    4    4    0    0  0.13603623725E+03  0.90190674276E+00  0.19472938281E+03  0.23754200431E+03  0.00000000000E+00 0. -1.
        -13    1    3    3    0    0 -0.27164053396E+02 -0.10204605833E+02  0.10113531249E+03  0.10521583155E+03  0.00000000000E+00 0.  1.
         13    1    3    3    0    0 -0.64867092037E+02  0.11209837492E+02  0.14039840888E+02  0.67309116902E+02  0.00000000000E+00 0. -1.
          1    1    1    2  501    0 -0.67211882050E+02 -0.35769382184E+02  0.19149437778E+03  0.20607518655E+03  0.00000000000E+00 0. -1.
<scales pt_clust_5="13000.00000" pt_clust_6="13000.00000" pt_clust_7="13000.00000" pt_clust_8="13000.00000" pt_clust_9="76.13732"></scales>
<clustering>
<clus scale="   76.137">  2  9  1 -1</clus>
<clus scale="   81.952">  5  6 -1 -1</clus>
<clus scale="   89.604">  7  8 -1 -1</clus>
<clus scale="  148.890">  2  5  1 -1</clus>
<clus scale="   76.137">  2  5  1 -1</clus>
</clustering>
</event>
<event>
 9    2  0.1665830E-004  0.9349892E+02  0.7546771E-02  0.1299070E+00
         21   -1    0    0  501  502  0.00000000000E+00  0.00000000000E+00  0.14433101644E+03  0.14433101644E+03  0.00000000000E+00 0.  1.
         -1   -1    0    0    0  501 -0.00000000000E+00 -0.00000000000E+00 -0.32404427880E+03  0.32404427880E+03  0.00000000000E+00 0.  1.
         23    2    1    2    0    0 -0.10494990270E+02  0.16462272796E+02 -0.26523370481E+03  0.28111432402E+03  0.91077954273E+02 0.  0.
         24    2    1    2    0    0  0.64180538734E+02  0.66827901273E+01  0.38624082232E+02  0.11231365203E+03  0.83419035406E+02 0.  0.
        -11    1    4    4    0    0  0.78799613184E+02 -0.12449086022E+02  0.37652766211E+02  0.88216152625E+02  0.00000000000E+00 0.  1.
         12    1    4    4    0    0 -0.14619074450E+02  0.19131876149E+02  0.97131602139E+00  0.24097499405E+02  0.00000000000E+00 0. -1.
        -13    1    3    3    0    0  0.24481882233E+02  0.27730395010E+02 -0.21877140250E+03  0.22187668628E+03  0.00000000000E+00 0.  1.
         13    1    3    3    0    0 -0.34976872503E+02 -0.11268122214E+02 -0.46462302314E+02  0.59237637737E+02  0.00000000000E+00 0. -1.
         -2    1    1    2    0  502 -0.53685548463E+02 -0.23145062923E+02  0.46896360220E+02  0.74947319188E+02  0.00000000000E+00 0.  1.
<scales pt_clust_5="13000.00000" pt_clust_6="13000.00000" pt_clust_7="13000.00000" pt_clust_8="13000.00000" pt_clust_9="58.46223"></scales>
<clustering>
<clus scale="   58.462">  1  9  2 -1</clus>
<clus scale="   83.419">  5  6 -1 -1</clus>
<clus scale="   86.056">  1  5  2 -1</clus>
<clus scale="   91.078">  7  8 -1 -1</clus>
<clus scale="   58.462">  1  5  2 -1</clus>
</clustering>
</event>
<event>
 9    2  0.1665830E-004  0.1067444E+03  0.7546771E-02  0.1272548E+00
         21   -1    0    0  501  502  0.00000000000E+00  0.00000000000E+00  0.47177229503E+03  0.47177229503E+03  0.00000000000E+00 0.  1.
          2   -1    0    0  502    0 -0.00000000000E+00 -0.00000000000E+00 -0.48702677547E+02  0.48702677547E+02  0.00000000000E+00 0. -1.
         23    2    1    2    0    0  0.42154219228E+02 -0.36723917790E+02  0.45626517136E+02  0.11545857390E+03  0.90129234346E+02 0.  0.
         24    2    1    2    0    0 -0.61551124591E+02  0.24304702823E+02  0.36524489319E+03  0.37895353053E+03  0.76306531733E+02 0.  0.
        -13    1    4    4    0    0  0.68255501405E+01  0.27567992186E+02  0.16252382309E+03  0.16498659157E+03  0.00000000000E+00 0.  1.
         14    1    4    4    0    0 -0.68376674732E+02 -0.32632893634E+01  0.20272107010E+03  0.21396693896E+03  0.00000000000E+00 0. -1.
        -13    1    3    3    0    0 -0.20520176520E+02  0.12535970910E+02  0.92382754230E+00  0.24064115782E+02  0.00000000000E+00 0.  1.
         13    1    3    3    0    0  0.62674395748E+02 -0.49259888700E+02  0.44702689594E+02  0.91394458114E+02  0.00000000000E+00 0. -1.
          1    1    1    2  501    0  0.19396905364E+02  0.12419214967E+02  0.12198207154E+02  0.26062868143E+02  0.00000000000E+00 0. -1.
<scales pt_clust_5="13000.00000" pt_clust_6="13000.00000" pt_clust_7="13000.00000" pt_clust_8="13000.00000" pt_clust_9="23.03209"></scales>
<clustering>
<clus scale="   23.032">  1  9  2 -1</clus>
<clus scale="   76.307">  5  6 -1 -1</clus>
<clus scale="   90.129">  7  8 -1 -1</clus>
<clus scale="   95.361">  1  5  2 -1</clus>
<clus scale="   23.032">  1  5  2 -1</clus>
</clustering>
</event>
<event>
 9    2  0.1665830E-004  0.1296303E+03  0.7546771E-02  0.1231352E+00
          2   -1    0    0  502    0 -0.00000000000E+00  0.00000000000E+00  0.12188501076E+04  0.12188501076E+04  0.00000000000E+00 0. -1.
         21   -1    0    0  501  502  0.00000000000E+00 -0.00000000000E+00 -0.21262808097E+02  0.21262808097E+02  0.00000000000E+00 0. -1.
         24    2    1    2    0    0 -0.81314525860E+02  0.56045922604E+02  0.90193470533E+03  0.91078222070E+03  0.79277003658E+02 0.  0.
         23    2    1    2    0    0  0.56129510310E+02 -0.39382782361E+02  0.22719112694E+03  0.25450477872E+03  0.91952970361E+02 0.  0.
        -13    1    3    3    0    0 -0.10648188818E+02  0.28443106063E+02  0.83733411001E+02  0.89071198069E+02  0.00000000000E+00 0.  1.
         14    1    3    3    0    0 -0.70666337042E+02  0.27602816541E+02  0.81820129433E+03  0.82171102263E+03  0.00000000000E+00 0. -1.
        -11    1    4    4    0    0  0.29399214652E+02  0.87180229546E+01  0.12911511577E+02  0.33271983373E+02  0.00000000000E+00 0. -1.
         11    1    4    4    0    0  0.26730295658E+02 -0.48100805316E+02  0.21427961536E+03  0.22123279535E+03  0.00000000000E+00 0.  1.
          1    1    1    2  501    0  0.25185015550E+02 -0.16663140243E+02  0.68461467279E+02  0.74825916319E+02  0.00000000000E+00 0. -1.
<scales pt_clust_5="13000.00000" pt_clust_6="13000.00000" pt_clust_7="13000.00000" pt_clust_8="13000.00000" pt_clust_9="30.19843"></scales>
<clustering>
<clus scale="   30.198">  2  9  1 -1</clus>
<clus scale="   79.277">  5  6 -1 -1</clus>
<clus scale="   91.953">  7  8 -1 -1</clus>
<clus scale="  120.969">  1  5  2 -1</clus>
<clus scale="   30.198">  2  5  1 -1</clus>
</clustering>
</event>
<event>
 9    2  0.1665830E-004  0.8852389E+02  0.7546771E-02  0.1311685E+00
         21   -1    0    0  501  502  0.00000000000E+00  0.00000000000E+00  0.41093528419E+03  0.41093528419E+03  0.00000000000E+00 0. -1.
          4   -1    0    0  502    0 -0.00000000000E+00 -0.00000000000E+00 -0.53580117550E+02  0.53580117550E+02  0.00000000000E+00 0. -1.
         24    2    1    2    0    0 -0.12432814605E+02 -0.13411333490E+02  0.10362757652E+03  0.13224871770E+03  0.80103745068E+02 0.  0.
         23    2    1    2    0    0 -0.48678148112E+02 -0.15732145644E+02  0.24327256046E+03  0.26375975164E+03  0.88151037460E+02 0.  0.
        -11    1    3    3    0    0 -0.11548084634E+02  0.32111620232E+02  0.28783758514E+02  0.44643243238E+02  0.00000000000E+00 0.  1.
         12    1    3    3    0    0 -0.88472997101E+00 -0.45522953721E+02  0.74843818007E+02  0.87605474466E+02  0.00000000000E+00 0. -1.
        -13    1    4    4    0    0 -0.72443780494E+01 -0.47419248548E+02  0.92141314471E+02  0.10388016162E+03  0.00000000000E+00 0.  1.
         13    1    4    4    0    0 -0.41433770063E+02  0.31687102904E+02  0.15113124599E+03  0.15987959002E+03  0.00000000000E+00 0. -1.
          3    1    1    2  501    0  0.61110962718E+02  0.29143479134E+02  0.10455029660E+02  0.68506932390E+02  0.00000000000E+00 0. -1.
<scales pt_clust_5="13000.00000" pt_clust_6="13000.00000" pt_clust_7="13000.00000" pt_clust_8="13000.00000" pt_clust_9="67.70448"></scales>
<clustering>
<clus scale="   67.704">  1  9  2 -1</clus>
<clus scale="   80.104">  5  6 -1 -1</clus>
<clus scale="   80.514">  2  5  1 -1</clus>
<clus scale="   88.151">  7  8 -1 -1</clus>
<clus scale="   67.704">  1  5  2 -1</clus>
</clustering>
</event>
<event>
 9    2  0.1665830E-004  0.9830247E+02  0.7546771E-02  0.1288081E+00
         21   -1    0    0  501  502  0.00000000000E+00  0.00000000000E+00  0.44438775326E+02  0.44438775326E+02  0.00000000000E+00 0. -1.
          2   -1    0    0  502    0 -0.00000000000E+00 -0.00000000000E+00 -0.38343708606E+03  0.38343708606E+03  0.00000000000E+00 0. -1.
         23    2    1    2    0    0  0.14800096328E+02  0.55903838078E+02 -0.13685628819E+03  0.17408232647E+03  0.90723375203E+02 0.  0.
         24    2    1    2    0    0  0.19393416786E+02 -0.17388871743E+02 -0.68046018826E+02  0.11014696453E+03  0.82605179270E+02 0.  0.
        -11    1    4    4    0    0  0.29861210067E+02  0.61297201048E+01 -0.77060848917E+02  0.82871224023E+02  0.00000000000E+00 0.  1.
         12    1    4    4    0    0 -0.10467793282E+02 -0.23518591847E+02  0.90148300914E+01  0.27275740508E+02  0.00000000000E+00 0. -1.
        -11    1    3    3    0    0  0.44903939453E+02  0.10830361066E+02 -0.32467604009E+02  0.56460657181E+02  0.00000000000E+00 0.  1.
         11    1    3    3    0    0 -0.30103843125E+02  0.45073477012E+02 -0.10438868419E+03  0.11762166929E+03  0.00000000000E+00 0. -1.
          1    1    1    2  501    0 -0.34193513114E+02 -0.38514966335E+02 -0.13409600372E+03  0.14364657039E+03  0.00000000000E+00 0. -1.
<scales pt_clust_5="13000.00000" pt_clust_6="13000.00000" pt_clust_7="13000.00000" pt_clust_8="13000.00000" pt_clust_9="51.50341"></scales>
<clustering>
<clus scale="   51.503">  1  9  2 -1</clus>
<clus scale="   82.605">  5  6 -1 -1</clus>
<clus scale="   90.723">  7  8 -1 -1</clus>
<clus scale="   90.864">  1  5  2 -1</clus>
<clus scale="   51.503">  1  5  2 -1</clus>
</clustering>
</event>
<event>
 9    2  0.1665830E-004  0.1482750E+03  0.7546771E-02  0.1217189E+00
         21   -1    0    0  501  502  0.00000000000E+00  0.00000000000E+00  0.96123763549E+03  0.96123763549E+03  0.00000000000E+00 0.  1.
          4   -1    0    0  502    0 -0.00000000000E+00 -0.00000000000E+00 -0.43572010098E+02  0.43572010098E+02  0.00000000000E+00 0. -1.
         24    2    1    2    0    0  0.62291867155E+02  0.34663894312E+02  0.26116189678E+03  0.28284134259E+03  0.81925737506E+02 0.  0.
         23    2    1    2    0    0 -0.14910880750E+03  0.57428915257E+02  0.32768160678E+03  0.36963003583E+03  0.60988615203E+02 0.  0.
        -11    1    3    3    0    0  0.72390236882E+02  0.12089400764E+02  0.23762494893E+03  0.24870085718E+03  0.00000000000E+00 0.  1.
         12    1    3    3    0    0 -0.10098369727E+02  0.22574493548E+02  0.23536947847E+02  0.34140485410E+02  0.00000000000E+00 0. -1.
        -11    1    4    4    0    0 -0.13690308202E+03  0.35872439818E+02  0.30414180896E+03  0.33545718916E+03  0.00000000000E+00 0.  1.
         11    1    4    4    0    0 -0.12205725478E+02  0.21556475439E+02  0.23539797823E+02  0.34172846667E+02  0.00000000000E+00 0. -1.
          3    1    1    2  501    0  0.86816940343E+02 -0.92092809569E+02  0.32882212183E+03  0.35233826717E+03  0.00000000000E+00 0. -1.
<scales pt_clust_5="13000.00000" pt_clust_6="13000.00000" pt_clust_7="13000.00000" pt_clust_8="13000.00000" pt_clust_9="135.15126"></scales>
<clustering>
<clus scale="   60.989">  7  8 -1 -1</clus>
<clus scale="   81.926">  5  6 -1 -1</clus>
<clus scale="  108.599">  2  5  1 -1</clus>
<clus scale="  135.151">  1  9  2 -1</clus>
<clus scale="  135.151">  1  5  2 -1</clus>
</clustering>
</event>
<event>
 9    2  0.1665830E-004  0.1245309E+03  0.7546771E-02  0.1242976E+00
          2   -1    0    0  502    0 -0.00000000000E+00  0.00000000000E+00  0.17696632849E+03  0.17696632849E+03  0.00000000000E+00 0. -1.
         21   -1    0    0  501  502  0.00000000000E+00 -0.00000000000E+00 -0.14056466249E+03  0.14056466249E+03  0.00000000000E+00 0. -1.
         23    2    1    2    0    0 -0.52721410152E+02 -0.56609156337E+02  0.10960624534E+03  0.16814766642E+03  0.10137043473E+03 0.  0.
         24    2    1    2    0    0  0.40852706610E+02  0.36706157647E+02 -0.79622606442E+02  0.12533781453E+03  0.79708987250E+02 0.  0.
        -11    1    4    4    0    0  0.57100397345E+02  0.41231837573E+01 -0.32644653427E+02  0.65902423465E+02  0.00000000000E+00 0.  1.
         12    1    4    4    0    0 -0.16247690735E+02  0.32582973890E+02 -0.46977953015E+02  0.59435391066E+02  0.00000000000E+00 0. -1.
        -11    1    3    3    0    0 -0.71548224882E+02 -0.48383561261E+01  0.53088347639E+02  0.89224048490E+02  0.00000000000E+00 0. -1.
         11    1    3    3    0    0  0.18826814730E+02 -0.51770800211E+02  0.56517897697E+02  0.78923617932E+02  0.00000000000E+00 0.  1.
          1    1    1    2  501    0  0.11868703542E+02  0.19902998690E+02  0.64180271089E+01  0.24045510030E+02  0.00000000000E+00 0. -1.
<scales pt_clust_5="13000.00000" pt_clust_6="13000.00000" pt_clust_7="13000.00000" pt_clust_8="13000.00000" pt_clust_9="23.17317"></scales>
<clustering>
<clus scale="   23.173">  2  9  1 -1</clus>
<clus scale="   79.709">  5  6 -1 -1</clus>
<clus scale="  101.370">  7  8 -1 -1</clus>
<clus scale="  107.636">  2  5  1 -1</clus>
<clus scale="   23.173">  2  5  1 -1</clus>
</clustering>
</event>
<event>
 9    2  0.1665830E-004  0.2955641E+03  0.7546771E-02  0.1109789E+00
         21   -1    0    0  501  502  0.00000000000E+00  0.00000000000E+00  0.18312929762E+03  0.18312929762E+03  0.00000000000E+00 0.  1.
         -3   -1    0    0    0  501 -0.00000000000E+00 -0.00000000000E+00 -0.96399171692E+03  0.96399171692E+03  0.00000000000E+00 0.  1.
         23    2    1    2    0    0  0.34214382294E+02  0.13355604119E+03 -0.69236370867E+02  0.17932290503E+03  0.91406723621E+02 0.  0.
         24    2    1    2    0    0 -0.81884392333E+02 -0.31524479015E+03 -0.13467076288E+03  0.36103569070E+03  0.78270199696E+02 0.  0.
        -11    1    4    4    0    0 -0.94109026575E+02 -0.26172524931E+03 -0.97445940193E+02  0.29470718734E+03  0.00000000000E+00 0.  1.
         12    1    4    4    0    0  0.12224634242E+02 -0.53519540843E+02 -0.37224822687E+02  0.66328503364E+02  0.00000000000E+00 0. -1.
        -11    1    3    3    0    0 -0.26168899547E+02  0.24540476338E+02 -0.34916343631E+02  0.50061934990E+02  0.00000000000E+00 0. -1.
         11    1    3    3    0    0  0.60383281841E+02  0.10901556485E+03 -0.34320027235E+02  0.12926097004E+03  0.00000000000E+00 0.  1.
         -4    1    1    2    0  502  0.47670010039E+02  0.18168874896E+03 -0.57695528555E+03  0.60676241881E+03  0.00000000000E+00 0.  1.
<scales pt_clust_5="13000.00000" pt_clust_6="13000.00000" pt_clust_7="13000.00000" pt_clust_8="13000.00000" pt_clust_9="285.01228"></scales>
<clustering>
<clus scale="   78.270">  5  6 -1 -1</clus>
<clus scale="   91.407">  7  8 -1 -1</clus>
<clus scale="  165.418">  2  7  1 -1</clus>
<clus scale="  285.012">  1  9  2 -1</clus>
<clus scale="  285.012">  1  5  2 -1</clus>
</clustering>
</event>
<event>
 9    2  0.1665830E-004  0.8549016E+02  0.7546771E-02  0.1320373E+00
         21   -1    0    0  501  502  0.00000000000E+00  0.00000000000E+00  0.14927588772E+03  0.14927588772E+03  0.00000000000E+00 0.  1.
         -1   -1    0    0    0  501 -0.00000000000E+00 -0.00000000000E+00 -0.33025282843E+03  0.33025282843E+03  0.00000000000E+00 0.  1.
         23    2    1    2    0    0  0.24975428494E+01 -0.91262753835E+01 -0.19651976971E+03  0.21096742143E+03  0.76142671325E+02 0.  0.
         24    2    1    2    0    0 -0.16806063872E+02 -0.26389222815E+02 -0.10692116237E+03  0.14025107078E+03  0.85202071737E+02 0.  0.
        -11    1    4    4    0    0 -0.23314798589E+01 -0.48043930667E+02 -0.24838950833E+02  0.54135280093E+02  0.00000000000E+00 0.  1.
         12    1    4    4    0    0 -0.14474584013E+02  0.21654707852E+02 -0.82082211538E+02  0.86115790686E+02  0.00000000000E+00 0. -1.
        -11    1    3    3    0    0 -0.33909235783E+02 -0.18078155085E+02 -0.11473004972E+03  0.12099438116E+03  0.00000000000E+00 0.  1.
         11    1    3    3    0    0  0.36406778632E+02  0.89518797012E+01 -0.81789719985E+02  0.89973040272E+02  0.00000000000E+00 0. -1.
         -2    1    1    2    0  502  0.14308521023E+02  0.35515498198E+02  0.12246399137E+03  0.12831022394E+03  0.00000000000E+00 0.  1.
<scales pt_clust_5="13000.00000" pt_clust_6="13000.00000" pt_clust_7="13000.00000" pt_clust_8="13000.00000" pt_clust_9="38.28948"></scales>
<clustering>
<clus scale="   38.289">  1  9  2 -1</clus>
<clus scale="   76.143">  7  8 -1 -1</clus>
<clus scale="   76.465">  2  7  1 -1</clus>
<clus scale="   85.202">  5  6 -1 -1</clus>
<clus scale="   38.289">  1  5  2 -1</clus>
</clustering>
</event>
<event>
 9    2  0.1665830E-004  0.2206701E+03  0.7546771E-02  0.1134273E+00
         21   -1    0    0  501  502  0.00000000000E+00  0.00000000000E+00  0.38462175326E+02  0.38462175326E+02  0.00000000000E+00 0. -1.
          2   -1    0    0  502    0 -0.00000000000E+00 -0.00000000000E+00 -0.21523932287E+04  0.21523932287E+04  0.00000000000E+00 0. -1.
         24    2    1    2    0    0 -0.53494022665E+02 -0.15584615396E+03 -0.68623346430E+03  0.71019788397E+03  0.79467180001E+02 0.  0.
         23    2    1    2    0    0  0.29568208536E+01  0.25088004716E+03 -0.11918768108E+04  0.12214338925E+04  0.91547150494E+02 0.  0.
        -11    1    3    3    0    0  0.32927787073E+01 -0.10942584117E+03 -0.42304597708E+03  0.43698141360E+03  0.00000000000E+00 0.  1.
         12    1    3    3    0    0 -0.56786801372E+02 -0.46420312786E+02 -0.26318748722E+03  0.27321647037E+03  0.00000000000E+00 0. -1.
        -13    1    4    4    0    0 -0.27600239133E+02  0.22465895401E+02 -0.19966751878E+03  0.20281421970E+03  0.00000000000E+00 0.  1.
         13    1    4    4    0    0  0.30557059987E+02  0.22841415176E+03 -0.99220929201E+03  0.10186196728E+04  0.00000000000E+00 0. -1.
          1    1    1    2  501    0  0.50537201812E+02 -0.95033893205E+02 -0.23582077832E+03  0.25922362761E+03  0.00000000000E+00 0. -1.
<scales pt_clust_5="13000.00000" pt_clust_6="13000.00000" pt_clust_7="13000.00000" pt_clust_8="13000.00000" pt_clust_9="107.63573"></scales>
<clustering>
<clus scale="   79.467">  5  6 -1 -1</clus>
<clus scale="   91.547">  7  8 -1 -1</clus>
<clus scale="  107.636">  1  9  2 -1</clus>
<clus scale="  215.939">  2  5  1 -1</clus>
<clus scale="  107.636">  1  5  2 -1</clus>
</clustering>
</event>
<event>
 9    2  0.1665830E-004  0.2578257E+03  0.7546771E-02  0.1128630E+00
          2   -1    0    0  502    0 -0.00000000000E+00  0.00000000000E+00  0.59315481127E+03  0.59315481127E+03  0.00000000000E+00 0. -1.
         21   -1    0    0  501  502  0.00000000000E+00 -0.00000000000E+00 -0.24964257142E+03  0.24964257142E+03  0.00000000000E+00 0. -1.
         23    2    1    2    0    0  0.10411612105E+03  0.70179060228E+02  0.18961406709E+03  0.24519619423E+03  0.91664671884E+02 0.  0.
         24    2    1    2    0    0 -0.28612628163E+03  0.74600125710E+02  0.19204239392E+03  0.36192409402E+03  0.81702759889E+02 0.  0.
        -13    1    4    4    0    0 -0.29911667823E+02  0.17933029599E+02  0.56962160737E+02  0.66790636906E+02  0.00000000000E+00 0.  1.
         14    1    4    4    0    0 -0.25621461381E+03  0.56667096111E+02  0.13508023318E+03  0.29513345711E+03  0.00000000000E+00 0. -1.
        -11    1    3    3    0    0  0.77214536894E+02  0.59690843145E+02  0.19285227997E+03  0.21614135040E+03  0.00000000000E+00 0. -1.
         11    1    3    3    0    0  0.26901584152E+02  0.10488217083E+02 -0.32382128800E+01  0.29054843832E+02  0.00000000000E+00 0.  1.
          1    1    1    2  501    0  0.18201016058E+03 -0.14477918594E+03 -0.38144221160E+02  0.23567709444E+03  0.00000000000E+00 0. -1.
<scales pt_clust_5="13000.00000" pt_clust_6="13000.00000" pt_clust_7="13000.00000" pt_clust_8="13000.00000" pt_clust_9="244.53780"></scales>
<clustering>
<clus scale="   81.703">  5  6 -1 -1</clus>
<clus scale="   91.665">  7  8 -1 -1</clus>
<clus scale="  155.460">  1  7  2 -1</clus>
<clus scale="  244.538">  2  9  1 -1</clus>
<clus scale="  244.538">  2  5  1 -1</clus>
</clustering>
</event>
<event>
 9    2  0.1665830E-004  0.1043270E+03  0.7546771E-02  0.1277630E+00
         21   -1    0    0  501  502  0.00000000000E+00  0.00000000000E+00  0.19253443409E+03  0.19253443409E+03  0.00000000000E+00 0.  1.
         -1   -1    0    0    0  501 -0.00000000000E+00 -0.00000000000E+00 -0.78922570265E+02  0.78922570265E+02  0.00000000000E+00 0.  1.
         23    2    1    2    0    0 -0.17281923437E+02 -0.14295071437E+02  0.57840756905E+02  0.11354961445E+03  0.95104930670E+02 0.  0.
         24    2    1    2    0    0  0.59534364447E+02  0.21427391244E+02  0.48427129320E+02  0.11443242281E+03  0.82134760544E+02 0.  0.
        -13    1    4    4    0    0  0.28190389814E+02  0.52468193315E+02  0.28388484193E+02  0.65981174758E+02  0.00000000000E+00 0.  1.
         14    1    4    4    0    0  0.31343974633E+02 -0.31040802071E+02  0.20038645127E+02  0.48451248049E+02  0.00000000000E+00 0. -1.
        -13    1    3    3    0    0  0.10180343182E+02 -0.29186236664E+02  0.72668471877E+02  0.78969504259E+02  0.00000000000E+00 0.  1.
         13    1    3    3    0    0 -0.27462266619E+02  0.14891165227E+02 -0.14827714971E+02  0.34580110193E+02  0.00000000000E+00 0. -1.
         -2    1    1    2    0  502 -0.42252441010E+02 -0.71323198073E+01  0.73439776016E+01  0.43474967098E+02  0.00000000000E+00 0.  1.
<scales pt_clust_5="13000.00000" pt_clust_6="13000.00000" pt_clust_7="13000.00000" pt_clust_8="13000.00000" pt_clust_9="42.85021"></scales>
<clustering>
<clus scale="   42.850">  1  9  2 -1</clus>
<clus scale="   82.135">  5  6 -1 -1</clus>
<clus scale="   92.657">  1  5  2 -1</clus>
<clus scale="   95.105">  7  8 -1 -1</clus>
<clus scale="   42.850">  1  5  2 -1</clus>
</clustering>
</event>
<event>
 9    2  0.1665830E-004  0.1210965E+03  0.7546771E-02  0.1252552E+00
          2   -1    0    0  502    0 -0.00000000000E+00  0.00000000000E+00  0.13575051836E+04  0.13575051836E+04  0.00000000000E+00 0. -1.
         21   -1    0    0  501  502  0.00000000000E+00 -0.00000000000E+00 -0.20932380306E+02  0.20932380306E+02  0.00000000000E+00 0.  1.
         23    2    1    2    0    0  0.27616745116E+02 -0.21127591129E+02  0.43139609204E+03  0.44208059545E+03  0.90131043049E+02 0.  0.
         24    2    1    2    0    0  0.67091225015E+02  0.60396526125E+02  0.30244818088E+03  0.32497056840E+03  0.77343360181E+02 0.  0.
        -13    1    4    4    0    0  0.18668604856E+02 -0.10585529391E+02  0.18592075401E+02  0.28394286529E+02  0.00000000000E+00 0.  1.
         14    1    4    4    0    0  0.48422620159E+02  0.70982055516E+02  0.28385610548E+03  0.29657628187E+03  0.00000000000E+00 0. -1.
        -13    1    3    3    0    0 -0.17269739185E+02 -0.40683385206E+02  0.26388902444E+03  0.26756456967E+03  0.00000000000E+00 0. -1.
         13    1    3    3    0    0  0.44886484301E+02  0.19555794077E+02  0.16750706761E+03  0.17451602578E+03  0.00000000000E+00 0.  1.
          1    1    1    2  501    0 -0.94707970131E+02 -0.39268934996E+02  0.60272853036E+03  0.61138640006E+03  0.00000000000E+00 0. -1.
<scales pt_clust_5="13000.00000" pt_clust_6="13000.00000" pt_clust_7="13000.00000" pt_clust_8="13000.00000" pt_clust_9="93.17924"></scales>
<clustering>
<clus scale="   77.343">  5  6 -1 -1</clus>
<clus scale="   90.131">  7  8 -1 -1</clus>
<clus scale="   96.606">  1  7  2 -1</clus>
<clus scale="   93.179">  2  9  1 -1</clus>
<clus scale="   93.179">  2  5  1 -1</clus>
</clustering>
</event>
<event>
 9    2  0.1665830E-004  0.1184690E+03  0.7546771E-02  0.1248689E+00
          4   -1    0    0  502    0 -0.00000000000E+00  0.00000000000E+00  0.15849995059E+03  0.15849995059E+03  0.00000000000E+00 0. -1.
         21   -1    0    0  501  502  0.00000000000E+00 -0.00000000000E+00 -0.21340074641E+03  0.21340074641E+03  0.00000000000E+00 0.  1.
         23    2    1    2    0    0  0.58402511918E+02 -0.65753228938E+02  0.54731763711E+02  0.13704628932E+03  0.89731705336E+02 0.  0.
         24    2    1    2    0    0  0.11429709116E+02  0.59260174870E+02 -0.12769146778E+03  0.16243325737E+03  0.80231200787E+02 0.  0.
        -13    1    4    4    0    0  0.17761541839E+02  0.11459498016E+02 -0.10849407734E+03  0.11053396438E+03  0.00000000000E+00 0.  1.
         14    1    4    4    0    0 -0.63318327232E+01  0.47800676854E+02 -0.19197390441E+02  0.51899292992E+02  0.00000000000E+00 0. -1.
        -11    1    3    3    0    0 -0.22404555006E+02 -0.97526671625E+01  0.23469280667E+02  0.33880462464E+02  0.00000000000E+00 0.  1.
         11    1    3    3    0    0  0.80807066924E+02 -0.56000561776E+02  0.31262483045E+02  0.10316582685E+03  0.00000000000E+00 0. -1.
          3    1    1    2  501    0 -0.69832221034E+02  0.64930540684E+01  0.18058908246E+02  0.72421150313E+02  0.00000000000E+00 0. -1.
<scales pt_clust_5="13000.00000" pt_clust_6="13000.00000" pt_clust_7="13000.00000" pt_clust_8="13000.00000" pt_clust_9="70.13347"></scales>
<clustering>
<clus scale="   70.133">  2  9  1 -1</clus>
<clus scale="   80.231">  5  6 -1 -1</clus>
<clus scale="   89.732">  7  8 -1 -1</clus>
<clus scale="  111.446">  2  5  1 -1</clus>
<clus scale="   70.133">  2  5  1 -1</clus>
</clustering>
</event>
<event>
 9    2  0.1665830E-004  0.1195176E+03  0.7546771E-02  0.1249117E+00
         21   -1    0    0  501  502  0.00000000000E+00  0.00000000000E+00  0.22288372459E+03  0.22288372459E+03  0.00000000000E+00 0.  1.
          2   -1    0    0  502    0 -0.00000000000E+00 -0.00000000000E+00 -0.30056822014E+03  0.30056822014E+03  0.00000000000E+00 0. -1.
         24    2    1    2    0    0 -0.45718990800E+02  0.28465934069E+02 -0.26392534142E+03  0.28991960160E+03  0.10722058582E+03 0.  0.
         23    2    1    2    0    0  0.18213715922E+02 -0.41720040165E+02  0.16874681489E+03  0.19834352964E+03  0.93767622426E+02 0.  0.
        -11    1    3    3    0    0 -0.34891253504E+02  0.69192690470E+02 -0.18134501380E+03  0.19720811854E+03  0.00000000000E+00 0.  1.
         12    1    3    3    0    0 -0.10827737296E+02 -0.40726756401E+02 -0.82580327618E+02  0.92711483061E+02  0.00000000000E+00 0. -1.
        -13    1    4    4    0    0  0.13084443527E+02  0.29131806591E+02  0.67361690655E+02  0.74548388216E+02  0.00000000000E+00 0.  1.
         13    1    4    4    0    0  0.51292723946E+01 -0.70851846756E+02  0.10138512424E+03  0.12379514143E+03  0.00000000000E+00 0. -1.
          1    1    1    2  501    0  0.27505274878E+02  0.13254106096E+02  0.17494030982E+02  0.35188813486E+02  0.00000000000E+00 0. -1.
<scales pt_clust_5="13000.00000" pt_clust_6="13000.00000" pt_clust_7="13000.00000" pt_clust_8="13000.00000" pt_clust_9="30.53214"></scales>
<clustering>
<clus scale="   30.532">  1  9  2 -1</clus>
<clus scale="   93.768">  7  8 -1 -1</clus>
<clus scale="  107.221">  5  6 -1 -1</clus>
<clus scale="  107.613">  1  7  2 -1</clus>
<clus scale="   30.532">  1  5  2 -1</clus>
</clustering>
</event>
<event>
 9    2  0.1665830E-004  0.1028303E+03  0.7546771E-02  0.1279185E+00
         21   -1    0    0  501  502  0.00000000000E+00  0.00000000000E+00  0.14184837244E+03  0.14184837244E+03  0.00000000000E+00 0.  1.
         -1   -1    0    0    0  501 -0.00000000000E+00 -0.00000000000E+00 -0.17836633543E+03  0.17836633543E+03  0.00000000000E+00 0.  1.
         23    2    1    2    0    0  0.14234209171E+02  0.38892204801E+02 -0.11756125581E+03  0.15466704769E+03  0.91575272142E+02 0.  0.
         24    2    1    2    0    0 -0.38960389025E+02 -0.61111609562E+02  0.49581047732E+02  0.11977694045E+03  0.81459771871E+02 0.  0.
        -11    1    4    4    0    0 -0.51963710129E+02 -0.42706217252E+02  0.21853966421E+01  0.67296538698E+02  0.00000000000E+00 0.  1.
         12    1    4    4    0    0  0.13003321104E+02 -0.18405392310E+02  0.47395651090E+02  0.52480401752E+02  0.00000000000E+00 0. -1.
        -11    1    3    3    0    0  0.51679436220E+02  0.29313794766E+02 -0.54058820962E+02  0.80326949497E+02  0.00000000000E+00 0. -1.
         11    1    3    3    0    0 -0.37445227049E+02  0.95784100342E+01 -0.63502434848E+02  0.74340098192E+02  0.00000000000E+00 0.  1.
         -2    1    1    2    0  502  0.24726179853E+02  0.22219404761E+02  0.31462245088E+02  0.45770719724E+02  0.00000000000E+00 0.  1.
<scales pt_clust_5="13000.00000" pt_clust_6="13000.00000" pt_clust_7="13000.00000" pt_clust_8="13000.00000" pt_clust_9="33.24283"></scales>
<clustering>
<clus scale="   33.243">  1  9  2 -1</clus>
<clus scale="   81.460">  5  6 -1 -1</clus>
<clus scale="   91.575">  7  8 -1 -1</clus>
<clus scale="   93.935">  1  5  2 -1</clus>
<clus scale="   33.243">  1  5  2 -1</clus>
</clustering>
</event>
<event>
 9    2  0.1665830E-004  0.1954351E+03  0.7546771E-02  0.1154398E+00
          2   -1    0    0  502    0 -0.00000000000E+00  0.00000000000E+00  0.10167851445E+04  0.10167851445E+04  0.00000000000E+00 0. -1.
         21   -1    0    0  501  502  0.00000000000E+00 -0.00000000000E+00 -0.74689256724E+02  0.74689256724E+02  0.00000000000E+00 0.  1.
         24    2    1    2    0    0 -0.25880534001E+02 -0.17374800619E+03  0.77076241933E+03  0.79525142922E+03  0.86556091272E+02 0.  0.
         23    2    1    2    0    0 -0.27203795442E+02  0.15883210080E+03  0.13163441962E+03  0.22827854806E+03  0.93892450946E+02 0.  0.
        -13    1    3    3    0    0  0.15196423165E+02 -0.35579816329E+02  0.71597652226E+02  0.81382297899E+02  0.00000000000E+00 0.  1.
         14    1    3    3    0    0 -0.41076957166E+02 -0.13816818986E+03  0.69916476710E+03  0.71386913132E+03  0.00000000000E+00 0. -1.
        -13    1    4    4    0    0  0.47348205569E+01  0.11527487258E+03  0.40373991472E+02  0.12223245870E+03  0.00000000000E+00 0.  1.
         13    1    4    4    0    0 -0.31938615999E+02  0.43557228227E+02  0.91260428145E+02  0.10604608936E+03  0.00000000000E+00 0. -1.
          1    1    1    2  501    0  0.53084329443E+02  0.14915905383E+02  0.39699048816E+02  0.67944423927E+02  0.00000000000E+00 0. -1.
<scales pt_clust_5="13000.00000" pt_clust_6="13000.00000" pt_clust_7="13000.00000" pt_clust_8="13000.00000" pt_clust_9="55.14010"></scales>
<clustering>
<clus scale="   55.140">  2  9  1 -1</clus>
<clus scale="   86.556">  5  6 -1 -1</clus>
<clus scale="   93.892">  7  8 -1 -1</clus>
<clus scale="  192.018">  1  5  2 -1</clus>
<clus scale="   55.140">  2  5  1 -1</clus>
</clustering>
</event>
<event>
 9    2  0.1665830E-004  0.1058542E+03  0.7546771E-02  0.1273931E+00
         21   -1    0    0  501  502  0.00000000000E+00  0.00000000000E+00  0.24937522013E+02  0.24937522013E+02  0.00000000000E+00 0.  1.
          2   -1    0    0  502    0 -0.00000000000E+00 -0.00000000000E+00 -0.91349874877E+03  0.91349874877E+03  0.00000000000E+00 0. -1.
         24    2    1    2    0    0 -0.28504886770E+02  0.72287557343E+01 -0.17332199069E+03  0.19234274281E+03  0.78041237661E+02 0.  0.
         23    2    1    2    0    0  0.77600073175E+02 -0.46165101541E+02 -0.30012847461E+03  0.32628009247E+03  0.90711683440E+02 0.  0.
        -13    1    3    3    0    0 -0.46478560529E+02 -0.20030132735E+02 -0.99934350481E+02  0.11201936088E+03  0.00000000000E+00 0.  1.
         14    1    3    3    0    0  0.17973673759E+02  0.27258888469E+02 -0.73387640205E+02  0.80323381925E+02  0.00000000000E+00 0. -1.
        -13    1    4    4    0    0  0.87505758342E+02 -0.86684068268E+01 -0.22831480874E+03  0.24466313762E+03  0.00000000000E+00 0.  1.
         13    1    4    4    0    0 -0.99056851673E+01 -0.37496694714E+02 -0.71813665875E+02  0.81616954853E+02  0.00000000000E+00 0. -1.
          1    1    1    2  501    0 -0.49095186406E+02  0.38936345807E+02 -0.41511076146E+03  0.41981343550E+03  0.00000000000E+00 0. -1.
<scales pt_clust_5="13000.00000" pt_clust_6="13000.00000" pt_clust_7="13000.00000" pt_clust_8="13000.00000" pt_clust_9="62.66084"></scales>
<clustering>
<clus scale="   62.661">  1  9  2 -1</clus>
<clus scale="   78.041">  5  6 -1 -1</clus>
<clus scale="   90.712">  7  8 -1 -1</clus>
<clus scale="   95.220">  2  5  1 -1</clus>
<clus scale="   62.661">  1  5  2 -1</clus>
</clustering>
</event>
<event>
 9    2  0.1665830E-004  0.1569394E+03  0.7546771E-02  0.1216668E+00
         21   -1    0    0  501  502  0.00000000000E+00  0.00000000000E+00  0.93026554775E+03  0.93026554775E+03  0.00000000000E+00 0. -1.
         -3   -1    0    0    0  501 -0.00000000000E+00 -0.00000000000E+00 -0.64313439956E+02  0.64313439956E+02  0.00000000000E+00 0.  1.
         24    2    1    2    0    0 -0.28487964274E+02 -0.37277160948E+02  0.11648505987E+03  0.14880759658E+03  0.79835961762E+02 0.  0.
         23    2    1    2    0    0  0.10976933113E+03 -0.68104083755E+02  0.67532989893E+03  0.69342906544E+03  0.89921766679E+02 0.  0.
        -13    1    3    3    0    0 -0.33421505727E+01  0.24342086647E+02  0.44059878468E+02  0.50447795229E+02  0.00000000000E+00 0.  1.
         14    1    3    3    0    0 -0.25145813701E+02 -0.61619247596E+02  0.72425181403E+02  0.98359801353E+02  0.00000000000E+00 0. -1.
        -11    1    4    4    0    0  0.29112940491E+02  0.52009613162E+01  0.45693040874E+02  0.54428552130E+02  0.00000000000E+00 0.  1.
         11    1    4    4    0    0  0.80656390643E+02 -0.73305045071E+02  0.62963685806E+03  0.63900051331E+03  0.00000000000E+00 0. -1.
         -4    1    1    2    0  502 -0.81281366860E+02  0.10538124470E+03  0.74137148987E+02  0.15234232568E+03  0.00000000000E+00 0.  1.
<scales pt_clust_5="13000.00000" pt_clust_6="13000.00000" pt_clust_7="13000.00000" pt_clust_8="13000.00000" pt_clust_9="128.62379"></scales>
<clustering>
<clus scale="   79.836">  5  6 -1 -1</clus>
<clus scale="   89.922">  7  8 -1 -1</clus>
<clus scale="   92.601">  2  5  1 -1</clus>
<clus scale="  128.624">  1  9  2 -1</clus>
<clus scale="  128.624">  1  5  2 -1</clus>
</clustering>
</event>
<event>
 9    2  0.1665830E-004  0.2231966E+03  0.7546771E-02  0.1172944E+00
         21   -1    0    0  501  502  0.00000000000E+00  0.00000000000E+00  0.33717555495E+03  0.33717555495E+03  0.00000000000E+00 0. -1.
          2   -1    0    0  502    0 -0.00000000000E+00 -0.00000000000E+00 -0.20222539811E+03  0.20222539811E+03  0.00000000000E+00 0. -1.
         24    2    1    2    0    0 -0.82420558400E+01  0.22422129327E+02  0.31663787537E+02  0.89716869413E+02  0.80472590663E+02 0.  0.
         23    2    1    2    0    0 -0.27531665702E+02 -0.21141377332E+03  0.11235019741E+03  0.25712304494E+03  0.89643277575E+02 0.  0.
        -11    1    3    3    0    0  0.30598982372E+02  0.91451826732E+01 -0.76929495039E+01  0.32849863933E+02  0.00000000000E+00 0.  1.
         12    1    3    3    0    0 -0.38841038212E+02  0.13276946654E+02  0.39356737041E+02  0.56867005481E+02  0.00000000000E+00 0. -1.
        -11    1    4    4    0    0 -0.40086351519E+02 -0.14752569466E+03  0.11601197408E+03  0.19191019851E+03  0.00000000000E+00 0. -1.
         11    1    4    4    0    0  0.12554685817E+02 -0.63888078652E+02 -0.36617766692E+01  0.65212846420E+02  0.00000000000E+00 0.  1.
          1    1    1    2  501    0  0.35773721542E+02  0.18899164399E+03 -0.90638281038E+01  0.19256103871E+03  0.00000000000E+00 0. -1.
<scales pt_clust_5="13000.00000" pt_clust_6="13000.00000" pt_clust_7="13000.00000" pt_clust_8="13000.00000" pt_clust_9="204.40360"></scales>
<clustering>
<clus scale="   80.473">  5  6 -1 -1</clus>
<clus scale="   83.944">  2  5  1 -1</clus>
<clus scale="   89.643">  7  8 -1 -1</clus>
<clus scale="  204.404">  1  9  2 -1</clus>
<clus scale="  204.404">  1  5  2 -1</clus>
</clustering>
</event>
<event>
 9    2  0.1665830E-004  0.1779367E+03  0.7546771E-02  0.1171204E+00
         21   -1    0    0  501  502  0.00000000000E+00  0.00000000000E+00  0.32839516242E+03  0.32839516242E+03  0.00000000000E+00 0. -1.
          2   -1    0    0  502    0 -0.00000000000E+00 -0.00000000000E+00 -0.16117862815E+04  0.16117862815E+04  0.00000000000E+00 0. -1.
         24    2    1    2    0    0 -0.15039298813E+03  0.19344131567E+02 -0.13971868848E+04  0.14076858979E+04  0.80350169699E+02 0.  0.
         23    2    1    2    0    0  0.15252919011E+03 -0.60379243233E+02 -0.16536941583E+03  0.25032247451E+03  0.91670555295E+02 0.  0.
        -13    1    3    3    0    0 -0.23677091179E+02  0.28702638639E+02 -0.17498998092E+03  0.17890203893E+03  0.00000000000E+00 0.  1.
         14    1    3    3    0    0 -0.12671589695E+03 -0.93585070719E+01 -0.12221969039E+04  0.12287838590E+04  0.00000000000E+00 0. -1.
        -13    1    4    4    0    0  0.12130927810E+03 -0.83122579277E+01 -0.79936858311E+02  0.14551610186E+03  0.00000000000E+00 0.  1.
         13    1    4    4    0    0  0.31219912006E+02 -0.52066985305E+02 -0.85432557516E+02  0.10480637265E+03  0.00000000000E+00 0. -1.
          1    1    1    2  501    0 -0.21362019797E+01  0.41035111665E+02  0.27916518150E+03  0.28217307155E+03  0.00000000000E+00 0. -1.
<scales pt_clust_5="13000.00000" pt_clust_6="13000.00000" pt_clust_7="13000.00000" pt_clust_8="13000.00000" pt_clust_9="41.09068"></scales>
<clustering>
<clus scale="   41.091">  1  9  2 -1</clus>
<clus scale="   80.350">  5  6 -1 -1</clus>
<clus scale="   91.671">  7  8 -1 -1</clus>
<clus scale="  172.378">  2  5  1 -1</clus>
<clus scale="   41.091">  1  5  2 -1</clus>
</clustering>
</event>
<event>
 9    2  0.1665830E-004  0.1820559E+03  0.7546771E-02  0.1199188E+00
          2   -1    0    0  502    0 -0.00000000000E+00  0.00000000000E+00  0.40844665098E+03  0.40844665098E+03  0.00000000000E+00 0. -1.
         21   -1    0    0  501  502  0.00000000000E+00 -0.00000000000E+00 -0.11616416526E+03  0.11616416526E+03  0.00000000000E+00 0.  1.
         24    2    1    2    0    0 -0.15272431070E+02 -0.27557724195E+02  0.29405506004E+02  0.91146739811E+02  0.80314189787E+02 0.  0.
         23    2    1    2    0    0  0.12485263605E+03  0.11722576786E+03  0.10247635495E+03  0.21950954901E+03  0.91394624580E+02 0.  0.
        -11    1    3    3    0    0  0.31075379816E+02 -0.80479611742E+01  0.24962469629E+02  0.40664158663E+02  0.00000000000E+00 0.  1.
         12    1    3    3    0    0 -0.46347810886E+02 -0.19509763021E+02  0.44430363744E+01  0.50482581148E+02  0.00000000000E+00 0. -1.
        -11    1    4    4    0    0  0.10397117219E+03  0.35646999634E+02  0.58096667745E+02  0.12432190488E+03  0.00000000000E+00 0. -1.
         11    1    4    4    0    0  0.20881463858E+02  0.81578768223E+02  0.44379687209E+02  0.95187644127E+02  0.00000000000E+00 0.  1.
          1    1    1    2  501    0 -0.10958020498E+03 -0.89668043661E+02  0.16040062476E+03  0.21395452742E+03  0.00000000000E+00 0. -1.
<scales pt_clust_5="13000.00000" pt_clust_6="13000.00000" pt_clust_7="13000.00000" pt_clust_8="13000.00000" pt_clust_9="157.45288"></scales>
<clustering>
<clus scale="   80.314">  5  6 -1 -1</clus>
<clus scale="   86.273">  1  5  2 -1</clus>
<clus scale="   91.395">  7  8 -1 -1</clus>
<clus scale="  157.453">  2  9  1 -1</clus>
<clus scale="  157.453">  2  5  1 -1</clus>
</clustering>
</event>
<event>
 9    2  0.1665830E-004  0.1283320E+03  0.7546771E-02  0.1245695E+00
          2   -1    0    0  502    0 -0.00000000000E+00  0.00000000000E+00  0.44759608334E+03  0.44759608334E+03  0.00000000000E+00 0. -1.
         21   -1    0    0  501  502  0.00000000000E+00 -0.00000000000E+00 -0.13058641724E+03  0.13058641724E+03  0.00000000000E+00 0.  1.
         24    2    1    2    0    0  0.44136675491E+02 -0.16902195450E-02 -0.79902683620E+02  0.12269034812E+03  0.81978268735E+02 0.  0.
         23    2    1    2    0    0  0.62194467105E+02 -0.27899863145E+01  0.25630778951E+03  0.27918631678E+03  0.91517106322E+02 0.  0.
        -11    1    3    3    0    0  0.55219866233E+02 -0.27328555204E+02 -0.65319200179E+02  0.89792435474E+02  0.00000000000E+00 0.  1.
         12    1    3    3    0    0 -0.11083190742E+02  0.27326864984E+02 -0.14583483441E+02  0.32897912642E+02  0.00000000000E+00 0. -1.
        -13    1    4    4    0    0 -0.20303371529E+02  0.14105363053E+02  0.81238456522E+02  0.84916870999E+02  0.00000000000E+00 0.  1.
         13    1    4    4    0    0  0.82497838634E+02 -0.16895349367E+02  0.17506933299E+03  0.19426944578E+03  0.00000000000E+00 0. -1.
          1    1    1    2  501    0 -0.10633114260E+03  0.27916765341E+01  0.14060456021E+03  0.17630583568E+03  0.00000000000E+00 0. -1.
<scales pt_clust_5="13000.00000" pt_clust_6="13000.00000" pt_clust_7="13000.00000" pt_clust_8="13000.00000" pt_clust_9="89.96514"></scales>
<clustering>
<clus scale="   81.978">  5  6 -1 -1</clus>
<clus scale="   91.517">  7  8 -1 -1</clus>
<clus scale="   93.105">  1  5  2 -1</clus>
<clus scale="   89.965">  2  9  1 -1</clus>
<clus scale="   89.965">  2  5  1 -1</clus>
</clustering>
</event>
<event>
 9    2  0.1665830E-004  0.9973562E+02  0.7546771E-02  0.1286011E+00
          4   -1    0    0  502    0 -0.00000000000E+00  0.00000000000E+00  0.37684971248E+03  0.37684971248E+03  0.00000000000E+00 0. -1.
         21   -1    0    0  501  502  0.00000000000E+00 -0.00000000000E+00 -0.97188124468E+02  0.97188124468E+02  0.00000000000E+00 0. -1.
         24    2    1    2    0    0  0.36728188221E+02 -0.32139536781E+02  0.27513914473E+03  0.29101128235E+03  0.81265662210E+02 0.  0.
         23    2    1    2    0    0 -0.14607085416E+02  0.10292051924E+01  0.63824175376E+02  0.11250073415E+03  0.91479307033E+02 0.  0.
        -11    1    3    3    0    0 -0.15643317625E+02 -0.31558710895E+02  0.16926239754E+03  0.17288847516E+03  0.00000000000E+00 0.  1.
         12    1    3    3    0    0  0.52371505845E+02 -0.58082588584E+00  0.10587674719E+03  0.11812280719E+03  0.00000000000E+00 0. -1.
        -11    1    4    4    0    0 -0.95009277683E+01  0.22429377121E+02  0.81003765489E+02  0.84586964776E+02  0.00000000000E+00 0.  1.
         11    1    4    4    0    0 -0.51061576481E+01 -0.21400171928E+02 -0.17179590113E+02  0.27913769379E+02  0.00000000000E+00 0. -1.
          3    1    1    2  501    0 -0.22121102804E+02  0.31110331589E+02 -0.59301732094E+02  0.70525820450E+02  0.00000000000E+00 0. -1.
<scales pt_clust_5="13000.00000" pt_clust_6="13000.00000" pt_clust_7="13000.00000" pt_clust_8="13000.00000" pt_clust_9="38.17324"></scales>
<clustering>
<clus scale="   38.173">  2  9  1 -1</clus>
<clus scale="   81.266">  5  6 -1 -1</clus>
<clus scale="   90.459">  1  5  2 -1</clus>
<clus scale="   91.479">  7  8 -1 -1</clus>
<clus scale="   38.173">  2  5  1 -1</clus>
</clustering>
</event>
<event>
 9    2  0.1665830E-004  0.9169033E+02  0.7546771E-02  0.1306829E+00
          2   -1    0    0  502    0 -0.00000000000E+00  0.00000000000E+00  0.52951618589E+02  0.52951618589E+02  0.00000000000E+00 0. -1.
         21   -1    0    0  501  502  0.00000000000E+00 -0.00000000000E+00 -0.32778593179E+03  0.32778593179E+03  0.00000000000E+00 0.  1.
         24    2    1    2    0    0  0.10894057427E+02 -0.74668461934E+01 -0.57166461451E+02  0.98263334055E+02  0.78824134790E+02 0.  0.
         23    2    1    2    0    0  0.17693668454E+02 -0.43204692104E+02 -0.19435648864E+03  0.21979820405E+03  0.91417145579E+02 0.  0.
        -13    1    3    3    0    0  0.41245424165E+02 -0.19613026268E+02 -0.23602096802E+02  0.51409286977E+02  0.00000000000E+00 0.  1.
         14    1    3    3    0    0 -0.30351366739E+02  0.12146180075E+02 -0.33564364649E+02  0.46854047078E+02  0.00000000000E+00 0. -1.
        -13    1    4    4    0    0 -0.30126842945E+02 -0.26630605196E+02 -0.37513671527E+02  0.54991738929E+02  0.00000000000E+00 0. -1.
         13    1    4    4    0    0  0.47820511399E+02 -0.16574086908E+02 -0.15684281711E+03  0.16480646512E+03  0.00000000000E+00 0.  1.
          1    1    1    2  501    0 -0.28587725881E+02  0.50671538297E+02 -0.23311363116E+02  0.62676012276E+02  0.00000000000E+00 0. -1.
<scales pt_clust_5="13000.00000" pt_clust_6="13000.00000" pt_clust_7="13000.00000" pt_clust_8="13000.00000" pt_clust_9="58.17960"></scales>
<clustering>
<clus scale="   58.180">  2  9  1 -1</clus>
<clus scale="   78.824">  5  6 -1 -1</clus>
<clus scale="   79.141">  1  5  2 -1</clus>
<clus scale="   91.417">  7  8 -1 -1</clus>
<clus scale="   58.180">  2  5  1 -1</clus>
</clustering>
</event>
<event>
 9    2  0.1665830E-004  0.8132603E+02  0.7546771E-02  0.1326468E+00
         21   -1    0    0  501  502  0.00000000000E+00  0.00000000000E+00  0.11841312156E+03  0.11841312156E+03  0.00000000000E+00 0. -1.
         -1   -1    0    0    0  501 -0.00000000000E+00 -0.00000000000E+00 -0.12217545668E+03  0.12217545668E+03  0.00000000000E+00 0.  1.
         24    2    1    2    0    0  0.13073944216E+02  0.49140167147E+01 -0.55160659412E+02  0.97587592368E+02  0.79281550563E+02 0.  0.
         23    2    1    2    0    0 -0.34953367799E+02  0.29666663697E+02  0.47501810390E+02  0.10189483726E+03  0.77616280596E+02 0.  0.
        -11    1    3    3    0    0  0.64415938745E+01 -0.27728978916E+02 -0.57535725730E+02  0.64193069242E+02  0.00000000000E+00 0.  1.
         12    1    3    3    0    0  0.66323503416E+01  0.32642995631E+02  0.23750663178E+01  0.33394523126E+02  0.00000000000E+00 0. -1.
        -13    1    4    4    0    0 -0.57683621634E+02  0.77469164428E+01  0.26355058980E+02  0.63890563098E+02  0.00000000000E+00 0. -1.
         13    1    4    4    0    0  0.22730253834E+02  0.21919747254E+02  0.21146751410E+02  0.38004274157E+02  0.00000000000E+00 0.  1.
         -2    1    1    2    0  502  0.21879423583E+02 -0.34580680411E+02  0.38965139006E+01  0.41106148623E+02  0.00000000000E+00 0.  1.
<scales pt_clust_5="13000.00000" pt_clust_6="13000.00000" pt_clust_7="13000.00000" pt_clust_8="13000.00000" pt_clust_9="40.92105"></scales>
<clustering>
<clus scale="   40.921">  1  9  2 -1</clus>
<clus scale="   77.616">  7  8 -1 -1</clus>
<clus scale="   79.282">  5  6 -1 -1</clus>
<clus scale="   79.703">  1  7  2 -1</clus>
<clus scale="   40.921">  1  5  2 -1</clus>
</clustering>
</event>
<event>
 9    2  0.1665830E-004  0.1408491E+03  0.7546771E-02  0.1213941E+00
          2   -1    0    0  502    0 -0.00000000000E+00  0.00000000000E+00  0.19020234593E+03  0.19020234593E+03  0.00000000000E+00 0. -1.
         21   -1    0    0  501  502  0.00000000000E+00 -0.00000000000E+00 -0.16441390958E+03  0.16441390958E+03  0.00000000000E+00 0. -1.
         23    2    1    2    0    0 -0.47402308213E+02  0.83790665954E+02  0.39821264096E+02  0.13767590847E+03  0.90005934109E+02 0.  0.
         24    2    1    2    0    0  0.96669764916E+02 -0.95271743695E+02 -0.34874570264E+02  0.16222768244E+03  0.81730267973E+02 0.  0.
        -13    1    4    4    0    0  0.18793537751E+02  0.12205269941E+02  0.62727493201E+01  0.23270433163E+02  0.00000000000E+00 0.  1.
         14    1    4    4    0    0  0.77876227165E+02 -0.10747701364E+03 -0.41147319584E+02  0.13895724928E+03  0.00000000000E+00 0. -1.
        -13    1    3    3    0    0 -0.39762539087E+02  0.65175805324E+02 -0.16289864020E+02  0.78066028361E+02  0.00000000000E+00 0. -1.
         13    1    3    3    0    0 -0.76397691263E+01  0.18614860629E+02  0.56111128116E+02  0.59609880112E+02  0.00000000000E+00 0.  1.
          1    1    1    2  501    0 -0.49267456703E+02  0.11481077741E+02  0.20841742511E+02  0.54712664594E+02  0.00000000000E+00 0. -1.
<scales pt_clust_5="13000.00000" pt_clust_6="13000.00000" pt_clust_7="13000.00000" pt_clust_8="13000.00000" pt_clust_9="50.58755"></scales>
<clustering>
<clus scale="   50.588">  2  9  1 -1</clus>
<clus scale="   81.730">  5  6 -1 -1</clus>
<clus scale="   90.006">  7  8 -1 -1</clus>
<clus scale="  135.710">  2  5  1 -1</clus>
<clus scale="   50.588">  2  5  1 -1</clus>
</clustering>
</event>
<event>
 9    2  0.1665830E-004  0.1156623E+03  0.7546771E-02  0.1252707E+00
          2   -1    0    0  502    0 -0.00000000000E+00  0.00000000000E+00  0.71897028569E+03  0.71897028569E+03  0.00000000000E+00 0. -1.
         21   -1    0    0  501  502  0.00000000000E+00 -0.00000000000E+00 -0.41768815534E+02  0.41768815534E+02  0.00000000000E+00 0.  1.
         23    2    1    2    0    0 -0.47704261326E+01  0.80169755899E+02  0.55106053350E+03  0.56359428561E+03  0.86722894681E+02 0.  0.
         24    2    1    2    0    0  0.38166032408E+02 -0.59855352622E+02  0.11405522370E+03  0.15623019773E+03  0.79749428606E+02 0.  0.
        -11    1    4    4    0    0  0.28304329478E+02 -0.24672930022E+02  0.11567495068E+01  0.37566296231E+02  0.00000000000E+00 0.  1.
         12    1    4    4    0    0  0.98617029301E+01 -0.35182422600E+02  0.11289847419E+03  0.11866390150E+03  0.00000000000E+00 0. -1.
        -11    1    3    3    0    0 -0.39655244507E+02  0.12308665316E+02  0.17330032729E+03  0.17820506474E+03  0.00000000000E+00 0.  1.
         11    1    3    3    0    0  0.34884818375E+02  0.67861090583E+02  0.37776020621E+03  0.38538922087E+03  0.00000000000E+00 0. -1.
          1    1    1    2  501    0 -0.33395606275E+02 -0.20314403277E+02  0.12085712959E+02  0.40914617886E+02  0.00000000000E+00 0. -1.
<scales pt_clust_5="13000.00000" pt_clust_6="13000.00000" pt_clust_7="13000.00000" pt_clust_8="13000.00000" pt_clust_9="39.08889"></scales>
<clustering>
<clus scale="   39.089">  2  9  1 -1</clus>
<clus scale="   79.749">  5  6 -1 -1</clus>
<clus scale="   86.723">  7  8 -1 -1</clus>
<clus scale="  110.530">  2  5  1 -1</clus>
<clus scale="   39.089">  2  5  1 -1</clus>
</clustering>
</event>
<event>
 9    2  0.1665830E-004  0.1239747E+03  0.7546771E-02  0.1239037E+00
          2   -1    0    0  502    0 -0.00000000000E+00  0.00000000000E+00  0.84730018036E+03  0.84730018036E+03  0.00000000000E+00 0. -1.
         21   -1    0    0  501  502  0.00000000000E+00 -0.00000000000E+00 -0.13123458656E+03  0.13123458656E+03  0.00000000000E+00 0. -1.
         24    2    1    2    0    0 -0.30973321438E+02  0.85520590520E+02  0.77378172792E+03  0.78322346376E+03  0.80173023359E+02 0.  0.
         23    2    1    2    0    0 -0.79438860828E+01 -0.53569176780E+02  0.17060126932E+02  0.10516181011E+03  0.88516644462E+02 0.  0.
        -13    1    3    3    0    0  0.60071375068E+01  0.28157598637E+02  0.64119339746E+02  0.70286739799E+02  0.00000000000E+00 0.  1.
         14    1    3    3    0    0 -0.36980458945E+02  0.57362991883E+02  0.70966238817E+03  0.71293672396E+03  0.00000000000E+00 0. -1.
        -13    1    4    4    0    0  0.15932038689E+02  0.17199888357E+02  0.19409472531E+02  0.30436715332E+02  0.00000000000E+00 0. -1.
         13    1    4    4    0    0 -0.23875924772E+02 -0.70769065138E+02 -0.23493455987E+01  0.74725094774E+02  0.00000000000E+00 0.  1.
          1    1    1    2  501    0  0.38917207521E+02 -0.31951413740E+02 -0.74776261048E+02  0.90149493052E+02  0.00000000000E+00 0. -1.
<scales pt_clust_5="13000.00000" pt_clust_6="13000.00000" pt_clust_7="13000.00000" pt_clust_8="13000.00000" pt_clust_9="50.35317"></scales>
<clustering>
<clus scale="   50.353">  2  9  1 -1</clus>
<clus scale="   80.173">  5  6 -1 -1</clus>
<clus scale="   88.517">  7  8 -1 -1</clus>
<clus scale="  118.162">  1  5  2 -1</clus>
<clus scale="   50.353">  2  5  1 -1</clus>
</clustering>
</event>
<event>
 9    2  0.1665830E-004  0.1060396E+03  0.7546771E-02  0.1274086E+00
          2   -1    0    0  502    0 -0.00000000000E+00  0.00000000000E+00  0.13760493701E+04  0.13760493701E+04  0.00000000000E+00 0. -1.
         21   -1    0    0  501  502  0.00000000000E+00 -0.00000000000E+00 -0.30783124328E+02  0.30783124328E+02  0.00000000000E+00 0. -1.
         24    2    1    2    0    0 -0.57104072792E+02  0.19267423626E+02  0.10135026211E+04  0.10183078800E+04  0.78302406360E+02 0.  0.
         23    2    1    2    0    0  0.17534346891E+02 -0.35447147905E+02  0.33095918891E+03  0.34576723136E+03  0.91962165840E+02 0.  0.
        -11    1    3    3    0    0  0.35965487894E+01  0.21834118366E+02  0.85449566645E+02  0.88268297411E+02  0.00000000000E+00 0.  1.
         12    1    3    3    0    0 -0.60700621582E+02 -0.25666947391E+01  0.92805305446E+03  0.93003958264E+03  0.00000000000E+00 0. -1.
        -11    1    4    4    0    0  0.36569311486E+02 -0.59248074610E+02  0.23150456787E+03  0.24174783108E+03  0.00000000000E+00 0.  1.
         11    1    4    4    0    0 -0.19034964596E+02  0.23800926705E+02  0.99454621036E+02  0.10401940028E+03  0.00000000000E+00 0. -1.
          1    1    1    2  501    0  0.39569725902E+02  0.16179724278E+02  0.80443576228E+00  0.42757383018E+02  0.00000000000E+00 0. -1.
<scales pt_clust_5="13000.00000" pt_clust_6="13000.00000" pt_clust_7="13000.00000" pt_clust_8="13000.00000" pt_clust_9="42.74982"></scales>
<clustering>
<clus scale="   42.750">  2  9  1 -1</clus>
<clus scale="   78.302">  5  6 -1 -1</clus>
<clus scale="   91.962">  7  8 -1 -1</clus>
<clus scale="   94.438">  1  5  2 -1</clus>
<clus scale="   42.750">  2  5  1 -1</clus>
</clustering>
</event>
<event>
 9    2  0.1665830E-004  0.2053383E+03  0.7546771E-02  0.1146219E+00
         21   -1    0    0  501  502  0.00000000000E+00  0.00000000000E+00  0.17482967066E+03  0.17482967066E+03  0.00000000000E+00 0.  1.
         -3   -1    0    0    0  501 -0.00000000000E+00 -0.00000000000E+00 -0.38353733713E+03  0.38353733713E+03  0.00000000000E+00 0.  1.
         24    2    1    2    0    0  0.18212964472E+03 -0.78481134506E+02 -0.19906808695E+03  0.29241038900E+03  0.80902635244E+02 0.  0.
         23    2    1    2    0    0 -0.16398596163E+03  0.21623847310E+02 -0.48109654525E+02  0.19495034432E+03  0.91280400449E+02 0.  0.
        -11    1    3    3    0    0  0.93006213447E+02 -0.68395781947E+02 -0.15273433104E+03  0.19145734409E+03  0.00000000000E+00 0.  1.
         12    1    3    3    0    0  0.89123431278E+02 -0.10085352559E+02 -0.46333755913E+02  0.10095304491E+03  0.00000000000E+00 0. -1.
        -13    1    4    4    0    0 -0.13534537970E+03  0.21665235493E+02 -0.74498821583E+02  0.15600586095E+03  0.00000000000E+00 0. -1.
         13    1    4    4    0    0 -0.28640581936E+02 -0.41388183222E-01  0.26389167058E+02  0.38944483365E+02  0.00000000000E+00 0.  1.
         -4    1    1    2    0  502 -0.18143683091E+02  0.56857287197E+02  0.38470075010E+02  0.71006274475E+02  0.00000000000E+00 0.  1.
<scales pt_clust_5="13000.00000" pt_clust_6="13000.00000" pt_clust_7="13000.00000" pt_clust_8="13000.00000" pt_clust_9="59.68203"></scales>
<clustering>
<clus scale="   59.682">  1  9  2 -1</clus>
<clus scale="   80.903">  5  6 -1 -1</clus>
<clus scale="   91.280">  7  8 -1 -1</clus>
<clus scale="  200.940">  2  5  1 -1</clus>
<clus scale="   59.682">  1  5  2 -1</clus>
</clustering>
</event>
<event>
 9    2  0.1665830E-004  0.1015944E+03  0.7546771E-02  0.1282056E+00
          2   -1    0    0  502    0 -0.00000000000E+00  0.00000000000E+00  0.86009124497E+03  0.86009124497E+03  0.00000000000E+00 0. -1.
         21   -1    0    0  501  502  0.00000000000E+00 -0.00000000000E+00 -0.23715333525E+02  0.23715333525E+02  0.00000000000E+00 0. -1.
         24    2    1    2    0    0  0.40824620022E+02 -0.24681914274E+02  0.65588995135E+03  0.66246512964E+03  0.79953569092E+02 0.  0.
         23    2    1    2    0    0 -0.20376265998E+02  0.35161940056E+02  0.11496497388E+03  0.15190827410E+03  0.90595939622E+02 0.  0.
        -11    1    3    3    0    0  0.50614428295E+01 -0.23359243646E+02  0.48976248273E+02  0.54497205085E+02  0.00000000000E+00 0.  1.
         12    1    3    3    0    0  0.35763177192E+02 -0.13226706285E+01  0.60691370308E+03  0.60796792456E+03  0.00000000000E+00 0. -1.
        -11    1    4    4    0    0 -0.39759509843E+02 -0.17673204810E+01  0.99947418147E+02  0.10757987005E+03  0.00000000000E+00 0.  1.
         11    1    4    4    0    0  0.19383243845E+02  0.36929260537E+02  0.15017555733E+02  0.44328404054E+02  0.00000000000E+00 0. -1.
          1    1    1    2  501    0 -0.20448354023E+02 -0.10480025781E+02  0.65520986207E+02  0.69433174752E+02  0.00000000000E+00 0. -1.
<scales pt_clust_5="13000.00000" pt_clust_6="13000.00000" pt_clust_7="13000.00000" pt_clust_8="13000.00000" pt_clust_9="22.97751"></scales>
<clustering>
<clus scale="   22.978">  2  9  1 -1</clus>
<clus scale="   79.954">  5  6 -1 -1</clus>
<clus scale="   90.596">  7  8 -1 -1</clus>
<clus scale="   92.230">  1  5  2 -1</clus>
<clus scale="   22.978">  2  5  1 -1</clus>
</clustering>
</event>
<event>
 9    2  0.1665830E-004  0.1242203E+03  0.7546771E-02  0.1239303E+00
         21   -1    0    0  501  502  0.00000000000E+00  0.00000000000E+00  0.61110567971E+02  0.61110567971E+02  0.00000000000E+00 0.  1.
         -3   -1    0    0    0  501 -0.00000000000E+00 -0.00000000000E+00 -0.41057819879E+03  0.41057819879E+03  0.00000000000E+00 0.  1.
         23    2    1    2    0    0  0.75249761759E+02 -0.68613434366E+02 -0.25308240759E+03  0.28741387378E+03  0.90474857219E+02 0.  0.
         24    2    1    2    0    0 -0.56684130596E+02  0.31569282733E+02 -0.98837453135E+02  0.14276627625E+03  0.80022854355E+02 0.  0.
        -13    1    4    4    0    0 -0.56088285893E+02  0.76616785645E+01 -0.19453837202E+02  0.59858574279E+02  0.00000000000E+00 0.  1.
         14    1    4    4    0    0 -0.59584470357E+00  0.23907604168E+02 -0.79383615933E+02  0.82907701974E+02  0.00000000000E+00 0. -1.
        -11    1    3    3    0    0  0.93863732375E+02 -0.47271998860E+02 -0.17242066711E+03  0.20192555207E+03  0.00000000000E+00 0. -1.
         11    1    3    3    0    0 -0.18613970616E+02 -0.21341435506E+02 -0.80661740485E+02  0.85488321714E+02  0.00000000000E+00 0.  1.
         -4    1    1    2    0  502 -0.18565631163E+02  0.37044151633E+02  0.24522299120E+01  0.41508616723E+02  0.00000000000E+00 0.  1.
<scales pt_clust_5="13000.00000" pt_clust_6="13000.00000" pt_clust_7="13000.00000" pt_clust_8="13000.00000" pt_clust_9="41.43612"></scales>
<clustering>
<clus scale="   41.436">  1  9  2 -1</clus>
<clus scale="   80.023">  5  6 -1 -1</clus>
<clus scale="   90.475">  7  8 -1 -1</clus>
<clus scale="  116.827">  1  5  2 -1</clus>
<clus scale="   41.436">  1  5  2 -1</clus>
</clustering>
</event>
<event>
 9    2  0.1665830E-004  0.1227880E+03  0.7546771E-02  0.1242570E+00
          2   -1    0    0  502    0 -0.00000000000E+00  0.00000000000E+00  0.80571825189E+03  0.80571825189E+03  0.00000000000E+00 0. -1.
         21   -1    0    0  501  502  0.00000000000E+00 -0.00000000000E+00 -0.54017352305E+02  0.54017352305E+02  0.00000000000E+00 0. -1.
         24    2    1    2    0    0  0.34790944711E+02 -0.65598503831E+02  0.37225849260E+03  0.38795725779E+03  0.80130362662E+02 0.  0.
         23    2    1    2    0    0 -0.43134986081E+02  0.10454099896E+03  0.74748513957E+02  0.16449263342E+03  0.93172091448E+02 0.  0.
        -11    1    3    3    0    0  0.50118912768E+02 -0.19180483909E+02  0.26058732270E+03  0.26605553768E+03  0.00000000000E+00 0.  1.
         12    1    3    3    0    0 -0.15327968057E+02 -0.46418019921E+02  0.11167116991E+03  0.12190172011E+03  0.00000000000E+00 0. -1.
        -11    1    4    4    0    0 -0.30489010992E+02  0.13085066984E+02 -0.14384035413E+02  0.36162124440E+02  0.00000000000E+00 0.  1.
         11    1    4    4    0    0 -0.12645975089E+02  0.91455931974E+02  0.89132549369E+02  0.12833050898E+03  0.00000000000E+00 0. -1.
          1    1    1    2  501    0  0.83440413702E+01 -0.38942495127E+02  0.30469389303E+03  0.30728571298E+03  0.00000000000E+00 0. -1.
<scales pt_clust_5="13000.00000" pt_clust_6="13000.00000" pt_clust_7="13000.00000" pt_clust_8="13000.00000" pt_clust_9="39.82641"></scales>
<clustering>
<clus scale="   39.826">  2  9  1 -1</clus>
<clus scale="   80.130">  5  6 -1 -1</clus>
<clus scale="   93.172">  7  8 -1 -1</clus>
<clus scale="  113.211">  1  5  2 -1</clus>
<clus scale="   39.826">  2  5  1 -1</clus>
</clustering>
</event>
<event>
 9    2  0.1665830E-004  0.1162728E+03  0.7546771E-02  0.1252738E+00
         21   -1    0    0  501  502  0.00000000000E+00  0.00000000000E+00  0.55798492164E+02  0.55798492164E+02  0.00000000000E+00 0. -1.
          2   -1    0    0  502    0 -0.00000000000E+00 -0.00000000000E+00 -0.77466616643E+03  0.77466616643E+03  0.00000000000E+00 0. -1.
         24    2    1    2    0    0 -0.22837657370E+02 -0.45986420599E+02 -0.96531280754E+02  0.13561272476E+03  0.80226014970E+02 0.  0.
         23    2    1    2    0    0  0.10495211940E+03  0.57273334919E+02 -0.13856210006E+03  0.20402839496E+03  0.90182859347E+02 0.  0.
        -11    1    3    3    0    0 -0.19871447910E+02  0.31699680059E+01  0.67229924066E+01  0.21216073296E+02  0.00000000000E+00 0.  1.
         12    1    3    3    0    0 -0.29662094600E+01 -0.49156388605E+02 -0.10325427316E+03  0.11439665146E+03  0.00000000000E+00 0. -1.
        -11    1    4    4    0    0  0.62546221470E+02  0.77043751056E+02 -0.71728203224E+02  0.12244469990E+03  0.00000000000E+00 0. -1.
         11    1    4    4    0    0  0.42405897925E+02 -0.19770416137E+02 -0.66833896837E+02  0.81583695060E+02  0.00000000000E+00 0.  1.
          1    1    1    2  501    0 -0.82114462025E+02 -0.11286914320E+02 -0.48377429345E+03  0.49082353888E+03  0.00000000000E+00 0. -1.
<scales pt_clust_5="13000.00000" pt_clust_6="13000.00000" pt_clust_7="13000.00000" pt_clust_8="13000.00000" pt_clust_9="82.88659"></scales>
<clustering>
<clus scale="   80.226">  5  6 -1 -1</clus>
<clus scale="   82.887">  1  9  2 -1</clus>
<clus scale="   90.183">  7  8 -1 -1</clus>
<clus scale="  108.732">  2  5  1 -1</clus>
<clus scale="   82.887">  1  5  2 -1</clus>
</clustering>
</event>
<event>
 9    2  0.1665830E-004  0.1102506E+03  0.7546771E-02  0.1264723E+00
         21   -1    0    0  501  502  0.00000000000E+00  0.00000000000E+00  0.11363794768E+03  0.11363794768E+03  0.00000000000E+00 0. -1.
          2   -1    0    0  502    0 -0.00000000000E+00 -0.00000000000E+00 -0.46894159350E+03  0.46894159350E+03  0.00000000000E+00 0. -1.
         23    2    1    2    0    0  0.13049695683E+02 -0.57828904755E+02 -0.16922658010E+03  0.20142330706E+03  0.91756397217E+02 0.  0.
         24    2    1    2    0    0 -0.91271444107E+02  0.44726231498E+02  0.44891276076E+02  0.13694997522E+03  0.80057209241E+02 0.  0.
        -11    1    4    4    0    0 -0.20537512282E+02 -0.31400923645E+01  0.47137188925E+02  0.51512757357E+02  0.00000000000E+00 0.  1.
         12    1    4    4    0    0 -0.70733931824E+02  0.47866323863E+02 -0.22459128495E+01  0.85437217862E+02  0.00000000000E+00 0. -1.
        -11    1    3    3    0    0 -0.12112806249E+02 -0.76778179999E+02 -0.11894766760E+03  0.14209207095E+03  0.00000000000E+00 0. -1.
         11    1    3    3    0    0  0.25162501932E+02  0.18949275244E+02 -0.50278912500E+02  0.59331236107E+02  0.00000000000E+00 0.  1.
          1    1    1    2  501    0  0.78221748423E+02  0.13102673256E+02 -0.23096834180E+03  0.24420625891E+03  0.00000000000E+00 0. -1.
<scales pt_clust_5="13000.00000" pt_clust_6="13000.00000" pt_clust_7="13000.00000" pt_clust_8="13000.00000" pt_clust_9="79.31159"></scales>
<clustering>
<clus scale="   79.312">  1  9  2 -1</clus>
<clus scale="   80.057">  5  6 -1 -1</clus>
<clus scale="   91.756">  7  8 -1 -1</clus>
<clus scale="  100.723">  1  5  2 -1</clus>
<clus scale="   79.312">  1  5  2 -1</clus>
</clustering>
</event>
<event>
 9    2  0.1665830E-004  0.9372061E+02  0.7546771E-02  0.1300697E+00
         21   -1    0    0  501  502  0.00000000000E+00  0.00000000000E+00  0.71194502440E+02  0.71194502440E+02  0.00000000000E+00 0.  1.
          2   -1    0    0  502    0 -0.00000000000E+00 -0.00000000000E+00 -0.38432436674E+03  0.38432436674E+03  0.00000000000E+00 0. -1.
         24    2    1    2    0    0 -0.30238193820E+02 -0.15407891612E+02 -0.10555993582E+03  0.13697831055E+03  0.80426401261E+02 0.  0.
         23    2    1    2    0    0 -0.13431776587E+02 -0.34193422850E+02  0.21633178813E+01  0.98641965324E+02  0.91520241424E+02 0.  0.
        -11    1    3    3    0    0  0.19181274717E+02 -0.18196648019E+02 -0.73231592504E+02  0.77858239381E+02  0.00000000000E+00 0.  1.
         12    1    3    3    0    0 -0.49419468537E+02  0.27887564073E+01 -0.32328343318E+02  0.59120071164E+02  0.00000000000E+00 0. -1.
        -13    1    4    4    0    0 -0.27371031394E+02  0.19763786979E+02  0.21066962576E+02  0.39794441164E+02  0.00000000000E+00 0.  1.
         13    1    4    4    0    0  0.13939254808E+02 -0.53957209829E+02 -0.18903644695E+02  0.58847524161E+02  0.00000000000E+00 0. -1.
          1    1    1    2  501    0  0.43669970407E+02  0.49601314461E+02 -0.20973324636E+03  0.21989859331E+03  0.00000000000E+00 0. -1.
<scales pt_clust_5="13000.00000" pt_clust_6="13000.00000" pt_clust_7="13000.00000" pt_clust_8="13000.00000" pt_clust_9="66.08601"></scales>
<clustering>
<clus scale="   66.086">  1  9  2 -1</clus>
<clus scale="   80.426">  5  6 -1 -1</clus>
<clus scale="   82.922">  2  5  1 -1</clus>
<clus scale="   91.520">  7  8 -1 -1</clus>
<clus scale="   66.086">  1  5  2 -1</clus>
</clustering>
</event>
<event>
 9    2  0.1665830E-004  0.1427342E+03  0.7546771E-02  0.1212068E+00
         21   -1    0    0  501  502  0.00000000000E+00  0.00000000000E+00  0.88351967968E+02  0.88351967968E+02  0.00000000000E+00 0.  1.
          2   -1    0    0  502    0 -0.00000000000E+00 -0.00000000000E+00 -0.28437673974E+03  0.28437673974E+03  0.00000000000E+00 0. -1.
         23    2    1    2    0    0  0.12107574081E+02  0.12010928167E+03 -0.13608742092E+03  0.20406533419E+03  0.92466434948E+02 0.  0.
         24    2    1    2    0    0  0.75997816433E+01 -0.93667089952E+02 -0.41816583187E+02  0.13103450703E+03  0.81179646353E+02 0.  0.
        -11    1    4    4    0    0 -0.23555224582E+02 -0.87069149468E+02 -0.19878867211E+02  0.92363709085E+02  0.00000000000E+00 0.  1.
         12    1    4    4    0    0  0.31155006225E+02 -0.65979404839E+01 -0.21937715975E+02  0.38670797945E+02  0.00000000000E+00 0. -1.
        -11    1    3    3    0    0  0.52348415341E+02  0.58931359513E+02 -0.69282791921E+02  0.10494459004E+03  0.00000000000E+00 0. -1.
         11    1    3    3    0    0 -0.40240841260E+02  0.61177922156E+02 -0.66804629004E+02  0.99120744151E+02  0.00000000000E+00 0.  1.
          1    1    1    2  501    0 -0.19707355724E+02 -0.26442191717E+02 -0.18120767662E+02  0.37628866487E+02  0.00000000000E+00 0. -1.
<scales pt_clust_5="13000.00000" pt_clust_6="13000.00000" pt_clust_7="13000.00000" pt_clust_8="13000.00000" pt_clust_9="32.97832"></scales>
<clustering>
<clus scale="   32.978">  1  9  2 -1</clus>
<clus scale="   81.180">  5  6 -1 -1</clus>
<clus scale="   92.466">  7  8 -1 -1</clus>
<clus scale="  135.695">  1  5  2 -1</clus>
<clus scale="   32.978">  1  5  2 -1</clus>
</clustering>
</event>
<event>
 9    2  0.1665830E-004  0.9751557E+02  0.7546771E-02  0.1289699E+00
         21   -1    0    0  501  502  0.00000000000E+00  0.00000000000E+00  0.16295276590E+03  0.16295276590E+03  0.00000000000E+00 0. -1.
         -3   -1    0    0    0  501 -0.00000000000E+00 -0.00000000000E+00 -0.22606023461E+03  0.22606023461E+03  0.00000000000E+00 0.  1.
         23    2    1    2    0    0 -0.68298579982E+01 -0.34137673768E+02 -0.17921077870E+03  0.20363283050E+03  0.90209748512E+02 0.  0.
         24    2    1    2    0    0  0.16302533708E+01  0.62665719358E+02  0.11720398726E+03  0.15636126645E+03  0.82355454629E+02 0.  0.
        -11    1    4    4    0    0  0.32990288690E+02  0.20855494258E+02  0.15462658537E+02  0.41981002818E+02  0.00000000000E+00 0.  1.
         12    1    4    4    0    0 -0.31360035319E+02  0.41810225100E+02  0.10174132872E+03  0.11438026363E+03  0.00000000000E+00 0. -1.
        -11    1    3    3    0    0 -0.26521640349E+02  0.21521251773E+01 -0.84005847870E+01  0.27903384640E+02  0.00000000000E+00 0. -1.
         11    1    3    3    0    0  0.19691782351E+02 -0.36289798945E+02 -0.17081019391E+03  0.17572944586E+03  0.00000000000E+00 0.  1.
         -4    1    1    2    0  502  0.51996046274E+01 -0.28528045590E+02 -0.11006772739E+01  0.29018903562E+02  0.00000000000E+00 0.  1.
<scales pt_clust_5="13000.00000" pt_clust_6="13000.00000" pt_clust_7="13000.00000" pt_clust_8="13000.00000" pt_clust_9="28.99802"></scales>
<clustering>
<clus scale="   28.998">  1  9  2 -1</clus>
<clus scale="   82.355">  5  6 -1 -1</clus>
<clus scale="   90.210">  7  8 -1 -1</clus>
<clus scale="   90.299">  1  5  2 -1</clus>
<clus scale="   28.998">  1  5  2 -1</clus>
</clustering>
</event>
<event>
 9    2  0.1665830E-004  0.1177332E+03  0.7546771E-02  0.1251079E+00
         -1   -1    0    0    0  501 -0.00000000000E+00  0.00000000000E+00  0.94649506689E+02  0.94649506689E+02  0.00000000000E+00 0.  1.
         21   -1    0    0  501  502  0.00000000000E+00 -0.00000000000E+00 -0.28929516814E+03  0.28929516814E+03  0.00000000000E+00 0. -1.
         23    2    1    2    0    0 -0.78608335992E+02 -0.32785334953E+02  0.12435943031E+02  0.12461581527E+03  0.90112707550E+02 0.  0.
         24    2    1    2    0    0  0.56250245207E+02 -0.18173852521E+02 -0.15552971416E+03  0.18347162254E+03  0.77317302651E+02 0.  0.
        -13    1    4    4    0    0  0.66492154050E+02 -0.11191946150E+02 -0.70539252072E+02  0.97582028528E+02  0.00000000000E+00 0.  1.
         14    1    4    4    0    0 -0.10241908844E+02 -0.69819063713E+01 -0.84990462091E+02  0.85889594014E+02  0.00000000000E+00 0. -1.
        -11    1    3    3    0    0 -0.37997355357E+01 -0.30713033488E+02 -0.26059862042E+02  0.40457938971E+02  0.00000000000E+00 0. -1.
         11    1    3    3    0    0 -0.74808600457E+02 -0.20723014656E+01  0.38495805073E+02  0.84157876303E+02  0.00000000000E+00 0.  1.
         -2    1    1    2    0  502  0.22358090785E+02  0.50959187474E+02 -0.51551890314E+02  0.75857237008E+02  0.00000000000E+00 0.  1.
<scales pt_clust_5="13000.00000" pt_clust_6="13000.00000" pt_clust_7="13000.00000" pt_clust_8="13000.00000" pt_clust_9="55.64821"></scales>
<clustering>
<clus scale="   55.648">  2  9  1 -1</clus>
<clus scale="   77.317">  5  6 -1 -1</clus>
<clus scale="   90.113">  7  8 -1 -1</clus>
<clus scale="  108.253">  2  5  1 -1</clus>
<clus scale="   55.648">  2  5  1 -1</clus>
</clustering>
</event>
<event>
 9    2  0.1665830E-004  0.1183914E+03  0.7546771E-02  0.1249836E+00
         21   -1    0    0  501  502  0.00000000000E+00  0.00000000000E+00  0.40143660870E+02  0.40143660870E+02  0.00000000000E+00 0. -1.
          2   -1    0    0  502    0 -0.00000000000E+00 -0.00000000000E+00 -0.88556342064E+03  0.88556342064E+03  0.00000000000E+00 0. -1.
         24    2    1    2    0    0  0.20779801766E+02  0.79985389509E+02 -0.17910932809E+03  0.21287620142E+03  0.80041633079E+02 0.  0.
         23    2    1    2    0    0 -0.76197726857E+02 -0.32073963041E+02 -0.16571952843E+03  0.20690805631E+03  0.92266727364E+02 0.  0.
        -11    1    3    3    0    0  0.11812669010E+02  0.50037361025E+02 -0.27951975805E+02  0.58519993155E+02  0.00000000000E+00 0.  1.
         12    1    3    3    0    0  0.89671327552E+01  0.29948028484E+02 -0.15115735229E+03  0.15435620827E+03  0.00000000000E+00 0. -1.
        -11    1    4    4    0    0 -0.46567647385E+01  0.21570454860E+02 -0.44565845533E+01  0.22512910220E+02  0.00000000000E+00 0.  1.
         11    1    4    4    0    0 -0.71540962118E+02 -0.53644417900E+02 -0.16126294388E+03  0.18439514609E+03  0.00000000000E+00 0. -1.
          1    1    1    2  501    0  0.55417925091E+02 -0.47911426469E+02 -0.50059090325E+03  0.50592282378E+03  0.00000000000E+00 0. -1.
<scales pt_clust_5="13000.00000" pt_clust_6="13000.00000" pt_clust_7="13000.00000" pt_clust_8="13000.00000" pt_clust_9="73.25747"></scales>
<clustering>
<clus scale="   73.257">  1  9  2 -1</clus>
<clus scale="   80.042">  5  6 -1 -1</clus>
<clus scale="   92.267">  7  8 -1 -1</clus>
<clus scale="  109.133">  2  5  1 -1</clus>
<clus scale="   73.257">  1  5  2 -1</clus>
</clustering>
</event>
<event>
 9    2  0.1665830E-004  0.1209165E+03  0.7546771E-02  0.1245323E+00
         21   -1    0    0  501  502  0.00000000000E+00  0.00000000000E+00  0.19912513513E+03  0.19912513513E+03  0.00000000000E+00 0.  1.
          2   -1    0    0  502    0 -0.00000000000E+00 -0.00000000000E+00 -0.13318263376E+03  0.13318263376E+03  0.00000000000E+00 0. -1.
         23    2    1    2    0    0  0.55316958305E+02  0.50519168615E+02 -0.18587626734E+02  0.11993753446E+03  0.91800653766E+02 0.  0.
         24    2    1    2    0    0 -0.93323858837E+02 -0.23836795004E+02  0.10331402404E+03  0.16227723795E+03  0.79891044351E+02 0.  0.
        -11    1    4    4    0    0 -0.85139521108E+02  0.14077063680E+02  0.73539854622E+02  0.11337994529E+03  0.00000000000E+00 0.  1.
         12    1    4    4    0    0 -0.81843377288E+01 -0.37913858685E+02  0.29774169421E+02  0.48897292657E+02  0.00000000000E+00 0. -1.
        -13    1    3    3    0    0  0.62221922945E+02  0.17682441432E+02  0.21031033889E+02  0.68018679908E+02  0.00000000000E+00 0. -1.
         13    1    3    3    0    0 -0.69049646400E+01  0.32836727182E+02 -0.39618660623E+02  0.51918854555E+02  0.00000000000E+00 0.  1.
          1    1    1    2  501    0  0.38006900532E+02 -0.26682373610E+02 -0.18783895936E+02  0.50092996477E+02  0.00000000000E+00 0. -1.
<scales pt_clust_5="13000.00000" pt_clust_6="13000.00000" pt_clust_7="13000.00000" pt_clust_8="13000.00000" pt_clust_9="46.43787"></scales>
<clustering>
<clus scale="   46.438">  1  9  2 -1</clus>
<clus scale="   79.891">  5  6 -1 -1</clus>
<clus scale="   91.801">  7  8 -1 -1</clus>
<clus scale="  112.143">  1  5  2 -1</clus>
<clus scale="   46.438">  1  5  2 -1</clus>
</clustering>
</event>
<event>
 9    2  0.1665830E-004  0.1888571E+03  0.7546771E-02  0.1187125E+00
         21   -1    0    0  501  502  0.00000000000E+00  0.00000000000E+00  0.22606517073E+03  0.22606517073E+03  0.00000000000E+00 0. -1.
          2   -1    0    0  502    0 -0.00000000000E+00 -0.00000000000E+00 -0.47383408136E+03  0.47383408136E+03  0.00000000000E+00 0. -1.
         24    2    1    2    0    0 -0.37128619965E-01 -0.58808846977E+02 -0.41469754378E+02  0.10894427012E+03  0.81796281104E+02 0.  0.
         23    2    1    2    0    0 -0.12674231990E+03  0.15845140086E+03 -0.32270439781E+03  0.39207851938E+03  0.91744072851E+02 0.  0.
        -11    1    3    3    0    0  0.35858750820E+02 -0.20864642154E+02 -0.38545062587E+02  0.56629543106E+02  0.00000000000E+00 0.  1.
         12    1    3    3    0    0 -0.35895879440E+02 -0.37944204823E+02 -0.29246917908E+01  0.52314727014E+02  0.00000000000E+00 0. -1.
        -13    1    4    4    0    0 -0.72188949787E+01  0.61373767072E+02 -0.14072413270E+03  0.15369493568E+03  0.00000000000E+00 0. -1.
         13    1    4    4    0    0 -0.11952342492E+03  0.97077633787E+02 -0.18198026511E+03  0.23838358370E+03  0.00000000000E+00 0.  1.
          1    1    1    2  501    0  0.12677944852E+03 -0.99642553882E+02  0.11640524156E+03  0.19887646260E+03  0.00000000000E+00 0. -1.
<scales pt_clust_5="13000.00000" pt_clust_6="13000.00000" pt_clust_7="13000.00000" pt_clust_8="13000.00000" pt_clust_9="165.07585"></scales>
<clustering>
<clus scale="   81.796">  5  6 -1 -1</clus>
<clus scale="   91.744">  7  8 -1 -1</clus>
<clus scale="  100.743">  2  5  1 -1</clus>
<clus scale="  165.076">  1  9  2 -1</clus>
<clus scale="  165.076">  1  5  2 -1</clus>
</clustering>
</event>
<event>
 9    2  0.1665830E-004  0.1095512E+03  0.7546771E-02  0.1266076E+00
          2   -1    0    0  502    0 -0.00000000000E+00  0.00000000000E+00  0.50601339213E+03  0.50601339213E+03  0.00000000000E+00 0. -1.
         21   -1    0    0  501  502  0.00000000000E+00 -0.00000000000E+00 -0.47345532190E+03  0.47345532190E+03  0.00000000000E+00 0. -1.
         23    2    1    2    0    0 -0.17890174224E+02 -0.66131328129E+02  0.35316358210E+03  0.37131024564E+03  0.91942220422E+02 0.  0.
         24    2    1    2    0    0  0.68603510144E+02  0.11527490310E+02  0.12058460707E+03  0.16071892768E+03  0.80315637422E+02 0.  0.
        -13    1    4    4    0    0  0.96353517035E+01  0.38080435605E+02  0.30039700452E+02  0.49450411339E+02  0.00000000000E+00 0.  1.
         14    1    4    4    0    0  0.58968158441E+02 -0.26552945295E+02  0.90544906618E+02  0.11126851634E+03  0.00000000000E+00 0. -1.
        -13    1    3    3    0    0 -0.45744651264E+02 -0.46207491426E+01  0.11787923876E+03  0.12652841331E+03  0.00000000000E+00 0.  1.
         13    1    3    3    0    0  0.27854477040E+02 -0.61510578987E+02  0.23528434334E+03  0.24478183233E+03  0.00000000000E+00 0. -1.
          1    1    1    2  501    0 -0.50713335920E+02  0.54603837819E+02 -0.44119011895E+03  0.44743954072E+03  0.00000000000E+00 0. -1.
<scales pt_clust_5="13000.00000" pt_clust_6="13000.00000" pt_clust_7="13000.00000" pt_clust_8="13000.00000" pt_clust_9="74.52128"></scales>
<clustering>
<clus scale="   74.521">  2  9  1 -1</clus>
<clus scale="   80.316">  5  6 -1 -1</clus>
<clus scale="   91.942">  7  8 -1 -1</clus>
<clus scale="   99.993">  2  5  1 -1</clus>
<clus scale="   74.521">  2  5  1 -1</clus>
</clustering>
</event>
<event>
 9    2  0.1665830E-004  0.1298141E+03  0.7546771E-02  0.1230273E+00
         21   -1    0    0  501  502  0.00000000000E+00  0.00000000000E+00  0.26471901065E+03  0.26471901065E+03  0.00000000000E+00 0. -1.
          2   -1    0    0  502    0 -0.00000000000E+00 -0.00000000000E+00 -0.23595860136E+03  0.23595860136E+03  0.00000000000E+00 0. -1.
         24    2    1    2    0    0  0.85254214948E+02  0.10703200245E+02 -0.99860752389E+02  0.15433249146E+03  0.80395947606E+02 0.  0.
         23    2    1    2    0    0 -0.14995233459E+03  0.73938886576E+02  0.14440784952E+03  0.23864484635E+03  0.90250064217E+02 0.  0.
        -13    1    3    3    0    0 -0.72841944484E+01 -0.19075203617E+02 -0.18883419459E+02  0.27811983249E+02  0.00000000000E+00 0.  1.
         14    1    3    3    0    0  0.92538409396E+02  0.29778403862E+02 -0.80977332929E+02  0.12652050821E+03  0.00000000000E+00 0. -1.
        -13    1    4    4    0    0 -0.12318579088E+03  0.95204298883E+02  0.11507864868E+03  0.19360189302E+03  0.00000000000E+00 0. -1.
         13    1    4    4    0    0 -0.26766543716E+02 -0.21265412307E+02  0.29329200841E+02  0.45042953334E+02  0.00000000000E+00 0.  1.
          1    1    1    2  501    0  0.64698119645E+02 -0.84642086821E+02 -0.15786687842E+02  0.10770027419E+03  0.00000000000E+00 0. -1.
<scales pt_clust_5="13000.00000" pt_clust_6="13000.00000" pt_clust_7="13000.00000" pt_clust_8="13000.00000" pt_clust_9="106.53704"></scales>
<clustering>
<clus scale="   80.396">  5  6 -1 -1</clus>
<clus scale="   90.250">  7  8 -1 -1</clus>
<clus scale="  106.537">  1  9  2 -1</clus>
<clus scale="  123.167">  2  5  1 -1</clus>
<clus scale="  106.537">  1  5  2 -1</clus>
</clustering>
</event>
<event>
 9    2  0.1665830E-004  0.2438599E+03  0.7546771E-02  0.1159058E+00
         21   -1    0    0  501  502  0.00000000000E+00  0.00000000000E+00  0.68916634110E+02  0.68916634110E+02  0.00000000000E+00 0. -1.
          2   -1    0    0  502    0 -0.00000000000E+00 -0.00000000000E+00 -0.11448544213E+04  0.11448544213E+04  0.00000000000E+00 0. -1.
         24    2    1    2    0    0 -0.19346099950E+02 -0.31783447666E+02 -0.15996847674E+03  0.18287722936E+03  0.80434497199E+02 0.  0.
         23    2    1    2    0    0  0.10040366561E+03 -0.19182128746E+03 -0.43697288293E+03  0.49609761804E+03  0.91056267333E+02 0.  0.
        -13    1    3    3    0    0  0.20829996962E+02  0.10961748876E+02 -0.19203900305E+02  0.30378257006E+02  0.00000000000E+00 0.  1.
         14    1    3    3    0    0 -0.40176096912E+02 -0.42745196541E+02 -0.14076457644E+03  0.15249897236E+03  0.00000000000E+00 0. -1.
        -11    1    4    4    0    0  0.80457669491E+02 -0.57343337648E+02 -0.19201323595E+03  0.21594160723E+03  0.00000000000E+00 0. -1.
         11    1    4    4    0    0  0.19945996123E+02 -0.13447794981E+03 -0.24495964698E+03  0.28015601082E+03  0.00000000000E+00 0.  1.
          1    1    1    2  501    0 -0.81057565664E+02  0.22360473513E+03 -0.47899642755E+03  0.53479620803E+03  0.00000000000E+00 0. -1.
<scales pt_clust_5="13000.00000" pt_clust_6="13000.00000" pt_clust_7="13000.00000" pt_clust_8="13000.00000" pt_clust_9="226.22209"></scales>
<clustering>
<clus scale="   80.434">  5  6 -1 -1</clus>
<clus scale="   88.624">  2  5  1 -1</clus>
<clus scale="   91.056">  7  8 -1 -1</clus>
<clus scale="  226.222">  1  9  2 -1</clus>
<clus scale="  226.222">  1  5  2 -1</clus>
</clustering>
</event>
<event>
 9    2  0.1665830E-004  0.1872858E+03  0.7546771E-02  0.1186755E+00
         21   -1    0    0  501  502  0.00000000000E+00  0.00000000000E+00  0.73847163521E+02  0.73847163521E+02  0.00000000000E+00 0. -1.
          4   -1    0    0  502    0 -0.00000000000E+00 -0.00000000000E+00 -0.10110017912E+04  0.10110017912E+04  0.00000000000E+00 0. -1.
         24    2    1    2    0    0 -0.46757283615E+02 -0.48865267939E+02 -0.33485976730E+03  0.35068369770E+03  0.79208169360E+02 0.  0.
         23    2    1    2    0    0 -0.94923484637E+02 -0.11135582259E+03 -0.13019709064E+03  0.21587909847E+03  0.90784996488E+02 0.  0.
        -11    1    3    3    0    0 -0.55203335732E+02 -0.79809551639E+00 -0.16860911795E+03  0.17741781164E+03  0.00000000000E+00 0.  1.
         12    1    3    3    0    0  0.84460521174E+01 -0.48067172423E+02 -0.16625064935E+03  0.17326588605E+03  0.00000000000E+00 0. -1.
        -13    1    4    4    0    0 -0.51526950474E+02 -0.88840568918E+02 -0.34368738584E+02  0.10829997000E+03  0.00000000000E+00 0. -1.
         13    1    4    4    0    0 -0.43396534162E+02 -0.22515253672E+02 -0.95828352054E+02  0.10757912847E+03  0.00000000000E+00 0.  1.
          3    1    1    2  501    0  0.14168076825E+03  0.16022109053E+03 -0.47209776970E+03  0.51828615851E+03  0.00000000000E+00 0. -1.
<scales pt_clust_5="13000.00000" pt_clust_6="13000.00000" pt_clust_7="13000.00000" pt_clust_8="13000.00000" pt_clust_9="163.81109"></scales>
<clustering>
<clus scale="   79.208">  5  6 -1 -1</clus>
<clus scale="   90.785">  7  8 -1 -1</clus>
<clus scale="  104.154">  2  5  1 -1</clus>
<clus scale="  163.811">  1  9  2 -1</clus>
<clus scale="  163.811">  1  5  2 -1</clus>
</clustering>
</event>
<event>
 9    2  0.1665830E-004  0.9753006E+02  0.7546771E-02  0.1291476E+00
         21   -1    0    0  501  502  0.00000000000E+00  0.00000000000E+00  0.67964432496E+02  0.67964432496E+02  0.00000000000E+00 0.  1.
          2   -1    0    0  502    0 -0.00000000000E+00 -0.00000000000E+00 -0.25404406459E+03  0.25404406459E+03  0.00000000000E+00 0. -1.
         24    2    1    2    0    0 -0.10890918105E+02  0.26603066799E+02 -0.46341001284E+02  0.97004100923E+02  0.80224509569E+02 0.  0.
         23    2    1    2    0    0 -0.22977436339E+02 -0.46367307920E+02 -0.30956647083E+02  0.10937044508E+03  0.91245221430E+02 0.  0.
        -13    1    3    3    0    0  0.72648669244E+01  0.45540935060E+02 -0.28396827941E+01  0.46204099991E+02  0.00000000000E+00 0.  1.
         14    1    3    3    0    0 -0.18155785030E+02 -0.18937868261E+02 -0.43501318490E+02  0.50800000932E+02  0.00000000000E+00 0. -1.
        -11    1    4    4    0    0  0.34162909345E+02 -0.28525442415E+02 -0.77898595261E+01  0.45182819205E+02  0.00000000000E+00 0. -1.
         11    1    4    4    0    0 -0.57140345685E+02 -0.17841865505E+02 -0.23166787557E+02  0.64187625874E+02  0.00000000000E+00 0.  1.
          1    1    1    2  501    0  0.33868354445E+02  0.19764241121E+02 -0.10878198372E+03  0.11563395108E+03  0.00000000000E+00 0. -1.
<scales pt_clust_5="13000.00000" pt_clust_6="13000.00000" pt_clust_7="13000.00000" pt_clust_8="13000.00000" pt_clust_9="39.21342"></scales>
<clustering>
<clus scale="   39.213">  1  9  2 -1</clus>
<clus scale="   80.225">  5  6 -1 -1</clus>
<clus scale="   87.306">  2  5  1 -1</clus>
<clus scale="   91.245">  7  8 -1 -1</clus>
<clus scale="   39.213">  1  5  2 -1</clus>
</clustering>
</event>
<event>
 9    2  0.1665830E-004  0.1328006E+03  0.7546771E-02  0.1245749E+00
         21   -1    0    0  501  502  0.00000000000E+00  0.00000000000E+00  0.20788329991E+03  0.20788329991E+03  0.00000000000E+00 0.  1.
          2   -1    0    0  502    0 -0.00000000000E+00 -0.00000000000E+00 -0.27597533569E+03  0.27597533569E+03  0.00000000000E+00 0. -1.
         24    2    1    2    0    0  0.15036480642E+02  0.18437433854E+01 -0.71857408775E+01  0.84234006504E+02  0.82548396956E+02 0.  0.
         23    2    1    2    0    0 -0.16926347943E+02 -0.10756688568E+03  0.12697554522E+03  0.18403116847E+03  0.76730344276E+02 0.  0.
        -11    1    3    3    0    0  0.20605957455E+02  0.20043045258E+02  0.30563785171E+02  0.41958004121E+02  0.00000000000E+00 0.  1.
         12    1    3    3    0    0 -0.55694768130E+01 -0.18199301872E+02 -0.37749526048E+02  0.42276002383E+02  0.00000000000E+00 0. -1.
        -11    1    4    4    0    0  0.25924667828E+02 -0.70699723404E+02  0.85414301100E+02  0.11386896910E+03  0.00000000000E+00 0.  1.
         11    1    4    4    0    0 -0.42851015771E+02 -0.36867162279E+02  0.41561244122E+02  0.70162199367E+02  0.00000000000E+00 0. -1.
          1    1    1    2  501    0  0.18898673002E+01  0.10572314230E+03 -0.18788184013E+03  0.21559346063E+03  0.00000000000E+00 0. -1.
<scales pt_clust_5="13000.00000" pt_clust_6="13000.00000" pt_clust_7="13000.00000" pt_clust_8="13000.00000" pt_clust_9="108.39034"></scales>
<clustering>
<clus scale="   76.730">  7  8 -1 -1</clus>
<clus scale="   82.548">  5  6 -1 -1</clus>
<clus scale="   83.927">  2  5  1 -1</clus>
<clus scale="  108.390">  1  9  2 -1</clus>
<clus scale="  108.390">  1  5  2 -1</clus>
</clustering>
</event>
<event>
 9    2  0.1665830E-004  0.1090806E+03  0.7546771E-02  0.1267135E+00
         21   -1    0    0  501  502  0.00000000000E+00  0.00000000000E+00  0.73846169250E+02  0.73846169250E+02  0.00000000000E+00 0. -1.
          2   -1    0    0  502    0 -0.00000000000E+00 -0.00000000000E+00 -0.72032125857E+03  0.72032125857E+03  0.00000000000E+00 0. -1.
         24    2    1    2    0    0  0.30481005662E+02 -0.75249453065E+02 -0.46510891274E+03  0.47864140098E+03  0.78611183274E+02 0.  0.
         23    2    1    2    0    0 -0.41603063755E+02  0.78997254487E+01 -0.21666175522E+03  0.23867901091E+03  0.90731105455E+02 0.  0.
        -11    1    3    3    0    0  0.29921546771E+02 -0.16316077759E+02 -0.57869529115E+02  0.67159480006E+02  0.00000000000E+00 0.  1.
         12    1    3    3    0    0  0.55945889093E+00 -0.58933375305E+02 -0.40723938362E+03  0.41148192098E+03  0.00000000000E+00 0. -1.
        -11    1    4    4    0    0 -0.38087714634E+02 -0.35076229281E+02 -0.79292241493E+02  0.94700979021E+02  0.00000000000E+00 0. -1.
         11    1    4    4    0    0 -0.35153491215E+01  0.42975954730E+02 -0.13736951373E+03  0.14397803189E+03  0.00000000000E+00 0.  1.
          1    1    1    2  501    0  0.11122058093E+02  0.67349727616E+02  0.35295578635E+02  0.76847015930E+02  0.00000000000E+00 0. -1.
<scales pt_clust_5="13000.00000" pt_clust_6="13000.00000" pt_clust_7="13000.00000" pt_clust_8="13000.00000" pt_clust_9="68.26189"></scales>
<clustering>
<clus scale="   68.262">  1  9  2 -1</clus>
<clus scale="   78.611">  5  6 -1 -1</clus>
<clus scale="   90.731">  7  8 -1 -1</clus>
<clus scale="   99.228">  2  5  1 -1</clus>
<clus scale="   68.262">  1  5  2 -1</clus>
</clustering>
</event>
<event>
 9    2  0.1665830E-004  0.1145728E+03  0.7546771E-02  0.1256527E+00
         21   -1    0    0  501  502  0.00000000000E+00  0.00000000000E+00  0.52550643178E+02  0.52550643178E+02  0.00000000000E+00 0.  1.
         -1   -1    0    0    0  501 -0.00000000000E+00 -0.00000000000E+00 -0.60490380387E+03  0.60490380387E+03  0.00000000000E+00 0.  1.
         24    2    1    2    0    0  0.31695553484E+02  0.67871094793E+02 -0.47828879617E+03  0.49076271835E+03  0.80478441543E+02 0.  0.
         23    2    1    2    0    0 -0.14115225845E+02 -0.39891854914E+02 -0.84551116740E+02  0.13202362007E+03  0.92145239835E+02 0.  0.
        -11    1    3    3    0    0  0.58561764633E+02  0.43840725722E+02 -0.34617240492E+03  0.35381750018E+03  0.00000000000E+00 0.  1.
         12    1    3    3    0    0 -0.26866211149E+02  0.24030369071E+02 -0.13211639126E+03  0.13694521817E+03  0.00000000000E+00 0. -1.
        -11    1    4    4    0    0 -0.44688328588E+02  0.41678011917E+01 -0.23152275377E+02  0.50501931982E+02  0.00000000000E+00 0.  1.
         11    1    4    4    0    0  0.30573102743E+02 -0.44059656106E+02 -0.61398841363E+02  0.81521688085E+02  0.00000000000E+00 0. -1.
         -2    1    1    2    0  502 -0.17580327639E+02 -0.27979239878E+02  0.10486752224E+02  0.34668108635E+02  0.00000000000E+00 0.  1.
<scales pt_clust_5="13000.00000" pt_clust_6="13000.00000" pt_clust_7="13000.00000" pt_clust_8="13000.00000" pt_clust_9="33.04400"></scales>
<clustering>
<clus scale="   33.044">  1  9  2 -1</clus>
<clus scale="   80.478">  5  6 -1 -1</clus>
<clus scale="   92.145">  7  8 -1 -1</clus>
<clus scale="  105.418">  2  5  1 -1</clus>
<clus scale="   33.044">  1  5  2 -1</clus>
</clustering>
</event>
<event>
 9    2  0.1665830E-004  0.1306092E+03  0.7546771E-02  0.1229589E+00
         -3   -1    0    0    0  501 -0.00000000000E+00  0.00000000000E+00  0.56959278012E+02  0.56959278012E+02  0.00000000000E+00 0.  1.
         21   -1    0    0  501  502  0.00000000000E+00 -0.00000000000E+00 -0.70112240347E+03  0.70112240347E+03  0.00000000000E+00 0. -1.
         23    2    1    2    0    0  0.41306757527E+02 -0.65054031456E+02 -0.12955490721E+03  0.17659763203E+03  0.91999861038E+02 0.  0.
         24    2    1    2    0    0 -0.14135767655E+03  0.43743382668E+02 -0.32736703477E+03  0.36812146853E+03  0.80304195972E+02 0.  0.
        -11    1    4    4    0    0 -0.78878928647E+02  0.58073246933E+02 -0.14647842533E+03  0.17621099989E+03  0.00000000000E+00 0.  1.
         12    1    4    4    0    0 -0.62478747899E+02 -0.14329864265E+02 -0.18088860944E+03  0.19191046864E+03  0.00000000000E+00 0. -1.
        -11    1    3    3    0    0  0.52872781916E+02 -0.11904820739E+02 -0.10227426777E+03  0.11574662704E+03  0.00000000000E+00 0. -1.
         11    1    3    3    0    0 -0.11566024389E+02 -0.53149210717E+02 -0.27280639447E+02  0.60851004992E+02  0.00000000000E+00 0.  1.
         -4    1    1    2    0  502  0.10005091902E+03  0.21310648788E+02 -0.18724118347E+03  0.21336258092E+03  0.00000000000E+00 0.  1.
<scales pt_clust_5="13000.00000" pt_clust_6="13000.00000" pt_clust_7="13000.00000" pt_clust_8="13000.00000" pt_clust_9="102.29531"></scales>
<clustering>
<clus scale="   80.304">  5  6 -1 -1</clus>
<clus scale="   92.000">  7  8 -1 -1</clus>
<clus scale="  102.295">  2  9  1 -1</clus>
<clus scale="  122.652">  2  5  1 -1</clus>
<clus scale="  102.295">  2  5  1 -1</clus>
</clustering>
</event>
<event>
 9    2  0.1665830E-004  0.1928564E+03  0.7546771E-02  0.1157829E+00
         21   -1    0    0  501  502  0.00000000000E+00  0.00000000000E+00  0.83294208877E+02  0.83294208877E+02  0.00000000000E+00 0. -1.
          2   -1    0    0  502    0 -0.00000000000E+00 -0.00000000000E+00 -0.97475287448E+03  0.97475287448E+03  0.00000000000E+00 0. -1.
         23    2    1    2    0    0 -0.13244352126E+03 -0.10916529608E+03 -0.82631856028E+03  0.84971599454E+03  0.98775301166E+02 0.  0.
         24    2    1    2    0    0  0.11416343530E+03  0.74582791706E+02 -0.48858802381E+02  0.16596138293E+03  0.80994538561E+02 0.  0.
        -13    1    4    4    0    0  0.12693663612E+03  0.70452101994E+02 -0.44364070234E+02  0.15180441032E+03  0.00000000000E+00 0.  1.
         14    1    4    4    0    0 -0.12773200816E+02  0.41306897120E+01 -0.44947321472E+01  0.14156972616E+02  0.00000000000E+00 0. -1.
        -11    1    3    3    0    0 -0.86120223949E+01 -0.52878132135E+02 -0.13696289771E+03  0.14706834852E+03  0.00000000000E+00 0.  1.
         11    1    3    3    0    0 -0.12383149886E+03 -0.56287163943E+02 -0.68935566258E+03  0.70264764602E+03  0.00000000000E+00 0. -1.
          1    1    1    2  501    0  0.18280085954E+02  0.34582504372E+02 -0.16281302938E+02  0.42369705881E+02  0.00000000000E+00 0. -1.
<scales pt_clust_5="13000.00000" pt_clust_6="13000.00000" pt_clust_7="13000.00000" pt_clust_8="13000.00000" pt_clust_9="39.11664"></scales>
<clustering>
<clus scale="   39.117">  1  9  2 -1</clus>
<clus scale="   80.995">  5  6 -1 -1</clus>
<clus scale="   98.775">  7  8 -1 -1</clus>
<clus scale="  184.383">  1  5  2 -1</clus>
<clus scale="   39.117">  1  5  2 -1</clus>
</clustering>
</event>
<event>
 9    2  0.1665830E-004  0.9089452E+02  0.7546771E-02  0.1302799E+00
         21   -1    0    0  501  502  0.00000000000E+00  0.00000000000E+00  0.76127313020E+02  0.76127313020E+02  0.00000000000E+00 0.  1.
         -3   -1    0    0    0  501 -0.00000000000E+00 -0.00000000000E+00 -0.47947851912E+03  0.47947851912E+03  0.00000000000E+00 0.  1.
         23    2    1    2    0    0 -0.30996552698E+02 -0.25040539749E+02 -0.28155692234E+03  0.29812293370E+03  0.89527471606E+02 0.  0.
         24    2    1    2    0    0 -0.11748217555E+02 -0.51255220575E+02 -0.13924084882E+03  0.16830587752E+03  0.78573126308E+02 0.  0.
        -13    1    4    4    0    0 -0.19096327617E+02 -0.36999024446E+02 -0.16928262730E+02  0.44946230292E+02  0.00000000000E+00 0.  1.
         14    1    4    4    0    0  0.73481100619E+01 -0.14256196128E+02 -0.12231258609E+03  0.12335964723E+03  0.00000000000E+00 0. -1.
        -13    1    3    3    0    0 -0.39014612079E+02 -0.54321094830E+02 -0.20999268018E+03  0.22038567792E+03  0.00000000000E+00 0.  1.
         13    1    3    3    0    0  0.80180593817E+01  0.29280555081E+02 -0.71564242151E+02  0.77737255783E+02  0.00000000000E+00 0. -1.
         -4    1    1    2    0  502  0.42744770253E+02  0.76295760324E+02  0.17446565053E+02  0.89177020917E+02  0.00000000000E+00 0.  1.
<scales pt_clust_5="13000.00000" pt_clust_6="13000.00000" pt_clust_7="13000.00000" pt_clust_8="13000.00000" pt_clust_9="87.45375"></scales>
<clustering>
<clus scale="   78.573">  5  6 -1 -1</clus>
<clus scale="   87.454">  1  9  2 -1</clus>
<clus scale="   87.454">  1  5  2 -1</clus>
<clus scale="   89.527">  7  8 -1 -1</clus>
<clus scale="   87.454">  1  5  2 -1</clus>
</clustering>
</event>
<event>
 9    2  0.1665830E-004  0.1313445E+03  0.7546771E-02  0.1237775E+00
         21   -1    0    0  501  502  0.00000000000E+00  0.00000000000E+00  0.90945167940E+03  0.90945167940E+03  0.00000000000E+00 0.  1.
         -1   -1    0    0    0  501 -0.00000000000E+00 -0.00000000000E+00 -0.43444046504E+02  0.43444046504E+02  0.00000000000E+00 0.  1.
         24    2    1    2    0    0 -0.54240165019E+02 -0.31719481034E+02  0.85053311340E+02  0.13277115356E+03  0.80286938349E+02 0.  0.
         23    2    1    2    0    0  0.40701524479E+02 -0.81132170646E+02  0.52010136643E+03  0.53558449736E+03  0.90034877904E+02 0.  0.
        -11    1    3    3    0    0 -0.50482814854E+02 -0.55296398869E+02  0.48837748405E+02  0.89394250333E+02  0.00000000000E+00 0.  1.
         12    1    3    3    0    0 -0.37573501656E+01  0.23576917835E+02  0.36215562934E+02  0.43376903227E+02  0.00000000000E+00 0. -1.
        -11    1    4    4    0    0  0.37640020542E+02 -0.69681007340E+01  0.73642325351E+02  0.82997094271E+02  0.00000000000E+00 0. -1.
         11    1    4    4    0    0  0.30615039367E+01 -0.74164069912E+02  0.44645904108E+03  0.45258740309E+03  0.00000000000E+00 0.  1.
         -2    1    1    2    0  502  0.13538640540E+02  0.11285165168E+03  0.26085295512E+03  0.28454007498E+03  0.00000000000E+00 0.  1.
<scales pt_clust_5="13000.00000" pt_clust_6="13000.00000" pt_clust_7="13000.00000" pt_clust_8="13000.00000" pt_clust_9="95.63012"></scales>
<clustering>
<clus scale="   80.287">  5  6 -1 -1</clus>
<clus scale="   90.035">  7  8 -1 -1</clus>
<clus scale="  101.952">  2  5  1 -1</clus>
<clus scale="   95.630">  1  9  2 -1</clus>
<clus scale="   95.630">  1  5  2 -1</clus>
</clustering>
</event>
<event>
 9    2  0.1665830E-004  0.1696937E+03  0.7546771E-02  0.1179630E+00
         -3   -1    0    0    0  501 -0.00000000000E+00  0.00000000000E+00  0.73849157221E+03  0.73849157221E+03  0.00000000000E+00 0.  1.
         21   -1    0    0  501  502  0.00000000000E+00 -0.00000000000E+00 -0.93990730020E+02  0.93990730020E+02  0.00000000000E+00 0. -1.
         23    2    1    2    0    0  0.47798998483E+02  0.13175084568E+03  0.48911842061E+03  0.51672937878E+03  0.90163140628E+02 0.  0.
         24    2    1    2    0    0 -0.12225671163E+03 -0.11591798706E+03  0.15057461457E+03  0.23947877666E+03  0.79332759057E+02 0.  0.
        -13    1    4    4    0    0 -0.86128965433E+02 -0.30822876244E+02  0.93636201198E+02  0.13090449404E+03  0.00000000000E+00 0.  1.
         14    1    4    4    0    0 -0.36127746195E+02 -0.85095110812E+02  0.56938413369E+02  0.10857428262E+03  0.00000000000E+00 0. -1.
        -11    1    3    3    0    0  0.91028886082E+01  0.11158641642E+03  0.42258212152E+03  0.43716134360E+03  0.00000000000E+00 0.  1.
         11    1    3    3    0    0  0.38696109875E+02  0.20164429260E+02  0.66536299092E+02  0.79568035188E+02  0.00000000000E+00 0. -1.
         -4    1    1    2    0  502  0.74457713144E+02 -0.15832858624E+02  0.48078070168E+01  0.76274146781E+02  0.00000000000E+00 0.  1.
<scales pt_clust_5="13000.00000" pt_clust_6="13000.00000" pt_clust_7="13000.00000" pt_clust_8="13000.00000" pt_clust_9="76.12247"></scales>
<clustering>
<clus scale="   76.122">  2  9  1 -1</clus>
<clus scale="   79.333">  5  6 -1 -1</clus>
<clus scale="   90.163">  7  8 -1 -1</clus>
<clus scale="  164.196">  2  5  1 -1</clus>
<clus scale="   76.122">  2  5  1 -1</clus>
</clustering>
</event>
<event>
 9    2  0.1665830E-004  0.1331720E+03  0.7546771E-02  0.1222953E+00
         -1   -1    0    0    0  501 -0.00000000000E+00  0.00000000000E+00  0.27397782442E+03  0.27397782442E+03  0.00000000000E+00 0.  1.
         21   -1    0    0  501  502  0.00000000000E+00 -0.00000000000E+00 -0.21380864924E+03  0.21380864924E+03  0.00000000000E+00 0. -1.
         23    2    1    2    0    0  0.85042090537E+01 -0.98427948513E+02  0.22229031956E+03  0.25947487477E+03  0.90298625932E+02 0.  0.
         24    2    1    2    0    0  0.20452238726E+02  0.92149668047E+02 -0.12229656159E+03  0.17867401164E+03  0.89766909657E+02 0.  0.
        -13    1    4    4    0    0 -0.25641200255E+02  0.40237750975E+02 -0.90519442352E+02  0.10232456791E+03  0.00000000000E+00 0.  1.
         14    1    4    4    0    0  0.46093438982E+02  0.51911917071E+02 -0.31777119239E+02  0.76349443733E+02  0.00000000000E+00 0. -1.
        -11    1    3    3    0    0  0.28638670882E+02 -0.10284666736E+03  0.20972294666E+03  0.23533237094E+03  0.00000000000E+00 0.  1.
         11    1    3    3    0    0 -0.20134461829E+02  0.44187188469E+01  0.12567372900E+02  0.24142503826E+02  0.00000000000E+00 0. -1.
         -2    1    1    2    0  502 -0.28956447780E+02  0.62782804660E+01 -0.39824582785E+02  0.49637587246E+02  0.00000000000E+00 0.  1.
<scales pt_clust_5="13000.00000" pt_clust_6="13000.00000" pt_clust_7="13000.00000" pt_clust_8="13000.00000" pt_clust_9="29.62925"></scales>
<clustering>
<clus scale="   29.629">  2  9  1 -1</clus>
<clus scale="   89.767">  5  6 -1 -1</clus>
<clus scale="   90.299">  7  8 -1 -1</clus>
<clus scale="  132.812">  2  5  1 -1</clus>
<clus scale="   29.629">  2  5  1 -1</clus>
</clustering>
</event>
<event>
 9    2  0.1665830E-004  0.9753128E+02  0.7546771E-02  0.1293834E+00
          2   -1    0    0  502    0 -0.00000000000E+00  0.00000000000E+00  0.18952752435E+03  0.18952752435E+03  0.00000000000E+00 0. -1.
         21   -1    0    0  501  502  0.00000000000E+00 -0.00000000000E+00 -0.18974287443E+03  0.18974287443E+03  0.00000000000E+00 0. -1.
         23    2    1    2    0    0  0.36307993738E+01  0.88889866830E+01  0.12891581964E+03  0.16096387093E+03  0.95905591098E+02 0.  0.
         24    2    1    2    0    0  0.23321684830E+02 -0.65967418481E+02 -0.54451254772E+02  0.12052374061E+03  0.81642094655E+02 0.  0.
        -11    1    4    4    0    0 -0.26554508604E+02 -0.28452359515E+01 -0.93568154855E+01  0.28298185292E+02  0.00000000000E+00 0.  1.
         12    1    4    4    0    0  0.49876193434E+02 -0.63122182530E+02 -0.45094439286E+02  0.92225555316E+02  0.00000000000E+00 0. -1.
        -13    1    3    3    0    0 -0.42673706827E+02  0.10231527363E+02  0.91271443073E+02  0.10127292692E+03  0.00000000000E+00 0.  1.
         13    1    3    3    0    0  0.46304506201E+02 -0.13425406804E+01  0.37644376569E+02  0.59690944014E+02  0.00000000000E+00 0. -1.
          1    1    1    2  501    0 -0.26952484204E+02  0.57078431798E+02 -0.74679914957E+02  0.97782787234E+02  0.00000000000E+00 0. -1.
<scales pt_clust_5="13000.00000" pt_clust_6="13000.00000" pt_clust_7="13000.00000" pt_clust_8="13000.00000" pt_clust_9="63.12198"></scales>
<clustering>
<clus scale="   63.122">  2  9  1 -1</clus>
<clus scale="   81.642">  5  6 -1 -1</clus>
<clus scale="   83.546">  2  5  1 -1</clus>
<clus scale="   95.906">  7  8 -1 -1</clus>
<clus scale="   63.122">  2  5  1 -1</clus>
</clustering>
</event>
<event>
 9    2  0.1665830E-004  0.1221655E+03  0.7546771E-02  0.1242049E+00
         21   -1    0    0  501  502  0.00000000000E+00  0.00000000000E+00  0.13533809989E+03  0.13533809989E+03  0.00000000000E+00 0. -1.
          2   -1    0    0  502    0 -0.00000000000E+00 -0.00000000000E+00 -0.49204200473E+03  0.49204200473E+03  0.00000000000E+00 0. -1.
         24    2    1    2    0    0  0.10275112619E+02  0.85027570714E+02 -0.72588645070E+02  0.13698259584E+03  0.78484740240E+02 0.  0.
         23    2    1    2    0    0 -0.59503336940E+02  0.49237441135E+02  0.48529219136E+02  0.12831621842E+03  0.90249620962E+02 0.  0.
        -13    1    3    3    0    0 -0.11468090908E+02  0.92399419161E+02 -0.55913348269E+02  0.10860696242E+03  0.00000000000E+00 0.  1.
         14    1    3    3    0    0  0.21743203527E+02 -0.73718484474E+01 -0.16675296800E+02  0.28375633429E+02  0.00000000000E+00 0. -1.
        -13    1    4    4    0    0  0.11325955581E+02  0.35964877311E+02 -0.56925069505E+01  0.38133375214E+02  0.00000000000E+00 0.  1.
         13    1    4    4    0    0 -0.70829292521E+02  0.13272563825E+02  0.54221726086E+02  0.90182843209E+02  0.00000000000E+00 0. -1.
          1    1    1    2  501    0  0.49228224321E+02 -0.13426501185E+03 -0.33264447890E+03  0.36208129035E+03  0.00000000000E+00 0. -1.
<scales pt_clust_5="13000.00000" pt_clust_6="13000.00000" pt_clust_7="13000.00000" pt_clust_8="13000.00000" pt_clust_9="82.33720"></scales>
<clustering>
<clus scale="   78.485">  5  6 -1 -1</clus>
<clus scale="   90.250">  7  8 -1 -1</clus>
<clus scale="  116.169">  2  5  1 -1</clus>
<clus scale="   82.337">  1  9  2 -1</clus>
<clus scale="   82.337">  1  5  2 -1</clus>
</clustering>
</event>
<event>
 9    2  0.1665830E-004  0.2230722E+03  0.7546771E-02  0.1164771E+00
         21   -1    0    0  501  502  0.00000000000E+00  0.00000000000E+00  0.10020244216E+03  0.10020244216E+03  0.00000000000E+00 0. -1.
          2   -1    0    0  502    0 -0.00000000000E+00 -0.00000000000E+00 -0.94287340544E+03  0.94287340544E+03  0.00000000000E+00 0. -1.
         23    2    1    2    0    0  0.39399789302E+02 -0.10815995660E+02 -0.10950811563E+03  0.14924923883E+03  0.92811522688E+02 0.  0.
         24    2    1    2    0    0 -0.14965126848E+03 -0.16226945570E+03 -0.61191129952E+03  0.65546574776E+03  0.80455140288E+02 0.  0.
        -13    1    4    4    0    0 -0.35361926403E+02 -0.10102310884E+02 -0.49072440441E+02  0.61323950745E+02  0.00000000000E+00 0.  1.
         14    1    4    4    0    0 -0.11428934207E+03 -0.15216714482E+03 -0.56283885908E+03  0.59414179702E+03  0.00000000000E+00 0. -1.
        -13    1    3    3    0    0  0.55912120710E+02 -0.37175313702E+02 -0.90882910542E+02  0.11299501148E+03  0.00000000000E+00 0. -1.
         13    1    3    3    0    0 -0.16512331408E+02  0.26359318042E+02 -0.18625205089E+02  0.36254227350E+02  0.00000000000E+00 0.  1.
          1    1    1    2  501    0  0.11025147918E+03  0.17308545136E+03 -0.12125154813E+03  0.23836086100E+03  0.00000000000E+00 0. -1.
<scales pt_clust_5="13000.00000" pt_clust_6="13000.00000" pt_clust_7="13000.00000" pt_clust_8="13000.00000" pt_clust_9="208.05815"></scales>
<clustering>
<clus scale="   80.455">  5  6 -1 -1</clus>
<clus scale="   92.812">  7  8 -1 -1</clus>
<clus scale="  101.407">  2  7  1 -1</clus>
<clus scale="  208.058">  1  9  2 -1</clus>
<clus scale="  208.058">  1  5  2 -1</clus>
</clustering>
</event>
<event>
 9    2  0.1665830E-004  0.1178036E+03  0.7546771E-02  0.1250969E+00
         21   -1    0    0  501  502  0.00000000000E+00  0.00000000000E+00  0.21145027751E+03  0.21145027751E+03  0.00000000000E+00 0.  1.
          2   -1    0    0  502    0 -0.00000000000E+00 -0.00000000000E+00 -0.13086952349E+03  0.13086952349E+03  0.00000000000E+00 0. -1.
         23    2    1    2    0    0  0.18756175434E+02  0.75741336753E+02 -0.50415624316E+02  0.13091219115E+03  0.92237315695E+02 0.  0.
         24    2    1    2    0    0  0.11192947046E+02 -0.58065747446E+02  0.14346584579E+03  0.17446354384E+03  0.79738109643E+02 0.  0.
        -13    1    4    4    0    0  0.20828196311E+02 -0.35923256959E+02  0.14444544157E+03  0.15029564113E+03  0.00000000000E+00 0.  1.
         14    1    4    4    0    0 -0.96352492647E+01 -0.22142490487E+02 -0.97959577914E+00  0.24167902707E+02  0.00000000000E+00 0. -1.
        -13    1    3    3    0    0  0.41586934799E+02  0.31261894264E+01 -0.32080011317E+02  0.52615333625E+02  0.00000000000E+00 0.  1.
         13    1    3    3    0    0 -0.22830759365E+02  0.72615147327E+02 -0.18335612999E+02  0.78296857526E+02  0.00000000000E+00 0. -1.
          1    1    1    2  501    0 -0.29949122481E+02 -0.17675589307E+02 -0.12469467453E+02  0.36944066009E+02  0.00000000000E+00 0. -1.
<scales pt_clust_5="13000.00000" pt_clust_6="13000.00000" pt_clust_7="13000.00000" pt_clust_8="13000.00000" pt_clust_9="34.77611"></scales>
<clustering>
<clus scale="   34.776">  1  9  2 -1</clus>
<clus scale="   79.738">  5  6 -1 -1</clus>
<clus scale="   92.237">  7  8 -1 -1</clus>
<clus scale="  108.297">  1  5  2 -1</clus>
<clus scale="   34.776">  1  5  2 -1</clus>
</clustering>
</event>
<event>
 9    2  0.1665830E-004  0.9102509E+02  0.7546771E-02  0.1311401E+00
         21   -1    0    0  501  502  0.00000000000E+00  0.00000000000E+00  0.28609429969E+02  0.28609429969E+02  0.00000000000E+00 0. -1.
          2   -1    0    0  502    0 -0.00000000000E+00 -0.00000000000E+00 -0.55951473542E+03  0.55951473542E+03  0.00000000000E+00 0. -1.
         24    2    1    2    0    0  0.49470458509E+01  0.15698131718E+02 -0.34679747799E+03  0.35483564532E+03  0.73273049973E+02 0.  0.
         23    2    1    2    0    0 -0.18306844887E+02  0.55082928496E+01 -0.18661839378E+03  0.20809924424E+03  0.90074350940E+02 0.  0.
        -11    1    3    3    0    0 -0.14050504246E+02  0.16066788706E+02 -0.26736270579E+02  0.34210912490E+02  0.00000000000E+00 0.  1.
         12    1    3    3    0    0  0.18997550097E+02 -0.36865698857E+00 -0.32006120741E+03  0.32062473283E+03  0.00000000000E+00 0. -1.
        -11    1    4    4    0    0 -0.48249529502E+02 -0.20494549163E+02 -0.10564345528E+03  0.11793465685E+03  0.00000000000E+00 0.  1.
         11    1    4    4    0    0  0.29942684616E+02  0.26002842012E+02 -0.80974938502E+02  0.90164587395E+02  0.00000000000E+00 0. -1.
          1    1    1    2  501    0  0.13359799036E+02 -0.21206424568E+02  0.25105663166E+01  0.25189275822E+02  0.00000000000E+00 0. -1.
<scales pt_clust_5="13000.00000" pt_clust_6="13000.00000" pt_clust_7="13000.00000" pt_clust_8="13000.00000" pt_clust_9="25.06385"></scales>
<clustering>
<clus scale="   25.064">  1  9  2 -1</clus>
<clus scale="   73.273">  5  6 -1 -1</clus>
<clus scale="   74.439">  2  5  1 -1</clus>
<clus scale="   90.074">  7  8 -1 -1</clus>
<clus scale="   25.064">  1  5  2 -1</clus>
</clustering>
</event>
<event>
 9    2  0.1665830E-004  0.3872026E+03  0.7546771E-02  0.1048515E+00
          2   -1    0    0  502    0 -0.00000000000E+00  0.00000000000E+00  0.22002371506E+04  0.22002371506E+04  0.00000000000E+00 0. -1.
         21   -1    0    0  501  502  0.00000000000E+00 -0.00000000000E+00 -0.18657258733E+03  0.18657258733E+03  0.00000000000E+00 0. -1.
         23    2    1    2    0    0  0.16560657270E+03  0.33529968408E+03  0.16911680670E+04  0.17343869311E+04  0.90538284004E+02 0.  0.
         24    2    1    2    0    0 -0.18681665137E+03 -0.33783292877E+03  0.40618642332E+03  0.56604984419E+03  0.79959156013E+02 0.  0.
        -11    1    4    4    0    0 -0.22196232827E+02 -0.10339599568E+03  0.85009575087E+02  0.13568357503E+03  0.00000000000E+00 0.  1.
         12    1    4    4    0    0 -0.16462041854E+03 -0.23443693309E+03  0.32117684823E+03  0.43036626917E+03  0.00000000000E+00 0. -1.
        -11    1    3    3    0    0  0.35807520438E+01  0.25633084835E+02  0.48736986264E+02  0.55183064916E+02  0.00000000000E+00 0. -1.
         11    1    3    3    0    0  0.16202582066E+03  0.30966659925E+03  0.16424310807E+04  0.16792038662E+04  0.00000000000E+00 0.  1.
          1    1    1    2  501    0  0.21210078667E+02  0.25332446929E+01 -0.83689927107E+02  0.86372962581E+02  0.00000000000E+00 0. -1.
<scales pt_clust_5="13000.00000" pt_clust_6="13000.00000" pt_clust_7="13000.00000" pt_clust_8="13000.00000" pt_clust_9="21.36082"></scales>
<clustering>
<clus scale="   21.361">  2  9  1 -1</clus>
<clus scale="   79.959">  5  6 -1 -1</clus>
<clus scale="   90.538">  7  8 -1 -1</clus>
<clus scale="  384.866">  2  5  1 -1</clus>
<clus scale="   21.361">  2  5  1 -1</clus>
</clustering>
</event>
<event>
 9    2  0.1665830E-004  0.1026601E+03  0.7546771E-02  0.1280716E+00
         21   -1    0    0  501  502  0.00000000000E+00  0.00000000000E+00  0.18818341560E+03  0.18818341560E+03  0.00000000000E+00 0.  1.
          4   -1    0    0  502    0 -0.00000000000E+00 -0.00000000000E+00 -0.13215127388E+03  0.13215127388E+03  0.00000000000E+00 0. -1.
         23    2    1    2    0    0 -0.34183119843E+02  0.10061367721E+02 -0.30863040899E+02  0.10406896603E+03  0.92779877100E+02 0.  0.
         24    2    1    2    0    0  0.53797600665E+02  0.25844326200E+02 -0.19680552429E+02  0.10210647496E+03  0.80475443770E+02 0.  0.
        -11    1    4    4    0    0  0.30347816176E+02  0.54134832634E+02 -0.20477629821E+02  0.65352148963E+02  0.00000000000E+00 0.  1.
         12    1    4    4    0    0  0.23449784489E+02 -0.28290506434E+02  0.79707739248E+00  0.36754325993E+02  0.00000000000E+00 0. -1.
        -11    1    3    3    0    0 -0.50628656419E+02 -0.12815092253E+02 -0.48132914515E+02  0.71022988531E+02  0.00000000000E+00 0. -1.
         11    1    3    3    0    0  0.16445536576E+02  0.22876459975E+02  0.17269873616E+02  0.33045977500E+02  0.00000000000E+00 0.  1.
          3    1    1    2  501    0 -0.19614480822E+02 -0.35905693922E+02  0.10657573505E+03  0.11415924849E+03  0.00000000000E+00 0. -1.
<scales pt_clust_5="13000.00000" pt_clust_6="13000.00000" pt_clust_7="13000.00000" pt_clust_8="13000.00000" pt_clust_9="40.91389"></scales>
<clustering>
<clus scale="   40.914">  1  9  2 -1</clus>
<clus scale="   80.475">  5  6 -1 -1</clus>
<clus scale="   91.691">  1  5  2 -1</clus>
<clus scale="   92.780">  7  8 -1 -1</clus>
<clus scale="   40.914">  1  5  2 -1</clus>
</clustering>
</event>
<event>
 9    2  0.1665830E-004  0.1067708E+03  0.7546771E-02  0.1269607E+00
          2   -1    0    0  502    0 -0.00000000000E+00  0.00000000000E+00  0.56388158260E+03  0.56388158260E+03  0.00000000000E+00 0. -1.
         21   -1    0    0  501  502  0.00000000000E+00 -0.00000000000E+00 -0.91304297907E+02  0.91304297907E+02  0.00000000000E+00 0. -1.
         23    2    1    2    0    0 -0.90640398369E+01 -0.62728968735E+02  0.48530952513E+03  0.49776914943E+03  0.90728774939E+02 0.  0.
         24    2    1    2    0    0  0.20695148606E+02 -0.58887391864E+01 -0.15381747632E+02  0.87769818582E+02  0.83689763225E+02 0.  0.
        -13    1    4    4    0    0  0.27251810453E+02  0.28299032281E+02 -0.30579999754E+02  0.49785869340E+02  0.00000000000E+00 0.  1.
         14    1    4    4    0    0 -0.65566618464E+01 -0.34187771467E+02  0.15198252122E+02  0.37983949242E+02  0.00000000000E+00 0. -1.
        -13    1    3    3    0    0  0.25040393132E+02  0.63189125078E+01  0.56813391766E+02  0.62407623152E+02  0.00000000000E+00 0.  1.
         13    1    3    3    0    0 -0.34104432969E+02 -0.69047881243E+02  0.42849613337E+03  0.43536152628E+03  0.00000000000E+00 0. -1.
          1    1    1    2  501    0 -0.11631108769E+02  0.68617707921E+02  0.26495071899E+01  0.69646912494E+02  0.00000000000E+00 0. -1.
<scales pt_clust_5="13000.00000" pt_clust_6="13000.00000" pt_clust_7="13000.00000" pt_clust_8="13000.00000" pt_clust_9="69.59650"></scales>
<clustering>
<clus scale="   69.596">  2  9  1 -1</clus>
<clus scale="   83.690">  5  6 -1 -1</clus>
<clus scale="   90.729">  7  8 -1 -1</clus>
<clus scale="  100.858">  2  5  1 -1</clus>
<clus scale="   69.596">  2  5  1 -1</clus>
</clustering>
</event>
<event>
 9    2  0.1665830E-004  0.1403775E+03  0.7546771E-02  0.1215320E+00
          2   -1    0    0  502    0 -0.00000000000E+00  0.00000000000E+00  0.89708863588E+03  0.89708863588E+03  0.00000000000E+00 0. -1.
         21   -1    0    0  501  502  0.00000000000E+00 -0.00000000000E+00 -0.41746469068E+02  0.41746469068E+02  0.00000000000E+00 0.  1.
         23    2    1    2    0    0  0.57047565711E+02 -0.83579241608E+02  0.53520244368E+03  0.55224854519E+03  0.91087241438E+02 0.  0.
         24    2    1    2    0    0 -0.10912713263E+03  0.74437784661E+02  0.18108016979E+03  0.23781355516E+03  0.79470398662E+02 0.  0.
        -11    1    4    4    0    0 -0.86785737713E+02  0.74890422245E+02  0.95000206410E+02  0.14888041789E+03  0.00000000000E+00 0.  1.
         12    1    4    4    0    0 -0.22341394915E+02 -0.45263758379E+00  0.86079963381E+02  0.88933137262E+02  0.00000000000E+00 0. -1.
        -13    1    3    3    0    0 -0.12299131170E+02 -0.58371924972E+02  0.29490235617E+03  0.30087530628E+03  0.00000000000E+00 0. -1.
         13    1    3    3    0    0  0.69346696881E+02 -0.25207316636E+02  0.24030008751E+03  0.25137323891E+03  0.00000000000E+00 0.  1.
          1    1    1    2  501    0  0.52079566918E+02  0.91414569470E+01  0.13905955334E+03  0.14877300461E+03  0.00000000000E+00 0. -1.
<scales pt_clust_5="13000.00000" pt_clust_6="13000.00000" pt_clust_7="13000.00000" pt_clust_8="13000.00000" pt_clust_9="52.87580"></scales>
<clustering>
<clus scale="   52.876">  2  9  1 -1</clus>
<clus scale="   79.470">  5  6 -1 -1</clus>
<clus scale="   91.087">  7  8 -1 -1</clus>
<clus scale="  133.133">  2  5  1 -1</clus>
<clus scale="   52.876">  2  5  1 -1</clus>
</clustering>
</event>
<event>
 9    2  0.1665830E-004  0.1454557E+03  0.7546771E-02  0.1208648E+00
         21   -1    0    0  501  502  0.00000000000E+00  0.00000000000E+00  0.54383356706E+02  0.54383356706E+02  0.00000000000E+00 0.  1.
         -1   -1    0    0    0  501 -0.00000000000E+00 -0.00000000000E+00 -0.99325144924E+03  0.99325144924E+03  0.00000000000E+00 0.  1.
         23    2    1    2    0    0 -0.60653097848E+02  0.97345299749E+02 -0.61912002742E+03  0.63638702483E+03  0.92325139371E+02 0.  0.
         24    2    1    2    0    0  0.74935226017E+02 -0.80807376050E+02 -0.34906859587E+03  0.37468036900E+03  0.79946070402E+02 0.  0.
        -11    1    4    4    0    0  0.77111687673E+02 -0.43837225893E+02 -0.16922085497E+03  0.19105918588E+03  0.00000000000E+00 0.  1.
         12    1    4    4    0    0 -0.21764616564E+01 -0.36970150157E+02 -0.17984774089E+03  0.18362118313E+03  0.00000000000E+00 0. -1.
        -11    1    3    3    0    0 -0.83582577679E+02  0.90647390472E+02 -0.51243379355E+03  0.52705918972E+03  0.00000000000E+00 0.  1.
         11    1    3    3    0    0  0.22929479830E+02  0.66979092766E+01 -0.10668623387E+03  0.10932783512E+03  0.00000000000E+00 0. -1.
         -2    1    1    2    0  502 -0.14282128169E+02 -0.16537923700E+02  0.29320530750E+02  0.36567412115E+02  0.00000000000E+00 0.  1.
<scales pt_clust_5="13000.00000" pt_clust_6="13000.00000" pt_clust_7="13000.00000" pt_clust_8="13000.00000" pt_clust_9="21.85136"></scales>
<clustering>
<clus scale="   21.851">  1  9  2 -1</clus>
<clus scale="   79.946">  5  6 -1 -1</clus>
<clus scale="   92.325">  7  8 -1 -1</clus>
<clus scale="  137.930">  1  5  2 -1</clus>
<clus scale="   21.851">  1  5  2 -1</clus>
</clustering>
</event>
<event>
 9    2  0.1665830E-004  0.9669938E+02  0.7546771E-02  0.1293381E+00
         21   -1    0    0  501  502  0.00000000000E+00  0.00000000000E+00  0.32127967754E+03  0.32127967754E+03  0.00000000000E+00 0. -1.
         -1   -1    0    0    0  501 -0.00000000000E+00 -0.00000000000E+00 -0.15730322124E+03  0.15730322124E+03  0.00000000000E+00 0.  1.
         23    2    1    2    0    0 -0.30164544778E+02 -0.23078192983E+01 -0.12273467835E+03  0.15606260373E+03  0.91523271479E+02 0.  0.
         24    2    1    2    0    0  0.42062659463E+02 -0.40837414454E+02  0.16416745498E+03  0.19205945895E+03  0.80615884037E+02 0.  0.
        -11    1    4    4    0    0  0.42292059135E+02  0.45273830215E+01  0.34759865463E+02  0.54930535315E+02  0.00000000000E+00 0.  1.
         12    1    4    4    0    0 -0.22939967235E+00 -0.45364797476E+02  0.12940758952E+03  0.13712892364E+03  0.00000000000E+00 0. -1.
        -13    1    3    3    0    0  0.21329542948E+01  0.27284715896E+02 -0.17864365492E+01  0.27426202273E+02  0.00000000000E+00 0. -1.
         13    1    3    3    0    0 -0.32297499073E+02 -0.29592535195E+02 -0.12094824180E+03  0.12863640146E+03  0.00000000000E+00 0.  1.
         -2    1    1    2    0  502 -0.11898114685E+02  0.43145233752E+02  0.12254367967E+03  0.13046083610E+03  0.00000000000E+00 0.  1.
<scales pt_clust_5="13000.00000" pt_clust_6="13000.00000" pt_clust_7="13000.00000" pt_clust_8="13000.00000" pt_clust_9="44.75574"></scales>
<clustering>
<clus scale="   44.756">  1  9  2 -1</clus>
<clus scale="   80.616">  5  6 -1 -1</clus>
<clus scale="   86.448">  1  5  2 -1</clus>
<clus scale="   91.523">  7  8 -1 -1</clus>
<clus scale="   44.756">  1  5  2 -1</clus>
</clustering>
</event>
<event>
 9    2  0.1665830E-004  0.3485242E+03  0.7546771E-02  0.1063505E+00
          2   -1    0    0  502    0 -0.00000000000E+00  0.00000000000E+00  0.61101176058E+03  0.61101176058E+03  0.00000000000E+00 0. -1.
         21   -1    0    0  501  502  0.00000000000E+00 -0.00000000000E+00 -0.43774800674E+03  0.43774800674E+03  0.00000000000E+00 0. -1.
         24    2    1    2    0    0 -0.22425405708E+03 -0.22989574837E+03  0.12375301580E+03  0.35344045399E+03  0.80395325519E+02 0.  0.
         23    2    1    2    0    0  0.10862421255E+03  0.39154847882E+03 -0.12071765548E+03  0.43363329504E+03  0.91409252317E+02 0.  0.
        -11    1    3    3    0    0 -0.12069914417E+03 -0.67917166374E+02  0.44176664827E+02  0.14537056995E+03  0.00000000000E+00 0.  1.
         12    1    3    3    0    0 -0.10355491291E+03 -0.16197858200E+03  0.79576350968E+02  0.20806988404E+03  0.00000000000E+00 0. -1.
        -13    1    4    4    0    0  0.82920240669E+02  0.14353294721E+03 -0.65588943318E+02  0.17826772768E+03  0.00000000000E+00 0. -1.
         13    1    4    4    0    0  0.25703971885E+02  0.24801553161E+03 -0.55128712162E+02  0.25536556736E+03  0.00000000000E+00 0.  1.
          1    1    1    2  501    0  0.11562984453E+03 -0.16165273045E+03  0.17022839352E+03  0.26168601828E+03  0.00000000000E+00 0. -1.
<scales pt_clust_5="13000.00000" pt_clust_6="13000.00000" pt_clust_7="13000.00000" pt_clust_8="13000.00000" pt_clust_9="198.75086"></scales>
<clustering>
<clus scale="   80.395">  5  6 -1 -1</clus>
<clus scale="   91.409">  7  8 -1 -1</clus>
<clus scale="  198.751">  2  9  1 -1</clus>
<clus scale="  345.799">  1  5  2 -1</clus>
<clus scale="  198.751">  2  5  1 -1</clus>
</clustering>
</event>
<event>
 9    2  0.1680475E-004  0.2442972E+03  0.7546771E-02  0.1158231E+00
         21   -1    0    0  501  502  0.00000000000E+00  0.00000000000E+00  0.13791607063E+03  0.13791607063E+03  0.00000000000E+00 0. -1.
          2   -1    0    0  502    0 -0.00000000000E+00 -0.00000000000E+00 -0.10010583451E+04  0.10010583451E+04  0.00000000000E+00 0. -1.
         24    2    1    2    0    0  0.23838093229E+02  0.34285268757E+02 -0.22690899172E+03  0.24405681877E+03  0.79575787280E+02 0.  0.
         23    2    1    2    0    0 -0.20901145010E+02  0.21953384553E+03 -0.33976244958E+02  0.24135328642E+03  0.92005741392E+02 0.  0.
        -11    1    3    3    0    0  0.49795298525E+02  0.67262859693E+01 -0.10498153988E+03  0.11638701987E+03  0.00000000000E+00 0.  1.
         12    1    3    3    0    0 -0.25957205296E+02  0.27558982788E+02 -0.12192745184E+03  0.12766979890E+03  0.00000000000E+00 0. -1.
        -11    1    4    4    0    0  0.23131527910E+02  0.49436416791E+02 -0.36448261900E+02  0.65631567741E+02  0.00000000000E+00 0.  1.
         11    1    4    4    0    0 -0.44032672920E+02  0.17009742874E+03  0.24720169425E+01  0.17572171868E+03  0.00000000000E+00 0. -1.
          1    1    1    2  501    0 -0.29369482197E+01 -0.25381911429E+03 -0.60225703779E+03  0.65356431054E+03  0.00000000000E+00 0. -1.
<scales pt_clust_5="13000.00000" pt_clust_6="13000.00000" pt_clust_7="13000.00000" pt_clust_8="13000.00000" pt_clust_9="226.30980"></scales>
<clustering>
<clus scale="   79.576">  5  6 -1 -1</clus>
<clus scale="   89.867">  2  5  1 -1</clus>
<clus scale="   92.006">  7  8 -1 -1</clus>
<clus scale="  226.310">  1  9  2 -1</clus>
<clus scale="  226.310">  1  5  2 -1</clus>
</clustering>
</event>
<event>
 9    2  0.1665830E-004  0.1548202E+03  0.7546771E-02  0.1196782E+00
          2   -1    0    0  502    0 -0.00000000000E+00  0.00000000000E+00  0.51084385061E+03  0.51084385061E+03  0.00000000000E+00 0. -1.
         21   -1    0    0  501  502  0.00000000000E+00 -0.00000000000E+00 -0.57077684586E+02  0.57077684586E+02  0.00000000000E+00 0. -1.
         24    2    1    2    0    0 -0.16756907661E+02  0.12507785345E+03  0.28452304001E+03  0.32127166047E+03  0.79604372684E+02 0.  0.
         23    2    1    2    0    0 -0.53490242804E+01 -0.12296348300E+03  0.16208399449E+03  0.22331758050E+03  0.91928723898E+02 0.  0.
        -11    1    3    3    0    0 -0.20002921742E+02  0.23119709311E+02  0.17046668393E+02  0.35003238995E+02  0.00000000000E+00 0.  1.
         12    1    3    3    0    0  0.32460140807E+01  0.10195814413E+03  0.26747637162E+03  0.28626842148E+03  0.00000000000E+00 0. -1.
        -11    1    4    4    0    0 -0.48070482293E+02 -0.77722256152E+02  0.97687063033E+02  0.13376951317E+03  0.00000000000E+00 0. -1.
         11    1    4    4    0    0  0.42721458013E+02 -0.45241226852E+02  0.64396931457E+02  0.89548067332E+02  0.00000000000E+00 0.  1.
          1    1    1    2  501    0  0.22105931942E+02 -0.21143704422E+01  0.71591315209E+01  0.23332294219E+02  0.00000000000E+00 0. -1.
<scales pt_clust_5="13000.00000" pt_clust_6="13000.00000" pt_clust_7="13000.00000" pt_clust_8="13000.00000" pt_clust_9="22.20682"></scales>
<clustering>
<clus scale="   22.207">  2  9  1 -1</clus>
<clus scale="   79.604">  5  6 -1 -1</clus>
<clus scale="   91.929">  7  8 -1 -1</clus>
<clus scale="  147.835">  1  5  2 -1</clus>
<clus scale="   22.207">  2  5  1 -1</clus>
</clustering>
</event>
<event>
 9    2  0.1665830E-004  0.1100201E+03  0.7546771E-02  0.1264412E+00
          2   -1    0    0  502    0 -0.00000000000E+00  0.00000000000E+00  0.21953828070E+03  0.21953828070E+03  0.00000000000E+00 0. -1.
         21   -1    0    0  501  502  0.00000000000E+00 -0.00000000000E+00 -0.16303915739E+03  0.16303915739E+03  0.00000000000E+00 0.  1.
         24    2    1    2    0    0 -0.19388121881E+02  0.62100777981E+02  0.10121374029E+03  0.14452015107E+03  0.80059021626E+02 0.  0.
         23    2    1    2    0    0 -0.75167170981E+02 -0.67672735814E+02 -0.46841899812E+02  0.14331407906E+03  0.90083621777E+02 0.  0.
        -11    1    3    3    0    0  0.22180137870E+02  0.10317159785E+02  0.12285877852E+01  0.24493095555E+02  0.00000000000E+00 0.  1.
         12    1    3    3    0    0 -0.41568259751E+02  0.51783618197E+02  0.99985152508E+02  0.12002705551E+03  0.00000000000E+00 0. -1.
        -11    1    4    4    0    0  0.79601580251E+01 -0.40690109881E+02 -0.36626451475E+02  0.55322202646E+02  0.00000000000E+00 0. -1.
         11    1    4    4    0    0 -0.83127329006E+02 -0.26982625933E+02 -0.10215448337E+02  0.87991876413E+02  0.00000000000E+00 0.  1.
          1    1    1    2  501    0  0.94555292862E+02  0.55719578323E+01  0.21272828319E+01  0.94743207960E+02  0.00000000000E+00 0. -1.
<scales pt_clust_5="13000.00000" pt_clust_6="13000.00000" pt_clust_7="13000.00000" pt_clust_8="13000.00000" pt_clust_9="94.71932"></scales>
<clustering>
<clus scale="   80.059">  5  6 -1 -1</clus>
<clus scale="   90.084">  7  8 -1 -1</clus>
<clus scale="   94.719">  2  9  1 -1</clus>
<clus scale="  101.975">  1  5  2 -1</clus>
<clus scale="   94.719">  2  5  1 -1</clus>
</clustering>
</event>
<event>
 9    2  0.1665830E-004  0.9447307E+02  0.7546771E-02  0.1292380E+00
          2   -1    0    0  502    0 -0.00000000000E+00  0.00000000000E+00  0.17089709102E+04  0.17089709102E+04  0.00000000000E+00 0. -1.
         21   -1    0    0  501  502  0.00000000000E+00 -0.00000000000E+00 -0.17913189678E+02  0.17913189678E+02  0.00000000000E+00 0. -1.
         24    2    1    2    0    0 -0.23681849322E+02 -0.10785088347E+02  0.11818024552E+04  0.11856825060E+04  0.92243231949E+02 0.  0.
         23    2    1    2    0    0  0.23959102525E+01 -0.58307897404E+02  0.26869673090E+03  0.29001373515E+03  0.92219748930E+02 0.  0.
        -13    1    3    3    0    0 -0.27625717837E+02  0.12079383743E+02  0.12355393115E+03  0.12717965915E+03  0.00000000000E+00 0.  1.
         14    1    3    3    0    0  0.39438685146E+01 -0.22864472090E+02  0.10582485240E+04  0.10585028468E+04  0.00000000000E+00 0. -1.
        -11    1    4    4    0    0  0.47146487582E+02 -0.29763177896E+02  0.14834982952E+03  0.15848126063E+03  0.00000000000E+00 0.  1.
         11    1    4    4    0    0 -0.44750577330E+02 -0.28544719509E+02  0.12034690138E+03  0.13153247452E+03  0.00000000000E+00 0. -1.
          1    1    1    2  501    0  0.21285939070E+02  0.69092985751E+02  0.24055853444E+03  0.25118785873E+03  0.00000000000E+00 0. -1.
<scales pt_clust_5="13000.00000" pt_clust_6="13000.00000" pt_clust_7="13000.00000" pt_clust_8="13000.00000" pt_clust_9="72.29752"></scales>
<clustering>
<clus scale="   72.298">  2  9  1 -1</clus>
<clus scale="   92.220">  7  8 -1 -1</clus>
<clus scale="   92.243">  5  6 -1 -1</clus>
<clus scale="   94.450">  2  7  1 -1</clus>
<clus scale="   72.298">  2  5  1 -1</clus>
</clustering>
</event>
<event>
 9    2  0.1665830E-004  0.1160079E+03  0.7546771E-02  0.1253424E+00
         21   -1    0    0  501  502  0.00000000000E+00  0.00000000000E+00  0.22872319369E+03  0.22872319369E+03  0.00000000000E+00 0.  1.
          4   -1    0    0  502    0 -0.00000000000E+00 -0.00000000000E+00 -0.76200184940E+02  0.76200184940E+02  0.00000000000E+00 0. -1.
         24    2    1    2    0    0  0.64234839733E+02 -0.32581010811E+02  0.29928351657E+02  0.11161059761E+03  0.79834719040E+02 0.  0.
         23    2    1    2    0    0 -0.50426580480E+02  0.58986315693E+02  0.91189541417E+02  0.15002087138E+03  0.90379776107E+02 0.  0.
        -13    1    3    3    0    0  0.14786624146E+02  0.24320976554E+02  0.21671371174E+02  0.35774327146E+02  0.00000000000E+00 0.  1.
         14    1    3    3    0    0  0.49448215587E+02 -0.56901987364E+02  0.82569804831E+01  0.75836270461E+02  0.00000000000E+00 0. -1.
        -13    1    4    4    0    0  0.15339319032E+01  0.20911570345E+02  0.82376999184E+02  0.85003627663E+02  0.00000000000E+00 0.  1.
         13    1    4    4    0    0 -0.51960512383E+02  0.38074745348E+02  0.88125422330E+01  0.65017243721E+02  0.00000000000E+00 0. -1.
          3    1    1    2  501    0 -0.13808259252E+02 -0.26405304883E+02  0.31405115675E+02  0.43291909638E+02  0.00000000000E+00 0. -1.
<scales pt_clust_5="13000.00000" pt_clust_6="13000.00000" pt_clust_7="13000.00000" pt_clust_8="13000.00000" pt_clust_9="29.79779"></scales>
<clustering>
<clus scale="   29.798">  1  9  2 -1</clus>
<clus scale="   79.835">  5  6 -1 -1</clus>
<clus scale="   90.380">  7  8 -1 -1</clus>
<clus scale="  107.995">  2  5  1 -1</clus>
<clus scale="   29.798">  1  5  2 -1</clus>
</clustering>
</event>
<event>
 9    2  0.1665830E-004  0.9904757E+02  0.7546771E-02  0.1289144E+00
          2   -1    0    0  502    0 -0.00000000000E+00  0.00000000000E+00  0.45247125043E+03  0.45247125043E+03  0.00000000000E+00 0. -1.
         21   -1    0    0  501  502  0.00000000000E+00 -0.00000000000E+00 -0.36006009085E+02  0.36006009085E+02  0.00000000000E+00 0. -1.
         24    2    1    2    0    0  0.64929052646E+01 -0.30508475275E+02  0.22756273017E+03  0.24236431922E+03  0.77348187985E+02 0.  0.
         23    2    1    2    0    0  0.15138409823E+02  0.60185883725E+02  0.17547192680E+03  0.20700996136E+03  0.90615754456E+02 0.  0.
        -11    1    3    3    0    0 -0.19758011542E+02 -0.33595991616E+02  0.52870608485E+02  0.65683871036E+02  0.00000000000E+00 0.  1.
         12    1    3    3    0    0  0.26250916806E+02  0.30875163415E+01  0.17469212169E+03  0.17668044818E+03  0.00000000000E+00 0. -1.
        -11    1    4    4    0    0  0.59949171338E+01 -0.19348536135E+02  0.79451509792E+02  0.81992970981E+02  0.00000000000E+00 0. -1.
         11    1    4    4    0    0  0.91434926895E+01  0.79534419860E+02  0.96020417010E+02  0.12501699038E+03  0.00000000000E+00 0.  1.
          1    1    1    2  501    0 -0.21631315088E+02 -0.29677408451E+02  0.13430584367E+02  0.39102978930E+02  0.00000000000E+00 0. -1.
<scales pt_clust_5="13000.00000" pt_clust_6="13000.00000" pt_clust_7="13000.00000" pt_clust_8="13000.00000" pt_clust_9="36.72414"></scales>
<clustering>
<clus scale="   36.724">  2  9  1 -1</clus>
<clus scale="   77.348">  5  6 -1 -1</clus>
<clus scale="   87.074">  1  5  2 -1</clus>
<clus scale="   90.616">  7  8 -1 -1</clus>
<clus scale="   36.724">  2  5  1 -1</clus>
</clustering>
</event>
<event>
 9    2  0.1665830E-004  0.1280254E+03  0.7546771E-02  0.1232783E+00
         -3   -1    0    0    0  501 -0.00000000000E+00  0.00000000000E+00  0.13345886306E+04  0.13345886306E+04  0.00000000000E+00 0.  1.
         21   -1    0    0  501  502  0.00000000000E+00 -0.00000000000E+00 -0.36339002296E+02  0.36339002296E+02  0.00000000000E+00 0. -1.
         24    2    1    2    0    0 -0.51468811590E+02  0.39709124612E+02  0.30357793106E+03  0.32111061644E+03  0.82015941261E+02 0.  0.
         23    2    1    2    0    0  0.15042668451E+03 -0.59468755101E+02  0.33912690457E+03  0.38655079629E+03  0.90828081899E+02 0.  0.
        -13    1    3    3    0    0 -0.17002272681E+02 -0.18571012800E+02  0.29457848786E+02  0.38752092173E+02  0.00000000000E+00 0.  1.
         14    1    3    3    0    0 -0.34466538910E+02  0.58280137412E+02  0.27412008228E+03  0.28235852427E+03  0.00000000000E+00 0. -1.
        -11    1    4    4    0    0  0.71917136746E+02 -0.39422693008E+02  0.78154939311E+02  0.11328908959E+03  0.00000000000E+00 0.  1.
         11    1    4    4    0    0  0.78509547767E+02 -0.20046062092E+02  0.26097196526E+03  0.27326170670E+03  0.00000000000E+00 0. -1.
         -4    1    1    2    0  502 -0.98957872923E+02  0.19759630489E+02  0.65554479263E+03  0.66326622013E+03  0.00000000000E+00 0.  1.
<scales pt_clust_5="13000.00000" pt_clust_6="13000.00000" pt_clust_7="13000.00000" pt_clust_8="13000.00000" pt_clust_9="100.91142"></scales>
<clustering>
<clus scale="   82.016">  5  6 -1 -1</clus>
<clus scale="   90.828">  7  8 -1 -1</clus>
<clus scale="  100.911">  2  9  1 -1</clus>
<clus scale="  121.932">  1  5  2 -1</clus>
<clus scale="  100.911">  2  5  1 -1</clus>
</clustering>
</event>
<event>
 9    2  0.1665830E-004  0.2530472E+03  0.7546771E-02  0.1111394E+00
         21   -1    0    0  501  502  0.00000000000E+00  0.00000000000E+00  0.61697900474E+02  0.61697900474E+02  0.00000000000E+00 0. -1.
          2   -1    0    0  502    0 -0.00000000000E+00 -0.00000000000E+00 -0.11617818280E+04  0.11617818280E+04  0.00000000000E+00 0. -1.
         24    2    1    2    0    0 -0.10141607931E+03  0.70795073755E+02 -0.74468072138E+03  0.75923032781E+03  0.81142776990E+02 0.  0.
         23    2    1    2    0    0 -0.16700031267E+02  0.23589457216E+02 -0.27819694613E+03  0.29448290855E+03  0.92148190722E+02 0.  0.
        -13    1    3    3    0    0 -0.69428825933E+02  0.78463672686E+02 -0.41930867471E+03  0.43219980853E+03  0.00000000000E+00 0.  1.
         14    1    3    3    0    0 -0.31987253374E+02 -0.76685989317E+01 -0.32537204667E+03  0.32703051928E+03  0.00000000000E+00 0. -1.
        -13    1    4    4    0    0 -0.51704547189E+02 -0.37637905846E+01 -0.16147999608E+03  0.16959751016E+03  0.00000000000E+00 0. -1.
         13    1    4    4    0    0  0.35004515921E+02  0.27353247801E+02 -0.11671695005E+03  0.12488539838E+03  0.00000000000E+00 0.  1.
          1    1    1    2  501    0  0.11811611057E+03 -0.94384530971E+02 -0.77206260030E+02  0.16976649213E+03  0.00000000000E+00 0. -1.
<scales pt_clust_5="13000.00000" pt_clust_6="13000.00000" pt_clust_7="13000.00000" pt_clust_8="13000.00000" pt_clust_9="151.19476"></scales>
<clustering>
<clus scale="   81.143">  5  6 -1 -1</clus>
<clus scale="   92.148">  7  8 -1 -1</clus>
<clus scale="   92.697">  5  7 -1 -1</clus>
<clus scale="  151.195">  1  9  2 -1</clus>
<clus scale="  151.195">  1  5  2 -1</clus>
</clustering>
</event>
<event>
 9    2  0.1665830E-004  0.1080508E+03  0.7546771E-02  0.1268376E+00
          2   -1    0    0  502    0 -0.00000000000E+00  0.00000000000E+00  0.85237669575E+02  0.85237669575E+02  0.00000000000E+00 0. -1.
         21   -1    0    0  501  502  0.00000000000E+00 -0.00000000000E+00 -0.30221519146E+03  0.30221519146E+03  0.00000000000E+00 0. -1.
         23    2    1    2    0    0  0.47374593266E+02 -0.97624871004E+01 -0.14263742772E+02  0.10563699169E+03  0.92822741905E+02 0.  0.
         24    2    1    2    0    0 -0.51448232396E+02  0.45346114106E+02 -0.39340442559E+02  0.11456265968E+03  0.82908032723E+02 0.  0.
        -13    1    4    4    0    0 -0.46377862233E+02  0.68819805090E+02 -0.25370064673E+02  0.86779674230E+02  0.00000000000E+00 0.  1.
         14    1    4    4    0    0 -0.50703701633E+01 -0.23473690984E+02 -0.13970377886E+02  0.27782985446E+02  0.00000000000E+00 0. -1.
        -11    1    3    3    0    0  0.61333467677E+02  0.21525192619E+02 -0.25137718170E+02  0.69692417445E+02  0.00000000000E+00 0.  1.
         11    1    3    3    0    0 -0.13958874410E+02 -0.31287679719E+02  0.10873975398E+02  0.35944574249E+02  0.00000000000E+00 0. -1.
          1    1    1    2  501    0  0.40736391296E+01 -0.35583627005E+02 -0.16337333656E+03  0.16725320967E+03  0.00000000000E+00 0. -1.
<scales pt_clust_5="13000.00000" pt_clust_6="13000.00000" pt_clust_7="13000.00000" pt_clust_8="13000.00000" pt_clust_9="35.81604"></scales>
<clustering>
<clus scale="   35.816">  2  9  1 -1</clus>
<clus scale="   82.908">  5  6 -1 -1</clus>
<clus scale="   92.823">  7  8 -1 -1</clus>
<clus scale="   99.663">  2  5  1 -1</clus>
<clus scale="   35.816">  2  5  1 -1</clus>
</clustering>
</event>
<event>
 9    2  0.1665830E-004  0.1847039E+03  0.7546771E-02  0.1165535E+00
         21   -1    0    0  501  502  0.00000000000E+00  0.00000000000E+00  0.42967396863E+03  0.42967396863E+03  0.00000000000E+00 0.  1.
         -1   -1    0    0    0  501 -0.00000000000E+00 -0.00000000000E+00 -0.20077104948E+03  0.20077104948E+03  0.00000000000E+00 0.  1.
         23    2    1    2    0    0  0.12030813666E+03  0.71367039495E+02  0.12046997132E+03  0.20870506626E+03  0.97352393998E+02 0.  0.
         24    2    1    2    0    0 -0.24646560786E+02 -0.21136950856E+03  0.11015779579E+03  0.25216753798E+03  0.78544287720E+02 0.  0.
        -13    1    4    4    0    0 -0.49221310707E+02 -0.15600398637E+03  0.96996993494E+02  0.19017990939E+03  0.00000000000E+00 0.  1.
         14    1    4    4    0    0  0.24574749921E+02 -0.55365522193E+02  0.13160802292E+02  0.61987628591E+02  0.00000000000E+00 0. -1.
        -13    1    3    3    0    0  0.16023983650E+02  0.52965753644E+02  0.75618232312E+02  0.93703021131E+02  0.00000000000E+00 0. -1.
         13    1    3    3    0    0  0.10428415301E+03  0.18401285851E+02  0.44851739009E+02  0.11500204513E+03  0.00000000000E+00 0.  1.
         -2    1    1    2    0  502 -0.95661575878E+02  0.14000246907E+03 -0.17248479579E+01  0.16957241387E+03  0.00000000000E+00 0.  1.
<scales pt_clust_5="13000.00000" pt_clust_6="13000.00000" pt_clust_7="13000.00000" pt_clust_8="13000.00000" pt_clust_9="169.56373"></scales>
<clustering>
<clus scale="   78.544">  5  6 -1 -1</clus>
<clus scale="   97.352">  7  8 -1 -1</clus>
<clus scale="  169.564">  1  9  2 -1</clus>
<clus scale="  175.520">  1  5  2 -1</clus>
<clus scale="  169.564">  1  5  2 -1</clus>
</clustering>
</event>
<event>
 9    2  0.1665830E-004  0.1512662E+03  0.7546771E-02  0.1208473E+00
          2   -1    0    0  502    0 -0.00000000000E+00  0.00000000000E+00  0.11481439451E+04  0.11481439451E+04  0.00000000000E+00 0. -1.
         21   -1    0    0  501  502  0.00000000000E+00 -0.00000000000E+00 -0.44566576836E+02  0.44566576836E+02  0.00000000000E+00 0. -1.
         23    2    1    2    0    0 -0.81649692501E+02 -0.13206396915E+02  0.14360712177E+03  0.18914554633E+03  0.91169902211E+02 0.  0.
         24    2    1    2    0    0  0.23519243823E+02  0.13201820807E+03  0.59009840934E+03  0.61075386139E+03  0.82596515683E+02 0.  0.
        -13    1    4    4    0    0  0.50105626381E+02  0.52245703808E+02  0.23870842751E+03  0.24944318135E+03  0.00000000000E+00 0.  1.
         14    1    4    4    0    0 -0.26586382558E+02  0.79772504257E+02  0.35138998183E+03  0.36131068003E+03  0.00000000000E+00 0. -1.
        -13    1    3    3    0    0 -0.39555155345E+02  0.25348887957E+02  0.16473956123E+02  0.49785215329E+02  0.00000000000E+00 0. -1.
         13    1    3    3    0    0 -0.42094537155E+02 -0.38555284872E+02  0.12713316565E+03  0.13936033100E+03  0.00000000000E+00 0.  1.
          1    1    1    2  501    0  0.58130448678E+02 -0.11881181115E+03  0.36987183716E+03  0.39281111422E+03  0.00000000000E+00 0. -1.
<scales pt_clust_5="13000.00000" pt_clust_6="13000.00000" pt_clust_7="13000.00000" pt_clust_8="13000.00000" pt_clust_9="126.72524"></scales>
<clustering>
<clus scale="   82.597">  5  6 -1 -1</clus>
<clus scale="   91.170">  7  8 -1 -1</clus>
<clus scale="  123.098">  1  7  2 -1</clus>
<clus scale="  126.725">  2  9  1 -1</clus>
<clus scale="  126.725">  2  5  1 -1</clus>
</clustering>
</event>
<event>
 9    2  0.1665830E-004  0.1078191E+03  0.7546771E-02  0.1269456E+00
         21   -1    0    0  501  502  0.00000000000E+00  0.00000000000E+00  0.24612950950E+03  0.24612950950E+03  0.00000000000E+00 0. -1.
          2   -1    0    0  502    0 -0.00000000000E+00 -0.00000000000E+00 -0.28179027624E+03  0.28179027624E+03  0.00000000000E+00 0. -1.
         24    2    1    2    0    0 -0.10892660452E+02 -0.54212001205E+02 -0.22496946142E+03  0.24555192223E+03  0.81405754183E+02 0.  0.
         23    2    1    2    0    0 -0.60835798842E+02  0.60718612727E+02  0.74293208301E+02  0.14666277895E+03  0.92750986937E+02 0.  0.
        -13    1    3    3    0    0  0.49230966009E+01  0.20986485257E+02 -0.47853556767E+02  0.52484591443E+02  0.00000000000E+00 0.  1.
         14    1    3    3    0    0 -0.15815757053E+02 -0.75198486462E+02 -0.17711590465E+03  0.19306733079E+03  0.00000000000E+00 0. -1.
        -11    1    4    4    0    0  0.62487747343E+01  0.49275835927E+02  0.56300078424E+01  0.49988520485E+02  0.00000000000E+00 0.  1.
         11    1    4    4    0    0 -0.67084573577E+02  0.11442776800E+02  0.68663200458E+02  0.96674258467E+02  0.00000000000E+00 0. -1.
          1    1    1    2  501    0  0.71728459295E+02 -0.65066115223E+01  0.11501548639E+03  0.13570508456E+03  0.00000000000E+00 0. -1.
<scales pt_clust_5="13000.00000" pt_clust_6="13000.00000" pt_clust_7="13000.00000" pt_clust_8="13000.00000" pt_clust_9="72.02297"></scales>
<clustering>
<clus scale="   72.023">  1  9  2 -1</clus>
<clus scale="   81.406">  5  6 -1 -1</clus>
<clus scale="   92.751">  7  8 -1 -1</clus>
<clus scale="   98.230">  2  5  1 -1</clus>
<clus scale="   72.023">  1  5  2 -1</clus>
</clustering>
</event>
<event>
 9    2  0.1665830E-004  0.1084880E+03  0.7546771E-02  0.1268770E+00
         21   -1    0    0  501  502  0.00000000000E+00  0.00000000000E+00  0.13878935295E+02  0.13878935295E+02  0.00000000000E+00 0.  1.
          2   -1    0    0  502    0 -0.00000000000E+00 -0.00000000000E+00 -0.10216899994E+04  0.10216899994E+04  0.00000000000E+00 0. -1.
         24    2    1    2    0    0  0.21457878483E+02  0.45710750313E+02 -0.39423866744E+03  0.40544670998E+03  0.80081174347E+02 0.  0.
         23    2    1    2    0    0  0.49848494931E-02 -0.65698529380E+02 -0.46954971602E+03  0.48314366045E+03  0.92922354831E+02 0.  0.
        -13    1    3    3    0    0  0.18641026423E+02  0.68255725060E+02 -0.26817912144E+03  0.27735604022E+03  0.00000000000E+00 0.  1.
         14    1    3    3    0    0  0.28168520593E+01 -0.22544974747E+02 -0.12605954600E+03  0.12809066976E+03  0.00000000000E+00 0. -1.
        -11    1    4    4    0    0  0.44608703972E+02 -0.31721351431E+02 -0.28713645405E+03  0.29230724221E+03  0.00000000000E+00 0.  1.
         11    1    4    4    0    0 -0.44603719123E+02 -0.33977177949E+02 -0.18241326197E+03  0.19083641823E+03  0.00000000000E+00 0. -1.
          1    1    1    2  501    0 -0.21462863332E+02  0.19987779067E+02 -0.14402268065E+03  0.14697856427E+03  0.00000000000E+00 0. -1.
<scales pt_clust_5="13000.00000" pt_clust_6="13000.00000" pt_clust_7="13000.00000" pt_clust_8="13000.00000" pt_clust_9="29.32860"></scales>
<clustering>
<clus scale="   29.329">  1  9  2 -1</clus>
<clus scale="   80.081">  5  6 -1 -1</clus>
<clus scale="   92.922">  7  8 -1 -1</clus>
<clus scale="   97.714">  2  5  1 -1</clus>
<clus scale="   29.329">  1  5  2 -1</clus>
</clustering>
</event>
<event>
 9    2  0.1665830E-004  0.1619988E+03  0.7546771E-02  0.1218152E+00
         -1   -1    0    0    0  501 -0.00000000000E+00  0.00000000000E+00  0.10118145059E+03  0.10118145059E+03  0.00000000000E+00 0.  1.
         21   -1    0    0  501  502  0.00000000000E+00 -0.00000000000E+00 -0.43971393999E+03  0.43971393999E+03  0.00000000000E+00 0.  1.
         24    2    1    2    0    0 -0.46861177364E+01  0.29681361954E+01 -0.23717811188E+02  0.84974782927E+02  0.81408903899E+02 0.  0.
         23    2    1    2    0    0 -0.43271769532E+02 -0.12700670428E+03 -0.69705283082E+02  0.17705838198E+03  0.92128688089E+02 0.  0.
        -13    1    3    3    0    0 -0.42572093302E+02  0.78633781414E+01 -0.10452202055E+02  0.44536101891E+02  0.00000000000E+00 0.  1.
         14    1    3    3    0    0  0.37885975565E+02 -0.48952419460E+01 -0.13265609134E+02  0.40438681036E+02  0.00000000000E+00 0. -1.
        -13    1    4    4    0    0 -0.33295005040E+02 -0.10399426039E+03 -0.92544561614E+02  0.14313580768E+03  0.00000000000E+00 0.  1.
         13    1    4    4    0    0 -0.99767644915E+01 -0.23012443892E+02  0.22839278532E+02  0.33922574305E+02  0.00000000000E+00 0. -1.
         -2    1    1    2    0  502  0.47957887268E+02  0.12403856809E+03 -0.24510939513E+03  0.27886222567E+03  0.00000000000E+00 0.  1.
<scales pt_clust_5="13000.00000" pt_clust_6="13000.00000" pt_clust_7="13000.00000" pt_clust_8="13000.00000" pt_clust_9="133.25127"></scales>
<clustering>
<clus scale="   81.409">  5  6 -1 -1</clus>
<clus scale="   81.598">  1  5  2 -1</clus>
<clus scale="   92.129">  7  8 -1 -1</clus>
<clus scale="  133.251">  2  9  1 -1</clus>
<clus scale="  133.251">  2  5  1 -1</clus>
</clustering>
</event>
<event>
 9    2  0.1665830E-004  0.1178530E+03  0.7546771E-02  0.1251007E+00
         21   -1    0    0  501  502  0.00000000000E+00  0.00000000000E+00  0.61364499255E+02  0.61364499255E+02  0.00000000000E+00 0. -1.
          2   -1    0    0  502    0 -0.00000000000E+00 -0.00000000000E+00 -0.56946170360E+03  0.56946170360E+03  0.00000000000E+00 0. -1.
         23    2    1    2    0    0 -0.59117829870E+02  0.31800029562E+02 -0.40781914221E+03  0.42376989044E+03  0.93585830144E+02 0.  0.
         24    2    1    2    0    0  0.88546279715E+02 -0.13866338695E+02 -0.11753486346E+03  0.16851480075E+03  0.80932533277E+02 0.  0.
        -13    1    4    4    0    0  0.45170249797E+02 -0.18695123696E+02 -0.11481145101E+03  0.12478593029E+03  0.00000000000E+00 0.  1.
         14    1    4    4    0    0  0.43376029919E+02  0.48287850016E+01 -0.27234124558E+01  0.43728870458E+02  0.00000000000E+00 0. -1.
        -11    1    3    3    0    0  0.25144861399E+02  0.38710996398E+01 -0.69920196848E+02  0.74404861363E+02  0.00000000000E+00 0.  1.
         11    1    3    3    0    0 -0.84262691269E+02  0.27928929922E+02 -0.33789894536E+03  0.34936502908E+03  0.00000000000E+00 0. -1.
          1    1    1    2  501    0 -0.29428449845E+02 -0.17933690867E+02  0.17256801335E+02  0.38541511656E+02  0.00000000000E+00 0. -1.
<scales pt_clust_5="13000.00000" pt_clust_6="13000.00000" pt_clust_7="13000.00000" pt_clust_8="13000.00000" pt_clust_9="34.46231"></scales>
<clustering>
<clus scale="   34.462">  1  9  2 -1</clus>
<clus scale="   80.933">  5  6 -1 -1</clus>
<clus scale="   93.586">  7  8 -1 -1</clus>
<clus scale="  108.079">  1  5  2 -1</clus>
<clus scale="   34.462">  1  5  2 -1</clus>
</clustering>
</event>
<event>
 9    2  0.1665830E-004  0.1378649E+03  0.7546771E-02  0.1219031E+00
         21   -1    0    0  501  502  0.00000000000E+00  0.00000000000E+00  0.17702555589E+03  0.17702555589E+03  0.00000000000E+00 0.  1.
          2   -1    0    0  502    0 -0.00000000000E+00 -0.00000000000E+00 -0.38622430119E+03  0.38622430119E+03  0.00000000000E+00 0. -1.
         24    2    1    2    0    0  0.10641277815E+03 -0.11933361580E+02 -0.33257476892E+03  0.35851852057E+03  0.80395697665E+02 0.  0.
         23    2    1    2    0    0 -0.65451144211E+02  0.11245812330E+02  0.58777559141E+02  0.12823761265E+03  0.92627011531E+02 0.  0.
        -11    1    3    3    0    0  0.57413981975E+02  0.31605969701E+02 -0.12971470900E+03  0.14533137438E+03  0.00000000000E+00 0.  1.
         12    1    3    3    0    0  0.48998796170E+02 -0.43539331282E+02 -0.20286005992E+03  0.21318714620E+03  0.00000000000E+00 0. -1.
        -13    1    4    4    0    0 -0.61890099255E+02 -0.19257658134E+02  0.70130026912E+02  0.95495876651E+02  0.00000000000E+00 0. -1.
         13    1    4    4    0    0 -0.35610449562E+01  0.30503470464E+02 -0.11352467771E+02  0.32741735996E+02  0.00000000000E+00 0.  1.
          1    1    1    2  501    0 -0.40961633934E+02  0.68754925065E+00  0.64598464475E+02  0.76493723867E+02  0.00000000000E+00 0. -1.
<scales pt_clust_5="13000.00000" pt_clust_6="13000.00000" pt_clust_7="13000.00000" pt_clust_8="13000.00000" pt_clust_9="40.96740"></scales>
<clustering>
<clus scale="   40.967">  1  9  2 -1</clus>
<clus scale="   80.396">  5  6 -1 -1</clus>
<clus scale="   92.627">  7  8 -1 -1</clus>
<clus scale="  129.963">  2  5  1 -1</clus>
<clus scale="   40.967">  1  5  2 -1</clus>
</clustering>
</event>
<event>
 9    2  0.1665830E-004  0.1496900E+03  0.7546771E-02  0.1203825E+00
         21   -1    0    0  501  502  0.00000000000E+00  0.00000000000E+00  0.12000816613E+03  0.12000816613E+03  0.00000000000E+00 0. -1.
          2   -1    0    0  502    0 -0.00000000000E+00 -0.00000000000E+00 -0.40399660776E+03  0.40399660776E+03  0.00000000000E+00 0. -1.
         24    2    1    2    0    0  0.51944564952E+02 -0.12076874874E+03 -0.22367805453E+03  0.27049549808E+03  0.76502378384E+02 0.  0.
         23    2    1    2    0    0 -0.89597612930E+02  0.36647867540E+02  0.14681518725E+02  0.13469067198E+03  0.92494495454E+02 0.  0.
        -11    1    3    3    0    0 -0.18873508074E+02 -0.41840544153E+02 -0.61917775738E+02  0.77075621271E+02  0.00000000000E+00 0.  1.
         12    1    3    3    0    0  0.70818073027E+02 -0.78928204588E+02 -0.16176027880E+03  0.19341987680E+03  0.00000000000E+00 0. -1.
        -13    1    4    4    0    0 -0.46776183833E+02  0.58158493516E+02  0.35251920375E+02  0.82541623634E+02  0.00000000000E+00 0. -1.
         13    1    4    4    0    0 -0.42821429096E+02 -0.21510625976E+02 -0.20570401650E+02  0.52149048349E+02  0.00000000000E+00 0.  1.
          1    1    1    2  501    0  0.37653047977E+02  0.84120881201E+02 -0.74991905827E+02  0.11881860383E+03  0.00000000000E+00 0. -1.
<scales pt_clust_5="13000.00000" pt_clust_6="13000.00000" pt_clust_7="13000.00000" pt_clust_8="13000.00000" pt_clust_9="92.16335"></scales>
<clustering>
<clus scale="   76.502">  5  6 -1 -1</clus>
<clus scale="   92.163">  1  9  2 -1</clus>
<clus scale="   92.494">  7  8 -1 -1</clus>
<clus scale="  140.373">  2  5  1 -1</clus>
<clus scale="   92.163">  1  5  2 -1</clus>
</clustering>
</event>
<event>
 9    2  0.1665830E-004  0.1767647E+03  0.7546771E-02  0.1171801E+00
         -3   -1    0    0    0  501 -0.00000000000E+00  0.00000000000E+00  0.56509544048E+03  0.56509544048E+03  0.00000000000E+00 0.  1.
         21   -1    0    0  501  502  0.00000000000E+00 -0.00000000000E+00 -0.21824566748E+03  0.21824566748E+03  0.00000000000E+00 0.  1.
         23    2    1    2    0    0  0.12602412985E+03  0.87056186436E+02 -0.32931014608E+02  0.18145787267E+03  0.91551334937E+02 0.  0.
         24    2    1    2    0    0  0.52918349050E+02 -0.15068490614E+03  0.26040276478E+01  0.17959028841E+03  0.82095055443E+02 0.  0.
        -11    1    4    4    0    0  0.32965365216E+02 -0.60376440137E+01  0.19773121826E+01  0.33571985532E+02  0.00000000000E+00 0.  1.
         12    1    4    4    0    0  0.19952983834E+02 -0.14464726213E+03  0.62671546518E+00  0.14601830288E+03  0.00000000000E+00 0. -1.
        -11    1    3    3    0    0 -0.30003492108E+01  0.41147409080E+02 -0.36822152212E+01  0.41420647971E+02  0.00000000000E+00 0. -1.
         11    1    3    3    0    0  0.12902447906E+03  0.45908777356E+02 -0.29248799387E+02  0.14003722470E+03  0.00000000000E+00 0.  1.
         -4    1    1    2    0  502 -0.17894247890E+03  0.63628719703E+02  0.37717675996E+03  0.42229294687E+03  0.00000000000E+00 0.  1.
<scales pt_clust_5="13000.00000" pt_clust_6="13000.00000" pt_clust_7="13000.00000" pt_clust_8="13000.00000" pt_clust_9="154.66286"></scales>
<clustering>
<clus scale="   82.095">  5  6 -1 -1</clus>
<clus scale="   91.551">  7  8 -1 -1</clus>
<clus scale="  178.445">  1  7  2 -1</clus>
<clus scale="  154.663">  2  9  1 -1</clus>
<clus scale="  154.663">  2  5  1 -1</clus>
</clustering>
</event>
<event>
 9    2  0.1665830E-004  0.1110745E+03  0.7546771E-02  0.1263232E+00
          2   -1    0    0  502    0 -0.00000000000E+00  0.00000000000E+00  0.13952512591E+03  0.13952512591E+03  0.00000000000E+00 0. -1.
         21   -1    0    0  501  502  0.00000000000E+00 -0.00000000000E+00 -0.26612812002E+03  0.26612812002E+03  0.00000000000E+00 0.  1.
         23    2    1    2    0    0 -0.83166336385E+01  0.63724465438E+02  0.10085627913E+03  0.15090636471E+03  0.92036775148E+02 0.  0.
         24    2    1    2    0    0  0.16786867784E+02 -0.43636219812E+02 -0.18922195199E+03  0.21073125654E+03  0.80104910959E+02 0.  0.
        -13    1    4    4    0    0  0.12506978462E+02 -0.60893304296E+02 -0.18054432174E+03  0.19094677565E+03  0.00000000000E+00 0.  1.
         14    1    4    4    0    0  0.42798893219E+01  0.17257084484E+02 -0.86776302515E+01  0.19784480895E+02  0.00000000000E+00 0. -1.
        -13    1    3    3    0    0 -0.46174487480E+01  0.84570786234E+02  0.56662274713E+02  0.10190265989E+03  0.00000000000E+00 0. -1.
         13    1    3    3    0    0 -0.36991848905E+01 -0.20846320796E+02  0.44194004418E+02  0.49003704820E+02  0.00000000000E+00 0.  1.
          1    1    1    2  501    0 -0.84702341457E+01 -0.20088245626E+02 -0.38237321251E+02  0.44015624672E+02  0.00000000000E+00 0. -1.
<scales pt_clust_5="13000.00000" pt_clust_6="13000.00000" pt_clust_7="13000.00000" pt_clust_8="13000.00000" pt_clust_9="21.80097"></scales>
<clustering>
<clus scale="   21.801">  2  9  1 -1</clus>
<clus scale="   80.105">  5  6 -1 -1</clus>
<clus scale="   92.037">  7  8 -1 -1</clus>
<clus scale="  101.408">  2  5  1 -1</clus>
<clus scale="   21.801">  2  5  1 -1</clus>
</clustering>
</event>
<event>
 9    2  0.1665830E-004  0.3617203E+03  0.7546771E-02  0.1057905E+00
          2   -1    0    0  502    0 -0.00000000000E+00  0.00000000000E+00  0.43963207844E+03  0.43963207844E+03  0.00000000000E+00 0. -1.
         21   -1    0    0  501  502  0.00000000000E+00 -0.00000000000E+00 -0.24952455489E+03  0.24952455489E+03  0.00000000000E+00 0.  1.
         24    2    1    2    0    0 -0.19507552439E+03  0.13507537245E+03  0.63847194183E+02  0.25694128538E+03  0.75116865412E+02 0.  0.
         23    2    1    2    0    0 -0.45285245866E+02  0.45580413009E+02  0.42217077893E+02  0.12000855620E+03  0.92149033377E+02 0.  0.
        -11    1    3    3    0    0 -0.18096351972E+03  0.12632320792E+03  0.34711954090E+02  0.22340606099E+03  0.00000000000E+00 0.  1.
         12    1    3    3    0    0 -0.14112004663E+02  0.87521645343E+01  0.29135240094E+02  0.33535224391E+02  0.00000000000E+00 0. -1.
        -11    1    4    4    0    0 -0.32794451891E+01  0.60177991837E+02  0.45356643083E+02  0.75427916146E+02  0.00000000000E+00 0. -1.
         11    1    4    4    0    0 -0.42005800676E+02 -0.14597578828E+02 -0.31395651897E+01  0.44580640055E+02  0.00000000000E+00 0.  1.
          1    1    1    2  501    0  0.24036077025E+03 -0.18065578546E+03  0.84043251483E+02  0.31220679175E+03  0.00000000000E+00 0. -1.
<scales pt_clust_5="13000.00000" pt_clust_6="13000.00000" pt_clust_7="13000.00000" pt_clust_8="13000.00000" pt_clust_9="300.68225"></scales>
<clustering>
<clus scale="   75.117">  5  6 -1 -1</clus>
<clus scale="   92.149">  7  8 -1 -1</clus>
<clus scale="   93.596">  5  7 -1 -1</clus>
<clus scale="  300.682">  2  9  1 -1</clus>
<clus scale="  300.682">  2  5  1 -1</clus>
</clustering>
</event>
<event>
 9    2  0.1665830E-004  0.9209361E+02  0.7546771E-02  0.1299208E+00
         21   -1    0    0  501  502  0.00000000000E+00  0.00000000000E+00  0.16532472134E+03  0.16532472134E+03  0.00000000000E+00 0.  1.
         -3   -1    0    0    0  501 -0.00000000000E+00 -0.00000000000E+00 -0.31587749867E+03  0.31587749867E+03  0.00000000000E+00 0.  1.
         23    2    1    2    0    0  0.14683944107E+01 -0.36167357589E+02 -0.27478207519E+03  0.28955385101E+03  0.83821297120E+02 0.  0.
         24    2    1    2    0    0 -0.13588186068E+02  0.59054741405E+02  0.50085434585E+02  0.11311153593E+03  0.81323843484E+02 0.  0.
        -11    1    4    4    0    0 -0.46813482855E+02  0.34476930698E+02  0.40001976131E+02  0.70571375371E+02  0.00000000000E+00 0.  1.
         12    1    4    4    0    0  0.33225296787E+02  0.24577810707E+02  0.10083458454E+02  0.42540160555E+02  0.00000000000E+00 0. -1.
        -11    1    3    3    0    0 -0.37394959749E+02 -0.87341364869E+01 -0.75898376526E+02  0.85060165260E+02  0.00000000000E+00 0.  1.
         11    1    3    3    0    0  0.38863354160E+02 -0.27433221102E+02 -0.19888369866E+03  0.20449368575E+03  0.00000000000E+00 0. -1.
         -4    1    1    2    0  502  0.12119791657E+02 -0.22887383816E+02  0.74143863275E+02  0.78536833073E+02  0.00000000000E+00 0.  1.
<scales pt_clust_5="13000.00000" pt_clust_6="13000.00000" pt_clust_7="13000.00000" pt_clust_8="13000.00000" pt_clust_9="25.89830"></scales>
<clustering>
<clus scale="   25.898">  1  9  2 -1</clus>
<clus scale="   81.324">  5  6 -1 -1</clus>
<clus scale="   83.821">  7  8 -1 -1</clus>
<clus scale="   89.826">  1  5  2 -1</clus>
<clus scale="   25.898">  1  5  2 -1</clus>
</clustering>
</event>
<event>
 9    2  0.1665830E-004  0.2248509E+03  0.7546771E-02  0.1167330E+00
          2   -1    0    0  502    0 -0.00000000000E+00  0.00000000000E+00  0.63724582846E+03  0.63724582846E+03  0.00000000000E+00 0. -1.
         21   -1    0    0  501  502  0.00000000000E+00 -0.00000000000E+00 -0.16290996862E+03  0.16290996862E+03  0.00000000000E+00 0. -1.
         23    2    1    2    0    0 -0.23265903185E+02  0.74110957170E+01  0.17497321666E+03  0.19831843663E+03  0.90101882158E+02 0.  0.
         24    2    1    2    0    0  0.22831685547E+03 -0.93572769342E+01  0.31364308459E+03  0.39628052728E+03  0.80312680660E+02 0.  0.
        -13    1    4    4    0    0  0.61322850476E+02 -0.21111440428E+01  0.33102597857E+02  0.69718942222E+02  0.00000000000E+00 0.  1.
         14    1    4    4    0    0  0.16699400499E+03 -0.72461328914E+01  0.28054048673E+03  0.32656158506E+03  0.00000000000E+00 0. -1.
        -11    1    3    3    0    0 -0.11159545691E+02 -0.30091181880E+02  0.14579136359E+03  0.14928206987E+03  0.00000000000E+00 0.  1.
         11    1    3    3    0    0 -0.12106357493E+02  0.37502277597E+02  0.29181853076E+02  0.49036366767E+02  0.00000000000E+00 0. -1.
          1    1    1    2  501    0 -0.20505095228E+03  0.19461812172E+01 -0.14280441409E+02  0.20555683316E+03  0.00000000000E+00 0. -1.
<scales pt_clust_5="13000.00000" pt_clust_6="13000.00000" pt_clust_7="13000.00000" pt_clust_8="13000.00000" pt_clust_9="210.01854"></scales>
<clustering>
<clus scale="   80.313">  5  6 -1 -1</clus>
<clus scale="   90.102">  7  8 -1 -1</clus>
<clus scale="   93.352">  1  7  2 -1</clus>
<clus scale="  210.019">  2  9  1 -1</clus>
<clus scale="  210.019">  2  5  1 -1</clus>
</clustering>
</event>
<event>
 9    2  0.1665830E-004  0.1041808E+03  0.7546771E-02  0.1275833E+00
         21   -1    0    0  501  502  0.00000000000E+00  0.00000000000E+00  0.39146019368E+02  0.39146019368E+02  0.00000000000E+00 0. -1.
          2   -1    0    0  502    0 -0.00000000000E+00 -0.00000000000E+00 -0.12994309714E+04  0.12994309714E+04  0.00000000000E+00 0. -1.
         24    2    1    2    0    0  0.39658065934E+02  0.40469447098E+02 -0.11258566373E+04  0.11302160373E+04  0.81391553320E+02 0.  0.
         23    2    1    2    0    0 -0.77666614210E+01 -0.18175046229E+02 -0.14115039224E+03  0.16887312849E+03  0.90576194233E+02 0.  0.
        -13    1    3    3    0    0  0.31750857530E+02 -0.44535579806E-01 -0.14254362301E+03  0.14603699326E+03  0.00000000000E+00 0.  1.
         14    1    3    3    0    0  0.79072084038E+01  0.40513982678E+02 -0.98331301430E+03  0.98417904409E+03  0.00000000000E+00 0. -1.
        -13    1    4    4    0    0  0.15096068179E+02 -0.44365162705E+02 -0.11836976944E+03  0.12730892056E+03  0.00000000000E+00 0. -1.
         13    1    4    4    0    0 -0.22862729600E+02  0.26190116476E+02 -0.22780622795E+02  0.41564207928E+02  0.00000000000E+00 0.  1.
          1    1    1    2  501    0 -0.31891404513E+02 -0.22294400869E+02  0.67220775163E+01  0.39487824935E+02  0.00000000000E+00 0. -1.
<scales pt_clust_5="13000.00000" pt_clust_6="13000.00000" pt_clust_7="13000.00000" pt_clust_8="13000.00000" pt_clust_9="38.91146"></scales>
<clustering>
<clus scale="   38.911">  1  9  2 -1</clus>
<clus scale="   81.392">  5  6 -1 -1</clus>
<clus scale="   90.576">  7  8 -1 -1</clus>
<clus scale="   96.302">  2  5  1 -1</clus>
<clus scale="   38.911">  1  5  2 -1</clus>
</clustering>
</event>
<event>
 9    2  0.1665830E-004  0.1135205E+03  0.7546771E-02  0.1258839E+00
          2   -1    0    0  502    0 -0.00000000000E+00  0.00000000000E+00  0.61520425945E+03  0.61520425945E+03  0.00000000000E+00 0. -1.
         21   -1    0    0  501  502  0.00000000000E+00 -0.00000000000E+00 -0.48948770836E+02  0.48948770836E+02  0.00000000000E+00 0. -1.
         24    2    1    2    0    0  0.69802129063E+02  0.18957713326E+02  0.44681107460E+03  0.45984014812E+03  0.81123938073E+02 0.  0.
         23    2    1    2    0    0 -0.44393995460E+02  0.21094112291E+02  0.11578038269E+03  0.15674033636E+03  0.93523513733E+02 0.  0.
        -13    1    3    3    0    0  0.23085933030E+02 -0.22995185835E+02  0.63006500409E+02  0.70933475660E+02  0.00000000000E+00 0.  1.
         14    1    3    3    0    0  0.46716196034E+02  0.41952899161E+02  0.38380457419E+03  0.38890667246E+03  0.00000000000E+00 0. -1.
        -13    1    4    4    0    0 -0.39008175254E+02  0.46541817993E+02  0.11576820041E+03  0.13072893630E+03  0.00000000000E+00 0. -1.
         13    1    4    4    0    0 -0.53858202055E+01 -0.25447705703E+02  0.12182274816E-01  0.26011400063E+02  0.00000000000E+00 0.  1.
          1    1    1    2  501    0 -0.25408133604E+02 -0.40051825617E+02  0.36640313315E+01  0.47572545802E+02  0.00000000000E+00 0. -1.
<scales pt_clust_5="13000.00000" pt_clust_6="13000.00000" pt_clust_7="13000.00000" pt_clust_8="13000.00000" pt_clust_9="47.43123"></scales>
<clustering>
<clus scale="   47.431">  2  9  1 -1</clus>
<clus scale="   81.124">  5  6 -1 -1</clus>
<clus scale="   93.524">  7  8 -1 -1</clus>
<clus scale="  103.544">  1  5  2 -1</clus>
<clus scale="   47.431">  2  5  1 -1</clus>
</clustering>
</event>
<event>
 9    2  0.1665830E-004  0.1186866E+03  0.7546771E-02  0.1259912E+00
         21   -1    0    0  501  502  0.00000000000E+00  0.00000000000E+00  0.16422730767E+03  0.16422730767E+03  0.00000000000E+00 0. -1.
         -1   -1    0    0    0  501 -0.00000000000E+00 -0.00000000000E+00 -0.15101755198E+03  0.15101755198E+03  0.00000000000E+00 0.  1.
         24    2    1    2    0    0  0.34007711404E+02 -0.30789999221E+02 -0.42985514285E+02  0.98577087719E+02  0.75928514392E+02 0.  0.
         23    2    1    2    0    0  0.49258423113E+02 -0.17658606358E+01  0.61807311290E+02  0.12708748294E+03  0.99506653444E+02 0.  0.
        -11    1    3    3    0    0  0.35378088475E+02  0.13947795547E+02 -0.37629696140E+02  0.53499010985E+02  0.00000000000E+00 0.  1.
         12    1    3    3    0    0 -0.13703770707E+01 -0.44737794769E+02 -0.53558181452E+01  0.45078076734E+02  0.00000000000E+00 0. -1.
        -13    1    4    4    0    0  0.52214877514E+01 -0.21947415048E+02 -0.21213879089E+02  0.30967428495E+02  0.00000000000E+00 0.  1.
         13    1    4    4    0    0  0.44036935362E+02  0.20181554412E+02  0.83021190379E+02  0.96120054445E+02  0.00000000000E+00 0. -1.
         -2    1    1    2    0  502 -0.83266134518E+02  0.32555859857E+02 -0.56120413156E+01  0.89580288994E+02  0.00000000000E+00 0.  1.
<scales pt_clust_5="13000.00000" pt_clust_6="13000.00000" pt_clust_7="13000.00000" pt_clust_8="13000.00000" pt_clust_9="64.69110"></scales>
<clustering>
<clus scale="   75.929">  5  6 -1 -1</clus>
<clus scale="   88.711">  2  5  1 -1</clus>
<clus scale="   64.691">  1  9  2 -1</clus>
<clus scale="   99.507">  7  8 -1 -1</clus>
<clus scale="   64.691">  1  5  2 -1</clus>
</clustering>
</event>
<event>
 9    2  0.1665830E-004  0.1906469E+03  0.7546771E-02  0.1158691E+00
          2   -1    0    0  502    0 -0.00000000000E+00  0.00000000000E+00  0.19138586821E+03  0.19138586821E+03  0.00000000000E+00 0. -1.
         21   -1    0    0  501  502  0.00000000000E+00 -0.00000000000E+00 -0.32234752197E+03  0.32234752197E+03  0.00000000000E+00 0.  1.
         24    2    1    2    0    0 -0.24949045643E+02  0.13307150157E+03 -0.50548229416E+02  0.16671689560E+03  0.83119915621E+02 0.  0.
         23    2    1    2    0    0 -0.35806502864E+02 -0.20399528720E+03 -0.37812243349E+01  0.22621122102E+03  0.90890241553E+02 0.  0.
        -13    1    3    3    0    0  0.40857120706E+01  0.11026763619E+03 -0.63837223990E+02  0.12747876608E+03  0.00000000000E+00 0.  1.
         14    1    3    3    0    0 -0.29034757713E+02  0.22803865386E+02  0.13288994573E+02  0.39238129527E+02  0.00000000000E+00 0. -1.
        -11    1    4    4    0    0  0.19944483186E+02 -0.13817582742E+03 -0.81274952736E+01  0.13984419142E+03  0.00000000000E+00 0. -1.
         11    1    4    4    0    0 -0.55750986051E+02 -0.65819459776E+02  0.43462709387E+01  0.86367029600E+02  0.00000000000E+00 0.  1.
          1    1    1    2  501    0  0.60755548507E+02  0.70923785626E+02 -0.76632200008E+02  0.12080527356E+03  0.00000000000E+00 0. -1.
<scales pt_clust_5="13000.00000" pt_clust_6="13000.00000" pt_clust_7="13000.00000" pt_clust_8="13000.00000" pt_clust_9="93.38854"></scales>
<clustering>
<clus scale="   83.120">  5  6 -1 -1</clus>
<clus scale="   90.890">  7  8 -1 -1</clus>
<clus scale="   93.389">  2  9  1 -1</clus>
<clus scale="  187.067">  1  5  2 -1</clus>
<clus scale="   93.389">  2  5  1 -1</clus>
</clustering>
</event>
<event>
 9    2  0.2433606E-004  0.1183295E+03  0.7546771E-02  0.1246905E+00
         21   -1    0    0  501  502  0.00000000000E+00  0.00000000000E+00  0.98189741727E+02  0.98189741727E+02  0.00000000000E+00 0.  1.
          2   -1    0    0  502    0 -0.00000000000E+00 -0.00000000000E+00 -0.77062720960E+03  0.77062720960E+03  0.00000000000E+00 0. -1.
         24    2    1    2    0    0 -0.13864127468E+01 -0.87833917701E+02 -0.31520259172E+03  0.33742999035E+03  0.82399061415E+02 0.  0.
         23    2    1    2    0    0  0.13927140292E+02  0.32760241970E+02  0.59863511868E+02  0.11048145508E+03  0.85763122451E+02 0.  0.
        -11    1    3    3    0    0  0.39077781224E+02 -0.50048515858E+02 -0.14091636399E+03  0.15456179529E+03  0.00000000000E+00 0.  1.
         12    1    3    3    0    0 -0.40464193971E+02 -0.37785401843E+02 -0.17428622773E+03  0.18286819506E+03  0.00000000000E+00 0. -1.
        -13    1    4    4    0    0  0.23546970908E+02  0.76316309587E+01  0.75435827913E+02  0.79393109039E+02  0.00000000000E+00 0.  1.
         13    1    4    4    0    0 -0.96198306163E+01  0.25128611011E+02 -0.15572316045E+02  0.31088346039E+02  0.00000000000E+00 0. -1.
          1    1    1    2  501    0 -0.12540727545E+02  0.55073675731E+02 -0.41709838802E+03  0.42090550590E+03  0.00000000000E+00 0. -1.
<scales pt_clust_5="13000.00000" pt_clust_6="13000.00000" pt_clust_7="13000.00000" pt_clust_8="13000.00000" pt_clust_9="56.48347"></scales>
<clustering>
<clus scale="   56.483">  1  9  2 -1</clus>
<clus scale="   82.399">  5  6 -1 -1</clus>
<clus scale="   85.763">  7  8 -1 -1</clus>
<clus scale="  115.914">  2  5  1 -1</clus>
<clus scale="   56.483">  1  5  2 -1</clus>
</clustering>
</event>
<event>
 9    2  0.1665830E-004  0.1353700E+03  0.7546771E-02  0.1229755E+00
         21   -1    0    0  501  502  0.00000000000E+00  0.00000000000E+00  0.35423144219E+03  0.35423144219E+03  0.00000000000E+00 0.  1.
         -1   -1    0    0    0  501 -0.00000000000E+00 -0.00000000000E+00 -0.14207973049E+03  0.14207973049E+03  0.00000000000E+00 0.  1.
         23    2    1    2    0    0 -0.54724827526E+02  0.26142712317E+02 -0.53998796602E+02  0.12234521668E+03  0.91510840099E+02 0.  0.
         24    2    1    2    0    0 -0.47760039474E+02 -0.95629522445E+02  0.17770355785E+03  0.22180016552E+03  0.78681204999E+02 0.  0.
        -13    1    4    4    0    0 -0.48643245448E+02 -0.13717437653E+02  0.61009531916E+02  0.79224342270E+02  0.00000000000E+00 0.  1.
         14    1    4    4    0    0  0.88320597448E+00 -0.81912084792E+02  0.11669402593E+03  0.14257582325E+03  0.00000000000E+00 0. -1.
        -11    1    3    3    0    0 -0.73360629574E+02 -0.34980013009E+01 -0.45220712103E+02  0.86249236447E+02  0.00000000000E+00 0.  1.
         11    1    3    3    0    0  0.18635802048E+02  0.29640713618E+02 -0.87780844985E+01  0.36095980236E+02  0.00000000000E+00 0. -1.
         -2    1    1    2    0  502  0.10248486700E+03  0.69486810128E+02  0.88446950453E+02  0.15216579047E+03  0.00000000000E+00 0.  1.
<scales pt_clust_5="13000.00000" pt_clust_6="13000.00000" pt_clust_7="13000.00000" pt_clust_8="13000.00000" pt_clust_9="110.15582"></scales>
<clustering>
<clus scale="   78.681">  5  6 -1 -1</clus>
<clus scale="   91.511">  7  8 -1 -1</clus>
<clus scale="  109.784">  2  7  1 -1</clus>
<clus scale="  110.156">  1  9  2 -1</clus>
<clus scale="  110.156">  1  5  2 -1</clus>
</clustering>
</event>
<event>
 9    2  0.1665830E-004  0.1075166E+03  0.7546771E-02  0.1267872E+00
          2   -1    0    0  502    0 -0.00000000000E+00  0.00000000000E+00  0.80727932402E+03  0.80727932402E+03  0.00000000000E+00 0. -1.
         21   -1    0    0  501  502  0.00000000000E+00 -0.00000000000E+00 -0.15270199894E+03  0.15270199894E+03  0.00000000000E+00 0. -1.
         24    2    1    2    0    0  0.12032929873E+02  0.70758912423E+02  0.68658396252E+03  0.69515256167E+03  0.81779773309E+02 0.  0.
         23    2    1    2    0    0  0.59378949502E+01 -0.16836092768E+02  0.91748416760E+02  0.12864530243E+03  0.88391907116E+02 0.  0.
        -13    1    3    3    0    0  0.45874855112E+02  0.33740984658E+02  0.30317754317E+03  0.30847946295E+03  0.00000000000E+00 0.  1.
         14    1    3    3    0    0 -0.33841925239E+02  0.37017927765E+02  0.38340641935E+03  0.38667309873E+03  0.00000000000E+00 0. -1.
        -13    1    4    4    0    0 -0.92666487820E+01  0.33165786494E+02  0.54498477552E+02  0.64466458169E+02  0.00000000000E+00 0. -1.
         13    1    4    4    0    0  0.15204543732E+02 -0.50001879262E+02  0.37249939208E+02  0.64178844262E+02  0.00000000000E+00 0.  1.
          1    1    1    2  501    0 -0.17970824823E+02 -0.53922819655E+02 -0.12375505420E+03  0.13618345885E+03  0.00000000000E+00 0. -1.
<scales pt_clust_5="13000.00000" pt_clust_6="13000.00000" pt_clust_7="13000.00000" pt_clust_8="13000.00000" pt_clust_9="56.83855"></scales>
<clustering>
<clus scale="   56.839">  2  9  1 -1</clus>
<clus scale="   81.780">  5  6 -1 -1</clus>
<clus scale="   88.392">  7  8 -1 -1</clus>
<clus scale="  102.150">  1  5  2 -1</clus>
<clus scale="   56.839">  2  5  1 -1</clus>
</clustering>
</event>
<event>
 9    2  0.1665830E-004  0.3229710E+03  0.7546771E-02  0.1074863E+00
         21   -1    0    0  501  502  0.00000000000E+00  0.00000000000E+00  0.14086574410E+03  0.14086574410E+03  0.00000000000E+00 0. -1.
          2   -1    0    0  502    0 -0.00000000000E+00 -0.00000000000E+00 -0.14734579064E+04  0.14734579064E+04  0.00000000000E+00 0. -1.
         23    2    1    2    0    0  0.28235684356E+03  0.14263387933E+03 -0.10557351505E+04  0.11060040246E+04  0.92727470092E+02 0.  0.
         24    2    1    2    0    0 -0.22727012523E+03 -0.16644610724E+03 -0.79131498289E+02  0.30168722910E+03  0.73466820659E+02 0.  0.
        -11    1    4    4    0    0 -0.66278415653E+02 -0.88942267345E+02 -0.45410481939E+02  0.11985686118E+03  0.00000000000E+00 0.  1.
         12    1    4    4    0    0 -0.16099170958E+03 -0.77503839898E+02 -0.33721016350E+02  0.18183036792E+03  0.00000000000E+00 0. -1.
        -11    1    3    3    0    0  0.86247917771E+02  0.36383835132E+01 -0.21811310016E+03  0.23457464828E+03  0.00000000000E+00 0.  1.
         11    1    3    3    0    0  0.19610892579E+03  0.13899549582E+03 -0.83762205037E+03  0.87142937631E+03  0.00000000000E+00 0. -1.
          1    1    1    2  501    0 -0.55086718328E+02  0.23812227908E+02 -0.19772551350E+03  0.20663239684E+03  0.00000000000E+00 0. -1.
<scales pt_clust_5="13000.00000" pt_clust_6="13000.00000" pt_clust_7="13000.00000" pt_clust_8="13000.00000" pt_clust_9="60.01310"></scales>
<clustering>
<clus scale="   60.013">  1  9  2 -1</clus>
<clus scale="   73.467">  5  6 -1 -1</clus>
<clus scale="   92.727">  7  8 -1 -1</clus>
<clus scale="  317.977">  1  5  2 -1</clus>
<clus scale="   60.013">  1  5  2 -1</clus>
</clustering>
</event>
<event>
 9    2  0.1665830E-004  0.1087499E+03  0.7546771E-02  0.1268367E+00
         21   -1    0    0  501  502  0.00000000000E+00  0.00000000000E+00  0.11095529979E+03  0.11095529979E+03  0.00000000000E+00 0. -1.
         -1   -1    0    0    0  501 -0.00000000000E+00 -0.00000000000E+00 -0.24352280760E+03  0.24352280760E+03  0.00000000000E+00 0.  1.
         24    2    1    2    0    0 -0.13671022586E+02  0.79101509148E+02 -0.83777863821E+02  0.13947918322E+03  0.77406501518E+02 0.  0.
         23    2    1    2    0    0 -0.32666473232E+02 -0.13575345150E+02  0.30501101243E+02  0.10218108886E+03  0.90880521969E+02 0.  0.
        -13    1    3    3    0    0 -0.37926365783E+02  0.12274478803E+02 -0.23518060560E+02  0.46283595624E+02  0.00000000000E+00 0.  1.
         14    1    3    3    0    0  0.24255343197E+02  0.66827030345E+02 -0.60259803262E+02  0.93195587596E+02  0.00000000000E+00 0. -1.
        -11    1    4    4    0    0  0.18897537160E+02 -0.30328488407E+02 -0.67948947818E+01  0.36374506387E+02  0.00000000000E+00 0.  1.
         11    1    4    4    0    0 -0.51564010392E+02  0.16753143257E+02  0.37295996025E+02  0.65806582469E+02  0.00000000000E+00 0. -1.
         -2    1    1    2    0  502  0.46337495817E+02 -0.65526163998E+02 -0.79290745229E+02  0.11281783532E+03  0.00000000000E+00 0.  1.
<scales pt_clust_5="13000.00000" pt_clust_6="13000.00000" pt_clust_7="13000.00000" pt_clust_8="13000.00000" pt_clust_9="80.25489"></scales>
<clustering>
<clus scale="   77.407">  5  6 -1 -1</clus>
<clus scale="   80.255">  1  9  2 -1</clus>
<clus scale="   90.881">  7  8 -1 -1</clus>
<clus scale="   97.770">  2  5  1 -1</clus>
<clus scale="   80.255">  1  5  2 -1</clus>
</clustering>
</event>
<event>
 9    2  0.1665830E-004  0.1250770E+03  0.7546771E-02  0.1246475E+00
         21   -1    0    0  501  502  0.00000000000E+00  0.00000000000E+00  0.52343131469E+02  0.52343131469E+02  0.00000000000E+00 0. -1.
          2   -1    0    0  502    0 -0.00000000000E+00 -0.00000000000E+00 -0.48197717065E+03  0.48197717065E+03  0.00000000000E+00 0. -1.
         24    2    1    2    0    0 -0.56668665191E+02 -0.41708998280E+01 -0.10915727422E+03  0.14736368741E+03  0.81067945774E+02 0.  0.
         23    2    1    2    0    0 -0.28343671414E+02 -0.55515005367E+02 -0.18655183429E+03  0.21747094655E+03  0.92772550833E+02 0.  0.
        -13    1    3    3    0    0  0.85964208513E+01 -0.28145686304E+02 -0.34400364928E+02  0.45270997517E+02  0.00000000000E+00 0.  1.
         14    1    3    3    0    0 -0.65265086043E+02  0.23974786476E+02 -0.74756909292E+02  0.10209268989E+03  0.00000000000E+00 0. -1.
        -11    1    4    4    0    0 -0.23715313573E+01 -0.51106489241E+02 -0.31249651831E+02  0.59950297273E+02  0.00000000000E+00 0. -1.
         11    1    4    4    0    0 -0.25972140057E+02 -0.44085161265E+01 -0.15530218246E+03  0.15752064928E+03  0.00000000000E+00 0.  1.
          1    1    1    2  501    0  0.85012336606E+02  0.59685905195E+02 -0.13392493067E+03  0.16948566815E+03  0.00000000000E+00 0. -1.
<scales pt_clust_5="13000.00000" pt_clust_6="13000.00000" pt_clust_7="13000.00000" pt_clust_8="13000.00000" pt_clust_9="83.88985"></scales>
<clustering>
<clus scale="   81.068">  5  6 -1 -1</clus>
<clus scale="   92.773">  7  8 -1 -1</clus>
<clus scale="   98.999">  2  5  1 -1</clus>
<clus scale="   83.890">  1  9  2 -1</clus>
<clus scale="   83.890">  1  5  2 -1</clus>
</clustering>
</event>
<event>
 9    2  0.1665830E-004  0.1314064E+03  0.7546771E-02  0.1230381E+00
          2   -1    0    0  502    0 -0.00000000000E+00  0.00000000000E+00  0.63484722732E+03  0.63484722732E+03  0.00000000000E+00 0. -1.
         21   -1    0    0  501  502  0.00000000000E+00 -0.00000000000E+00 -0.39293421723E+02  0.39293421723E+02  0.00000000000E+00 0.  1.
         23    2    1    2    0    0 -0.65574861623E+02 -0.15945021449E+02  0.26371108250E+03  0.28936427920E+03  0.98152151591E+02 0.  0.
         24    2    1    2    0    0  0.10341179694E+03  0.38844853132E+02  0.30212922869E+03  0.33149478094E+03  0.80023725239E+02 0.  0.
        -13    1    4    4    0    0  0.35050099760E+02  0.36895460481E+02  0.54373044681E+02  0.74472897655E+02  0.00000000000E+00 0.  1.
         14    1    4    4    0    0  0.68361697179E+02  0.19493926517E+01  0.24775618401E+03  0.25702188329E+03  0.00000000000E+00 0. -1.
        -13    1    3    3    0    0 -0.17626812939E+02  0.11597342999E+02  0.12448308030E+01  0.21136520592E+02  0.00000000000E+00 0.  1.
         13    1    3    3    0    0 -0.47948048684E+02 -0.27542364447E+02  0.26246625169E+03  0.26822775861E+03  0.00000000000E+00 0. -1.
          1    1    1    2  501    0 -0.37836935315E+02 -0.22899831684E+02  0.29713494404E+02  0.53281588893E+02  0.00000000000E+00 0. -1.
<scales pt_clust_5="13000.00000" pt_clust_6="13000.00000" pt_clust_7="13000.00000" pt_clust_8="13000.00000" pt_clust_9="44.22710"></scales>
<clustering>
<clus scale="   44.227">  2  9  1 -1</clus>
<clus scale="   80.024">  5  6 -1 -1</clus>
<clus scale="   98.152">  7  8 -1 -1</clus>
<clus scale="  118.480">  2  5  1 -1</clus>
<clus scale="   44.227">  2  5  1 -1</clus>
</clustering>
</event>
<event>
 9    2  0.1665830E-004  0.9019598E+02  0.7546771E-02  0.1307826E+00
         21   -1    0    0  501  502  0.00000000000E+00  0.00000000000E+00  0.71091687249E+02  0.71091687249E+02  0.00000000000E+00 0.  1.
          2   -1    0    0  502    0 -0.00000000000E+00 -0.00000000000E+00 -0.36613912485E+03  0.36613912485E+03  0.00000000000E+00 0. -1.
         23    2    1    2    0    0  0.11485083430E+02 -0.10394249394E+02 -0.31175711246E+03  0.32444368222E+03  0.88494396447E+02 0.  0.
         24    2    1    2    0    0 -0.15329936343E+02  0.33020531488E+02  0.19042428569E+02  0.89718248784E+02  0.79758307599E+02 0.  0.
        -13    1    4    4    0    0 -0.28988749966E+02  0.50864634039E+02 -0.24863161064E+01  0.58598126150E+02  0.00000000000E+00 0.  1.
         14    1    4    4    0    0  0.13658813622E+02 -0.17844102551E+02  0.21528744676E+02  0.31120122634E+02  0.00000000000E+00 0. -1.
        -13    1    3    3    0    0  0.46052683121E+02 -0.14441038254E+02 -0.23856498765E+03  0.24339812354E+03  0.00000000000E+00 0. -1.
         13    1    3    3    0    0 -0.34567599691E+02  0.40467888598E+01 -0.73192124803E+02  0.81045558679E+02  0.00000000000E+00 0.  1.
          1    1    1    2  501    0  0.38448529133E+01 -0.22626282094E+02 -0.23327537175E+01  0.23068881101E+02  0.00000000000E+00 0. -1.
<scales pt_clust_5="13000.00000" pt_clust_6="13000.00000" pt_clust_7="13000.00000" pt_clust_8="13000.00000" pt_clust_9="22.95063"></scales>
<clustering>
<clus scale="   22.951">  1  9  2 -1</clus>
<clus scale="   79.758">  5  6 -1 -1</clus>
<clus scale="   81.642">  1  5  2 -1</clus>
<clus scale="   88.494">  7  8 -1 -1</clus>
<clus scale="   22.951">  1  5  2 -1</clus>
</clustering>
</event>
<event>
 9    2  0.1665830E-004  0.1408913E+03  0.7546771E-02  0.1213488E+00
         21   -1    0    0  501  502  0.00000000000E+00  0.00000000000E+00  0.13476566807E+03  0.13476566807E+03  0.00000000000E+00 0. -1.
          2   -1    0    0  502    0 -0.00000000000E+00 -0.00000000000E+00 -0.53987954887E+03  0.53987954887E+03  0.00000000000E+00 0. -1.
         24    2    1    2    0    0  0.10113030625E+03 -0.51945824544E+02 -0.47496168028E+03  0.49572446839E+03  0.85020252281E+02 0.  0.
         23    2    1    2    0    0 -0.48440222040E+02  0.29971207606E+02  0.46645484648E+02  0.11729708283E+03  0.91313065910E+02 0.  0.
        -13    1    3    3    0    0 -0.99602118094E+01 -0.26055149152E+02 -0.94741938957E+02  0.98762906062E+02  0.00000000000E+00 0.  1.
         14    1    3    3    0    0  0.11109051806E+03 -0.25890675392E+02 -0.38021974133E+03  0.39696156233E+03  0.00000000000E+00 0. -1.
        -13    1    4    4    0    0 -0.54979313429E+02 -0.86319761439E+01 -0.95740364424E+00  0.55661050467E+02  0.00000000000E+00 0.  1.
         13    1    4    4    0    0  0.65390913899E+01  0.38603183750E+02  0.47602888292E+02  0.61636032364E+02  0.00000000000E+00 0. -1.
          1    1    1    2  501    0 -0.52690084209E+02  0.21974616938E+02  0.23202314834E+02  0.61623665724E+02  0.00000000000E+00 0. -1.
<scales pt_clust_5="13000.00000" pt_clust_6="13000.00000" pt_clust_7="13000.00000" pt_clust_8="13000.00000" pt_clust_9="57.08878"></scales>
<clustering>
<clus scale="   57.089">  1  9  2 -1</clus>
<clus scale="   85.020">  5  6 -1 -1</clus>
<clus scale="   91.313">  7  8 -1 -1</clus>
<clus scale="  136.897">  2  5  1 -1</clus>
<clus scale="   57.089">  1  5  2 -1</clus>
</clustering>
</event>
<event>
 9    2  0.1665830E-004  0.1078576E+03  0.7546771E-02  0.1270735E+00
         21   -1    0    0  501  502  0.00000000000E+00  0.00000000000E+00  0.13280827936E+03  0.13280827936E+03  0.00000000000E+00 0. -1.
          2   -1    0    0  502    0 -0.00000000000E+00 -0.00000000000E+00 -0.31615277891E+03  0.31615277891E+03  0.00000000000E+00 0. -1.
         24    2    1    2    0    0 -0.33616828366E+00 -0.52670163006E+02 -0.21097405143E+03  0.23150887688E+03  0.79448414808E+02 0.  0.
         23    2    1    2    0    0 -0.35441845499E+02  0.61039091500E+02  0.88086431655E+02  0.14670517053E+03  0.93708550924E+02 0.  0.
        -11    1    3    3    0    0  0.22986474439E+02 -0.64432561134E+02 -0.16523597355E+03  0.17883752374E+03  0.00000000000E+00 0.  1.
         12    1    3    3    0    0 -0.23322642723E+02  0.11762398129E+02 -0.45738077882E+02  0.52671353140E+02  0.00000000000E+00 0. -1.
        -11    1    4    4    0    0 -0.98218930365E+01  0.34953616356E+02 -0.13502559137E+02  0.38736855609E+02  0.00000000000E+00 0.  1.
         11    1    4    4    0    0 -0.25619952462E+02  0.26085475144E+02  0.10158899079E+03  0.10796831493E+03  0.00000000000E+00 0. -1.
          1    1    1    2  501    0  0.35778013783E+02 -0.83689284948E+01 -0.60456879769E+02  0.70747010861E+02  0.00000000000E+00 0. -1.
<scales pt_clust_5="13000.00000" pt_clust_6="13000.00000" pt_clust_7="13000.00000" pt_clust_8="13000.00000" pt_clust_9="36.74380"></scales>
<clustering>
<clus scale="   36.744">  1  9  2 -1</clus>
<clus scale="   79.448">  5  6 -1 -1</clus>
<clus scale="   93.709">  7  8 -1 -1</clus>
<clus scale="   95.729">  2  5  1 -1</clus>
<clus scale="   36.744">  1  5  2 -1</clus>
</clustering>
</event>
<event>
 9    2  0.1665830E-004  0.2178868E+03  0.7546771E-02  0.1135936E+00
         21   -1    0    0  501  502  0.00000000000E+00  0.00000000000E+00  0.32141355127E+03  0.32141355127E+03  0.00000000000E+00 0.  1.
          2   -1    0    0  502    0 -0.00000000000E+00 -0.00000000000E+00 -0.20678959005E+03  0.20678959005E+03  0.00000000000E+00 0. -1.
         23    2    1    2    0    0 -0.16516400492E+03 -0.93800331719E+02 -0.85126084507E+00  0.21024535948E+03  0.90137316281E+02 0.  0.
         24    2    1    2    0    0  0.17675219748E+03  0.11086880309E+03  0.26335976063E+02  0.22646229507E+03  0.84014026452E+02 0.  0.
        -11    1    4    4    0    0  0.16541071190E+03  0.66063581717E+02  0.27519343347E+02  0.18022878433E+03  0.00000000000E+00 0.  1.
         12    1    4    4    0    0  0.11341485573E+02  0.44805221372E+02 -0.11833672842E+01  0.46233510740E+02  0.00000000000E+00 0. -1.
        -11    1    3    3    0    0 -0.46061657658E+02 -0.26010440899E+01  0.32676966364E+02  0.56535173718E+02  0.00000000000E+00 0.  1.
         11    1    3    3    0    0 -0.11910234726E+03 -0.91199287629E+02 -0.33528227210E+02  0.15371018576E+03  0.00000000000E+00 0. -1.
          1    1    1    2  501    0 -0.11588192559E+02 -0.17068471370E+02  0.89139246009E+02  0.91495486778E+02  0.00000000000E+00 0. -1.
<scales pt_clust_5="13000.00000" pt_clust_6="13000.00000" pt_clust_7="13000.00000" pt_clust_8="13000.00000" pt_clust_9="20.63053"></scales>
<clustering>
<clus scale="   20.631">  1  9  2 -1</clus>
<clus scale="   84.014">  5  6 -1 -1</clus>
<clus scale="   90.137">  7  8 -1 -1</clus>
<clus scale="  215.426">  1  5  2 -1</clus>
<clus scale="   20.631">  1  5  2 -1</clus>
</clustering>
</event>
<event>
 9    2  0.1665830E-004  0.1009364E+03  0.7546771E-02  0.1283723E+00
         21   -1    0    0  501  502  0.00000000000E+00  0.00000000000E+00  0.90990350780E+02  0.90990350780E+02  0.00000000000E+00 0.  1.
          2   -1    0    0  502    0 -0.00000000000E+00 -0.00000000000E+00 -0.24096853115E+03  0.24096853115E+03  0.00000000000E+00 0. -1.
         23    2    1    2    0    0 -0.53193491878E+02  0.15060798847E+02 -0.15876683813E+03  0.19132220459E+03  0.91328537929E+02 0.  0.
         24    2    1    2    0    0  0.14336563299E+02  0.24132378933E+02  0.33013896894E+01  0.85174291940E+02  0.80348317179E+02 0.  0.
        -13    1    4    4    0    0 -0.32634762790E+02  0.19217981364E+02  0.83194457475E+00  0.37882062798E+02  0.00000000000E+00 0.  1.
         14    1    4    4    0    0  0.46971326089E+02  0.49143975693E+01  0.24694451147E+01  0.47292229142E+02  0.00000000000E+00 0. -1.
        -11    1    3    3    0    0 -0.31524336038E+02  0.53726154013E+02 -0.97601061667E+02  0.11578536447E+03  0.00000000000E+00 0.  1.
         11    1    3    3    0    0 -0.21669155840E+02 -0.38665355166E+02 -0.61165776462E+02  0.75536840119E+02  0.00000000000E+00 0. -1.
          1    1    1    2  501    0  0.38856928579E+02 -0.39193177780E+02  0.54872680693E+01  0.55462385397E+02  0.00000000000E+00 0. -1.
<scales pt_clust_5="13000.00000" pt_clust_6="13000.00000" pt_clust_7="13000.00000" pt_clust_8="13000.00000" pt_clust_9="55.19027"></scales>
<clustering>
<clus scale="   55.190">  1  9  2 -1</clus>
<clus scale="   80.348">  5  6 -1 -1</clus>
<clus scale="   91.121">  1  5  2 -1</clus>
<clus scale="   91.329">  7  8 -1 -1</clus>
<clus scale="   55.190">  1  5  2 -1</clus>
</clustering>
</event>
<event>
 9    2  0.1665830E-004  0.1246620E+03  0.7546771E-02  0.1259830E+00
          2   -1    0    0  502    0 -0.00000000000E+00  0.00000000000E+00  0.23934129583E+03  0.23934129583E+03  0.00000000000E+00 0. -1.
         21   -1    0    0  501  502  0.00000000000E+00 -0.00000000000E+00 -0.17318432236E+03  0.17318432236E+03  0.00000000000E+00 0.  1.
         24    2    1    2    0    0 -0.16830925932E+02 -0.71110777009E+00  0.18952449897E+02  0.78987352324E+02  0.74806555382E+02 0.  0.
         23    2    1    2    0    0 -0.77078584328E+02  0.27372945997E+02 -0.98874826456E+02  0.15784243142E+03  0.91910910748E+02 0.  0.
        -13    1    3    3    0    0  0.20742052497E+02 -0.15928326047E+02 -0.11215914912E+02  0.28455949461E+02  0.00000000000E+00 0.  1.
         14    1    3    3    0    0 -0.37572978428E+02  0.15217218277E+02  0.30168364809E+02  0.50531402863E+02  0.00000000000E+00 0. -1.
        -13    1    4    4    0    0 -0.54520862176E+02  0.58108590618E+02 -0.43997814896E+02  0.91021648148E+02  0.00000000000E+00 0.  1.
         13    1    4    4    0    0 -0.22557722152E+02 -0.30735644621E+02 -0.54877011561E+02  0.66820783270E+02  0.00000000000E+00 0. -1.
          1    1    1    2  501    0  0.93909510260E+02 -0.26661838227E+02  0.14607935003E+03  0.17569583444E+03  0.00000000000E+00 0. -1.
<scales pt_clust_5="13000.00000" pt_clust_6="13000.00000" pt_clust_7="13000.00000" pt_clust_8="13000.00000" pt_clust_9="84.22002"></scales>
<clustering>
<clus scale="   74.807">  5  6 -1 -1</clus>
<clus scale="   76.680">  1  5  2 -1</clus>
<clus scale="   84.220">  2  9  1 -1</clus>
<clus scale="   91.911">  7  8 -1 -1</clus>
<clus scale="   84.220">  2  5  1 -1</clus>
</clustering>
</event>
<event>
 9    2  0.1665830E-004  0.1248565E+03  0.7546771E-02  0.1254108E+00
         21   -1    0    0  501  502  0.00000000000E+00  0.00000000000E+00  0.43248671448E+02  0.43248671448E+02  0.00000000000E+00 0.  1.
          4   -1    0    0  502    0 -0.00000000000E+00 -0.00000000000E+00 -0.82752053229E+03  0.82752053229E+03  0.00000000000E+00 0. -1.
         24    2    1    2    0    0  0.45463018967E+01  0.21039332147E+02 -0.35276792049E+02  0.92449393564E+02  0.82698947726E+02 0.  0.
         23    2    1    2    0    0 -0.75107129901E+02  0.33208616251E+02 -0.44923751835E+03  0.46562785409E+03  0.90835331518E+02 0.  0.
        -13    1    3    3    0    0  0.93569059050E+01  0.49564239513E+02 -0.51806869694E+01  0.50705079076E+02  0.00000000000E+00 0.  1.
         14    1    3    3    0    0 -0.48106040083E+01 -0.28524907366E+02 -0.30096105079E+02  0.41744314488E+02  0.00000000000E+00 0. -1.
        -13    1    4    4    0    0 -0.88725129948E+02  0.47926355004E+02 -0.39876696270E+03  0.41132003930E+03  0.00000000000E+00 0. -1.
         13    1    4    4    0    0  0.13618000047E+02 -0.14717738753E+02 -0.50470555658E+02  0.54307814794E+02  0.00000000000E+00 0.  1.
          3    1    1    2  501    0  0.70560828004E+02 -0.54247948398E+02 -0.29975755044E+03  0.31269195608E+03  0.00000000000E+00 0. -1.
<scales pt_clust_5="13000.00000" pt_clust_6="13000.00000" pt_clust_7="13000.00000" pt_clust_8="13000.00000" pt_clust_9="85.66268"></scales>
<clustering>
<clus scale="   82.699">  5  6 -1 -1</clus>
<clus scale="   85.454">  2  5  1 -1</clus>
<clus scale="   85.663">  1  9  2 -1</clus>
<clus scale="   90.835">  7  8 -1 -1</clus>
<clus scale="   85.663">  1  5  2 -1</clus>
</clustering>
</event>
<event>
 9    2  0.1665830E-004  0.1377156E+03  0.7546771E-02  0.1236363E+00
         -3   -1    0    0    0  501 -0.00000000000E+00  0.00000000000E+00  0.27781244258E+03  0.27781244258E+03  0.00000000000E+00 0.  1.
         21   -1    0    0  501  502  0.00000000000E+00 -0.00000000000E+00 -0.14670480426E+03  0.14670480426E+03  0.00000000000E+00 0.  1.
         24    2    1    2    0    0  0.58618013846E+00  0.31264541502E+02  0.13767616686E+03  0.16505058856E+03  0.85493594489E+02 0.  0.
         23    2    1    2    0    0  0.20670135021E+02  0.78338769538E+02  0.53190808835E+02  0.13283374341E+03  0.90836798433E+02 0.  0.
        -13    1    3    3    0    0  0.11457186415E+02  0.57466280764E+02  0.67665841631E+02  0.89511489034E+02  0.00000000000E+00 0.  1.
         14    1    3    3    0    0 -0.10871006277E+02 -0.26201739262E+02  0.70010325230E+02  0.75539099523E+02  0.00000000000E+00 0. -1.
        -11    1    4    4    0    0 -0.84193872830E+01  0.33143117239E+02 -0.21812683806E+02  0.40560392963E+02  0.00000000000E+00 0.  1.
         11    1    4    4    0    0  0.29089522304E+02  0.45195652299E+02  0.75003492640E+02  0.92273350448E+02  0.00000000000E+00 0. -1.
         -4    1    1    2    0  502 -0.21256315159E+02 -0.10960331104E+03 -0.59759337383E+02  0.12663291487E+03  0.00000000000E+00 0.  1.
<scales pt_clust_5="13000.00000" pt_clust_6="13000.00000" pt_clust_7="13000.00000" pt_clust_8="13000.00000" pt_clust_9="103.50972"></scales>
<clustering>
<clus scale="   85.494">  5  6 -1 -1</clus>
<clus scale="   90.837">  7  8 -1 -1</clus>
<clus scale="   91.033">  1  5  2 -1</clus>
<clus scale="  103.510">  2  9  1 -1</clus>
<clus scale="  103.510">  2  5  1 -1</clus>
</clustering>
</event>
<event>
 9    2  0.1665830E-004  0.1291113E+03  0.7546771E-02  0.1229699E+00
         21   -1    0    0  501  502  0.00000000000E+00  0.00000000000E+00  0.30625608404E+03  0.30625608404E+03  0.00000000000E+00 0. -1.
         -3   -1    0    0    0  501 -0.00000000000E+00 -0.00000000000E+00 -0.12532581166E+03  0.12532581166E+03  0.00000000000E+00 0.  1.
         24    2    1    2    0    0  0.30940134755E+02 -0.84608075440E+02  0.26584922941E+02  0.12942499950E+03  0.89040743486E+02 0.  0.
         23    2    1    2    0    0 -0.10089552189E+03  0.48685712423E+02  0.16827037392E+03  0.22229402209E+03  0.92463552748E+02 0.  0.
        -13    1    3    3    0    0  0.53899093971E+00 -0.89295005854E+02  0.82087464626E+00  0.89300405468E+02  0.00000000000E+00 0.  1.
         14    1    3    3    0    0  0.30401143815E+02  0.46869304138E+01  0.25764048295E+02  0.40124594036E+02  0.00000000000E+00 0. -1.
        -13    1    4    4    0    0 -0.57957691057E+01  0.43669589255E+02  0.26188397401E+02  0.51248962172E+02  0.00000000000E+00 0.  1.
         13    1    4    4    0    0 -0.95099752788E+02  0.50161231677E+01  0.14208197652E+03  0.17104505992E+03  0.00000000000E+00 0. -1.
         -4    1    1    2    0  502  0.69955387139E+02  0.35922363017E+02 -0.13925024483E+02  0.79862874111E+02  0.00000000000E+00 0.  1.
<scales pt_clust_5="13000.00000" pt_clust_6="13000.00000" pt_clust_7="13000.00000" pt_clust_8="13000.00000" pt_clust_9="78.63955"></scales>
<clustering>
<clus scale="   78.640">  1  9  2 -1</clus>
<clus scale="   89.041">  5  6 -1 -1</clus>
<clus scale="   92.464">  7  8 -1 -1</clus>
<clus scale="  126.683">  2  5  1 -1</clus>
<clus scale="   78.640">  1  5  2 -1</clus>
</clustering>
</event>
<event>
 9    2  0.1665830E-004  0.8587671E+02  0.7546771E-02  0.1314184E+00
         21   -1    0    0  501  502  0.00000000000E+00  0.00000000000E+00  0.64788071542E+02  0.64788071542E+02  0.00000000000E+00 0. -1.
          2   -1    0    0  502    0 -0.00000000000E+00 -0.00000000000E+00 -0.27970990201E+03  0.27970990201E+03  0.00000000000E+00 0. -1.
         24    2    1    2    0    0 -0.14128090070E+01 -0.30962879943E+02 -0.20076864822E+03  0.21801135203E+03  0.79121448059E+02 0.  0.
         23    2    1    2    0    0 -0.14905697877E+02  0.17417182888E+02  0.19949486390E+02  0.86327294038E+02  0.80801495034E+02 0.  0.
        -11    1    3    3    0    0  0.33131119966E+02  0.43037045336E+01 -0.57816007651E+02  0.66774873445E+02  0.00000000000E+00 0.  1.
         12    1    3    3    0    0 -0.34543928973E+02 -0.35266584477E+02 -0.14295264057E+03  0.15123647859E+03  0.00000000000E+00 0. -1.
        -13    1    4    4    0    0  0.74520400927E+00 -0.30593525933E+02 -0.32137535158E+01  0.30770885098E+02  0.00000000000E+00 0.  1.
         13    1    4    4    0    0 -0.15650901886E+02  0.48010708821E+02  0.23163239905E+02  0.55556408940E+02  0.00000000000E+00 0. -1.
          1    1    1    2  501    0  0.16318506884E+02  0.13545697055E+02 -0.34102668637E+02  0.40159327482E+02  0.00000000000E+00 0. -1.
<scales pt_clust_5="13000.00000" pt_clust_6="13000.00000" pt_clust_7="13000.00000" pt_clust_8="13000.00000" pt_clust_9="21.20802"></scales>
<clustering>
<clus scale="   21.208">  1  9  2 -1</clus>
<clus scale="   79.121">  5  6 -1 -1</clus>
<clus scale="   80.801">  7  8 -1 -1</clus>
<clus scale="   84.298">  2  5  1 -1</clus>
<clus scale="   21.208">  1  5  2 -1</clus>
</clustering>
</event>
<event>
 9    2  0.1665830E-004  0.5329706E+03  0.7546771E-02  0.1068753E+00
         21   -1    0    0  501  502  0.00000000000E+00  0.00000000000E+00  0.38120033161E+03  0.38120033161E+03  0.00000000000E+00 0. -1.
          2   -1    0    0  502    0 -0.00000000000E+00 -0.00000000000E+00 -0.97589819132E+03  0.97589819132E+03  0.00000000000E+00 0. -1.
         24    2    1    2    0    0  0.25930069101E+02  0.89925569825E+01 -0.12935733337E+03  0.15403788434E+03  0.79000731324E+02 0.  0.
         23    2    1    2    0    0  0.25649622334E+03  0.44250636187E+03 -0.42102372623E+03  0.66866391036E+03  0.90819899156E+02 0.  0.
        -11    1    3    3    0    0  0.17555620819E+02  0.97738638654E+01  0.39398496189E+01  0.20475611156E+02  0.00000000000E+00 0.  1.
         12    1    3    3    0    0  0.83744482820E+01 -0.78130688286E+00 -0.13329718299E+03  0.13356227318E+03  0.00000000000E+00 0. -1.
        -13    1    4    4    0    0  0.20452253798E+03  0.36411841081E+03 -0.38480288802E+03  0.56787758211E+03  0.00000000000E+00 0. -1.
         13    1    4    4    0    0  0.51973685363E+02  0.78387951054E+02 -0.36220838209E+02  0.10078632825E+03  0.00000000000E+00 0.  1.
          1    1    1    2  501    0 -0.28242629244E+03 -0.45149891885E+03 -0.44316800104E+02  0.53439672824E+03  0.00000000000E+00 0. -1.
<scales pt_clust_5="13000.00000" pt_clust_6="13000.00000" pt_clust_7="13000.00000" pt_clust_8="13000.00000" pt_clust_9="525.17560"></scales>
<clustering>
<clus scale="   79.001">  5  6 -1 -1</clus>
<clus scale="   83.632">  2  5  1 -1</clus>
<clus scale="   90.820">  7  8 -1 -1</clus>
<clus scale="  525.176">  1  9  2 -1</clus>
<clus scale="  525.176">  1  5  2 -1</clus>
</clustering>
</event>
<event>
 9    2  0.1665830E-004  0.1009543E+03  0.7546771E-02  0.1285422E+00
         21   -1    0    0  501  502  0.00000000000E+00  0.00000000000E+00  0.44436770727E+02  0.44436770727E+02  0.00000000000E+00 0. -1.
          2   -1    0    0  502    0 -0.00000000000E+00 -0.00000000000E+00 -0.70169966731E+03  0.70169966731E+03  0.00000000000E+00 0. -1.
         24    2    1    2    0    0  0.11541885684E+02 -0.39132570540E+02 -0.33188369845E+03  0.34355105563E+03  0.78841393488E+02 0.  0.
         23    2    1    2    0    0  0.25657026935E+02  0.38063312871E+02 -0.34312389995E+02  0.10914920670E+03  0.92893005111E+02 0.  0.
        -11    1    3    3    0    0 -0.16258002459E+02  0.17282509500E+02 -0.60769696520E+02  0.65237748226E+02  0.00000000000E+00 0.  1.
         12    1    3    3    0    0  0.27799888143E+02 -0.56415080040E+02 -0.27111400193E+03  0.27831330741E+03  0.00000000000E+00 0. -1.
        -13    1    4    4    0    0 -0.83497478599E+01 -0.18282512807E+02 -0.38260213534E+02  0.43218196440E+02  0.00000000000E+00 0.  1.
         13    1    4    4    0    0  0.34006774795E+02  0.56345825678E+02  0.39478235398E+01  0.65931010261E+02  0.00000000000E+00 0. -1.
          1    1    1    2  501    0 -0.37198912619E+02  0.10692576693E+01 -0.29106680813E+03  0.29343617570E+03  0.00000000000E+00 0. -1.
<scales pt_clust_5="13000.00000" pt_clust_6="13000.00000" pt_clust_7="13000.00000" pt_clust_8="13000.00000" pt_clust_9="37.21430"></scales>
<clustering>
<clus scale="   37.214">  1  9  2 -1</clus>
<clus scale="   78.841">  5  6 -1 -1</clus>
<clus scale="   88.197">  2  5  1 -1</clus>
<clus scale="   92.893">  7  8 -1 -1</clus>
<clus scale="   37.214">  1  5  2 -1</clus>
</clustering>
</event>
<event>
 9    2  0.1665830E-004  0.9997619E+02  0.7546771E-02  0.1283915E+00
         21   -1    0    0  501  502  0.00000000000E+00  0.00000000000E+00  0.43190896865E+02  0.43190896865E+02  0.00000000000E+00 0. -1.
          2   -1    0    0  502    0 -0.00000000000E+00 -0.00000000000E+00 -0.64897697644E+03  0.64897697644E+03  0.00000000000E+00 0. -1.
         24    2    1    2    0    0  0.25459813990E+01 -0.26971692120E+02 -0.13703328031E+03  0.16150478048E+03  0.81066145886E+02 0.  0.
         23    2    1    2    0    0 -0.69184142366E+02  0.68058621278E+02 -0.13701192275E+03  0.18981006087E+03  0.88527796455E+02 0.  0.
        -13    1    3    3    0    0  0.28102603424E+02  0.45526991452E+01 -0.13560194403E+02  0.31533510128E+02  0.00000000000E+00 0.  1.
         14    1    3    3    0    0 -0.25556622025E+02 -0.31524391265E+02 -0.12347308591E+03  0.12997127036E+03  0.00000000000E+00 0. -1.
        -13    1    4    4    0    0 -0.29421379494E+02 -0.17032599368E+02 -0.57276006875E+02  0.66605314924E+02  0.00000000000E+00 0.  1.
         13    1    4    4    0    0 -0.39762762872E+02  0.85091220647E+02 -0.79735915879E+02  0.12320474595E+03  0.00000000000E+00 0. -1.
          1    1    1    2  501    0  0.66638160967E+02 -0.41086929158E+02 -0.33174087650E+03  0.34085303195E+03  0.00000000000E+00 0. -1.
<scales pt_clust_5="13000.00000" pt_clust_6="13000.00000" pt_clust_7="13000.00000" pt_clust_8="13000.00000" pt_clust_9="78.28657"></scales>
<clustering>
<clus scale="   78.287">  1  9  2 -1</clus>
<clus scale="   81.066">  5  6 -1 -1</clus>
<clus scale="   88.528">  7  8 -1 -1</clus>
<clus scale="   93.433">  2  5  1 -1</clus>
<clus scale="   78.287">  1  5  2 -1</clus>
</clustering>
</event>
<event>
 9    2  0.1665830E-004  0.1019221E+03  0.7546771E-02  0.1282767E+00
          2   -1    0    0  502    0 -0.00000000000E+00  0.00000000000E+00  0.89484992824E+02  0.89484992824E+02  0.00000000000E+00 0. -1.
         21   -1    0    0  501  502  0.00000000000E+00 -0.00000000000E+00 -0.37130391249E+03  0.37130391249E+03  0.00000000000E+00 0.  1.
         23    2    1    2    0    0 -0.36211652052E+02  0.15389192668E+02  0.45858607261E+02  0.11212631057E+03  0.94452033681E+02 0.  0.
         24    2    1    2    0    0  0.37397416862E+02  0.12773185313E+02 -0.23892672629E+03  0.25554315432E+03  0.81575744759E+02 0.  0.
        -11    1    4    4    0    0  0.39387588404E+02 -0.86951832305E+01 -0.22768056135E+03  0.23122592058E+03  0.00000000000E+00 0.  1.
         12    1    4    4    0    0 -0.19901715426E+01  0.21468368543E+02 -0.11246164932E+02  0.24317233732E+02  0.00000000000E+00 0. -1.
        -13    1    3    3    0    0 -0.33736470897E+02 -0.27379486246E+02 -0.70835387828E+01  0.44022292732E+02  0.00000000000E+00 0. -1.
         13    1    3    3    0    0 -0.24751811542E+01  0.42768678914E+02  0.52942146043E+02  0.68104017836E+02  0.00000000000E+00 0.  1.
          1    1    1    2  501    0 -0.11857648101E+01 -0.28162377981E+02 -0.88750800636E+02  0.93119440426E+02  0.00000000000E+00 0. -1.
<scales pt_clust_5="13000.00000" pt_clust_6="13000.00000" pt_clust_7="13000.00000" pt_clust_8="13000.00000" pt_clust_9="28.18733"></scales>
<clustering>
<clus scale="   28.187">  2  9  1 -1</clus>
<clus scale="   81.576">  5  6 -1 -1</clus>
<clus scale="   90.119">  2  5  1 -1</clus>
<clus scale="   94.452">  7  8 -1 -1</clus>
<clus scale="   28.187">  2  5  1 -1</clus>
</clustering>
</event>
<event>
 9    2  0.1665830E-004  0.2242998E+03  0.7546771E-02  0.1130717E+00
         -3   -1    0    0    0  501 -0.00000000000E+00  0.00000000000E+00  0.40902456076E+03  0.40902456076E+03  0.00000000000E+00 0.  1.
         21   -1    0    0  501  502  0.00000000000E+00 -0.00000000000E+00 -0.76989383253E+02  0.76989383253E+02  0.00000000000E+00 0.  1.
         24    2    1    2    0    0 -0.86012389450E+02  0.18208832108E+02  0.95093339760E+02  0.15494193397E+03  0.85056257444E+02 0.  0.
         23    2    1    2    0    0 -0.42926707709E+02 -0.10842913228E+02  0.94018518200E+02  0.13844121601E+03  0.91467029716E+02 0.  0.
        -11    1    3    3    0    0 -0.10160440631E+03  0.47244973913E+01  0.79190638570E+02  0.12890668522E+03  0.00000000000E+00 0.  1.
         12    1    3    3    0    0  0.15592016859E+02  0.13484334717E+02  0.15902701190E+02  0.26035248753E+02  0.00000000000E+00 0. -1.
        -13    1    4    4    0    0 -0.10284473246E+02  0.37102628015E+02  0.59724134017E+02  0.71058761456E+02  0.00000000000E+00 0.  1.
         13    1    4    4    0    0 -0.32642234463E+02 -0.47945541243E+02  0.34294384183E+02  0.67382454559E+02  0.00000000000E+00 0. -1.
         -4    1    1    2    0  502  0.12893909716E+03 -0.73659188799E+01  0.14292331954E+03  0.19263079402E+03  0.00000000000E+00 0.  1.
<scales pt_clust_5="13000.00000" pt_clust_6="13000.00000" pt_clust_7="13000.00000" pt_clust_8="13000.00000" pt_clust_9="129.14939"></scales>
<clustering>
<clus scale="   85.056">  5  6 -1 -1</clus>
<clus scale="   91.467">  7  8 -1 -1</clus>
<clus scale="   93.866">  5  7 -1 -1</clus>
<clus scale="  129.149">  2  9  1 -1</clus>
<clus scale="  129.149">  2  5  1 -1</clus>
</clustering>
</event>
<event>
 9    2  0.1665830E-004  0.1228732E+03  0.7546771E-02  0.1241660E+00
         -1   -1    0    0    0  501 -0.00000000000E+00  0.00000000000E+00  0.43458730934E+03  0.43458730934E+03  0.00000000000E+00 0.  1.
         21   -1    0    0  501  502  0.00000000000E+00 -0.00000000000E+00 -0.75936154345E+02  0.75936154345E+02  0.00000000000E+00 0. -1.
         23    2    1    2    0    0  0.10330565434E+02  0.67134370522E+02  0.94825996263E+02  0.14809288996E+03  0.91245768135E+02 0.  0.
         24    2    1    2    0    0 -0.31960891608E+02 -0.10356578371E+03  0.49193260594E+02  0.14365678513E+03  0.80435843233E+02 0.  0.
        -13    1    4    4    0    0 -0.50723476931E+02 -0.29978929101E+02  0.18621784617E+02  0.61793026826E+02  0.00000000000E+00 0.  1.
         14    1    4    4    0    0  0.18762585322E+02 -0.73586854614E+02  0.30571475977E+02  0.81863758302E+02  0.00000000000E+00 0. -1.
        -11    1    3    3    0    0  0.17949625549E+02  0.14865406046E+02  0.92315432902E+02  0.95211913678E+02  0.00000000000E+00 0.  1.
         11    1    3    3    0    0 -0.76190601150E+01  0.52268964476E+02  0.25105633611E+01  0.52880976285E+02  0.00000000000E+00 0. -1.
         -2    1    1    2    0  502  0.21630326174E+02  0.36431413193E+02  0.21463189813E+03  0.21877378859E+03  0.00000000000E+00 0.  1.
<scales pt_clust_5="13000.00000" pt_clust_6="13000.00000" pt_clust_7="13000.00000" pt_clust_8="13000.00000" pt_clust_9="42.36886"></scales>
<clustering>
<clus scale="   42.369">  2  9  1 -1</clus>
<clus scale="   80.436">  5  6 -1 -1</clus>
<clus scale="   91.246">  7  8 -1 -1</clus>
<clus scale="  115.074">  2  5  1 -1</clus>
<clus scale="   42.369">  2  5  1 -1</clus>
</clustering>
</event>
<event>
 9    2  0.1665830E-004  0.2347450E+03  0.7546771E-02  0.1123993E+00
         21   -1    0    0  501  502  0.00000000000E+00  0.00000000000E+00  0.73778275542E+02  0.73778275542E+02  0.00000000000E+00 0.  1.
          2   -1    0    0  502    0 -0.00000000000E+00 -0.00000000000E+00 -0.10414054794E+04  0.10414054794E+04  0.00000000000E+00 0. -1.
         24    2    1    2    0    0  0.98027786430E+02  0.17923803832E+03 -0.44615828550E+03  0.49738359969E+03  0.81225046778E+02 0.  0.
         23    2    1    2    0    0 -0.94719083602E+02 -0.21885097267E+03 -0.30537237854E+03  0.39807795200E+03  0.91358159231E+02 0.  0.
        -11    1    3    3    0    0  0.32327115422E+02  0.57986093184E+02 -0.68766981722E+02  0.95584136599E+02  0.00000000000E+00 0.  1.
         12    1    3    3    0    0  0.65700671008E+02  0.12125194513E+03 -0.37739130378E+03  0.40179946309E+03  0.00000000000E+00 0. -1.
        -11    1    4    4    0    0 -0.38950828800E+02 -0.11455789999E+02 -0.49635775781E+02  0.64125754780E+02  0.00000000000E+00 0. -1.
         11    1    4    4    0    0 -0.55768254802E+02 -0.20739518267E+03 -0.25573660276E+03  0.33395219722E+03  0.00000000000E+00 0.  1.
          1    1    1    2  501    0 -0.33087028282E+01  0.39612934349E+02 -0.21609653977E+03  0.21972220321E+03  0.00000000000E+00 0. -1.
<scales pt_clust_5="13000.00000" pt_clust_6="13000.00000" pt_clust_7="13000.00000" pt_clust_8="13000.00000" pt_clust_9="39.75090"></scales>
<clustering>
<clus scale="   39.751">  1  9  2 -1</clus>
<clus scale="   81.225">  5  6 -1 -1</clus>
<clus scale="   91.358">  7  8 -1 -1</clus>
<clus scale="  230.990">  2  5  1 -1</clus>
<clus scale="   39.751">  1  5  2 -1</clus>
</clustering>
</event>
<event>
 9    2  0.1665830E-004  0.9114742E+02  0.7546771E-02  0.1303878E+00
         21   -1    0    0  501  502  0.00000000000E+00  0.00000000000E+00  0.96064789034E+02  0.96064789034E+02  0.00000000000E+00 0. -1.
          2   -1    0    0  502    0 -0.00000000000E+00 -0.00000000000E+00 -0.47210480932E+03  0.47210480932E+03  0.00000000000E+00 0. -1.
         23    2    1    2    0    0 -0.23695455337E+02 -0.27893256018E+02 -0.35677970538E+03  0.36851505948E+03  0.84688148854E+02 0.  0.
         24    2    1    2    0    0 -0.16142137746E+02  0.39010666437E+02 -0.84413234437E+02  0.12248243536E+03  0.78063769552E+02 0.  0.
        -13    1    4    4    0    0  0.48266946146E+01  0.33703810827E+02  0.13095794485E+01  0.34072846132E+02  0.00000000000E+00 0.  1.
         14    1    4    4    0    0 -0.20968832361E+02  0.53068556095E+01 -0.85722813885E+02  0.88409589228E+02  0.00000000000E+00 0. -1.
        -13    1    3    3    0    0 -0.50119961686E+02 -0.33624077001E+02 -0.29447375198E+03  0.30059504274E+03  0.00000000000E+00 0. -1.
         13    1    3    3    0    0  0.26424506349E+02  0.57308209826E+01 -0.62305953403E+02  0.67920016743E+02  0.00000000000E+00 0.  1.
          1    1    1    2  501    0  0.39837593083E+02 -0.11117410419E+02  0.65152919534E+02  0.77172103514E+02  0.00000000000E+00 0. -1.
<scales pt_clust_5="13000.00000" pt_clust_6="13000.00000" pt_clust_7="13000.00000" pt_clust_8="13000.00000" pt_clust_9="41.35977"></scales>
<clustering>
<clus scale="   41.360">  1  9  2 -1</clus>
<clus scale="   78.064">  5  6 -1 -1</clus>
<clus scale="   84.688">  7  8 -1 -1</clus>
<clus scale="   85.028">  1  5  2 -1</clus>
<clus scale="   41.360">  1  5  2 -1</clus>
</clustering>
</event>
<event>
 9    2  0.1665830E-004  0.1004529E+03  0.7546771E-02  0.1286841E+00
         21   -1    0    0  501  502  0.00000000000E+00  0.00000000000E+00  0.72296586841E+02  0.72296586841E+02  0.00000000000E+00 0.  1.
          2   -1    0    0  502    0 -0.00000000000E+00 -0.00000000000E+00 -0.33764670252E+03  0.33764670252E+03  0.00000000000E+00 0. -1.
         23    2    1    2    0    0  0.20885125162E+02  0.77756354457E+01 -0.18947758369E+03  0.21226818567E+03  0.93055784162E+02 0.  0.
         24    2    1    2    0    0 -0.56502889564E+02 -0.54300852320E+02 -0.83139060957E+02  0.13863254794E+03  0.78522103895E+02 0.  0.
        -11    1    4    4    0    0  0.35672758720E+01 -0.28216997107E+02  0.49478118701E+01  0.28868758636E+02  0.00000000000E+00 0.  1.
         12    1    4    4    0    0 -0.60070165436E+02 -0.26083855214E+02 -0.88086872827E+02  0.10976378931E+03  0.00000000000E+00 0. -1.
        -11    1    3    3    0    0  0.57464870974E+02  0.92032440568E+01 -0.12992666609E+03  0.14236519820E+03  0.00000000000E+00 0. -1.
         11    1    3    3    0    0 -0.36579745811E+02 -0.14276086111E+01 -0.59550917602E+02  0.69902987470E+02  0.00000000000E+00 0.  1.
          1    1    1    2  501    0  0.35617764402E+02  0.46525216875E+02  0.72665289685E+01  0.59042555750E+02  0.00000000000E+00 0. -1.
<scales pt_clust_5="13000.00000" pt_clust_6="13000.00000" pt_clust_7="13000.00000" pt_clust_8="13000.00000" pt_clust_9="58.59369"></scales>
<clustering>
<clus scale="   58.594">  1  9  2 -1</clus>
<clus scale="   78.522">  5  6 -1 -1</clus>
<clus scale="   87.161">  1  5  2 -1</clus>
<clus scale="   93.056">  7  8 -1 -1</clus>
<clus scale="   58.594">  1  5  2 -1</clus>
</clustering>
</event>
<event>
 9    2  0.1665830E-004  0.9312601E+02  0.7546771E-02  0.1305796E+00
          2   -1    0    0  502    0 -0.00000000000E+00  0.00000000000E+00  0.36574183262E+03  0.36574183262E+03  0.00000000000E+00 0. -1.
         21   -1    0    0  501  502  0.00000000000E+00 -0.00000000000E+00 -0.55289084873E+02  0.55289084873E+02  0.00000000000E+00 0.  1.
         24    2    1    2    0    0 -0.62961528729E+01  0.18989226866E+02  0.26023346096E+03  0.27117564531E+03  0.73583586024E+02 0.  0.
         23    2    1    2    0    0  0.20670711563E+02 -0.39883868524E+02  0.87876773835E+01  0.10127757930E+03  0.90343364503E+02 0.  0.
        -11    1    3    3    0    0 -0.50382355591E+01 -0.26542148960E+02  0.14044111359E+03  0.14301599867E+03  0.00000000000E+00 0.  1.
         12    1    3    3    0    0 -0.12579173138E+01  0.45531375826E+02  0.11979234737E+03  0.12815964664E+03  0.00000000000E+00 0. -1.
        -11    1    4    4    0    0  0.47975823555E+02 -0.10384522787E+02  0.28230250474E+02  0.56625656739E+02  0.00000000000E+00 0. -1.
         11    1    4    4    0    0 -0.27305111992E+02 -0.29499345737E+02 -0.19442573091E+02  0.44651922559E+02  0.00000000000E+00 0.  1.
          1    1    1    2  501    0 -0.14374558690E+02  0.20894641658E+02  0.41431609412E+02  0.48577692885E+02  0.00000000000E+00 0. -1.
<scales pt_clust_5="13000.00000" pt_clust_6="13000.00000" pt_clust_7="13000.00000" pt_clust_8="13000.00000" pt_clust_9="25.36168"></scales>
<clustering>
<clus scale="   25.362">  2  9  1 -1</clus>
<clus scale="   73.584">  5  6 -1 -1</clus>
<clus scale="   76.975">  1  5  2 -1</clus>
<clus scale="   90.343">  7  8 -1 -1</clus>
<clus scale="   25.362">  2  5  1 -1</clus>
</clustering>
</event>
<event>
 9    2  0.1665830E-004  0.9793443E+02  0.7546771E-02  0.1290774E+00
          4   -1    0    0  502    0 -0.00000000000E+00  0.00000000000E+00  0.91479294687E+02  0.91479294687E+02  0.00000000000E+00 0. -1.
         21   -1    0    0  501  502  0.00000000000E+00 -0.00000000000E+00 -0.40755279673E+03  0.40755279673E+03  0.00000000000E+00 0.  1.
         24    2    1    2    0    0 -0.33829091342E+02  0.17010577591E+02  0.51733023399E+02  0.10067080156E+03  0.77617893588E+02 0.  0.
         23    2    1    2    0    0  0.66788393541E+02 -0.23892025667E+02 -0.32126070630E+03  0.34091406879E+03  0.89344515696E+02 0.  0.
        -13    1    3    3    0    0 -0.41467907631E+02  0.45919315834E+01 -0.50683178285E+01  0.42028098275E+02  0.00000000000E+00 0.  1.
         14    1    3    3    0    0  0.76388162891E+01  0.12418646008E+02  0.56801341227E+02  0.58642703282E+02  0.00000000000E+00 0. -1.
        -11    1    4    4    0    0  0.48532239037E+02  0.29963474822E+02 -0.15139594042E+03  0.16178355549E+03  0.00000000000E+00 0. -1.
         11    1    4    4    0    0  0.18256154504E+02 -0.53855500489E+02 -0.16986476588E+03  0.17913051331E+03  0.00000000000E+00 0.  1.
          3    1    1    2  501    0 -0.32959302198E+02  0.68814480754E+01 -0.46545819141E+02  0.57447221069E+02  0.00000000000E+00 0. -1.
<scales pt_clust_5="13000.00000" pt_clust_6="13000.00000" pt_clust_7="13000.00000" pt_clust_8="13000.00000" pt_clust_9="33.67002"></scales>
<clustering>
<clus scale="   33.670">  2  9  1 -1</clus>
<clus scale="   77.618">  5  6 -1 -1</clus>
<clus scale="   87.368">  1  5  2 -1</clus>
<clus scale="   89.345">  7  8 -1 -1</clus>
<clus scale="   33.670">  2  5  1 -1</clus>
</clustering>
</event>
<event>
 9    2  0.1665830E-004  0.9927570E+02  0.7546771E-02  0.1289726E+00
         -1   -1    0    0    0  501 -0.00000000000E+00  0.00000000000E+00  0.11288196715E+03  0.11288196715E+03  0.00000000000E+00 0.  1.
         21   -1    0    0  501  502  0.00000000000E+00 -0.00000000000E+00 -0.24343961749E+03  0.24343961749E+03  0.00000000000E+00 0.  1.
         23    2    1    2    0    0  0.24585735764E+01 -0.20338757705E+02  0.27568493929E+02  0.10139481963E+03  0.95400094033E+02 0.  0.
         24    2    1    2    0    0  0.21276277227E+02  0.32787909573E+02  0.45500732550E+01  0.90057494769E+02  0.81005692458E+02 0.  0.
        -13    1    4    4    0    0  0.30564052929E+02  0.49014027674E+02  0.24475292269E+02  0.62734170688E+02  0.00000000000E+00 0.  1.
         14    1    4    4    0    0 -0.92877757023E+01 -0.16226118100E+02 -0.19925219014E+02  0.27323324081E+02  0.00000000000E+00 0. -1.
        -13    1    3    3    0    0 -0.42181440137E+02  0.76110503155E+01  0.22699326776E+02  0.48502179487E+02  0.00000000000E+00 0. -1.
         13    1    3    3    0    0  0.44640013713E+02 -0.27949808021E+02  0.48691671521E+01  0.52892640144E+02  0.00000000000E+00 0.  1.
         -2    1    1    2    0  502 -0.23734850803E+02 -0.12449151868E+02 -0.16267621752E+03  0.16486927025E+03  0.00000000000E+00 0.  1.
<scales pt_clust_5="13000.00000" pt_clust_6="13000.00000" pt_clust_7="13000.00000" pt_clust_8="13000.00000" pt_clust_9="26.80158"></scales>
<clustering>
<clus scale="   26.802">  2  9  1 -1</clus>
<clus scale="   81.006">  5  6 -1 -1</clus>
<clus scale="   85.536">  2  5  1 -1</clus>
<clus scale="   95.400">  7  8 -1 -1</clus>
<clus scale="   26.802">  2  5  1 -1</clus>
</clustering>
</event>
<event>
 9    2  0.1665830E-004  0.1364549E+03  0.7546771E-02  0.1218458E+00
         21   -1    0    0  501  502  0.00000000000E+00  0.00000000000E+00  0.71372083090E+02  0.71372083090E+02  0.00000000000E+00 0. -1.
          2   -1    0    0  502    0 -0.00000000000E+00 -0.00000000000E+00 -0.38955180678E+03  0.38955180678E+03  0.00000000000E+00 0. -1.
         23    2    1    2    0    0  0.73052859849E+02 -0.48005743351E+02 -0.84205000040E+02  0.14551088003E+03  0.80259967902E+02 0.  0.
         24    2    1    2    0    0 -0.97651309259E+02  0.92295410347E+02 -0.14967158440E+03  0.21705815433E+03  0.81599253750E+02 0.  0.
        -13    1    4    4    0    0 -0.72911897253E+02  0.53781719305E+02 -0.41606772390E+02  0.99698252749E+02  0.00000000000E+00 0.  1.
         14    1    4    4    0    0 -0.24739412006E+02  0.38513691042E+02 -0.10806481201E+03  0.11735990158E+03  0.00000000000E+00 0. -1.
        -11    1    3    3    0    0  0.74177133473E+02 -0.37093446763E+01 -0.49966079274E+02  0.89513213808E+02  0.00000000000E+00 0.  1.
         11    1    3    3    0    0 -0.11242736240E+01 -0.44296398675E+02 -0.34238920766E+02  0.55997666219E+02  0.00000000000E+00 0. -1.
          1    1    1    2  501    0  0.24598449411E+02 -0.44289666996E+02 -0.84303139251E+02  0.98354855517E+02  0.00000000000E+00 0. -1.
<scales pt_clust_5="13000.00000" pt_clust_6="13000.00000" pt_clust_7="13000.00000" pt_clust_8="13000.00000" pt_clust_9="50.66222"></scales>
<clustering>
<clus scale="   50.662">  1  9  2 -1</clus>
<clus scale="   80.260">  7  8 -1 -1</clus>
<clus scale="   81.599">  5  6 -1 -1</clus>
<clus scale="  135.658">  2  7  1 -1</clus>
<clus scale="   50.662">  1  5  2 -1</clus>
</clustering>
</event>
<event>
 9    2  0.1665830E-004  0.1041708E+03  0.7546771E-02  0.1276032E+00
         21   -1    0    0  501  502  0.00000000000E+00  0.00000000000E+00  0.20932684431E+03  0.20932684431E+03  0.00000000000E+00 0. -1.
         -1   -1    0    0    0  501 -0.00000000000E+00 -0.00000000000E+00 -0.11543282322E+03  0.11543282322E+03  0.00000000000E+00 0.  1.
         24    2    1    2    0    0  0.47016422150E+02 -0.31988730092E+02  0.42914071408E+02  0.10770630025E+03  0.80778752056E+02 0.  0.
         23    2    1    2    0    0 -0.58327681075E+02 -0.45963354990E+02  0.69602386632E+02  0.13611346794E+03  0.90374971911E+02 0.  0.
        -11    1    3    3    0    0  0.14360905802E+02  0.24098953294E+02 -0.29890557232E+01  0.28212224646E+02  0.00000000000E+00 0.  1.
         12    1    3    3    0    0  0.32655516348E+02 -0.56087683386E+02  0.45903127131E+02  0.79494075603E+02  0.00000000000E+00 0. -1.
        -11    1    4    4    0    0 -0.34280215016E+02 -0.71772011974E+02  0.35683113342E+02  0.87175910790E+02  0.00000000000E+00 0.  1.
         11    1    4    4    0    0 -0.24047466059E+02  0.25808656983E+02  0.33919273290E+02  0.48937557149E+02  0.00000000000E+00 0. -1.
         -2    1    1    2    0  502  0.11311258925E+02  0.77952085082E+02 -0.18622436946E+02  0.80939899339E+02  0.00000000000E+00 0.  1.
<scales pt_clust_5="13000.00000" pt_clust_6="13000.00000" pt_clust_7="13000.00000" pt_clust_8="13000.00000" pt_clust_9="78.76851"></scales>
<clustering>
<clus scale="   78.769">  1  9  2 -1</clus>
<clus scale="   80.779">  5  6 -1 -1</clus>
<clus scale="   90.375">  7  8 -1 -1</clus>
<clus scale="   95.964">  2  5  1 -1</clus>
<clus scale="   78.769">  1  5  2 -1</clus>
</clustering>
</event>
<event>
 9    2  0.1665830E-004  0.9387454E+02  0.7546771E-02  0.1298998E+00
         21   -1    0    0  501  502  0.00000000000E+00  0.00000000000E+00  0.41202742750E+02  0.41202742750E+02  0.00000000000E+00 0. -1.
          2   -1    0    0  502    0 -0.00000000000E+00 -0.00000000000E+00 -0.35071145871E+03  0.35071145871E+03  0.00000000000E+00 0. -1.
         23    2    1    2    0    0  0.49615897810E+02  0.17890272062E+01 -0.10971249928E+03  0.14952531846E+03  0.88634363692E+02 0.  0.
         24    2    1    2    0    0 -0.13241370421E+02  0.12609468533E+01 -0.67048562983E+02  0.10471409175E+03  0.79325956255E+02 0.  0.
        -13    1    4    4    0    0 -0.17781175713E+02 -0.30597652981E+02 -0.62676285246E+01  0.35939807247E+02  0.00000000000E+00 0.  1.
         14    1    4    4    0    0  0.45398052924E+01  0.31858599834E+02 -0.60780934458E+02  0.68774284505E+02  0.00000000000E+00 0. -1.
        -11    1    3    3    0    0 -0.19591026134E+02  0.21932936214E+02 -0.28758825182E+02  0.41133101291E+02  0.00000000000E+00 0.  1.
         11    1    3    3    0    0  0.69206923944E+02 -0.20143909008E+02 -0.80953674100E+02  0.10839221717E+03  0.00000000000E+00 0. -1.
          1    1    1    2  501    0 -0.36374527389E+02 -0.30499740595E+01 -0.13274765369E+03  0.13767479125E+03  0.00000000000E+00 0. -1.
<scales pt_clust_5="13000.00000" pt_clust_6="13000.00000" pt_clust_7="13000.00000" pt_clust_8="13000.00000" pt_clust_9="36.50219"></scales>
<clustering>
<clus scale="   36.502">  1  9  2 -1</clus>
<clus scale="   79.326">  5  6 -1 -1</clus>
<clus scale="   85.141">  1  5  2 -1</clus>
<clus scale="   88.634">  7  8 -1 -1</clus>
<clus scale="   36.502">  1  5  2 -1</clus>
</clustering>
</event>
<event>
 9    2  0.1665830E-004  0.1311543E+03  0.7546771E-02  0.1226753E+00
          2   -1    0    0  502    0 -0.00000000000E+00  0.00000000000E+00  0.86828078332E+03  0.86828078332E+03  0.00000000000E+00 0. -1.
         21   -1    0    0  501  502  0.00000000000E+00 -0.00000000000E+00 -0.78613641891E+02  0.78613641891E+02  0.00000000000E+00 0.  1.
         24    2    1    2    0    0  0.82000940256E+02  0.47897593729E+02  0.77330339876E+03  0.78404613655E+03  0.87817219330E+02 0.  0.
         23    2    1    2    0    0 -0.77182525525E+02 -0.22765233338E+02 -0.14368893492E+02  0.12285644469E+03  0.91716098945E+02 0.  0.
        -11    1    3    3    0    0  0.45027928561E+02  0.53898237056E+02  0.25815934846E+03  0.26754211539E+03  0.00000000000E+00 0.  1.
         12    1    3    3    0    0  0.36973011695E+02 -0.60006433272E+01  0.51514405030E+03  0.51650402116E+03  0.00000000000E+00 0. -1.
        -13    1    4    4    0    0 -0.82145348792E+02  0.45292473002E+01 -0.33845641572E+02  0.88960102645E+02  0.00000000000E+00 0.  1.
         13    1    4    4    0    0  0.49628232666E+01 -0.27294480638E+02  0.19476748080E+02  0.33896342042E+02  0.00000000000E+00 0. -1.
          1    1    1    2  501    0 -0.48184147313E+01 -0.25132360391E+02  0.30732636161E+02  0.39991843978E+02  0.00000000000E+00 0. -1.
<scales pt_clust_5="13000.00000" pt_clust_6="13000.00000" pt_clust_7="13000.00000" pt_clust_8="13000.00000" pt_clust_9="25.59009"></scales>
<clustering>
<clus scale="   25.590">  2  9  1 -1</clus>
<clus scale="   87.817">  5  6 -1 -1</clus>
<clus scale="   91.716">  7  8 -1 -1</clus>
<clus scale="  128.458">  1  5  2 -1</clus>
<clus scale="   25.590">  2  5  1 -1</clus>
</clustering>
</event>
<event>
 9    2  0.1665830E-004  0.1268326E+03  0.7546771E-02  0.1235398E+00
         21   -1    0    0  501  502  0.00000000000E+00  0.00000000000E+00  0.43247340826E+02  0.43247340826E+02  0.00000000000E+00 0. -1.
          2   -1    0    0  502    0 -0.00000000000E+00 -0.00000000000E+00 -0.87822585866E+03  0.87822585866E+03  0.00000000000E+00 0. -1.
         24    2    1    2    0    0 -0.66615461355E+02 -0.38564692554E+02 -0.47800085105E+03  0.49079006324E+03  0.80406575361E+02 0.  0.
         23    2    1    2    0    0  0.94134625815E+02  0.10304076161E+03 -0.21429527141E+03  0.27170913258E+03  0.91785963249E+02 0.  0.
        -13    1    3    3    0    0 -0.33593978042E+02 -0.38731946968E+02 -0.11057553950E+03  0.12188383409E+03  0.00000000000E+00 0.  1.
         14    1    3    3    0    0 -0.33021483313E+02  0.16725441336E+00 -0.36742531155E+03  0.36890622914E+03  0.00000000000E+00 0. -1.
        -13    1    4    4    0    0  0.14622126167E+02  0.64479404354E+02 -0.42730519987E+02  0.78722915964E+02  0.00000000000E+00 0.  1.
         13    1    4    4    0    0  0.79512499648E+02  0.38561357254E+02 -0.17156475142E+03  0.19298621662E+03  0.00000000000E+00 0. -1.
          1    1    1    2  501    0 -0.27519164460E+02 -0.64476069054E+02 -0.14268239537E+03  0.15897400367E+03  0.00000000000E+00 0. -1.
<scales pt_clust_5="13000.00000" pt_clust_6="13000.00000" pt_clust_7="13000.00000" pt_clust_8="13000.00000" pt_clust_9="70.10327"></scales>
<clustering>
<clus scale="   70.103">  1  9  2 -1</clus>
<clus scale="   80.407">  5  6 -1 -1</clus>
<clus scale="   91.786">  7  8 -1 -1</clus>
<clus scale="  118.857">  2  5  1 -1</clus>
<clus scale="   70.103">  1  5  2 -1</clus>
</clustering>
</event>
<event>
 9    2  0.1665830E-004  0.9834622E+02  0.7546771E-02  0.1290193E+00
         21   -1    0    0  501  502  0.00000000000E+00  0.00000000000E+00  0.44625449008E+02  0.44625449008E+02  0.00000000000E+00 0.  1.
          2   -1    0    0  502    0 -0.00000000000E+00 -0.00000000000E+00 -0.36571397249E+03  0.36571397249E+03  0.00000000000E+00 0. -1.
         24    2    1    2    0    0  0.43700814920E+02 -0.49921112419E+01 -0.25277363240E+03  0.26845311967E+03  0.78980287565E+02 0.  0.
         23    2    1    2    0    0 -0.13122794990E+02 -0.49693077092E+01 -0.50174765612E+02  0.10496328296E+03  0.91120150886E+02 0.  0.
        -11    1    3    3    0    0  0.15499666280E+02 -0.33225451192E+02 -0.19386164738E+03  0.19729801972E+03  0.00000000000E+00 0.  1.
         12    1    3    3    0    0  0.28201148640E+02  0.28233339950E+02 -0.58911985023E+02  0.71155099949E+02  0.00000000000E+00 0. -1.
        -13    1    4    4    0    0 -0.25108788059E+02 -0.28568265658E+02  0.99125202771E+01  0.39304644747E+02  0.00000000000E+00 0.  1.
         13    1    4    4    0    0  0.11985993069E+02  0.23598957948E+02 -0.60087285889E+02  0.65658638210E+02  0.00000000000E+00 0. -1.
          1    1    1    2  501    0 -0.30578019931E+02  0.99614189511E+01 -0.18140125466E+02  0.36923018868E+02  0.00000000000E+00 0. -1.
<scales pt_clust_5="13000.00000" pt_clust_6="13000.00000" pt_clust_7="13000.00000" pt_clust_8="13000.00000" pt_clust_9="32.15968"></scales>
<clustering>
<clus scale="   32.160">  1  9  2 -1</clus>
<clus scale="   78.980">  5  6 -1 -1</clus>
<clus scale="   87.218">  2  5  1 -1</clus>
<clus scale="   91.120">  7  8 -1 -1</clus>
<clus scale="   32.160">  1  5  2 -1</clus>
</clustering>
</event>
<event>
 9    2  0.1665830E-004  0.1351558E+03  0.7546771E-02  0.1224373E+00
         21   -1    0    0  501  502  0.00000000000E+00  0.00000000000E+00  0.25158708084E+02  0.25158708084E+02  0.00000000000E+00 0. -1.
          2   -1    0    0  502    0 -0.00000000000E+00 -0.00000000000E+00 -0.97750278247E+03  0.97750278247E+03  0.00000000000E+00 0. -1.
         23    2    1    2    0    0 -0.95150441337E+02  0.54841255703E+02 -0.63401054451E+03  0.65073155075E+03  0.97061891518E+02 0.  0.
         24    2    1    2    0    0  0.61616735101E+02 -0.30459523557E+02 -0.19227215828E+03  0.21922557768E+03  0.79792646526E+02 0.  0.
        -13    1    4    4    0    0  0.59814525459E+02  0.23087143757E+01 -0.16817685490E+03  0.17851207842E+03  0.00000000000E+00 0.  1.
         14    1    4    4    0    0  0.18022096421E+01 -0.32768237933E+02 -0.24095303374E+02  0.40713499254E+02  0.00000000000E+00 0. -1.
        -11    1    3    3    0    0 -0.11254110603E+03  0.42961381440E+02 -0.58678780032E+03  0.59902512756E+03  0.00000000000E+00 0. -1.
         11    1    3    3    0    0  0.17390664694E+02  0.11879874262E+02 -0.47222744184E+02  0.51706423192E+02  0.00000000000E+00 0.  1.
          1    1    1    2  501    0  0.33533706236E+02 -0.24381732145E+02 -0.12606137160E+03  0.13270436212E+03  0.00000000000E+00 0. -1.
<scales pt_clust_5="13000.00000" pt_clust_6="13000.00000" pt_clust_7="13000.00000" pt_clust_8="13000.00000" pt_clust_9="41.46058"></scales>
<clustering>
<clus scale="   41.461">  1  9  2 -1</clus>
<clus scale="   79.793">  5  6 -1 -1</clus>
<clus scale="   97.062">  7  8 -1 -1</clus>
<clus scale="  123.341">  1  5  2 -1</clus>
<clus scale="   41.461">  1  5  2 -1</clus>
</clustering>
</event>
<event>
 9    2  0.1665830E-004  0.1172019E+03  0.7546771E-02  0.1250478E+00
          2   -1    0    0  502    0 -0.00000000000E+00  0.00000000000E+00  0.59151160673E+02  0.59151160673E+02  0.00000000000E+00 0. -1.
         21   -1    0    0  501  502  0.00000000000E+00 -0.00000000000E+00 -0.46467309106E+03  0.46467309106E+03  0.00000000000E+00 0. -1.
         24    2    1    2    0    0 -0.19950846025E+01  0.97058131388E+02 -0.57768845902E+02  0.13865912191E+03  0.80404299011E+02 0.  0.
         23    2    1    2    0    0 -0.13209932664E+02 -0.28377600997E+02 -0.22137291793E+03  0.24052711856E+03  0.88699128581E+02 0.  0.
        -11    1    3    3    0    0 -0.34529790426E+02  0.22430969242E+02 -0.46182218150E+01  0.41434077530E+02  0.00000000000E+00 0.  1.
         12    1    3    3    0    0  0.32534705823E+02  0.74627162146E+02 -0.53150624087E+02  0.97225044376E+02  0.00000000000E+00 0. -1.
        -13    1    4    4    0    0 -0.26518391595E+02  0.24193744805E+02 -0.12377185880E+03  0.12887216694E+03  0.00000000000E+00 0. -1.
         13    1    4    4    0    0  0.13308458931E+02 -0.52571345803E+02 -0.97601059129E+02  0.11165495162E+03  0.00000000000E+00 0.  1.
          1    1    1    2  501    0  0.15205017267E+02 -0.68680530391E+02 -0.12638016656E+03  0.14463801127E+03  0.00000000000E+00 0. -1.
<scales pt_clust_5="13000.00000" pt_clust_6="13000.00000" pt_clust_7="13000.00000" pt_clust_8="13000.00000" pt_clust_9="70.34350"></scales>
<clustering>
<clus scale="   70.343">  2  9  1 -1</clus>
<clus scale="   80.404">  5  6 -1 -1</clus>
<clus scale="   88.699">  7  8 -1 -1</clus>
<clus scale="  111.057">  1  5  2 -1</clus>
<clus scale="   70.343">  2  5  1 -1</clus>
</clustering>
</event>
<event>
 9    2  0.1665830E-004  0.2208055E+03  0.7546771E-02  0.1158270E+00
          2   -1    0    0  502    0 -0.00000000000E+00  0.00000000000E+00  0.12558192362E+03  0.12558192362E+03  0.00000000000E+00 0. -1.
         21   -1    0    0  501  502  0.00000000000E+00 -0.00000000000E+00 -0.83275007452E+03  0.83275007452E+03  0.00000000000E+00 0. -1.
         24    2    1    2    0    0  0.83895228755E+02 -0.40364448207E+02 -0.29562656884E+03  0.31965781222E+03  0.78219886337E+02 0.  0.
         23    2    1    2    0    0 -0.25985043783E+03 -0.13739442195E+02 -0.13575168329E+03  0.30709081055E+03  0.90361629543E+02 0.  0.
        -11    1    3    3    0    0  0.61537430286E+01  0.20729736136E+02 -0.38197748465E+02  0.43893718245E+02  0.00000000000E+00 0.  1.
         12    1    3    3    0    0  0.77741485726E+02 -0.61094184343E+02 -0.25742882038E+03  0.27576409397E+03  0.00000000000E+00 0. -1.
        -13    1    4    4    0    0 -0.37805940490E+02 -0.88047843816E+01  0.11650566316E+02  0.40528373516E+02  0.00000000000E+00 0.  1.
         13    1    4    4    0    0 -0.22204449734E+03 -0.49346578131E+01 -0.14740224961E+03  0.26656243703E+03  0.00000000000E+00 0. -1.
          1    1    1    2  501    0  0.17595520908E+03  0.54103890402E+02 -0.27578989877E+03  0.33158337537E+03  0.00000000000E+00 0. -1.
<scales pt_clust_5="13000.00000" pt_clust_6="13000.00000" pt_clust_7="13000.00000" pt_clust_8="13000.00000" pt_clust_9="201.46919"></scales>
<clustering>
<clus scale="   78.220">  5  6 -1 -1</clus>
<clus scale="   90.362">  7  8 -1 -1</clus>
<clus scale="  121.598">  1  5  2 -1</clus>
<clus scale="  201.469">  2  9  1 -1</clus>
<clus scale="  201.469">  2  5  1 -1</clus>
</clustering>
</event>
<event>
 9    2  0.1665830E-004  0.9630125E+02  0.7546771E-02  0.1295610E+00
          2   -1    0    0  502    0 -0.00000000000E+00  0.00000000000E+00  0.22601633826E+03  0.22601633826E+03  0.00000000000E+00 0. -1.
         21   -1    0    0  501  502  0.00000000000E+00 -0.00000000000E+00 -0.55373189323E+02  0.55373189323E+02  0.00000000000E+00 0. -1.
         24    2    1    2    0    0 -0.44078925849E+01 -0.16638741662E+02  0.62220072605E+02  0.10321107156E+03  0.80528942725E+02 0.  0.
         23    2    1    2    0    0 -0.29388093429E+02  0.28915509032E+02  0.61710435066E+02  0.11922967706E+03  0.93315440293E+02 0.  0.
        -11    1    3    3    0    0 -0.24535371270E+02  0.18955324732E+02  0.28685028358E+01  0.31137069348E+02  0.00000000000E+00 0.  1.
         12    1    3    3    0    0  0.20127478685E+02 -0.35594066394E+02  0.59351569769E+02  0.72074002211E+02  0.00000000000E+00 0. -1.
        -11    1    4    4    0    0 -0.50146873514E+02  0.90385172074E+01 -0.21981733185E+00  0.50955392611E+02  0.00000000000E+00 0. -1.
         11    1    4    4    0    0  0.20758780084E+02  0.19876991824E+02  0.61930252397E+02  0.68274284446E+02  0.00000000000E+00 0.  1.
          1    1    1    2  501    0  0.33795986014E+02 -0.12276767370E+02  0.46712641269E+02  0.58948778970E+02  0.00000000000E+00 0. -1.
<scales pt_clust_5="13000.00000" pt_clust_6="13000.00000" pt_clust_7="13000.00000" pt_clust_8="13000.00000" pt_clust_9="35.95677"></scales>
<clustering>
<clus scale="   35.957">  2  9  1 -1</clus>
<clus scale="   80.529">  5  6 -1 -1</clus>
<clus scale="   83.971">  1  5  2 -1</clus>
<clus scale="   93.315">  7  8 -1 -1</clus>
<clus scale="   35.957">  2  5  1 -1</clus>
</clustering>
</event>
<event>
 9    2  0.1665830E-004  0.1847499E+03  0.7546771E-02  0.1190302E+00
         21   -1    0    0  501  502  0.00000000000E+00  0.00000000000E+00  0.10668010079E+03  0.10668010079E+03  0.00000000000E+00 0.  1.
         -1   -1    0    0    0  501 -0.00000000000E+00 -0.00000000000E+00 -0.60627854632E+03  0.60627854632E+03  0.00000000000E+00 0.  1.
         24    2    1    2    0    0  0.36838176015E+02  0.47861806989E+02 -0.24395089189E+03  0.26376657040E+03  0.80080972937E+02 0.  0.
         23    2    1    2    0    0 -0.13945469505E+03 -0.14688567073E+03 -0.19118054196E+03  0.29269328704E+03  0.89979711158E+02 0.  0.
        -13    1    3    3    0    0  0.27076605914E+02  0.66931669512E+02 -0.13880331019E+03  0.15645878016E+03  0.00000000000E+00 0.  1.
         14    1    3    3    0    0  0.97615701016E+01 -0.19069862523E+02 -0.10514758170E+03  0.10730779024E+03  0.00000000000E+00 0. -1.
        -13    1    4    4    0    0 -0.13109414295E+02 -0.33722560782E+02  0.12224736510E+01  0.36201689058E+02  0.00000000000E+00 0. -1.
         13    1    4    4    0    0 -0.12634528075E+03 -0.11316310995E+03 -0.19240301561E+03  0.25649159799E+03  0.00000000000E+00 0.  1.
         -2    1    1    2    0  502  0.10261651903E+03  0.99023863746E+02 -0.64467011682E+02  0.15649878966E+03  0.00000000000E+00 0.  1.
<scales pt_clust_5="13000.00000" pt_clust_6="13000.00000" pt_clust_7="13000.00000" pt_clust_8="13000.00000" pt_clust_9="161.35731"></scales>
<clustering>
<clus scale="   80.081">  5  6 -1 -1</clus>
<clus scale="   89.980">  7  8 -1 -1</clus>
<clus scale="  100.303">  2  5  1 -1</clus>
<clus scale="  161.357">  1  9  2 -1</clus>
<clus scale="  161.357">  1  5  2 -1</clus>
</clustering>
</event>
<event>
 9    2  0.1665830E-004  0.2095719E+03  0.7546771E-02  0.1142559E+00
          2   -1    0    0  502    0 -0.00000000000E+00  0.00000000000E+00  0.54390437747E+03  0.54390437747E+03  0.00000000000E+00 0. -1.
         21   -1    0    0  501  502  0.00000000000E+00 -0.00000000000E+00 -0.16633336731E+03  0.16633336731E+03  0.00000000000E+00 0. -1.
         24    2    1    2    0    0 -0.16055232731E+03 -0.13710833630E+03  0.38701399533E+03  0.44862805912E+03  0.83135775445E+02 0.  0.
         23    2    1    2    0    0  0.65826521179E+02  0.10376456341E+03 -0.37372361215E+02  0.15737516363E+03  0.90939723078E+02 0.  0.
        -13    1    3    3    0    0 -0.14484987979E+02 -0.44897053751E+02  0.13575806532E+03  0.14372130187E+03  0.00000000000E+00 0.  1.
         14    1    3    3    0    0 -0.14606733934E+03 -0.92211282548E+02  0.25125593001E+03  0.30490675724E+03  0.00000000000E+00 0. -1.
        -13    1    4    4    0    0  0.31356759434E+02  0.59274894871E+02  0.26625725691E+02  0.72150459408E+02  0.00000000000E+00 0.  1.
         13    1    4    4    0    0  0.34469761746E+02  0.44489668538E+02 -0.63998086906E+02  0.85224704218E+02  0.00000000000E+00 0. -1.
          1    1    1    2  501    0  0.94725806135E+02  0.33343772890E+02  0.27929376047E+02  0.10423452204E+03  0.00000000000E+00 0. -1.
<scales pt_clust_5="13000.00000" pt_clust_6="13000.00000" pt_clust_7="13000.00000" pt_clust_8="13000.00000" pt_clust_9="100.42303"></scales>
<clustering>
<clus scale="   83.136">  5  6 -1 -1</clus>
<clus scale="   90.940">  7  8 -1 -1</clus>
<clus scale="  100.423">  2  9  1 -1</clus>
<clus scale="  206.305">  1  5  2 -1</clus>
<clus scale="  100.423">  2  5  1 -1</clus>
</clustering>
</event>
<event>
 9    2  0.1665830E-004  0.2180421E+03  0.7546771E-02  0.1135707E+00
          2   -1    0    0  502    0 -0.00000000000E+00  0.00000000000E+00  0.12954304981E+04  0.12954304981E+04  0.00000000000E+00 0. -1.
         21   -1    0    0  501  502  0.00000000000E+00 -0.00000000000E+00 -0.87698532950E+02  0.87698532950E+02  0.00000000000E+00 0.  1.
         24    2    1    2    0    0 -0.20742766117E+03  0.23811699974E+02  0.10709645150E+04  0.10946653727E+04  0.87943470571E+02 0.  0.
         23    2    1    2    0    0  0.15501190444E+03 -0.20429321428E+02  0.14852780958E+03  0.23463840321E+03  0.92458760277E+02 0.  0.
        -13    1    3    3    0    0 -0.18798377038E+03  0.39348370269E+02  0.10202863936E+04  0.10382054311E+04  0.00000000000E+00 0.  1.
         14    1    3    3    0    0 -0.19443890788E+02 -0.15536670295E+02  0.50678121396E+02  0.56459941561E+02  0.00000000000E+00 0. -1.
        -11    1    4    4    0    0  0.14688270566E+03 -0.46664387979E+02  0.12821583759E+03  0.20047791733E+03  0.00000000000E+00 0. -1.
         11    1    4    4    0    0  0.81291987790E+01  0.26235066551E+02  0.20311971985E+02  0.34160485881E+02  0.00000000000E+00 0.  1.
          1    1    1    2  501    0  0.52415756728E+02 -0.33823785459E+01 -0.11760359460E+02  0.53825255156E+02  0.00000000000E+00 0. -1.
<scales pt_clust_5="13000.00000" pt_clust_6="13000.00000" pt_clust_7="13000.00000" pt_clust_8="13000.00000" pt_clust_9="52.52478"></scales>
<clustering>
<clus scale="   52.525">  2  9  1 -1</clus>
<clus scale="   87.943">  5  6 -1 -1</clus>
<clus scale="   92.459">  7  8 -1 -1</clus>
<clus scale="  216.166">  1  5  2 -1</clus>
<clus scale="   52.525">  2  5  1 -1</clus>
</clustering>
</event>
<event>
 9    2  0.1665830E-004  0.9012393E+02  0.7546771E-02  0.1302650E+00
         21   -1    0    0  501  502  0.00000000000E+00  0.00000000000E+00  0.41667776783E+02  0.41667776783E+02  0.00000000000E+00 0. -1.
         -1   -1    0    0    0  501 -0.00000000000E+00 -0.00000000000E+00 -0.49378968310E+03  0.49378968310E+03  0.00000000000E+00 0.  1.
         23    2    1    2    0    0 -0.87199386226E+01 -0.59021734968E+01 -0.20938390343E+03  0.22730666842E+03  0.87839794592E+02 0.  0.
         24    2    1    2    0    0  0.41474706258E+02 -0.54706052066E+02 -0.10003407150E+03  0.14968740817E+03  0.87673264523E+02 0.  0.
        -13    1    4    4    0    0 -0.53851517084E+01  0.19591526694E+02 -0.64052555425E+01  0.21303874663E+02  0.00000000000E+00 0.  1.
         14    1    4    4    0    0  0.46859857967E+02 -0.74297578760E+02 -0.93628815955E+02  0.12838353351E+03  0.00000000000E+00 0. -1.
        -13    1    3    3    0    0  0.74516949967E+01 -0.38303384539E+02 -0.16728467034E+03  0.17177554528E+03  0.00000000000E+00 0.  1.
         13    1    3    3    0    0 -0.16171633619E+02  0.32401211043E+02 -0.42099233080E+02  0.55531123137E+02  0.00000000000E+00 0. -1.
         -2    1    1    2    0  502 -0.32754767636E+02  0.60608225563E+02 -0.14270393140E+03  0.15846338329E+03  0.00000000000E+00 0.  1.
<scales pt_clust_5="13000.00000" pt_clust_6="13000.00000" pt_clust_7="13000.00000" pt_clust_8="13000.00000" pt_clust_9="68.89294"></scales>
<clustering>
<clus scale="   68.893">  1  9  2 -1</clus>
<clus scale="   87.673">  5  6 -1 -1</clus>
<clus scale="   87.840">  7  8 -1 -1</clus>
<clus scale="   89.962">  1  5  2 -1</clus>
<clus scale="   68.893">  1  5  2 -1</clus>
</clustering>
</event>
<event>
 9    2  0.1665830E-004  0.2813256E+03  0.7546771E-02  0.1118801E+00
         21   -1    0    0  501  502  0.00000000000E+00  0.00000000000E+00  0.20569811748E+03  0.20569811748E+03  0.00000000000E+00 0.  1.
         -3   -1    0    0    0  501 -0.00000000000E+00 -0.00000000000E+00 -0.78244442528E+03  0.78244442528E+03  0.00000000000E+00 0.  1.
         24    2    1    2    0    0 -0.10864557875E+03 -0.68733370165E+02 -0.29158557584E+03  0.32917699539E+03  0.82505807676E+02 0.  0.
         23    2    1    2    0    0 -0.35833211026E+02 -0.23282882470E+03 -0.68886600829E+02  0.26073398425E+03  0.87997534860E+02 0.  0.
        -11    1    3    3    0    0 -0.11563149303E+03 -0.76368024143E+02 -0.28502045570E+03  0.31692172134E+03  0.00000000000E+00 0.  1.
         12    1    3    3    0    0  0.69859142707E+01  0.76346539772E+01 -0.65651201338E+01  0.12255274045E+02  0.00000000000E+00 0. -1.
        -13    1    4    4    0    0 -0.22201823259E+02 -0.61509563740E+01  0.12222394750E+01  0.23070524261E+02  0.00000000000E+00 0. -1.
         13    1    4    4    0    0 -0.13631387767E+02 -0.22667786833E+03 -0.70108840304E+02  0.23766345998E+03  0.00000000000E+00 0.  1.
         -4    1    1    2    0  502  0.14447878978E+03  0.30156219487E+03 -0.21627413114E+03  0.39823156313E+03  0.00000000000E+00 0.  1.
<scales pt_clust_5="13000.00000" pt_clust_6="13000.00000" pt_clust_7="13000.00000" pt_clust_8="13000.00000" pt_clust_9="267.20894"></scales>
<clustering>
<clus scale="   82.506">  5  6 -1 -1</clus>
<clus scale="   87.998">  7  8 -1 -1</clus>
<clus scale="  152.759">  2  5  1 -1</clus>
<clus scale="  267.209">  1  9  2 -1</clus>
<clus scale="  267.209">  1  5  2 -1</clus>
</clustering>
</event>
<event>
 9    2  0.1665830E-004  0.1006052E+03  0.7546771E-02  0.1284793E+00
          2   -1    0    0  502    0 -0.00000000000E+00  0.00000000000E+00  0.10658278634E+03  0.10658278634E+03  0.00000000000E+00 0. -1.
         21   -1    0    0  501  502  0.00000000000E+00 -0.00000000000E+00 -0.17820339284E+03  0.17820339284E+03  0.00000000000E+00 0.  1.
         24    2    1    2    0    0 -0.28351898466E+01  0.41242919458E+02  0.49342561400E+02  0.10255588948E+03  0.79837368411E+02 0.  0.
         23    2    1    2    0    0 -0.19704679372E+02 -0.45566400160E+02 -0.12059040661E+03  0.15927648520E+03  0.91446057102E+02 0.  0.
        -13    1    3    3    0    0 -0.27046786442E+02 -0.10902637985E+02  0.30148224039E+02  0.41944148395E+02  0.00000000000E+00 0.  1.
         14    1    3    3    0    0  0.24211596595E+02  0.52145557442E+02  0.19194337361E+02  0.60611741085E+02  0.00000000000E+00 0. -1.
        -13    1    4    4    0    0  0.26920009169E+02  0.11737768560E+02 -0.25744848387E+02  0.39054568528E+02  0.00000000000E+00 0. -1.
         13    1    4    4    0    0 -0.46624688541E+02 -0.57304168720E+02 -0.94845558221E+02  0.12022191667E+03  0.00000000000E+00 0.  1.
          1    1    1    2  501    0  0.22539869219E+02  0.43234807021E+01 -0.37276128995E+00  0.22953804494E+02  0.00000000000E+00 0. -1.
<scales pt_clust_5="13000.00000" pt_clust_6="13000.00000" pt_clust_7="13000.00000" pt_clust_8="13000.00000" pt_clust_9="22.95079"></scales>
<clustering>
<clus scale="   22.951">  2  9  1 -1</clus>
<clus scale="   79.837">  5  6 -1 -1</clus>
<clus scale="   90.183">  1  5  2 -1</clus>
<clus scale="   91.446">  7  8 -1 -1</clus>
<clus scale="   22.951">  2  5  1 -1</clus>
</clustering>
</event>
<event>
 9    2  0.4810489E-004  0.1192053E+03  0.7546771E-02  0.1249341E+00
         21   -1    0    0  501  502  0.00000000000E+00  0.00000000000E+00  0.20216266036E+03  0.20216266036E+03  0.00000000000E+00 0.  1.
          2   -1    0    0  502    0 -0.00000000000E+00 -0.00000000000E+00 -0.66533726920E+03  0.66533726920E+03  0.00000000000E+00 0. -1.
         23    2    1    2    0    0 -0.19093722777E+02  0.70787123366E+02 -0.63350069693E+03  0.64472426221E+03  0.94714593344E+02 0.  0.
         24    2    1    2    0    0  0.77969561565E+01 -0.41747785445E+02  0.16875581056E+03  0.19157685560E+03  0.80121769122E+02 0.  0.
        -11    1    4    4    0    0  0.42221624432E+02 -0.36578567070E+02  0.10270948267E+03  0.11691832606E+03  0.00000000000E+00 0.  1.
         12    1    4    4    0    0 -0.34424668275E+02 -0.51692183744E+01  0.66046327894E+02  0.74658529538E+02  0.00000000000E+00 0. -1.
        -13    1    3    3    0    0 -0.27708644314E+02 -0.16377271639E+02 -0.17027282012E+03  0.17328824907E+03  0.00000000000E+00 0.  1.
         13    1    3    3    0    0  0.86149215366E+01  0.87164395005E+02 -0.46322787681E+03  0.47143601314E+03  0.00000000000E+00 0. -1.
          1    1    1    2  501    0  0.11296766621E+02 -0.29039337921E+02  0.15702775352E+01  0.31198811749E+02  0.00000000000E+00 0. -1.
<scales pt_clust_5="13000.00000" pt_clust_6="13000.00000" pt_clust_7="13000.00000" pt_clust_8="13000.00000" pt_clust_9="31.15927"></scales>
<clustering>
<clus scale="   31.159">  1  9  2 -1</clus>
<clus scale="   80.122">  5  6 -1 -1</clus>
<clus scale="   94.715">  7  8 -1 -1</clus>
<clus scale="  107.975">  1  5  2 -1</clus>
<clus scale="   31.159">  1  5  2 -1</clus>
</clustering>
</event>
<event>
 9    2  0.1665830E-004  0.1837409E+03  0.7546771E-02  0.1165882E+00
          2   -1    0    0  502    0 -0.00000000000E+00  0.00000000000E+00  0.12014979366E+04  0.12014979366E+04  0.00000000000E+00 0. -1.
         21   -1    0    0  501  502  0.00000000000E+00 -0.00000000000E+00 -0.66211881445E+02  0.66211881445E+02  0.00000000000E+00 0. -1.
         24    2    1    2    0    0 -0.15608162551E+03  0.44898599401E+02  0.83109488323E+03  0.85059774167E+03  0.80127742657E+02 0.  0.
         23    2    1    2    0    0  0.13713865382E+03 -0.55112220889E+02  0.33583188954E+03  0.37884604371E+03  0.94323377460E+02 0.  0.
        -13    1    3    3    0    0 -0.13838269686E+03  0.61773145259E+01  0.63260402898E+03  0.64759230036E+03  0.00000000000E+00 0.  1.
         14    1    3    3    0    0 -0.17698928646E+02  0.38721284875E+02  0.19849085426E+03  0.20300544131E+03  0.00000000000E+00 0. -1.
        -13    1    4    4    0    0  0.10076198357E+03  0.94736060139E+01  0.19391553687E+03  0.21873719844E+03  0.00000000000E+00 0.  1.
         13    1    4    4    0    0  0.36376670251E+02 -0.64585826903E+02  0.14191635267E+03  0.16010884526E+03  0.00000000000E+00 0. -1.
          1    1    1    2  501    0  0.18942971687E+02  0.10213621489E+02 -0.31640717653E+02  0.38266032638E+02  0.00000000000E+00 0. -1.
<scales pt_clust_5="13000.00000" pt_clust_6="13000.00000" pt_clust_7="13000.00000" pt_clust_8="13000.00000" pt_clust_9="21.52102"></scales>
<clustering>
<clus scale="   21.521">  2  9  1 -1</clus>
<clus scale="   80.128">  5  6 -1 -1</clus>
<clus scale="   94.323">  7  8 -1 -1</clus>
<clus scale="  176.874">  1  5  2 -1</clus>
<clus scale="   21.521">  2  5  1 -1</clus>
</clustering>
</event>
<event>
 9    2  0.1665830E-004  0.1163000E+03  0.7546771E-02  0.1252391E+00
          2   -1    0    0  502    0 -0.00000000000E+00  0.00000000000E+00  0.11398626364E+04  0.11398626364E+04  0.00000000000E+00 0. -1.
         21   -1    0    0  501  502  0.00000000000E+00 -0.00000000000E+00 -0.25405991798E+02  0.25405991798E+02  0.00000000000E+00 0. -1.
         24    2    1    2    0    0  0.79551175334E+02  0.29064857182E+02  0.70293561121E+03  0.71254833913E+03  0.80209143235E+02 0.  0.
         23    2    1    2    0    0 -0.37872935429E+02  0.22696222361E+01  0.11000991893E+03  0.14673356155E+03  0.89381460032E+02 0.  0.
        -11    1    3    3    0    0  0.26086998479E+02  0.13382371417E+02  0.55936925647E+02  0.63155039429E+02  0.00000000000E+00 0.  1.
         12    1    3    3    0    0  0.53464176855E+02  0.15682485765E+02  0.64699868557E+03  0.64939329970E+03  0.00000000000E+00 0. -1.
        -11    1    4    4    0    0 -0.45636676371E+02  0.38428240762E+02  0.74704373488E+02  0.95604285137E+02  0.00000000000E+00 0.  1.
         11    1    4    4    0    0  0.77637409418E+01 -0.36158618525E+02  0.35305545443E+02  0.51129276409E+02  0.00000000000E+00 0. -1.
          1    1    1    2  501    0 -0.41678239905E+02 -0.31334479418E+02  0.30151111444E+03  0.30598672751E+03  0.00000000000E+00 0. -1.
<scales pt_clust_5="13000.00000" pt_clust_6="13000.00000" pt_clust_7="13000.00000" pt_clust_8="13000.00000" pt_clust_9="52.14334"></scales>
<clustering>
<clus scale="   52.143">  2  9  1 -1</clus>
<clus scale="   80.209">  5  6 -1 -1</clus>
<clus scale="   89.381">  7  8 -1 -1</clus>
<clus scale="  109.408">  1  5  2 -1</clus>
<clus scale="   52.143">  2  5  1 -1</clus>
</clustering>
</event>
<event>
 9    2  0.1665830E-004  0.1059712E+03  0.7546771E-02  0.1277144E+00
          2   -1    0    0  502    0 -0.00000000000E+00  0.00000000000E+00  0.52651664792E+03  0.52651664792E+03  0.00000000000E+00 0. -1.
         21   -1    0    0  501  502  0.00000000000E+00 -0.00000000000E+00 -0.57128430603E+02  0.57128430603E+02  0.00000000000E+00 0.  1.
         23    2    1    2    0    0  0.87163792091E+00  0.49387084046E+02  0.44419470917E+03  0.45729400677E+03  0.96793724742E+02 0.  0.
         24    2    1    2    0    0  0.19315107769E+02 -0.12408626082E+02  0.20496337375E+02  0.83960336115E+02  0.78116520695E+02 0.  0.
        -13    1    4    4    0    0  0.28812433887E+02 -0.29581234632E+02 -0.14559442561E+02  0.43785650121E+02  0.00000000000E+00 0.  1.
         14    1    4    4    0    0 -0.94973261175E+01  0.17172608551E+02  0.35055779936E+02  0.40174685994E+02  0.00000000000E+00 0. -1.
        -11    1    3    3    0    0 -0.47806792978E+02  0.22354853649E+02  0.20187616240E+03  0.20866052306E+03  0.00000000000E+00 0.  1.
         11    1    3    3    0    0  0.48678430899E+02  0.27032230397E+02  0.24231854677E+03  0.24863348371E+03  0.00000000000E+00 0. -1.
          1    1    1    2  501    0 -0.20186745690E+02 -0.36978457965E+02  0.46971707761E+01  0.42390735643E+02  0.00000000000E+00 0. -1.
<scales pt_clust_5="13000.00000" pt_clust_6="13000.00000" pt_clust_7="13000.00000" pt_clust_8="13000.00000" pt_clust_9="42.12969"></scales>
<clustering>
<clus scale="   42.130">  2  9  1 -1</clus>
<clus scale="   78.117">  5  6 -1 -1</clus>
<clus scale="   89.236">  2  5  1 -1</clus>
<clus scale="   96.794">  7  8 -1 -1</clus>
<clus scale="   42.130">  2  5  1 -1</clus>
</clustering>
</event>
<event>
 9    2  0.1665830E-004  0.1166531E+03  0.7546771E-02  0.1254236E+00
          2   -1    0    0  502    0 -0.00000000000E+00  0.00000000000E+00  0.62509185888E+03  0.62509185888E+03  0.00000000000E+00 0. -1.
         21   -1    0    0  501  502  0.00000000000E+00 -0.00000000000E+00 -0.15410217386E+03  0.15410217386E+03  0.00000000000E+00 0. -1.
         23    2    1    2    0    0  0.28733397326E+02  0.68112004045E+02  0.40584335883E+03  0.42305336929E+03  0.93810810396E+02 0.  0.
         24    2    1    2    0    0 -0.50950545217E+02 -0.43531249693E+02  0.19586333855E+03  0.22128981079E+03  0.78203613819E+02 0.  0.
        -13    1    4    4    0    0 -0.39343278537E+02 -0.50238839011E+02  0.70020497582E+02  0.94734917496E+02  0.00000000000E+00 0.  1.
         14    1    4    4    0    0 -0.11607266679E+02  0.67075893186E+01  0.12584284096E+03  0.12655489329E+03  0.00000000000E+00 0. -1.
        -11    1    3    3    0    0  0.13547154198E+02 -0.16354552051E+02  0.25680441439E+02  0.33323892812E+02  0.00000000000E+00 0.  1.
         11    1    3    3    0    0  0.15186243128E+02  0.84466556096E+02  0.38016291739E+03  0.38972947648E+03  0.00000000000E+00 0. -1.
          1    1    1    2  501    0  0.22217147890E+02 -0.24580754352E+02 -0.13071701236E+03  0.13485085267E+03  0.00000000000E+00 0. -1.
<scales pt_clust_5="13000.00000" pt_clust_6="13000.00000" pt_clust_7="13000.00000" pt_clust_8="13000.00000" pt_clust_9="33.13329"></scales>
<clustering>
<clus scale="   33.133">  2  9  1 -1</clus>
<clus scale="   78.204">  5  6 -1 -1</clus>
<clus scale="   93.811">  7  8 -1 -1</clus>
<clus scale="  104.514">  2  5  1 -1</clus>
<clus scale="   33.133">  2  5  1 -1</clus>
</clustering>
</event>
<event>
 9    2  0.1665830E-004  0.1711581E+03  0.7546771E-02  0.1178459E+00
          2   -1    0    0  502    0 -0.00000000000E+00  0.00000000000E+00  0.61338792707E+03  0.61338792707E+03  0.00000000000E+00 0. -1.
         21   -1    0    0  501  502  0.00000000000E+00 -0.00000000000E+00 -0.52845721435E+02  0.52845721435E+02  0.00000000000E+00 0.  1.
         23    2    1    2    0    0  0.40675135653E+02  0.14198463945E+03  0.29988447512E+03  0.34666364800E+03  0.91819834065E+02 0.  0.
         24    2    1    2    0    0 -0.59393511852E+02 -0.12869387915E+03  0.22728446241E+03  0.27906324871E+03  0.78283881774E+02 0.  0.
        -11    1    4    4    0    0 -0.62992526091E+02 -0.65432419820E+02  0.90017508743E+02  0.12787733101E+03  0.00000000000E+00 0.  1.
         12    1    4    4    0    0  0.35990142391E+01 -0.63261459328E+02  0.13726695367E+03  0.15118591769E+03  0.00000000000E+00 0. -1.
        -13    1    3    3    0    0  0.18467177115E+02  0.27083462528E+02  0.10354555972E+02  0.34376843986E+02  0.00000000000E+00 0.  1.
         13    1    3    3    0    0  0.22207958537E+02  0.11490117692E+03  0.28952991914E+03  0.31228680401E+03  0.00000000000E+00 0. -1.
          1    1    1    2  501    0  0.18718376200E+02 -0.13290760304E+02  0.33373268110E+02  0.40506751800E+02  0.00000000000E+00 0. -1.
<scales pt_clust_5="13000.00000" pt_clust_6="13000.00000" pt_clust_7="13000.00000" pt_clust_8="13000.00000" pt_clust_9="22.95696"></scales>
<clustering>
<clus scale="   22.957">  2  9  1 -1</clus>
<clus scale="   78.284">  5  6 -1 -1</clus>
<clus scale="   91.820">  7  8 -1 -1</clus>
<clus scale="  164.294">  2  5  1 -1</clus>
<clus scale="   22.957">  2  5  1 -1</clus>
</clustering>
</event>
<event>
 9    2  0.1665830E-004  0.3039406E+03  0.7546771E-02  0.1099772E+00
         21   -1    0    0  501  502  0.00000000000E+00  0.00000000000E+00  0.52498962342E+03  0.52498962342E+03  0.00000000000E+00 0. -1.
          2   -1    0    0  502    0 -0.00000000000E+00 -0.00000000000E+00 -0.33403499127E+03  0.33403499127E+03  0.00000000000E+00 0. -1.
         24    2    1    2    0    0 -0.79890087107E+02  0.16162268433E+03  0.31364688789E+02  0.19930224070E+03  0.78951385923E+02 0.  0.
         23    2    1    2    0    0  0.30989996375E+03  0.14797680169E+02  0.17782504987E+03  0.36927236543E+03  0.92105225903E+02 0.  0.
        -13    1    3    3    0    0  0.49249531833E+00  0.80725286526E+02 -0.10802687114E+01  0.80734016479E+02  0.00000000000E+00 0.  1.
         14    1    3    3    0    0 -0.80382582426E+02  0.80897397803E+02  0.32444957501E+02  0.11856822423E+03  0.00000000000E+00 0. -1.
        -11    1    4    4    0    0  0.35292167182E+02 -0.16689509167E+02  0.53406407298E+02  0.66153768760E+02  0.00000000000E+00 0.  1.
         11    1    4    4    0    0  0.27460779656E+03  0.31487189336E+02  0.12441864258E+03  0.30311859667E+03  0.00000000000E+00 0. -1.
          1    1    1    2  501    0 -0.23000987664E+03 -0.17642036450E+03 -0.18235106508E+02  0.29045000856E+03  0.00000000000E+00 0. -1.
<scales pt_clust_5="13000.00000" pt_clust_6="13000.00000" pt_clust_7="13000.00000" pt_clust_8="13000.00000" pt_clust_9="289.64908"></scales>
<clustering>
<clus scale="   78.951">  5  6 -1 -1</clus>
<clus scale="   92.105">  7  8 -1 -1</clus>
<clus scale="  196.819">  2  5  1 -1</clus>
<clus scale="  289.649">  1  9  2 -1</clus>
<clus scale="  289.649">  1  5  2 -1</clus>
</clustering>
</event>
<event>
 9    2  0.1665830E-004  0.8967622E+02  0.7546771E-02  0.1309430E+00
         21   -1    0    0  501  502  0.00000000000E+00  0.00000000000E+00  0.55253984837E+03  0.55253984837E+03  0.00000000000E+00 0. -1.
         -3   -1    0    0    0  501 -0.00000000000E+00 -0.00000000000E+00 -0.45106109348E+02  0.45106109348E+02  0.00000000000E+00 0.  1.
         23    2    1    2    0    0  0.50513824148E+01  0.11697790519E+02  0.64540750119E+02  0.10931952741E+03  0.87309196996E+02 0.  0.
         24    2    1    2    0    0 -0.72113101040E+02 -0.83460553393E+01  0.38559997755E+03  0.40005980364E+03  0.78041961904E+02 0.  0.
        -11    1    4    4    0    0 -0.63140544255E+02  0.12206666712E+02  0.14754827467E+03  0.16095410650E+03  0.00000000000E+00 0.  1.
         12    1    4    4    0    0 -0.89725567850E+01 -0.20552722051E+02  0.23805170289E+03  0.23910569715E+03  0.00000000000E+00 0. -1.
        -13    1    3    3    0    0  0.35180929864E+02  0.16522294094E+02  0.68290560843E+02  0.78576616932E+02  0.00000000000E+00 0.  1.
         13    1    3    3    0    0 -0.30129547449E+02 -0.48245035749E+01 -0.37498107245E+01  0.30742910479E+02  0.00000000000E+00 0. -1.
         -4    1    1    2    0  502  0.67061718625E+02 -0.33517351798E+01  0.57293011348E+02  0.88266626666E+02  0.00000000000E+00 0.  1.
<scales pt_clust_5="13000.00000" pt_clust_6="13000.00000" pt_clust_7="13000.00000" pt_clust_8="13000.00000" pt_clust_9="67.14546"></scales>
<clustering>
<clus scale="   67.145">  1  9  2 -1</clus>
<clus scale="   78.042">  5  6 -1 -1</clus>
<clus scale="   80.681">  1  5  2 -1</clus>
<clus scale="   87.309">  7  8 -1 -1</clus>
<clus scale="   67.145">  1  5  2 -1</clus>
</clustering>
</event>
<event>
 9    2  0.1665830E-004  0.1018098E+03  0.7546771E-02  0.1280125E+00
          2   -1    0    0  502    0 -0.00000000000E+00  0.00000000000E+00  0.16488215986E+03  0.16488215986E+03  0.00000000000E+00 0. -1.
         21   -1    0    0  501  502  0.00000000000E+00 -0.00000000000E+00 -0.26092248683E+03  0.26092248683E+03  0.00000000000E+00 0. -1.
         24    2    1    2    0    0 -0.11624200885E+02  0.50669973100E+02  0.12674315652E+03  0.15933172160E+03  0.81364621071E+02 0.  0.
         23    2    1    2    0    0 -0.34958600612E+01 -0.31964299649E+02 -0.87234005491E+02  0.12880601023E+03  0.89147512960E+02 0.  0.
        -13    1    3    3    0    0 -0.23891531073E+02  0.51236769850E+02  0.34402641191E+02  0.66178195522E+02  0.00000000000E+00 0.  1.
         14    1    3    3    0    0  0.12267330188E+02 -0.56679675034E+00  0.92340515334E+02  0.93153526078E+02  0.00000000000E+00 0. -1.
        -13    1    4    4    0    0 -0.41095081527E+02 -0.21209997459E+02 -0.74484322430E+02  0.87673165825E+02  0.00000000000E+00 0. -1.
         13    1    4    4    0    0  0.37599221466E+02 -0.10754302190E+02 -0.12749683061E+02  0.41132844402E+02  0.00000000000E+00 0.  1.
          1    1    1    2  501    0  0.15120060946E+02 -0.18705673450E+02 -0.13554947800E+03  0.13766691487E+03  0.00000000000E+00 0. -1.
<scales pt_clust_5="13000.00000" pt_clust_6="13000.00000" pt_clust_7="13000.00000" pt_clust_8="13000.00000" pt_clust_9="24.05241"></scales>
<clustering>
<clus scale="   24.052">  2  9  1 -1</clus>
<clus scale="   81.365">  5  6 -1 -1</clus>
<clus scale="   89.148">  7  8 -1 -1</clus>
<clus scale="   95.069">  1  5  2 -1</clus>
<clus scale="   24.052">  2  5  1 -1</clus>
</clustering>
</event>
<event>
 9    2  0.1665830E-004  0.1242720E+03  0.7546771E-02  0.1239026E+00
         -1   -1    0    0    0  501 -0.00000000000E+00  0.00000000000E+00  0.25726510279E+03  0.25726510279E+03  0.00000000000E+00 0.  1.
         21   -1    0    0  501  502  0.00000000000E+00 -0.00000000000E+00 -0.90185580532E+02  0.90185580532E+02  0.00000000000E+00 0.  1.
         24    2    1    2    0    0 -0.81477030706E+02 -0.68029714315E+02  0.12076189805E+03  0.18027118633E+03  0.81533527089E+02 0.  0.
         23    2    1    2    0    0  0.33050288954E+02  0.46012263846E+02  0.32962171893E+02  0.11233165703E+03  0.91227443078E+02 0.  0.
        -11    1    3    3    0    0 -0.96476530019E+02 -0.46240400681E+02  0.90999916491E+02  0.14045241294E+03  0.00000000000E+00 0.  1.
         12    1    3    3    0    0  0.14999499313E+02 -0.21789313634E+02  0.29761981557E+02  0.39818773392E+02  0.00000000000E+00 0. -1.
        -13    1    4    4    0    0  0.43786410471E+02  0.35246805188E+00  0.46140326526E+02  0.63610562862E+02  0.00000000000E+00 0.  1.
         13    1    4    4    0    0 -0.10736121517E+02  0.45659795794E+02 -0.13178154633E+02  0.48721094166E+02  0.00000000000E+00 0. -1.
         -2    1    1    2    0  502  0.48426741752E+02  0.22017450469E+02  0.13355452318E+02  0.54847839962E+02  0.00000000000E+00 0.  1.
<scales pt_clust_5="13000.00000" pt_clust_6="13000.00000" pt_clust_7="13000.00000" pt_clust_8="13000.00000" pt_clust_9="53.19697"></scales>
<clustering>
<clus scale="   53.197">  2  9  1 -1</clus>
<clus scale="   81.534">  5  6 -1 -1</clus>
<clus scale="   91.227">  7  8 -1 -1</clus>
<clus scale="  117.341">  1  5  2 -1</clus>
<clus scale="   53.197">  2  5  1 -1</clus>
</clustering>
</event>
<event>
 9    2  0.1665830E-004  0.1438392E+03  0.7546771E-02  0.1215000E+00
         21   -1    0    0  501  502  0.00000000000E+00  0.00000000000E+00  0.45745373374E+02  0.45745373374E+02  0.00000000000E+00 0.  1.
         -3   -1    0    0    0  501 -0.00000000000E+00 -0.00000000000E+00 -0.10291624952E+04  0.10291624952E+04  0.00000000000E+00 0.  1.
         24    2    1    2    0    0  0.48528632025E+02  0.81850073144E+02 -0.28201873536E+03  0.30831427143E+03  0.80427981898E+02 0.  0.
         23    2    1    2    0    0 -0.10830792448E+03  0.30952197298E+02 -0.19292713506E+03  0.24234086275E+03  0.93912561945E+02 0.  0.
        -13    1    3    3    0    0 -0.61109796510E+00  0.42025278089E+02 -0.20194561063E+03  0.20627294319E+03  0.00000000000E+00 0.  1.
         14    1    3    3    0    0  0.49139729990E+02  0.39824795055E+02 -0.80073124729E+02  0.10204132824E+03  0.00000000000E+00 0. -1.
        -11    1    4    4    0    0 -0.40163458112E+02  0.47212822085E+02 -0.39034140935E+02  0.73251744658E+02  0.00000000000E+00 0.  1.
         11    1    4    4    0    0 -0.68144466364E+02 -0.16260624787E+02 -0.15389299413E+03  0.16908911809E+03  0.00000000000E+00 0. -1.
         -4    1    1    2    0  502  0.59779292451E+02 -0.11280227044E+03 -0.50847125144E+03  0.52425273444E+03  0.00000000000E+00 0.  1.
<scales pt_clust_5="13000.00000" pt_clust_6="13000.00000" pt_clust_7="13000.00000" pt_clust_8="13000.00000" pt_clust_9="108.95024"></scales>
<clustering>
<clus scale="   80.428">  5  6 -1 -1</clus>
<clus scale="   93.913">  7  8 -1 -1</clus>
<clus scale="  124.592">  2  5  1 -1</clus>
<clus scale="  108.950">  1  9  2 -1</clus>
<clus scale="  108.950">  1  5  2 -1</clus>
</clustering>
</event>
<event>
 9    2  0.1665830E-004  0.2773119E+03  0.7546771E-02  0.1135540E+00
         21   -1    0    0  501  502  0.00000000000E+00  0.00000000000E+00  0.13284222890E+03  0.13284222890E+03  0.00000000000E+00 0.  1.
         -1   -1    0    0    0  501 -0.00000000000E+00 -0.00000000000E+00 -0.80782823811E+03  0.80782823811E+03  0.00000000000E+00 0.  1.
         24    2    1    2    0    0  0.61439069793E+02 -0.30378395287E+02 -0.95058751812E+02  0.14200941153E+03  0.80205364341E+02 0.  0.
         23    2    1    2    0    0 -0.28701365656E+03 -0.43679687868E+02 -0.24766288081E+03  0.39028854194E+03  0.81874838975E+02 0.  0.
        -11    1    3    3    0    0 -0.23759828208E+01 -0.40569772840E+02 -0.41392450070E+02  0.58007643337E+02  0.00000000000E+00 0.  1.
         12    1    3    3    0    0  0.63815052614E+02  0.10191377553E+02 -0.53666301742E+02  0.84001768191E+02  0.00000000000E+00 0. -1.
        -13    1    4    4    0    0 -0.13499310562E+03 -0.14649906882E+02 -0.64003026311E+02  0.15011377589E+03  0.00000000000E+00 0.  1.
         13    1    4    4    0    0 -0.15202055094E+03 -0.29029780985E+02 -0.18365985450E+03  0.24017476605E+03  0.00000000000E+00 0. -1.
         -2    1    1    2    0  502  0.22557458676E+03  0.74058083155E+02 -0.33226437659E+03  0.40837251355E+03  0.00000000000E+00 0.  1.
<scales pt_clust_5="13000.00000" pt_clust_6="13000.00000" pt_clust_7="13000.00000" pt_clust_8="13000.00000" pt_clust_9="264.94998"></scales>
<clustering>
<clus scale="   80.205">  5  6 -1 -1</clus>
<clus scale="   81.875">  7  8 -1 -1</clus>
<clus scale="  105.501">  2  5  1 -1</clus>
<clus scale="  264.950">  1  9  2 -1</clus>
<clus scale="  264.950">  1  5  2 -1</clus>
</clustering>
</event>
<event>
 9    2  0.1665830E-004  0.1235905E+03  0.7546771E-02  0.1240172E+00
         21   -1    0    0  501  502  0.00000000000E+00  0.00000000000E+00  0.84786488722E+02  0.84786488722E+02  0.00000000000E+00 0.  1.
          2   -1    0    0  502    0 -0.00000000000E+00 -0.00000000000E+00 -0.30984089645E+03  0.30984089645E+03  0.00000000000E+00 0. -1.
         23    2    1    2    0    0 -0.10843802403E+03 -0.12341095588E+02 -0.16606934957E+03  0.21820857504E+03  0.90137925750E+02 0.  0.
         24    2    1    2    0    0  0.58536327915E+02 -0.17765284969E+02 -0.61398111472E+02  0.11808874712E+03  0.80206714610E+02 0.  0.
        -13    1    4    4    0    0  0.39742438884E+02 -0.38884156392E+02 -0.60374943690E+01  0.55927546030E+02  0.00000000000E+00 0.  1.
         14    1    4    4    0    0  0.18793889031E+02  0.21118871422E+02 -0.55360617103E+02  0.62161201091E+02  0.00000000000E+00 0. -1.
        -11    1    3    3    0    0 -0.94189083105E+02  0.10462976589E+02 -0.68318491026E+02  0.11682668133E+03  0.00000000000E+00 0.  1.
         11    1    3    3    0    0 -0.14248940922E+02 -0.22804072177E+02 -0.97750858541E+02  0.10138189370E+03  0.00000000000E+00 0. -1.
          1    1    1    2  501    0  0.49901696112E+02  0.30106380557E+02  0.24130533109E+01  0.58330063015E+02  0.00000000000E+00 0. -1.
<scales pt_clust_5="13000.00000" pt_clust_6="13000.00000" pt_clust_7="13000.00000" pt_clust_8="13000.00000" pt_clust_9="58.28013"></scales>
<clustering>
<clus scale="   58.280">  1  9  2 -1</clus>
<clus scale="   80.207">  5  6 -1 -1</clus>
<clus scale="   90.138">  7  8 -1 -1</clus>
<clus scale="  116.546">  1  5  2 -1</clus>
<clus scale="   58.280">  1  5  2 -1</clus>
</clustering>
</event>
<event>
 9    2  0.1665830E-004  0.1103102E+03  0.7546771E-02  0.1263038E+00
          2   -1    0    0  502    0 -0.00000000000E+00  0.00000000000E+00  0.66904637577E+03  0.66904637577E+03  0.00000000000E+00 0. -1.
         21   -1    0    0  501  502  0.00000000000E+00 -0.00000000000E+00 -0.34468267191E+02  0.34468267191E+02  0.00000000000E+00 0. -1.
         24    2    1    2    0    0 -0.48182702595E+02 -0.60865921779E+02  0.27191270306E+03  0.29386266786E+03  0.79953212649E+02 0.  0.
         23    2    1    2    0    0  0.71278721593E+02 -0.81204526503E+01  0.17792132445E+03  0.21109991281E+03  0.88094140500E+02 0.  0.
        -13    1    3    3    0    0  0.98546510226E+01 -0.42160634639E+02  0.16695240136E+03  0.17247532456E+03  0.00000000000E+00 0.  1.
         14    1    3    3    0    0 -0.58037353617E+02 -0.18705287140E+02  0.10496030170E+03  0.12138734330E+03  0.00000000000E+00 0. -1.
        -11    1    4    4    0    0  0.15946868690E+02  0.26228510344E+02  0.12025927021E+03  0.12411498478E+03  0.00000000000E+00 0.  1.
         11    1    4    4    0    0  0.55331852903E+02 -0.34348962994E+02  0.57662054235E+02  0.86984928022E+02  0.00000000000E+00 0. -1.
          1    1    1    2  501    0 -0.23096018998E+02  0.68986374429E+02  0.18474408107E+03  0.19855206229E+03  0.00000000000E+00 0. -1.
<scales pt_clust_5="13000.00000" pt_clust_6="13000.00000" pt_clust_7="13000.00000" pt_clust_8="13000.00000" pt_clust_9="72.74992"></scales>
<clustering>
<clus scale="   72.750">  2  9  1 -1</clus>
<clus scale="   79.953">  5  6 -1 -1</clus>
<clus scale="   88.094">  7  8 -1 -1</clus>
<clus scale="  103.924">  1  5  2 -1</clus>
<clus scale="   72.750">  2  5  1 -1</clus>
</clustering>
</event>
<event>
 9    2  0.1665830E-004  0.1238729E+03  0.7546771E-02  0.1247746E+00
          2   -1    0    0  502    0 -0.00000000000E+00  0.00000000000E+00  0.96759157449E+03  0.96759157449E+03  0.00000000000E+00 0. -1.
         21   -1    0    0  501  502  0.00000000000E+00 -0.00000000000E+00 -0.48755664469E+02  0.48755664469E+02  0.00000000000E+00 0.  1.
         24    2    1    2    0    0  0.32823110064E+02 -0.46031768431E+02  0.46077330005E+03  0.47136195190E+03  0.81693178431E+02 0.  0.
         23    2    1    2    0    0 -0.35207492344E+02 -0.69079349150E+02  0.67127077686E+02  0.13744774882E+03  0.91511284010E+02 0.  0.
        -13    1    3    3    0    0  0.48661055488E+02 -0.29302400562E+02  0.16140277999E+03  0.17110635988E+03  0.00000000000E+00 0.  1.
         14    1    3    3    0    0 -0.15837945424E+02 -0.16729367869E+02  0.29937052006E+03  0.30025559203E+03  0.00000000000E+00 0. -1.
        -13    1    4    4    0    0 -0.18715815466E+02 -0.83268455114E+02  0.75683749069E+02  0.11406992259E+03  0.00000000000E+00 0.  1.
         13    1    4    4    0    0 -0.16491676878E+02  0.14189105964E+02 -0.85566713837E+01  0.23377826235E+02  0.00000000000E+00 0. -1.
          1    1    1    2  501    0  0.23843822794E+01  0.11511111758E+03  0.39093553228E+03  0.40753753823E+03  0.00000000000E+00 0. -1.
<scales pt_clust_5="13000.00000" pt_clust_6="13000.00000" pt_clust_7="13000.00000" pt_clust_8="13000.00000" pt_clust_9="83.48761"></scales>
<clustering>
<clus scale="   81.693">  5  6 -1 -1</clus>
<clus scale="   91.511">  7  8 -1 -1</clus>
<clus scale="   99.348">  1  5  2 -1</clus>
<clus scale="   83.488">  2  9  1 -1</clus>
<clus scale="   83.488">  2  5  1 -1</clus>
</clustering>
</event>
<event>
 9    2  0.1665830E-004  0.1158665E+03  0.7546771E-02  0.1253512E+00
          4   -1    0    0  502    0 -0.00000000000E+00  0.00000000000E+00  0.10133652195E+04  0.10133652195E+04  0.00000000000E+00 0. -1.
         21   -1    0    0  501  502  0.00000000000E+00 -0.00000000000E+00 -0.24758919815E+02  0.24758919815E+02  0.00000000000E+00 0. -1.
         23    2    1    2    0    0 -0.34911214186E+02 -0.69239855026E+02  0.65332438936E+03  0.66419857956E+03  0.91181384893E+02 0.  0.
         24    2    1    2    0    0  0.64833103262E+02  0.24212933684E+02  0.17712210099E+03  0.20678110613E+03  0.81219392735E+02 0.  0.
        -13    1    4    4    0    0 -0.11521651605E+02  0.17783410891E+02  0.81691418014E+02  0.84394821736E+02  0.00000000000E+00 0.  1.
         14    1    4    4    0    0  0.76354754867E+02  0.64295227933E+01  0.95430682979E+02  0.12238628439E+03  0.00000000000E+00 0. -1.
        -11    1    3    3    0    0 -0.43880398238E+02 -0.88038309160E+02  0.56047160593E+03  0.56903835923E+03  0.00000000000E+00 0. -1.
         11    1    3    3    0    0  0.89691840524E+01  0.18798454134E+02  0.92852783436E+02  0.95160220324E+02  0.00000000000E+00 0.  1.
          3    1    1    2  501    0 -0.29921889076E+02  0.45026921342E+02  0.15815980936E+03  0.16714445365E+03  0.00000000000E+00 0. -1.
<scales pt_clust_5="13000.00000" pt_clust_6="13000.00000" pt_clust_7="13000.00000" pt_clust_8="13000.00000" pt_clust_9="54.06240"></scales>
<clustering>
<clus scale="   54.062">  2  9  1 -1</clus>
<clus scale="   81.219">  5  6 -1 -1</clus>
<clus scale="   91.181">  7  8 -1 -1</clus>
<clus scale="  108.202">  2  5  1 -1</clus>
<clus scale="   54.062">  2  5  1 -1</clus>
</clustering>
</event>
<event>
 9    2  0.1665830E-004  0.1967048E+03  0.7546771E-02  0.1192664E+00
          2   -1    0    0  502    0 -0.00000000000E+00  0.00000000000E+00  0.54059725466E+03  0.54059725466E+03  0.00000000000E+00 0. -1.
         21   -1    0    0  501  502  0.00000000000E+00 -0.00000000000E+00 -0.12153744029E+03  0.12153744029E+03  0.00000000000E+00 0. -1.
         24    2    1    2    0    0 -0.85229781390E+01 -0.75031655175E+01  0.11730615104E+02  0.79755241096E+02  0.78066333988E+02 0.  0.
         23    2    1    2    0    0  0.16118050066E+03  0.64446810129E+02  0.76481308536E+02  0.21358788041E+03  0.98172536750E+02 0.  0.
        -13    1    3    3    0    0 -0.60154291917E+01 -0.35253256334E+02 -0.17117489922E+02  0.39648277790E+02  0.00000000000E+00 0.  1.
         14    1    3    3    0    0 -0.25075489473E+01  0.27750090816E+02  0.28848105026E+02  0.40106963306E+02  0.00000000000E+00 0. -1.
        -11    1    4    4    0    0  0.87790255281E+02  0.43980198920E+02 -0.95676309573E+01  0.98655594780E+02  0.00000000000E+00 0. -1.
         11    1    4    4    0    0  0.73390245382E+02  0.20466611209E+02  0.86048939493E+02  0.11493228563E+03  0.00000000000E+00 0.  1.
          1    1    1    2  501    0 -0.15265752252E+03 -0.56943644612E+02  0.33084789073E+03  0.36879157345E+03  0.00000000000E+00 0. -1.
<scales pt_clust_5="13000.00000" pt_clust_6="13000.00000" pt_clust_7="13000.00000" pt_clust_8="13000.00000" pt_clust_9="170.45515"></scales>
<clustering>
<clus scale="   78.066">  5  6 -1 -1</clus>
<clus scale="   78.888">  1  5  2 -1</clus>
<clus scale="   98.173">  7  8 -1 -1</clus>
<clus scale="  170.455">  2  9  1 -1</clus>
<clus scale="  170.455">  2  5  1 -1</clus>
</clustering>
</event>
<event>
 9    2  0.1665830E-004  0.1088739E+03  0.7546771E-02  0.1266490E+00
         -1   -1    0    0    0  501 -0.00000000000E+00  0.00000000000E+00  0.51450294155E+03  0.51450294155E+03  0.00000000000E+00 0.  1.
         21   -1    0    0  501  502  0.00000000000E+00 -0.00000000000E+00 -0.47624252839E+02  0.47624252839E+02  0.00000000000E+00 0. -1.
         24    2    1    2    0    0 -0.63813646097E+02  0.24260795258E+02  0.35026849230E+03  0.36622516940E+03  0.82292711650E+02 0.  0.
         23    2    1    2    0    0  0.22680610492E+02 -0.36009936804E+02  0.11494411227E+03  0.15309145641E+03  0.91726329049E+02 0.  0.
        -13    1    3    3    0    0 -0.27109193419E+02  0.45512648446E+02  0.27289891453E+03  0.27799303424E+03  0.00000000000E+00 0.  1.
         14    1    3    3    0    0 -0.36704452678E+02 -0.21251853187E+02  0.77369577769E+02  0.88232135158E+02  0.00000000000E+00 0. -1.
        -13    1    4    4    0    0  0.48711822108E+02 -0.39573512615E+02  0.41890549813E+02  0.75456760317E+02  0.00000000000E+00 0. -1.
         13    1    4    4    0    0 -0.26031211616E+02  0.35635758112E+01  0.73053562453E+02  0.77634696096E+02  0.00000000000E+00 0.  1.
         -2    1    1    2    0  502  0.41133035605E+02  0.11749141546E+02  0.16660841415E+01  0.42810568572E+02  0.00000000000E+00 0.  1.
<scales pt_clust_5="13000.00000" pt_clust_6="13000.00000" pt_clust_7="13000.00000" pt_clust_8="13000.00000" pt_clust_9="42.77814"></scales>
<clustering>
<clus scale="   42.778">  2  9  1 -1</clus>
<clus scale="   82.293">  5  6 -1 -1</clus>
<clus scale="   91.726">  7  8 -1 -1</clus>
<clus scale="  101.054">  1  5  2 -1</clus>
<clus scale="   42.778">  2  5  1 -1</clus>
</clustering>
</event>
<event>
 9    2  0.1665830E-004  0.1405345E+03  0.7546771E-02  0.1215575E+00
          2   -1    0    0  502    0 -0.00000000000E+00  0.00000000000E+00  0.42783733945E+03  0.42783733945E+03  0.00000000000E+00 0. -1.
         21   -1    0    0  501  502  0.00000000000E+00 -0.00000000000E+00 -0.67925891003E+02  0.67925891003E+02  0.00000000000E+00 0. -1.
         24    2    1    2    0    0  0.12130443336E+03 -0.22250914281E+02  0.16155257704E+03  0.21724150002E+03  0.76712224886E+02 0.  0.
         23    2    1    2    0    0 -0.80826353937E+02  0.34237077700E+02  0.71963064490E+02  0.14526242294E+03  0.90649941458E+02 0.  0.
        -13    1    3    3    0    0  0.84358594307E+02  0.21234934473E+02  0.11085338819E+03  0.14091049836E+03  0.00000000000E+00 0.  1.
         14    1    3    3    0    0  0.36945839049E+02 -0.43485848754E+02  0.50699188851E+02  0.76331001664E+02  0.00000000000E+00 0. -1.
        -13    1    4    4    0    0 -0.64484686425E+02 -0.47092847650E+01  0.79380414166E+02  0.10238018509E+03  0.00000000000E+00 0. -1.
         13    1    4    4    0    0 -0.16341667512E+02  0.38946362465E+02 -0.74173496760E+01  0.42882237844E+02  0.00000000000E+00 0.  1.
          1    1    1    2  501    0 -0.40478079418E+02 -0.11986163419E+02  0.12639580692E+03  0.13325930749E+03  0.00000000000E+00 0. -1.
<scales pt_clust_5="13000.00000" pt_clust_6="13000.00000" pt_clust_7="13000.00000" pt_clust_8="13000.00000" pt_clust_9="42.21546"></scales>
<clustering>
<clus scale="   42.215">  2  9  1 -1</clus>
<clus scale="   76.712">  5  6 -1 -1</clus>
<clus scale="   90.650">  7  8 -1 -1</clus>
<clus scale="  131.975">  1  5  2 -1</clus>
<clus scale="   42.215">  2  5  1 -1</clus>
</clustering>
</event>
<event>
 9    2  0.1665830E-004  0.9581215E+02  0.7546771E-02  0.1293781E+00
         21   -1    0    0  501  502  0.00000000000E+00  0.00000000000E+00  0.64078306927E+02  0.64078306927E+02  0.00000000000E+00 0. -1.
          2   -1    0    0  502    0 -0.00000000000E+00 -0.00000000000E+00 -0.57536958468E+03  0.57536958468E+03  0.00000000000E+00 0. -1.
         24    2    1    2    0    0 -0.20522511473E+02 -0.25077060723E+02 -0.21737252780E+03  0.23444072967E+03  0.81618670855E+02 0.  0.
         23    2    1    2    0    0 -0.29575614754E+02  0.64490751081E+02 -0.10955536653E+02  0.11495295783E+03  0.89779645624E+02 0.  0.
        -13    1    3    3    0    0  0.10560484612E+02  0.17080358651E+02 -0.14121886416E+02  0.24549748733E+02  0.00000000000E+00 0.  1.
         14    1    3    3    0    0 -0.31082996085E+02 -0.42157419374E+02 -0.20325064138E+03  0.20989098093E+03  0.00000000000E+00 0. -1.
        -11    1    4    4    0    0 -0.59348065800E+02  0.52843697169E+02  0.41943771543E+01  0.79575385921E+02  0.00000000000E+00 0. -1.
         11    1    4    4    0    0  0.29772451046E+02  0.11647053912E+02 -0.15149913807E+02  0.35377571913E+02  0.00000000000E+00 0.  1.
          1    1    1    2  501    0  0.50098126227E+02 -0.39413690358E+02 -0.28296321330E+03  0.29005420410E+03  0.00000000000E+00 0. -1.
<scales pt_clust_5="13000.00000" pt_clust_6="13000.00000" pt_clust_7="13000.00000" pt_clust_8="13000.00000" pt_clust_9="63.74375"></scales>
<clustering>
<clus scale="   63.744">  1  9  2 -1</clus>
<clus scale="   81.619">  5  6 -1 -1</clus>
<clus scale="   88.211">  2  5  1 -1</clus>
<clus scale="   89.780">  7  8 -1 -1</clus>
<clus scale="   63.744">  1  5  2 -1</clus>
</clustering>
</event>
<event>
 9    2  0.1665830E-004  0.1598192E+03  0.7546771E-02  0.1215436E+00
          2   -1    0    0  502    0 -0.00000000000E+00  0.00000000000E+00  0.81928888117E+03  0.81928888117E+03  0.00000000000E+00 0. -1.
         21   -1    0    0  501  502  0.00000000000E+00 -0.00000000000E+00 -0.79323840603E+02  0.79323840603E+02  0.00000000000E+00 0. -1.
         23    2    1    2    0    0 -0.51858838649E+02  0.39053261902E+02  0.47390503642E+03  0.48237478413E+03  0.62329386397E+02 0.  0.
         24    2    1    2    0    0  0.36279426885E+02  0.12291212892E+03  0.85888543244E+02  0.17346796170E+03  0.79313956048E+02 0.  0.
        -11    1    4    4    0    0  0.18513493788E+02  0.28174407548E+02 -0.12289060113E+02  0.35882693480E+02  0.00000000000E+00 0.  1.
         12    1    4    4    0    0  0.17765933096E+02  0.94737721374E+02  0.98177603357E+02  0.13758526822E+03  0.00000000000E+00 0. -1.
        -13    1    3    3    0    0 -0.55542605619E+02  0.53487946988E+01  0.31324723840E+03  0.31817828809E+03  0.00000000000E+00 0. -1.
         13    1    3    3    0    0  0.36837669705E+01  0.33704467204E+02  0.16065779802E+03  0.16419649604E+03  0.00000000000E+00 0.  1.
          1    1    1    2  501    0  0.15579411764E+02 -0.16196539082E+03  0.18017146090E+03  0.24276997594E+03  0.00000000000E+00 0. -1.
<scales pt_clust_5="13000.00000" pt_clust_6="13000.00000" pt_clust_7="13000.00000" pt_clust_8="13000.00000" pt_clust_9="138.74979"></scales>
<clustering>
<clus scale="   62.329">  7  8 -1 -1</clus>
<clus scale="   79.314">  5  6 -1 -1</clus>
<clus scale="   89.997">  1  7  2 -1</clus>
<clus scale="  138.750">  2  9  1 -1</clus>
<clus scale="  138.750">  2  5  1 -1</clus>
</clustering>
</event>
<event>
 9    2  0.1665830E-004  0.9254682E+02  0.7546771E-02  0.1303968E+00
         -1   -1    0    0    0  501 -0.00000000000E+00  0.00000000000E+00  0.67806926623E+02  0.67806926623E+02  0.00000000000E+00 0.  1.
         21   -1    0    0  501  502  0.00000000000E+00 -0.00000000000E+00 -0.39829921955E+03  0.39829921955E+03  0.00000000000E+00 0. -1.
         23    2    1    2    0    0  0.13695747887E+01  0.16229680398E+02  0.95373917821E+01  0.93695580237E+02  0.91774842157E+02 0.  0.
         24    2    1    2    0    0 -0.38639786189E+02  0.24915947933E+02 -0.16955804777E+03  0.19312696270E+03  0.80213805668E+02 0.  0.
        -11    1    4    4    0    0 -0.57433182024E+02 -0.90874184885E+00 -0.83640537816E+02  0.10146494851E+03  0.00000000000E+00 0.  1.
         12    1    4    4    0    0  0.18793395835E+02  0.25824689782E+02 -0.85917509952E+02  0.91662014191E+02  0.00000000000E+00 0. -1.
        -11    1    3    3    0    0  0.25182496807E+02 -0.26913320563E+02 -0.13559615013E+02  0.39272740272E+02  0.00000000000E+00 0.  1.
         11    1    3    3    0    0 -0.23812922019E+02  0.43143000961E+02  0.23097006795E+02  0.54422839965E+02  0.00000000000E+00 0. -1.
         -2    1    1    2    0  502  0.37270211401E+02 -0.41145628331E+02 -0.17047163694E+03  0.17928360324E+03  0.00000000000E+00 0.  1.
<scales pt_clust_5="13000.00000" pt_clust_6="13000.00000" pt_clust_7="13000.00000" pt_clust_8="13000.00000" pt_clust_9="55.51605"></scales>
<clustering>
<clus scale="   55.516">  2  9  1 -1</clus>
<clus scale="   80.214">  5  6 -1 -1</clus>
<clus scale="   81.096">  2  5  1 -1</clus>
<clus scale="   91.775">  7  8 -1 -1</clus>
<clus scale="   55.516">  2  5  1 -1</clus>
</clustering>
</event>
<event>
 9    2  0.1665830E-004  0.1084413E+03  0.7546771E-02  0.1268605E+00
         21   -1    0    0  501  502  0.00000000000E+00  0.00000000000E+00  0.19126072656E+03  0.19126072656E+03  0.00000000000E+00 0.  1.
         -1   -1    0    0    0  501 -0.00000000000E+00 -0.00000000000E+00 -0.31125599790E+03  0.31125599790E+03  0.00000000000E+00 0.  1.
         23    2    1    2    0    0  0.56166844612E+02 -0.38389642744E+02 -0.25878078526E+03  0.28260951318E+03  0.90951432172E+02 0.  0.
         24    2    1    2    0    0 -0.30465611033E+02 -0.14484242572E+02  0.20441440088E+02  0.87765162841E+02  0.78402325202E+02 0.  0.
        -11    1    4    4    0    0 -0.55498405453E+02 -0.15056632483E+01  0.21529048155E+02  0.59546955792E+02  0.00000000000E+00 0.  1.
         12    1    4    4    0    0  0.25032794420E+02 -0.12978579324E+02 -0.10876080670E+01  0.28218207049E+02  0.00000000000E+00 0. -1.
        -11    1    3    3    0    0  0.55755592846E+02 -0.64821037846E+02 -0.21617212822E+03  0.23246686237E+03  0.00000000000E+00 0.  1.
         11    1    3    3    0    0  0.41125176585E+00  0.26431395102E+02 -0.42608657038E+02  0.50142650804E+02  0.00000000000E+00 0. -1.
         -2    1    1    2    0  502 -0.25701233579E+02  0.52873885316E+02  0.11834407383E+03  0.13214204844E+03  0.00000000000E+00 0.  1.
<scales pt_clust_5="13000.00000" pt_clust_6="13000.00000" pt_clust_7="13000.00000" pt_clust_8="13000.00000" pt_clust_9="58.78946"></scales>
<clustering>
<clus scale="   58.789">  1  9  2 -1</clus>
<clus scale="   78.402">  5  6 -1 -1</clus>
<clus scale="   90.951">  7  8 -1 -1</clus>
<clus scale="   98.154">  1  5  2 -1</clus>
<clus scale="   58.789">  1  5  2 -1</clus>
</clustering>
</event>
<event>
 9    2  0.1665830E-004  0.9762846E+02  0.7546771E-02  0.1290627E+00
         -1   -1    0    0    0  501 -0.00000000000E+00  0.00000000000E+00  0.37490364308E+03  0.37490364308E+03  0.00000000000E+00 0.  1.
         21   -1    0    0  501  502  0.00000000000E+00 -0.00000000000E+00 -0.45606959363E+02  0.45606959363E+02  0.00000000000E+00 0.  1.
         23    2    1    2    0    0 -0.48189172029E+02 -0.41646785603E+02  0.11144907404E+03  0.15555119570E+03  0.87855718805E+02 0.  0.
         24    2    1    2    0    0  0.10293476525E+02  0.21928169591E+02  0.58763845556E+02  0.10023979176E+03  0.77511457386E+02 0.  0.
        -11    1    4    4    0    0 -0.29284797023E+01  0.48907399056E+02  0.24867543240E+02  0.54944557352E+02  0.00000000000E+00 0.  1.
         12    1    4    4    0    0  0.13221956227E+02 -0.26979229465E+02  0.33896302316E+02  0.45295234404E+02  0.00000000000E+00 0. -1.
        -11    1    3    3    0    0 -0.13915547454E+02  0.25057954866E+02  0.53801722809E+02  0.60960388288E+02  0.00000000000E+00 0. -1.
         11    1    3    3    0    0 -0.34273624575E+02 -0.66704740468E+02  0.57647351230E+02  0.94590807409E+02  0.00000000000E+00 0.  1.
         -2    1    1    2    0  502  0.37895695504E+02  0.19718616011E+02  0.15908376412E+03  0.16471961499E+03  0.00000000000E+00 0.  1.
<scales pt_clust_5="13000.00000" pt_clust_6="13000.00000" pt_clust_7="13000.00000" pt_clust_8="13000.00000" pt_clust_9="42.71896"></scales>
<clustering>
<clus scale="   42.719">  2  9  1 -1</clus>
<clus scale="   77.511">  5  6 -1 -1</clus>
<clus scale="   87.856">  7  8 -1 -1</clus>
<clus scale="   88.435">  2  5  1 -1</clus>
<clus scale="   42.719">  2  5  1 -1</clus>
</clustering>
</event>
<event>
 9    2  0.1665830E-004  0.5253945E+03  0.7546771E-02  0.1012793E+00
          2   -1    0    0  502    0 -0.00000000000E+00  0.00000000000E+00  0.28405792573E+04  0.28405792573E+04  0.00000000000E+00 0. -1.
         21   -1    0    0  501  502  0.00000000000E+00 -0.00000000000E+00 -0.28902342140E+03  0.28902342140E+03  0.00000000000E+00 0. -1.
         23    2    1    2    0    0 -0.25405967763E+03  0.34333230514E+03  0.12468069161E+04  0.13235636216E+04  0.12194171843E+03 0.  0.
         24    2    1    2    0    0  0.69441585927E+03 -0.14810809888E+03  0.10233650256E+04  0.12481833829E+04  0.80847925079E+02 0.  0.
        -11    1    4    4    0    0  0.41299147114E+02  0.80179917226E+01  0.77530865902E+02  0.88209653163E+02  0.00000000000E+00 0.  1.
         12    1    4    4    0    0  0.65311671215E+03 -0.15612609060E+03  0.94583415973E+03  0.11599737297E+04  0.00000000000E+00 0. -1.
        -11    1    3    3    0    0 -0.53618586250E+02  0.10312474298E+03  0.51020508091E+03  0.52327706809E+03  0.00000000000E+00 0. -1.
         11    1    3    3    0    0 -0.20044109138E+03  0.24020756216E+03  0.73660183523E+03  0.80028655349E+03  0.00000000000E+00 0.  1.
          1    1    1    2  501    0 -0.44035618164E+03 -0.19522420626E+03  0.28138389409E+03  0.55785567423E+03  0.00000000000E+00 0. -1.
<scales pt_clust_5="13000.00000" pt_clust_6="13000.00000" pt_clust_7="13000.00000" pt_clust_8="13000.00000" pt_clust_9="519.13677"></scales>
<clustering>
<clus scale="   80.848">  5  6 -1 -1</clus>
<clus scale="  121.942">  7  8 -1 -1</clus>
<clus scale="  444.177">  1  7  2 -1</clus>
<clus scale="  519.137">  2  9  1 -1</clus>
<clus scale="  519.137">  2  5  1 -1</clus>
</clustering>
</event>
<event>
 9    2  0.1665830E-004  0.2242968E+03  0.7546771E-02  0.1131749E+00
         21   -1    0    0  501  502  0.00000000000E+00  0.00000000000E+00  0.45770880138E+03  0.45770880138E+03  0.00000000000E+00 0.  1.
          2   -1    0    0  502    0 -0.00000000000E+00 -0.00000000000E+00 -0.74269288376E+03  0.74269288376E+03  0.00000000000E+00 0. -1.
         24    2    1    2    0    0 -0.13359466335E+03 -0.15533310518E+03 -0.68819029286E+03  0.72241594868E+03  0.79391536590E+02 0.  0.
         23    2    1    2    0    0  0.13603150766E+03  0.12648804454E+03  0.26565594057E+03  0.33742239670E+03  0.93685636814E+02 0.  0.
        -13    1    3    3    0    0 -0.61121647752E+02 -0.12698235011E+03 -0.47507029387E+03  0.49553219591E+03  0.00000000000E+00 0.  1.
         14    1    3    3    0    0 -0.72473015596E+02 -0.28350755062E+02 -0.21311999899E+03  0.22688375278E+03  0.00000000000E+00 0. -1.
        -13    1    4    4    0    0  0.99104298486E+02  0.12602268834E+03  0.25069729349E+03  0.29757774265E+03  0.00000000000E+00 0.  1.
         13    1    4    4    0    0  0.36927209173E+02  0.46535619125E+00  0.14958647079E+02  0.39844654047E+02  0.00000000000E+00 0. -1.
          1    1    1    2  501    0 -0.24368443109E+01  0.28845060641E+02  0.13755026991E+03  0.14056333976E+03  0.00000000000E+00 0. -1.
<scales pt_clust_5="13000.00000" pt_clust_6="13000.00000" pt_clust_7="13000.00000" pt_clust_8="13000.00000" pt_clust_9="28.94781"></scales>
<clustering>
<clus scale="   28.948">  1  9  2 -1</clus>
<clus scale="   79.392">  5  6 -1 -1</clus>
<clus scale="   93.686">  7  8 -1 -1</clus>
<clus scale="  218.712">  2  5  1 -1</clus>
<clus scale="   28.948">  1  5  2 -1</clus>
</clustering>
</event>
<event>
 9    2  0.1665830E-004  0.4606524E+03  0.7546771E-02  0.1065058E+00
         21   -1    0    0  501  502  0.00000000000E+00  0.00000000000E+00  0.20052758846E+03  0.20052758846E+03  0.00000000000E+00 0. -1.
          2   -1    0    0  502    0 -0.00000000000E+00 -0.00000000000E+00 -0.19779515903E+04  0.19779515903E+04  0.00000000000E+00 0. -1.
         24    2    1    2    0    0  0.11930036669E+03  0.17040216262E+02 -0.17076286170E+03  0.22301573893E+03  0.77801789250E+02 0.  0.
         23    2    1    2    0    0 -0.37724032765E+03 -0.36499167789E+03 -0.13515855492E+04  0.14528037138E+04  0.91246612073E+02 0.  0.
        -13    1    3    3    0    0  0.43824754583E+01  0.27305328818E+02 -0.40011341616E+02  0.48638405925E+02  0.00000000000E+00 0.  1.
         14    1    3    3    0    0  0.11491789123E+03 -0.10265112556E+02 -0.13075152009E+03  0.17437733300E+03  0.00000000000E+00 0. -1.
        -11    1    4    4    0    0 -0.36435789121E+03 -0.32003824414E+03 -0.12565846068E+04  0.13469172301E+04  0.00000000000E+00 0. -1.
         11    1    4    4    0    0 -0.12882436435E+02 -0.44953433757E+02 -0.95000942344E+02  0.10588648366E+03  0.00000000000E+00 0.  1.
          1    1    1    2  501    0  0.25793996096E+03  0.34795146163E+03 -0.25507559093E+03  0.50265972606E+03  0.00000000000E+00 0. -1.
<scales pt_clust_5="13000.00000" pt_clust_6="13000.00000" pt_clust_7="13000.00000" pt_clust_8="13000.00000" pt_clust_9="451.52485"></scales>
<clustering>
<clus scale="   77.802">  5  6 -1 -1</clus>
<clus scale="   91.247">  7  8 -1 -1</clus>
<clus scale="  143.444">  2  5  1 -1</clus>
<clus scale="  451.525">  1  9  2 -1</clus>
<clus scale="  451.525">  1  5  2 -1</clus>
</clustering>
</event>
<event>
 9    2  0.1665830E-004  0.9398561E+02  0.7546771E-02  0.1300118E+00
          2   -1    0    0  502    0 -0.00000000000E+00  0.00000000000E+00  0.15648159991E+03  0.15648159991E+03  0.00000000000E+00 0. -1.
         21   -1    0    0  501  502  0.00000000000E+00 -0.00000000000E+00 -0.24412165229E+03  0.24412165229E+03  0.00000000000E+00 0. -1.
         23    2    1    2    0    0 -0.49550325083E+01  0.14982705386E+02  0.10826309021E+03  0.14322548183E+03  0.92431640331E+02 0.  0.
         24    2    1    2    0    0  0.32674344922E+02 -0.63473530143E+01 -0.36192092875E+02  0.95049248558E+02  0.81342426558E+02 0.  0.
        -13    1    4    4    0    0 -0.18731115836E+02 -0.24776486491E+02 -0.23595614778E+02  0.39006179255E+02  0.00000000000E+00 0.  1.
         14    1    4    4    0    0  0.51405460758E+02  0.18429133477E+02 -0.12596478097E+02  0.56043069303E+02  0.00000000000E+00 0. -1.
        -13    1    3    3    0    0 -0.42015964586E+02 -0.39189770186E+01  0.22308776173E+02  0.47732391049E+02  0.00000000000E+00 0.  1.
         13    1    3    3    0    0  0.37060932078E+02  0.18901682404E+02  0.85954314038E+02  0.95493090776E+02  0.00000000000E+00 0. -1.
          1    1    1    2  501    0 -0.27719312414E+02 -0.86353523714E+01 -0.15971104972E+03  0.16232852181E+03  0.00000000000E+00 0. -1.
<scales pt_clust_5="13000.00000" pt_clust_6="13000.00000" pt_clust_7="13000.00000" pt_clust_8="13000.00000" pt_clust_9="29.03325"></scales>
<clustering>
<clus scale="   29.033">  2  9  1 -1</clus>
<clus scale="   81.342">  5  6 -1 -1</clus>
<clus scale="   83.104">  2  5  1 -1</clus>
<clus scale="   92.432">  7  8 -1 -1</clus>
<clus scale="   29.033">  2  5  1 -1</clus>
</clustering>
</event>
<event>
 9    2  0.1665830E-004  0.1617995E+03  0.7546771E-02  0.1207432E+00
          2   -1    0    0  502    0 -0.00000000000E+00  0.00000000000E+00  0.97665062439E+03  0.97665062439E+03  0.00000000000E+00 0. -1.
         21   -1    0    0  501  502  0.00000000000E+00 -0.00000000000E+00 -0.43267840576E+02  0.43267840576E+02  0.00000000000E+00 0.  1.
         24    2    1    2    0    0  0.20840490687E+01 -0.64257931642E+02  0.18913893848E+03  0.21529701257E+03  0.80285992141E+02 0.  0.
         23    2    1    2    0    0  0.13305352447E+03  0.51908750991E+02  0.36302317883E+03  0.39996868444E+03  0.88268688449E+02 0.  0.
        -11    1    3    3    0    0 -0.35484961622E+02 -0.31501530317E+02  0.57579118807E+02  0.74611552967E+02  0.00000000000E+00 0.  1.
         12    1    3    3    0    0  0.37569010691E+02 -0.32756401325E+02  0.13155981967E+03  0.14068545961E+03  0.00000000000E+00 0. -1.
        -11    1    4    4    0    0  0.86178214130E+02  0.15832883727E+02  0.30412546210E+03  0.31649591071E+03  0.00000000000E+00 0. -1.
         11    1    4    4    0    0  0.46875310338E+02  0.36075867264E+02  0.58897716731E+02  0.83472773731E+02  0.00000000000E+00 0.  1.
          1    1    1    2  501    0 -0.13513757354E+03  0.12349180651E+02  0.38122066651E+03  0.40465276796E+03  0.00000000000E+00 0. -1.
<scales pt_clust_5="13000.00000" pt_clust_6="13000.00000" pt_clust_7="13000.00000" pt_clust_8="13000.00000" pt_clust_9="135.60143"></scales>
<clustering>
<clus scale="   80.286">  5  6 -1 -1</clus>
<clus scale="   88.269">  7  8 -1 -1</clus>
<clus scale="  102.856">  1  5  2 -1</clus>
<clus scale="  135.601">  2  9  1 -1</clus>
<clus scale="  135.601">  2  5  1 -1</clus>
</clustering>
</event>
<event>
 9    2  0.1665830E-004  0.2584789E+03  0.7546771E-02  0.1136863E+00
         -3   -1    0    0    0  501 -0.00000000000E+00  0.00000000000E+00  0.34892899021E+03  0.34892899021E+03  0.00000000000E+00 0.  1.
         21   -1    0    0  501  502  0.00000000000E+00 -0.00000000000E+00 -0.31170605836E+03  0.31170605836E+03  0.00000000000E+00 0.  1.
         23    2    1    2    0    0  0.78068740359E+02  0.32640035127E+02 -0.20149467226E+00  0.12616541503E+03  0.93581895877E+02 0.  0.
         24    2    1    2    0    0 -0.23717482607E+03  0.13829881828E+03  0.78973207486E+02  0.29727532646E+03  0.82203351261E+02 0.  0.
        -13    1    4    4    0    0 -0.17875754811E+03  0.80172637763E+02  0.87227444954E+02  0.21445405104E+03  0.00000000000E+00 0.  1.
         14    1    4    4    0    0 -0.58417277959E+02  0.58126180517E+02 -0.82542374676E+01  0.82821275418E+02  0.00000000000E+00 0. -1.
        -13    1    3    3    0    0  0.15322385381E+02 -0.15864296948E+02 -0.33534252517E+02  0.40137233379E+02  0.00000000000E+00 0. -1.
         13    1    3    3    0    0  0.62746354978E+02  0.48504332075E+02  0.33332757845E+02  0.86028181654E+02  0.00000000000E+00 0.  1.
         -4    1    1    2    0  502  0.15910608571E+03 -0.17093885341E+03 -0.41548780960E+02  0.23719430709E+03  0.00000000000E+00 0.  1.
<scales pt_clust_5="13000.00000" pt_clust_6="13000.00000" pt_clust_7="13000.00000" pt_clust_8="13000.00000" pt_clust_9="245.05908"></scales>
<clustering>
<clus scale="   82.203">  5  6 -1 -1</clus>
<clus scale="   93.582">  7  8 -1 -1</clus>
<clus scale="  126.165">  1  7  2 -1</clus>
<clus scale="  245.059">  2  9  1 -1</clus>
<clus scale="  245.059">  2  5  1 -1</clus>
</clustering>
</event>
<event>
 9    2  0.1665830E-004  0.1058830E+03  0.7546771E-02  0.1277788E+00
          2   -1    0    0  502    0 -0.00000000000E+00  0.00000000000E+00  0.18149384696E+04  0.18149384696E+04  0.00000000000E+00 0. -1.
         21   -1    0    0  501  502  0.00000000000E+00 -0.00000000000E+00 -0.13136683950E+03  0.13136683950E+03  0.00000000000E+00 0. -1.
         24    2    1    2    0    0  0.39589511467E+02  0.27164908176E+02  0.12892989576E+04  0.12929303294E+04  0.84093834381E+02 0.  0.
         23    2    1    2    0    0  0.37309024118E+02  0.21075800961E+02  0.50107143101E+03  0.51320891530E+03  0.10234578203E+03 0.  0.
        -11    1    3    3    0    0  0.36125664761E+02  0.12007483081E+02  0.20409874855E+03  0.20761874304E+03  0.00000000000E+00 0.  1.
         12    1    3    3    0    0  0.34638467059E+01  0.15157425094E+02  0.10852002091E+04  0.10853115864E+04  0.00000000000E+00 0. -1.
        -13    1    4    4    0    0 -0.11927584392E+01 -0.38988859059E+02  0.20344065453E+03  0.20714645476E+03  0.00000000000E+00 0.  1.
         13    1    4    4    0    0  0.38501782557E+02  0.60064660020E+02  0.29763077648E+03  0.30606246054E+03  0.00000000000E+00 0. -1.
          1    1    1    2  501    0 -0.76898535585E+02 -0.48240709136E+02 -0.10679875850E+03  0.14016606440E+03  0.00000000000E+00 0. -1.
<scales pt_clust_5="13000.00000" pt_clust_6="13000.00000" pt_clust_7="13000.00000" pt_clust_8="13000.00000" pt_clust_9="90.77748"></scales>
<clustering>
<clus scale="   84.094">  5  6 -1 -1</clus>
<clus scale="   90.777">  2  9  1 -1</clus>
<clus scale="   88.365">  1  5  2 -1</clus>
<clus scale="  102.346">  7  8 -1 -1</clus>
<clus scale="   90.777">  2  5  1 -1</clus>
</clustering>
</event>
<event>
 9    2  0.1665830E-004  0.1206426E+03  0.7546771E-02  0.1253956E+00
         21   -1    0    0  501  502  0.00000000000E+00  0.00000000000E+00  0.17376049416E+03  0.17376049416E+03  0.00000000000E+00 0. -1.
          2   -1    0    0  502    0 -0.00000000000E+00 -0.00000000000E+00 -0.18816630804E+03  0.18816630804E+03  0.00000000000E+00 0. -1.
         24    2    1    2    0    0 -0.40801275617E+02 -0.32347265287E+02 -0.85264201157E+02  0.12766099091E+03  0.79474869849E+02 0.  0.
         23    2    1    2    0    0  0.19617120682E+02 -0.66290729526E+02  0.68683244605E+02  0.13335518902E+03  0.91032555194E+02 0.  0.
        -11    1    3    3    0    0 -0.59456550240E+02 -0.34407517325E+02 -0.84468340911E+02  0.10887542988E+03  0.00000000000E+00 0.  1.
         12    1    3    3    0    0  0.18655274623E+02  0.20602520387E+01 -0.79586024605E+00  0.18785561031E+02  0.00000000000E+00 0. -1.
        -13    1    4    4    0    0 -0.16397864386E+02 -0.68170790546E+02  0.67417380732E+02  0.97268956326E+02  0.00000000000E+00 0. -1.
         13    1    4    4    0    0  0.36014985069E+02  0.18800610201E+01  0.12658638735E+01  0.36086232697E+02  0.00000000000E+00 0.  1.
          1    1    1    2  501    0  0.21184154934E+02  0.98637994813E+02  0.21751426677E+01  0.10091062227E+03  0.00000000000E+00 0. -1.
<scales pt_clust_5="13000.00000" pt_clust_6="13000.00000" pt_clust_7="13000.00000" pt_clust_8="13000.00000" pt_clust_9="79.16893"></scales>
<clustering>
<clus scale="   79.475">  5  6 -1 -1</clus>
<clus scale="   91.033">  7  8 -1 -1</clus>
<clus scale="   95.012">  2  5  1 -1</clus>
<clus scale="   79.169">  1  9  2 -1</clus>
<clus scale="   79.169">  1  5  2 -1</clus>
</clustering>
</event>
<event>
 9    2  0.1665830E-004  0.1046708E+03  0.7546771E-02  0.1276005E+00
          4   -1    0    0  502    0 -0.00000000000E+00  0.00000000000E+00  0.96530412049E+02  0.96530412049E+02  0.00000000000E+00 0. -1.
         21   -1    0    0  501  502  0.00000000000E+00 -0.00000000000E+00 -0.41362852772E+03  0.41362852772E+03  0.00000000000E+00 0. -1.
         24    2    1    2    0    0 -0.61295388220E+02  0.11170545334E+02  0.20863019880E+02  0.10318974128E+03  0.79567275976E+02 0.  0.
         23    2    1    2    0    0  0.28790659884E+02  0.41981249636E+02 -0.56707070811E+02  0.11889712486E+03  0.91266132836E+02 0.  0.
        -13    1    3    3    0    0 -0.28382374926E+02 -0.26359035076E+02 -0.15198109884E+02  0.41609379719E+02  0.00000000000E+00 0.  1.
         14    1    3    3    0    0 -0.32913013294E+02  0.37529580410E+02  0.36061129764E+02  0.61580361558E+02  0.00000000000E+00 0. -1.
        -11    1    4    4    0    0  0.54708577675E+02  0.44318365916E+01 -0.14565632784E+02  0.56787562944E+02  0.00000000000E+00 0.  1.
         11    1    4    4    0    0 -0.25917917791E+02  0.37549413045E+02 -0.42141438026E+02  0.62109561917E+02  0.00000000000E+00 0. -1.
          3    1    1    2  501    0  0.32504728336E+02 -0.53151794970E+02 -0.28125406474E+03  0.28807207363E+03  0.00000000000E+00 0. -1.
<scales pt_clust_5="13000.00000" pt_clust_6="13000.00000" pt_clust_7="13000.00000" pt_clust_8="13000.00000" pt_clust_9="62.30306"></scales>
<clustering>
<clus scale="   62.303">  2  9  1 -1</clus>
<clus scale="   79.567">  5  6 -1 -1</clus>
<clus scale="   91.266">  7  8 -1 -1</clus>
<clus scale="   94.644">  1  5  2 -1</clus>
<clus scale="   62.303">  2  5  1 -1</clus>
</clustering>
</event>
<event>
 9    2  0.1665830E-004  0.1099087E+03  0.7546771E-02  0.1269326E+00
          4   -1    0    0  502    0 -0.00000000000E+00  0.00000000000E+00  0.30295320076E+03  0.30295320076E+03  0.00000000000E+00 0. -1.
         21   -1    0    0  501  502  0.00000000000E+00 -0.00000000000E+00 -0.70452211994E+02  0.70452211994E+02  0.00000000000E+00 0.  1.
         23    2    1    2    0    0 -0.11811508224E+01  0.38743507835E+02  0.16910430267E+03  0.19497774382E+03  0.88980901823E+02 0.  0.
         24    2    1    2    0    0 -0.15650592898E+02 -0.11091520483E+01  0.79809151760E+02  0.13405401277E+03  0.10655893374E+03 0.  0.
        -11    1    4    4    0    0 -0.59835911088E+02  0.70795060720E+01  0.31187383452E+02  0.67846212485E+02  0.00000000000E+00 0.  1.
         12    1    4    4    0    0  0.44185318191E+02 -0.81886581202E+01  0.48621768308E+02  0.66207800287E+02  0.00000000000E+00 0. -1.
        -13    1    3    3    0    0 -0.26233549979E+02  0.53728029720E+02  0.14593642784E+03  0.15770967407E+03  0.00000000000E+00 0.  1.
         13    1    3    3    0    0  0.25052399156E+02 -0.14984521885E+02  0.23167874824E+02  0.37268069758E+02  0.00000000000E+00 0. -1.
          3    1    1    2  501    0  0.16831743720E+02 -0.37634355786E+02 -0.16412465659E+02  0.44373656161E+02  0.00000000000E+00 0. -1.
<scales pt_clust_5="13000.00000" pt_clust_6="13000.00000" pt_clust_7="13000.00000" pt_clust_8="13000.00000" pt_clust_9="41.22684"></scales>
<clustering>
<clus scale="   41.227">  2  9  1 -1</clus>
<clus scale="   88.981">  7  8 -1 -1</clus>
<clus scale="   92.966">  1  7  2 -1</clus>
<clus scale="  106.559">  5  6 -1 -1</clus>
<clus scale="   41.227">  2  5  1 -1</clus>
</clustering>
</event>
<event>
 9    2  0.1665830E-004  0.1482508E+03  0.7546771E-02  0.1204670E+00
          2   -1    0    0  502    0 -0.00000000000E+00  0.00000000000E+00  0.49830251649E+02  0.49830251649E+02  0.00000000000E+00 0. -1.
         21   -1    0    0  501  502  0.00000000000E+00 -0.00000000000E+00 -0.61613437769E+03  0.61613437769E+03  0.00000000000E+00 0. -1.
         23    2    1    2    0    0 -0.25812569373E+01  0.10403451787E+03 -0.17251226826E+03  0.22161147392E+03  0.92310990030E+02 0.  0.
         24    2    1    2    0    0  0.38319106283E+02 -0.13206301444E+03 -0.29352448166E+03  0.33427892042E+03  0.81711575754E+02 0.  0.
        -11    1    4    4    0    0  0.33322256063E+02 -0.91144026601E+01 -0.90579162273E+02  0.96943435688E+02  0.00000000000E+00 0.  1.
         12    1    4    4    0    0  0.49968502200E+01 -0.12294861178E+03 -0.20294531939E+03  0.23733548473E+03  0.00000000000E+00 0. -1.
        -11    1    3    3    0    0  0.42180924921E+02  0.64659393250E+02 -0.77113898502E+02  0.10911746379E+03  0.00000000000E+00 0. -1.
         11    1    3    3    0    0 -0.44762181858E+02  0.39375124618E+02 -0.95398369753E+02  0.11249401013E+03  0.00000000000E+00 0.  1.
          1    1    1    2  501    0 -0.35737849346E+02  0.28028496567E+02 -0.10026737612E+03  0.11007423500E+03  0.00000000000E+00 0. -1.
<scales pt_clust_5="13000.00000" pt_clust_6="13000.00000" pt_clust_7="13000.00000" pt_clust_8="13000.00000" pt_clust_9="45.41795"></scales>
<clustering>
<clus scale="   45.418">  2  9  1 -1</clus>
<clus scale="   81.712">  5  6 -1 -1</clus>
<clus scale="   92.311">  7  8 -1 -1</clus>
<clus scale="  141.893">  2  5  1 -1</clus>
<clus scale="   45.418">  2  5  1 -1</clus>
</clustering>
</event>
<event>
 9    2  0.1665830E-004  0.2657583E+03  0.7546771E-02  0.1119624E+00
          2   -1    0    0  502    0 -0.00000000000E+00  0.00000000000E+00  0.15060236918E+04  0.15060236918E+04  0.00000000000E+00 0. -1.
         21   -1    0    0  501  502  0.00000000000E+00 -0.00000000000E+00 -0.11497934829E+03  0.11497934829E+03  0.00000000000E+00 0. -1.
         23    2    1    2    0    0 -0.14872853150E+03  0.32844089578E+02  0.85067497885E+02  0.19684080855E+03  0.91164216726E+02 0.  0.
         24    2    1    2    0    0 -0.59793804858E+02 -0.21809911981E+03  0.90005066799E+03  0.93164111254E+03  0.81984342799E+02 0.  0.
        -13    1    4    4    0    0  0.31385904078E+01 -0.97031568018E+02  0.26832330775E+03  0.28534605906E+03  0.00000000000E+00 0.  1.
         14    1    4    4    0    0 -0.62932395266E+02 -0.12106755179E+03  0.63172736025E+03  0.64629505348E+03  0.00000000000E+00 0. -1.
        -13    1    3    3    0    0 -0.15087607724E+02 -0.23493860552E+02  0.31847080176E+02  0.42353676419E+02  0.00000000000E+00 0.  1.
         13    1    3    3    0    0 -0.13364092377E+03  0.56337950130E+02  0.53220417709E+02  0.15448713213E+03  0.00000000000E+00 0. -1.
          1    1    1    2  501    0  0.20852233636E+03  0.18525503023E+03  0.40592617768E+03  0.49252111905E+03  0.00000000000E+00 0. -1.
<scales pt_clust_5="13000.00000" pt_clust_6="13000.00000" pt_clust_7="13000.00000" pt_clust_8="13000.00000" pt_clust_9="252.79647"></scales>
<clustering>
<clus scale="   81.984">  5  6 -1 -1</clus>
<clus scale="   91.164">  7  8 -1 -1</clus>
<clus scale="  177.510">  1  7  2 -1</clus>
<clus scale="  252.796">  2  9  1 -1</clus>
<clus scale="  252.796">  2  5  1 -1</clus>
</clustering>
</event>
<event>
 9    2  0.1665830E-004  0.9037150E+02  0.7546771E-02  0.1307423E+00
         21   -1    0    0  501  502  0.00000000000E+00  0.00000000000E+00  0.21704303379E+02  0.21704303379E+02  0.00000000000E+00 0.  1.
          2   -1    0    0  502    0 -0.00000000000E+00 -0.00000000000E+00 -0.10242191505E+04  0.10242191505E+04  0.00000000000E+00 0. -1.
         24    2    1    2    0    0  0.17141599797E+02  0.17450358070E+02 -0.74397109669E+03  0.74862769630E+03  0.79699971872E+02 0.  0.
         23    2    1    2    0    0 -0.49205584201E+01  0.32831238489E+02 -0.15521627643E+03  0.18173555817E+03  0.88507731411E+02 0.  0.
        -13    1    3    3    0    0 -0.25572331566E+02 -0.68175217712E+01 -0.12838414491E+03  0.13108360465E+03  0.00000000000E+00 0.  1.
         14    1    3    3    0    0  0.42713931363E+02  0.24267879841E+02 -0.61558695178E+03  0.61754409164E+03  0.00000000000E+00 0. -1.
        -11    1    4    4    0    0 -0.38364929817E+02 -0.92646071344E+01 -0.51203172510E+02  0.64648786998E+02  0.00000000000E+00 0.  1.
         11    1    4    4    0    0  0.33444371397E+02  0.42095845623E+02 -0.10401310392E+03  0.11708677117E+03  0.00000000000E+00 0. -1.
          1    1    1    2  501    0 -0.12221041377E+02 -0.50281596558E+02 -0.10332747405E+03  0.11556019945E+03  0.00000000000E+00 0. -1.
<scales pt_clust_5="13000.00000" pt_clust_6="13000.00000" pt_clust_7="13000.00000" pt_clust_8="13000.00000" pt_clust_9="51.74546"></scales>
<clustering>
<clus scale="   51.745">  1  9  2 -1</clus>
<clus scale="   79.700">  5  6 -1 -1</clus>
<clus scale="   81.765">  2  5  1 -1</clus>
<clus scale="   88.508">  7  8 -1 -1</clus>
<clus scale="   51.745">  1  5  2 -1</clus>
</clustering>
</event>
<event>
 9    2  0.1665830E-004  0.1562038E+03  0.7546771E-02  0.1195129E+00
          2   -1    0    0  502    0 -0.00000000000E+00  0.00000000000E+00  0.42311209972E+03  0.42311209972E+03  0.00000000000E+00 0. -1.
         21   -1    0    0  501  502  0.00000000000E+00 -0.00000000000E+00 -0.14591030100E+03  0.14591030100E+03  0.00000000000E+00 0. -1.
         23    2    1    2    0    0 -0.11069523248E+03 -0.44918788781E+02  0.27397552793E+03  0.31310420586E+03  0.93276587304E+02 0.  0.
         24    2    1    2    0    0  0.12915819812E+03  0.55728212524E+02  0.76574203406E+02  0.17951371881E+03  0.81080779475E+02 0.  0.
        -11    1    4    4    0    0  0.10106144890E+03  0.52389135131E+02  0.19062162466E+02  0.11541838662E+03  0.00000000000E+00 0.  1.
         12    1    4    4    0    0  0.28096749224E+02  0.33390773931E+01  0.57512040940E+02  0.64095332185E+02  0.00000000000E+00 0. -1.
        -13    1    3    3    0    0 -0.40813355235E+01 -0.44359443711E+02  0.91430749381E+02  0.10170545452E+03  0.00000000000E+00 0.  1.
         13    1    3    3    0    0 -0.10661389696E+03 -0.55934506999E+00  0.18254477855E+03  0.21139875134E+03  0.00000000000E+00 0. -1.
          1    1    1    2  501    0 -0.18462965636E+02 -0.10809423744E+02 -0.73347932623E+02  0.76404476059E+02  0.00000000000E+00 0. -1.
<scales pt_clust_5="13000.00000" pt_clust_6="13000.00000" pt_clust_7="13000.00000" pt_clust_8="13000.00000" pt_clust_9="21.39450"></scales>
<clustering>
<clus scale="   21.395">  2  9  1 -1</clus>
<clus scale="   81.081">  5  6 -1 -1</clus>
<clus scale="   93.277">  7  8 -1 -1</clus>
<clus scale="  149.242">  2  5  1 -1</clus>
<clus scale="   21.395">  2  5  1 -1</clus>
</clustering>
</event>
<event>
 9    2  0.1665830E-004  0.1544505E+03  0.7546771E-02  0.1221410E+00
          2   -1    0    0  502    0 -0.00000000000E+00  0.00000000000E+00  0.52011263814E+03  0.52011263814E+03  0.00000000000E+00 0. -1.
         21   -1    0    0  501  502  0.00000000000E+00 -0.00000000000E+00 -0.20068447559E+03  0.20068447559E+03  0.00000000000E+00 0. -1.
         24    2    1    2    0    0 -0.32780249398E+02  0.16090651688E+02  0.41377088658E+03  0.42301028050E+03  0.79986855200E+02 0.  0.
         23    2    1    2    0    0 -0.76117961053E+02 -0.74397408268E+02 -0.72343231775E+01  0.14663667081E+03  0.10060347629E+03 0.  0.
        -13    1    3    3    0    0 -0.13877575384E+02  0.45293639939E+02  0.15997850234E+03  0.16684490441E+03  0.00000000000E+00 0.  1.
         14    1    3    3    0    0 -0.18902674014E+02 -0.29202988251E+02  0.25379238424E+03  0.25616537608E+03  0.00000000000E+00 0. -1.
        -13    1    4    4    0    0 -0.75544019728E+02 -0.54200179014E+02 -0.45387913196E+02  0.10346313830E+03  0.00000000000E+00 0. -1.
         13    1    4    4    0    0 -0.57394132498E+00 -0.20197229254E+02  0.38153590018E+02  0.43173532511E+02  0.00000000000E+00 0.  1.
          1    1    1    2  501    0  0.10889821045E+03  0.58306756581E+02 -0.87108400845E+02  0.15115016242E+03  0.00000000000E+00 0. -1.
<scales pt_clust_5="13000.00000" pt_clust_6="13000.00000" pt_clust_7="13000.00000" pt_clust_8="13000.00000" pt_clust_9="117.19169"></scales>
<clustering>
<clus scale="   79.987">  5  6 -1 -1</clus>
<clus scale="   87.928">  1  5  2 -1</clus>
<clus scale="  100.603">  7  8 -1 -1</clus>
<clus scale="  117.192">  2  9  1 -1</clus>
<clus scale="  117.192">  2  5  1 -1</clus>
</clustering>
</event>
<event>
 9    2  0.1665830E-004  0.2241882E+03  0.7546771E-02  0.1146813E+00
          2   -1    0    0  502    0 -0.00000000000E+00  0.00000000000E+00  0.15268899240E+04  0.15268899240E+04  0.00000000000E+00 0. -1.
         21   -1    0    0  501  502  0.00000000000E+00 -0.00000000000E+00 -0.12684072812E+03  0.12684072812E+03  0.00000000000E+00 0. -1.
         24    2    1    2    0    0 -0.10895201744E+03  0.63167411672E+02  0.10585417106E+04  0.10694313010E+04  0.85510762295E+02 0.  0.
         23    2    1    2    0    0  0.11941319492E+03  0.15486592186E+03  0.28620196590E+03  0.35911793264E+03  0.93867776079E+02 0.  0.
        -11    1    3    3    0    0 -0.20745213073E+02 -0.11229367940E+02  0.63840405127E+02  0.68059238143E+02  0.00000000000E+00 0.  1.
         12    1    3    3    0    0 -0.88206804371E+02  0.74396779612E+02  0.99470130550E+03  0.10013720629E+04  0.00000000000E+00 0. -1.
        -11    1    4    4    0    0  0.12522496212E+03  0.12098582016E+03  0.26960735509E+03  0.32094701391E+03  0.00000000000E+00 0. -1.
         11    1    4    4    0    0 -0.58117671964E+01  0.33880101699E+02  0.16594610807E+02  0.38170918733E+02  0.00000000000E+00 0.  1.
          1    1    1    2  501    0 -0.10461177478E+02 -0.21803333353E+03  0.55305519394E+02  0.22518141850E+03  0.00000000000E+00 0. -1.
<scales pt_clust_5="13000.00000" pt_clust_6="13000.00000" pt_clust_7="13000.00000" pt_clust_8="13000.00000" pt_clust_9="203.59070"></scales>
<clustering>
<clus scale="   85.511">  5  6 -1 -1</clus>
<clus scale="   93.868">  7  8 -1 -1</clus>
<clus scale="  152.226">  1  5  2 -1</clus>
<clus scale="  203.591">  2  9  1 -1</clus>
<clus scale="  203.591">  2  5  1 -1</clus>
</clustering>
</event>
<event>
 9    2  0.1665830E-004  0.7951498E+02  0.7546771E-02  0.1336793E+00
         -1   -1    0    0    0  501 -0.00000000000E+00  0.00000000000E+00  0.27948475497E+03  0.27948475497E+03  0.00000000000E+00 0.  1.
         21   -1    0    0  501  502  0.00000000000E+00 -0.00000000000E+00 -0.83462310385E+02  0.83462310385E+02  0.00000000000E+00 0.  1.
         23    2    1    2    0    0  0.65170802497E+01  0.14787350227E+02  0.19829810544E+03  0.21084749233E+03  0.69809657937E+02 0.  0.
         24    2    1    2    0    0  0.20310519741E+02  0.73847875433E+01 -0.48202992765E+02  0.94474546938E+02  0.78325342058E+02 0.  0.
        -11    1    4    4    0    0  0.23311197952E+02  0.13653694855E+02 -0.68172461419E+02  0.73330210890E+02  0.00000000000E+00 0.  1.
         12    1    4    4    0    0 -0.30006782103E+01 -0.62689073116E+01  0.19969468654E+02  0.21144336049E+02  0.00000000000E+00 0. -1.
        -11    1    3    3    0    0 -0.69114142627E+01  0.41266778148E+02  0.12205018702E+03  0.12902310947E+03  0.00000000000E+00 0. -1.
         11    1    3    3    0    0  0.13428494512E+02 -0.26479427921E+02  0.76247918422E+02  0.81824382867E+02  0.00000000000E+00 0.  1.
         -2    1    1    2    0  502 -0.26827599991E+02 -0.22172137770E+02  0.45927331913E+02  0.57625026085E+02  0.00000000000E+00 0.  1.
<scales pt_clust_5="13000.00000" pt_clust_6="13000.00000" pt_clust_7="13000.00000" pt_clust_8="13000.00000" pt_clust_9="34.80409"></scales>
<clustering>
<clus scale="   34.804">  2  9  1 -1</clus>
<clus scale="   69.810">  7  8 -1 -1</clus>
<clus scale="   71.142">  1  7  2 -1</clus>
<clus scale="   78.325">  5  6 -1 -1</clus>
<clus scale="   34.804">  2  5  1 -1</clus>
</clustering>
</event>
<event>
 9    2  0.1665830E-004  0.1055679E+03  0.7546771E-02  0.1271793E+00
          2   -1    0    0  502    0 -0.00000000000E+00  0.00000000000E+00  0.99175591617E+03  0.99175591617E+03  0.00000000000E+00 0. -1.
         21   -1    0    0  501  502  0.00000000000E+00 -0.00000000000E+00 -0.43311291679E+02  0.43311291679E+02  0.00000000000E+00 0. -1.
         24    2    1    2    0    0  0.42846104848E+02  0.33423789842E+02  0.86396539130E+03  0.86981192037E+03  0.84756362726E+02 0.  0.
         23    2    1    2    0    0 -0.45481714683E+02 -0.12464588147E+02  0.96525440200E+02  0.14093768729E+03  0.91226743698E+02 0.  0.
        -11    1    3    3    0    0 -0.11611616694E+02  0.33272099900E+02  0.16463245858E+03  0.16836183859E+03  0.00000000000E+00 0.  1.
         12    1    3    3    0    0  0.54457721542E+02  0.15168994139E+00  0.69933293272E+03  0.70145008178E+03  0.00000000000E+00 0. -1.
        -13    1    4    4    0    0  0.12440904721E+02 -0.25552553500E+02  0.70669256476E+02  0.76169895047E+02  0.00000000000E+00 0.  1.
         13    1    4    4    0    0 -0.57922619404E+02  0.13087965354E+02  0.25856183724E+02  0.64767792247E+02  0.00000000000E+00 0. -1.
          1    1    1    2  501    0  0.26356098349E+01 -0.20959201695E+02 -0.12046207018E+02  0.24317600178E+02  0.00000000000E+00 0. -1.
<scales pt_clust_5="13000.00000" pt_clust_6="13000.00000" pt_clust_7="13000.00000" pt_clust_8="13000.00000" pt_clust_9="21.12427"></scales>
<clustering>
<clus scale="   21.124">  2  9  1 -1</clus>
<clus scale="   84.756">  5  6 -1 -1</clus>
<clus scale="   91.227">  7  8 -1 -1</clus>
<clus scale="  100.030">  1  5  2 -1</clus>
<clus scale="   21.124">  2  5  1 -1</clus>
</clustering>
</event>
<event>
 9    2  0.1665830E-004  0.9778901E+02  0.7546771E-02  0.1292251E+00
         21   -1    0    0  501  502  0.00000000000E+00  0.00000000000E+00  0.19832780536E+03  0.19832780536E+03  0.00000000000E+00 0. -1.
         -3   -1    0    0    0  501 -0.00000000000E+00 -0.00000000000E+00 -0.99139301118E+02  0.99139301118E+02  0.00000000000E+00 0.  1.
         23    2    1    2    0    0  0.22904804014E+02  0.45388798799E+01 -0.44063641105E+02  0.10583241736E+03  0.93347011835E+02 0.  0.
         24    2    1    2    0    0 -0.47618905312E+02 -0.22925728332E+02  0.10171517946E+03  0.13992219031E+03  0.80243955812E+02 0.  0.
        -13    1    4    4    0    0  0.16687802359E+02 -0.19104467068E+02  0.54302622460E+02  0.59935283561E+02  0.00000000000E+00 0.  1.
         14    1    4    4    0    0 -0.64306707671E+02 -0.38212612640E+01  0.47412557004E+02  0.79986906746E+02  0.00000000000E+00 0. -1.
        -11    1    3    3    0    0  0.53771712565E+02  0.24887752033E+02 -0.27270594922E+02  0.65226395124E+02  0.00000000000E+00 0. -1.
         11    1    3    3    0    0 -0.30866908551E+02 -0.20348872153E+02 -0.16793046183E+02  0.40606022232E+02  0.00000000000E+00 0.  1.
         -4    1    1    2    0  502  0.24714101297E+02  0.18386848452E+02  0.41536965888E+02  0.51712498819E+02  0.00000000000E+00 0.  1.
<scales pt_clust_5="13000.00000" pt_clust_6="13000.00000" pt_clust_7="13000.00000" pt_clust_8="13000.00000" pt_clust_9="30.80362"></scales>
<clustering>
<clus scale="   30.804">  1  9  2 -1</clus>
<clus scale="   80.244">  5  6 -1 -1</clus>
<clus scale="   85.370">  1  5  2 -1</clus>
<clus scale="   93.347">  7  8 -1 -1</clus>
<clus scale="   30.804">  1  5  2 -1</clus>
</clustering>
</event>
<event>
 9    2  0.1665830E-004  0.2574105E+03  0.7546771E-02  0.1109433E+00
         -1   -1    0    0    0  501 -0.00000000000E+00  0.00000000000E+00  0.11092277307E+04  0.11092277307E+04  0.00000000000E+00 0.  1.
         21   -1    0    0  501  502  0.00000000000E+00 -0.00000000000E+00 -0.13659429517E+03  0.13659429517E+03  0.00000000000E+00 0.  1.
         23    2    1    2    0    0  0.11847565923E+03 -0.22348906211E+03  0.88373851294E+03  0.92445771003E+03  0.98206189566E+02 0.  0.
         24    2    1    2    0    0 -0.63331577112E+02  0.18408460863E+03  0.12299801925E+03  0.24549204193E+03  0.85087003215E+02 0.  0.
        -11    1    4    4    0    0 -0.53389883935E+02  0.16725174000E+03  0.70006333552E+02  0.18900928807E+03  0.00000000000E+00 0.  1.
         12    1    4    4    0    0 -0.99416931772E+01  0.16832868624E+02  0.52991685702E+02  0.56482753854E+02  0.00000000000E+00 0. -1.
        -13    1    3    3    0    0  0.39987325100E+02 -0.12517080158E+03  0.59773200979E+03  0.61200512356E+03  0.00000000000E+00 0.  1.
         13    1    3    3    0    0  0.78488334127E+02 -0.98318260532E+02  0.28600650315E+03  0.31245258647E+03  0.00000000000E+00 0. -1.
         -2    1    1    2    0  502 -0.55144082114E+02  0.39404453488E+02 -0.34103096659E+02  0.75872273912E+02  0.00000000000E+00 0.  1.
<scales pt_clust_5="13000.00000" pt_clust_6="13000.00000" pt_clust_7="13000.00000" pt_clust_8="13000.00000" pt_clust_9="67.77596"></scales>
<clustering>
<clus scale="   67.776">  2  9  1 -1</clus>
<clus scale="   85.087">  5  6 -1 -1</clus>
<clus scale="   98.206">  7  8 -1 -1</clus>
<clus scale="  252.696">  2  5  1 -1</clus>
<clus scale="   67.776">  2  5  1 -1</clus>
</clustering>
</event>
<event>
 9    2  0.1665830E-004  0.2668883E+03  0.7546771E-02  0.1121944E+00
          2   -1    0    0  502    0 -0.00000000000E+00  0.00000000000E+00  0.44158999011E+03  0.44158999011E+03  0.00000000000E+00 0. -1.
         21   -1    0    0  501  502  0.00000000000E+00 -0.00000000000E+00 -0.85708511992E+03  0.85708511992E+03  0.00000000000E+00 0. -1.
         23    2    1    2    0    0  0.10611289392E+03  0.87994656381E+02 -0.17269674458E+03  0.23912327335E+03  0.91393481507E+02 0.  0.
         24    2    1    2    0    0  0.15294943042E+03 -0.56877454349E+02  0.35922766877E+03  0.40341394122E+03  0.84081608447E+02 0.  0.
        -13    1    4    4    0    0  0.36852106799E+02  0.15728951084E+02  0.13366329860E+03  0.13953979745E+03  0.00000000000E+00 0.  1.
         14    1    4    4    0    0  0.11609732363E+03 -0.72606405434E+02  0.22556437017E+03  0.26387414377E+03  0.00000000000E+00 0. -1.
        -13    1    3    3    0    0  0.86858990608E+00  0.50099170272E+02 -0.32306104858E+02  0.59618501503E+02  0.00000000000E+00 0.  1.
         13    1    3    3    0    0  0.10524430401E+03  0.37895486108E+02 -0.14039063973E+03  0.17950477185E+03  0.00000000000E+00 0. -1.
          1    1    1    2  501    0 -0.25906232434E+03 -0.31117202032E+02 -0.60202605400E+03  0.65613789546E+03  0.00000000000E+00 0. -1.
<scales pt_clust_5="13000.00000" pt_clust_6="13000.00000" pt_clust_7="13000.00000" pt_clust_8="13000.00000" pt_clust_9="253.29751"></scales>
<clustering>
<clus scale="   84.082">  5  6 -1 -1</clus>
<clus scale="   91.393">  7  8 -1 -1</clus>
<clus scale="  165.396">  1  7  2 -1</clus>
<clus scale="  253.298">  2  9  1 -1</clus>
<clus scale="  253.298">  2  5  1 -1</clus>
</clustering>
</event>
<event>
 9    2  0.1665830E-004  0.1144006E+03  0.7546771E-02  0.1256740E+00
         21   -1    0    0  501  502  0.00000000000E+00  0.00000000000E+00  0.28643035576E+03  0.28643035576E+03  0.00000000000E+00 0. -1.
         -3   -1    0    0    0  501 -0.00000000000E+00 -0.00000000000E+00 -0.89904677339E+02  0.89904677339E+02  0.00000000000E+00 0.  1.
         24    2    1    2    0    0  0.60189862907E+02 -0.46137213117E+02 -0.28914684713E+02  0.11336439635E+03  0.79145216770E+02 0.  0.
         23    2    1    2    0    0 -0.27810734909E+02  0.34148852033E+02  0.16930692704E+03  0.19706850188E+03  0.90728043187E+02 0.  0.
        -11    1    3    3    0    0  0.79677571168E+02 -0.35088064027E+02 -0.25378374335E+02  0.90684891070E+02  0.00000000000E+00 0.  1.
         12    1    3    3    0    0 -0.19487708260E+02 -0.11049149090E+02 -0.35363103776E+01  0.22679505284E+02  0.00000000000E+00 0. -1.
        -13    1    4    4    0    0  0.29109628924E+02  0.30915144015E+02  0.56551307955E+02  0.70718929976E+02  0.00000000000E+00 0.  1.
         13    1    4    4    0    0 -0.56920363834E+02  0.32337080176E+01  0.11275561908E+03  0.12634957191E+03  0.00000000000E+00 0. -1.
         -4    1    1    2    0  502 -0.32379127998E+02  0.11988361084E+02  0.56133436094E+02  0.65902134860E+02  0.00000000000E+00 0.  1.
<scales pt_clust_5="13000.00000" pt_clust_6="13000.00000" pt_clust_7="13000.00000" pt_clust_8="13000.00000" pt_clust_9="34.52722"></scales>
<clustering>
<clus scale="   34.527">  1  9  2 -1</clus>
<clus scale="   79.145">  5  6 -1 -1</clus>
<clus scale="   90.728">  7  8 -1 -1</clus>
<clus scale="  105.451">  2  5  1 -1</clus>
<clus scale="   34.527">  1  5  2 -1</clus>
</clustering>
</event>
<event>
 9    2  0.1665830E-004  0.2490903E+03  0.7546771E-02  0.1137133E+00
         21   -1    0    0  501  502  0.00000000000E+00  0.00000000000E+00  0.39245066431E+02  0.39245066431E+02  0.00000000000E+00 0. -1.
          2   -1    0    0  502    0 -0.00000000000E+00 -0.00000000000E+00 -0.25528921996E+04  0.25528921996E+04  0.00000000000E+00 0. -1.
         24    2    1    2    0    0  0.11987599052E+02  0.10403453816E+03 -0.61867912369E+03  0.63433396026E+03  0.92999071967E+02 0.  0.
         23    2    1    2    0    0 -0.11017186359E+03 -0.26275665805E+03 -0.10162058915E+04  0.10594405054E+04  0.92524967597E+02 0.  0.
        -11    1    3    3    0    0  0.32510519461E+02  0.86372466809E+02 -0.28526149129E+03  0.29981870407E+03  0.00000000000E+00 0.  1.
         12    1    3    3    0    0 -0.20522920410E+02  0.17662071348E+02 -0.33341763240E+03  0.33451525619E+03  0.00000000000E+00 0. -1.
        -13    1    4    4    0    0  0.14626073141E+02 -0.48663868378E+02 -0.14341833598E+03  0.15215424147E+03  0.00000000000E+00 0.  1.
         13    1    4    4    0    0 -0.12479793674E+03 -0.21409278967E+03 -0.87278755553E+03  0.90728626391E+03  0.00000000000E+00 0. -1.
          1    1    1    2  501    0  0.98184264542E+02  0.15872211990E+03 -0.87876211800E+03  0.89836280042E+03  0.00000000000E+00 0. -1.
<scales pt_clust_5="13000.00000" pt_clust_6="13000.00000" pt_clust_7="13000.00000" pt_clust_8="13000.00000" pt_clust_9="231.26850"></scales>
<clustering>
<clus scale="   92.525">  7  8 -1 -1</clus>
<clus scale="   92.999">  5  6 -1 -1</clus>
<clus scale="  140.056">  2  5  1 -1</clus>
<clus scale="  231.269">  1  9  2 -1</clus>
<clus scale="  231.269">  1  5  2 -1</clus>
</clustering>
</event>
<event>
 9    2  0.1665830E-004  0.1608241E+03  0.7546771E-02  0.1214370E+00
         21   -1    0    0  501  502  0.00000000000E+00  0.00000000000E+00  0.22784245851E+03  0.22784245851E+03  0.00000000000E+00 0. -1.
          2   -1    0    0  502    0 -0.00000000000E+00 -0.00000000000E+00 -0.17111693190E+03  0.17111693190E+03  0.00000000000E+00 0. -1.
         24    2    1    2    0    0  0.46565016012E+01  0.45184417024E+02 -0.15558631816E+02  0.91666877742E+02  0.78086048063E+02 0.  0.
         23    2    1    2    0    0 -0.35908383811E+02 -0.15484611505E+03  0.41228869751E+02  0.18911129965E+03  0.93789831961E+02 0.  0.
        -13    1    3    3    0    0 -0.22282018860E+02 -0.48472248263E+01 -0.25250720175E+02  0.34023268837E+02  0.00000000000E+00 0.  1.
         14    1    3    3    0    0  0.26938520461E+02  0.50031641850E+02  0.96920883593E+01  0.57643608905E+02  0.00000000000E+00 0. -1.
        -13    1    4    4    0    0 -0.43294085594E+02 -0.61626360603E+02  0.56774422391E+02  0.94316070774E+02  0.00000000000E+00 0. -1.
         13    1    4    4    0    0  0.73857017830E+01 -0.93219754450E+02 -0.15545552639E+02  0.94795228875E+02  0.00000000000E+00 0.  1.
          1    1    1    2  501    0  0.31251882210E+02  0.10966169803E+03  0.31055288677E+02  0.11818121302E+03  0.00000000000E+00 0. -1.
<scales pt_clust_5="13000.00000" pt_clust_6="13000.00000" pt_clust_7="13000.00000" pt_clust_8="13000.00000" pt_clust_9="130.64398"></scales>
<clustering>
<clus scale="   78.086">  5  6 -1 -1</clus>
<clus scale="   90.337">  2  5  1 -1</clus>
<clus scale="   93.790">  7  8 -1 -1</clus>
<clus scale="  130.644">  1  9  2 -1</clus>
<clus scale="  130.644">  1  5  2 -1</clus>
</clustering>
</event>
<event>
 9    2  0.1665830E-004  0.1253150E+03  0.7546771E-02  0.1238208E+00
         -3   -1    0    0    0  501 -0.00000000000E+00  0.00000000000E+00  0.50015524664E+02  0.50015524664E+02  0.00000000000E+00 0.  1.
         21   -1    0    0  501  502  0.00000000000E+00 -0.00000000000E+00 -0.43688815736E+03  0.43688815736E+03  0.00000000000E+00 0.  1.
         24    2    1    2    0    0  0.48737100641E+02 -0.53446909161E+02 -0.13337548399E+03  0.17163053160E+03  0.80225573043E+02 0.  0.
         23    2    1    2    0    0 -0.82683924640E+02  0.65015946171E+02 -0.23792201423E+03  0.27617309556E+03  0.92741518219E+02 0.  0.
        -11    1    3    3    0    0  0.22759086433E+02  0.12650677786E+02 -0.74915089832E+01  0.27094987923E+02  0.00000000000E+00 0.  1.
         12    1    3    3    0    0  0.25978014208E+02 -0.66097586947E+02 -0.12588397501E+03  0.14453554368E+03  0.00000000000E+00 0. -1.
        -11    1    4    4    0    0 -0.94812908285E+02  0.31359840462E+02 -0.14037829228E+03  0.17227591855E+03  0.00000000000E+00 0.  1.
         11    1    4    4    0    0  0.12128983644E+02  0.33656105709E+02 -0.97543721956E+02  0.10389717700E+03  0.00000000000E+00 0. -1.
         -4    1    1    2    0  502  0.33946823999E+02 -0.11569037010E+02 -0.15575134478E+02  0.39100054872E+02  0.00000000000E+00 0.  1.
<scales pt_clust_5="13000.00000" pt_clust_6="13000.00000" pt_clust_7="13000.00000" pt_clust_8="13000.00000" pt_clust_9="35.86406"></scales>
<clustering>
<clus scale="   35.864">  2  9  1 -1</clus>
<clus scale="   80.226">  5  6 -1 -1</clus>
<clus scale="   92.742">  7  8 -1 -1</clus>
<clus scale="  116.357">  1  5  2 -1</clus>
<clus scale="   35.864">  2  5  1 -1</clus>
</clustering>
</event>
<event>
 9    2  0.1665830E-004  0.1547048E+03  0.7546771E-02  0.1218000E+00
          2   -1    0    0  502    0 -0.00000000000E+00  0.00000000000E+00  0.49021408420E+03  0.49021408420E+03  0.00000000000E+00 0. -1.
         21   -1    0    0  501  502  0.00000000000E+00 -0.00000000000E+00 -0.83606338553E+02  0.83606338553E+02  0.00000000000E+00 0.  1.
         23    2    1    2    0    0  0.26124615704E+02 -0.17673964963E+01  0.34875654391E+02  0.10025471659E+03  0.90272242102E+02 0.  0.
         24    2    1    2    0    0  0.86134726772E+02  0.87417718409E+02  0.23956735311E+03  0.28016028838E+03  0.77693126215E+02 0.  0.
        -11    1    4    4    0    0  0.30330177370E+01  0.34249289865E+02  0.20820655609E+02  0.40195929556E+02  0.00000000000E+00 0.  1.
         12    1    4    4    0    0  0.83101709035E+02  0.53168428544E+02  0.21874669750E+03  0.23996435883E+03  0.00000000000E+00 0. -1.
        -11    1    3    3    0    0  0.48932258391E+02  0.20264994395E+02 -0.20841132434E+00  0.52962999767E+02  0.00000000000E+00 0.  1.
         11    1    3    3    0    0 -0.22807642687E+02 -0.22032390891E+02  0.35084065715E+02  0.47291716827E+02  0.00000000000E+00 0. -1.
          1    1    1    2  501    0 -0.11225934248E+03 -0.85650321913E+02  0.13216473814E+03  0.19340541778E+03  0.00000000000E+00 0. -1.
<scales pt_clust_5="13000.00000" pt_clust_6="13000.00000" pt_clust_7="13000.00000" pt_clust_8="13000.00000" pt_clust_9="133.78095"></scales>
<clustering>
<clus scale="   77.693">  5  6 -1 -1</clus>
<clus scale="   90.272">  7  8 -1 -1</clus>
<clus scale="   93.993">  1  7  2 -1</clus>
<clus scale="  133.781">  2  9  1 -1</clus>
<clus scale="  133.781">  2  5  1 -1</clus>
</clustering>
</event>
<event>
 9    2  0.1665830E-004  0.1239956E+03  0.7546771E-02  0.1248286E+00
         21   -1    0    0  501  502  0.00000000000E+00  0.00000000000E+00  0.26319798521E+03  0.26319798521E+03  0.00000000000E+00 0. -1.
         -1   -1    0    0    0  501 -0.00000000000E+00 -0.00000000000E+00 -0.13127252411E+03  0.13127252411E+03  0.00000000000E+00 0.  1.
         23    2    1    2    0    0  0.19983490913E+02 -0.27725926571E+02  0.12855601044E+03  0.16164151811E+03  0.91832813543E+02 0.  0.
         24    2    1    2    0    0  0.84213931662E+02  0.38143801607E+02  0.30080299333E+02  0.12475908593E+03  0.78186119148E+02 0.  0.
        -13    1    4    4    0    0  0.44714078710E+01 -0.21190118205E+02  0.63895294405E+01  0.22579651998E+02  0.00000000000E+00 0.  1.
         14    1    4    4    0    0  0.79742523791E+02  0.59333919812E+02  0.23690769893E+02  0.10217943393E+03  0.00000000000E+00 0. -1.
        -13    1    3    3    0    0  0.54290181024E+02 -0.32490767728E+02  0.79912890577E+02  0.10192714959E+03  0.00000000000E+00 0. -1.
         13    1    3    3    0    0 -0.34306690112E+02  0.47648411568E+01  0.48643119860E+02  0.59714368517E+02  0.00000000000E+00 0.  1.
         -2    1    1    2    0  502 -0.10419742257E+03 -0.10417875036E+02 -0.26710848664E+02  0.10806990528E+03  0.00000000000E+00 0.  1.
<scales pt_clust_5="13000.00000" pt_clust_6="13000.00000" pt_clust_7="13000.00000" pt_clust_8="13000.00000" pt_clust_9="96.23847"></scales>
<clustering>
<clus scale="   78.186">  5  6 -1 -1</clus>
<clus scale="   91.833">  7  8 -1 -1</clus>
<clus scale="   97.986">  2  7  1 -1</clus>
<clus scale="   96.238">  1  9  2 -1</clus>
<clus scale="   96.238">  1  5  2 -1</clus>
</clustering>
</event>
<event>
 9    2  0.1665830E-004  0.1544637E+03  0.7546771E-02  0.1196750E+00
         21   -1    0    0  501  502  0.00000000000E+00  0.00000000000E+00  0.42929280678E+02  0.42929280678E+02  0.00000000000E+00 0.  1.
          2   -1    0    0  502    0 -0.00000000000E+00 -0.00000000000E+00 -0.12353093921E+04  0.12353093921E+04  0.00000000000E+00 0. -1.
         24    2    1    2    0    0  0.55442410742E+01 -0.11856774245E+03 -0.81737206860E+03  0.82985491270E+03  0.80455139354E+02 0.  0.
         23    2    1    2    0    0  0.42128273446E+02  0.15594385770E+03 -0.27468565642E+03  0.33119065513E+03  0.90231712976E+02 0.  0.
        -13    1    3    3    0    0  0.41706884904E+02 -0.59612053850E+02 -0.35940235529E+03  0.36669212454E+03  0.00000000000E+00 0.  1.
         14    1    3    3    0    0 -0.36162643829E+02 -0.58955688598E+02 -0.45796971331E+03  0.46316278816E+03  0.00000000000E+00 0. -1.
        -11    1    4    4    0    0 -0.23635038353E+02  0.85167029761E+02 -0.12836474697E+03  0.15585103869E+03  0.00000000000E+00 0.  1.
         11    1    4    4    0    0  0.65763311799E+02  0.70776827939E+02 -0.14632090945E+03  0.17533961644E+03  0.00000000000E+00 0. -1.
          1    1    1    2  501    0 -0.47672514520E+02 -0.37376115252E+02 -0.10032238637E+03  0.11719310491E+03  0.00000000000E+00 0. -1.
<scales pt_clust_5="13000.00000" pt_clust_6="13000.00000" pt_clust_7="13000.00000" pt_clust_8="13000.00000" pt_clust_9="60.57758"></scales>
<clustering>
<clus scale="   60.578">  1  9  2 -1</clus>
<clus scale="   80.455">  5  6 -1 -1</clus>
<clus scale="   90.232">  7  8 -1 -1</clus>
<clus scale="  148.964">  2  5  1 -1</clus>
<clus scale="   60.578">  1  5  2 -1</clus>
</clustering>
</event>
<event>
 9    2  0.1665830E-004  0.1530506E+03  0.7546771E-02  0.1220965E+00
         21   -1    0    0  501  502  0.00000000000E+00  0.00000000000E+00  0.11947568336E+03  0.11947568336E+03  0.00000000000E+00 0.  1.
          2   -1    0    0  502    0 -0.00000000000E+00 -0.00000000000E+00 -0.36845865050E+03  0.36845865050E+03  0.00000000000E+00 0. -1.
         24    2    1    2    0    0 -0.35314150528E+02  0.21050209566E+02 -0.17769045852E+03  0.19973245485E+03  0.81418388091E+02 0.  0.
         23    2    1    2    0    0  0.87443334935E+02  0.91078382090E+02 -0.40799585132E+02  0.16084375671E+03  0.90909292244E+02 0.  0.
        -13    1    3    3    0    0  0.12244081234E+02 -0.17350846268E+02 -0.15172869040E+02  0.26099527704E+02  0.00000000000E+00 0.  1.
         14    1    3    3    0    0 -0.47558231761E+02  0.38401055834E+02 -0.16251758948E+03  0.17363292714E+03  0.00000000000E+00 0. -1.
        -11    1    4    4    0    0  0.69979350359E+02  0.79942344294E+01 -0.23033608855E+02  0.74105090228E+02  0.00000000000E+00 0. -1.
         11    1    4    4    0    0  0.17463984577E+02  0.83084147661E+02 -0.17765976277E+02  0.86738666481E+02  0.00000000000E+00 0.  1.
          1    1    1    2  501    0 -0.52129184408E+02 -0.11212859166E+03 -0.30492923485E+02  0.12735812230E+03  0.00000000000E+00 0. -1.
<scales pt_clust_5="13000.00000" pt_clust_6="13000.00000" pt_clust_7="13000.00000" pt_clust_8="13000.00000" pt_clust_9="123.12591"></scales>
<clustering>
<clus scale="   81.418">  5  6 -1 -1</clus>
<clus scale="   90.909">  7  8 -1 -1</clus>
<clus scale="   91.209">  2  5  1 -1</clus>
<clus scale="  123.126">  1  9  2 -1</clus>
<clus scale="  123.126">  1  5  2 -1</clus>
</clustering>
</event>
<event>
 9    2  0.1665830E-004  0.9519212E+02  0.7546771E-02  0.1297118E+00
         21   -1    0    0  501  502  0.00000000000E+00  0.00000000000E+00  0.35671292967E+03  0.35671292967E+03  0.00000000000E+00 0.  1.
          2   -1    0    0  502    0 -0.00000000000E+00 -0.00000000000E+00 -0.35076269493E+02  0.35076269493E+02  0.00000000000E+00 0. -1.
         23    2    1    2    0    0 -0.12176144222E+02  0.34908264607E+02  0.86474065549E+02  0.13126511171E+03  0.91574669607E+02 0.  0.
         24    2    1    2    0    0 -0.39733347826E+01 -0.86270213702E+01  0.17812754722E+03  0.19568192485E+03  0.80447372532E+02 0.  0.
        -13    1    4    4    0    0  0.24868898421E+02 -0.34189631791E+02  0.86496663229E+02  0.96275987559E+02  0.00000000000E+00 0.  1.
         14    1    4    4    0    0 -0.28842233203E+02  0.25562610421E+02  0.91630883988E+02  0.99405937288E+02  0.00000000000E+00 0. -1.
        -11    1    3    3    0    0  0.39723283502E+02  0.18498151769E+02  0.32024393396E+02  0.54274143415E+02  0.00000000000E+00 0.  1.
         11    1    3    3    0    0 -0.51899427724E+02  0.16410112838E+02  0.54449672152E+02  0.76990968295E+02  0.00000000000E+00 0. -1.
          1    1    1    2  501    0  0.16149479005E+02 -0.26281243237E+02  0.57035047412E+02  0.64842162607E+02  0.00000000000E+00 0. -1.
<scales pt_clust_5="13000.00000" pt_clust_6="13000.00000" pt_clust_7="13000.00000" pt_clust_8="13000.00000" pt_clust_9="30.84655"></scales>
<clustering>
<clus scale="   30.847">  1  9  2 -1</clus>
<clus scale="   80.447">  5  6 -1 -1</clus>
<clus scale="   84.542">  1  5  2 -1</clus>
<clus scale="   91.575">  7  8 -1 -1</clus>
<clus scale="   30.847">  1  5  2 -1</clus>
</clustering>
</event>
<event>
 9    2  0.1665830E-004  0.1136070E+03  0.7546771E-02  0.1258629E+00
         21   -1    0    0  501  502  0.00000000000E+00  0.00000000000E+00  0.24951525917E+03  0.24951525917E+03  0.00000000000E+00 0. -1.
         -3   -1    0    0    0  501 -0.00000000000E+00 -0.00000000000E+00 -0.15879168316E+03  0.15879168316E+03  0.00000000000E+00 0.  1.
         23    2    1    2    0    0  0.67115731095E+02  0.59781572711E+02 -0.58695869642E+02  0.14158920535E+03  0.92325187039E+02 0.  0.
         24    2    1    2    0    0 -0.55058313636E+02  0.19571622885E+02  0.21360597839E+01  0.98983701315E+02  0.79867039834E+02 0.  0.
        -13    1    4    4    0    0 -0.37700323589E+02  0.85692144309E+01 -0.37799870294E+02  0.54070102912E+02  0.00000000000E+00 0.  1.
         14    1    4    4    0    0 -0.17357990047E+02  0.11002408454E+02  0.39935930078E+02  0.44913598402E+02  0.00000000000E+00 0. -1.
        -13    1    3    3    0    0  0.40462977750E+02  0.51586505222E+02 -0.82183465581E+02  0.10513107107E+03  0.00000000000E+00 0. -1.
         13    1    3    3    0    0  0.26652753345E+02  0.81950674892E+01  0.23487595939E+02  0.36458134278E+02  0.00000000000E+00 0.  1.
         -4    1    1    2    0  502 -0.12057417459E+02 -0.79353195596E+02  0.14728338587E+03  0.16773403566E+03  0.00000000000E+00 0.  1.
<scales pt_clust_5="13000.00000" pt_clust_6="13000.00000" pt_clust_7="13000.00000" pt_clust_8="13000.00000" pt_clust_9="80.26401"></scales>
<clustering>
<clus scale="   79.867">  5  6 -1 -1</clus>
<clus scale="   80.264">  1  9  2 -1</clus>
<clus scale="   92.325">  7  8 -1 -1</clus>
<clus scale="  103.737">  1  5  2 -1</clus>
<clus scale="   80.264">  1  5  2 -1</clus>
</clustering>
</event>
<event>
 9    2  0.1665830E-004  0.1631486E+03  0.7546771E-02  0.1202790E+00
         21   -1    0    0  501  502  0.00000000000E+00  0.00000000000E+00  0.44957715693E+02  0.44957715693E+02  0.00000000000E+00 0.  1.
         -1   -1    0    0    0  501 -0.00000000000E+00 -0.00000000000E+00 -0.10680748852E+04  0.10680748852E+04  0.00000000000E+00 0.  1.
         24    2    1    2    0    0  0.78859535158E+02 -0.16771914504E+02 -0.33391768030E+03  0.35184305849E+03  0.76107799799E+02 0.  0.
         23    2    1    2    0    0 -0.69828092744E+02 -0.12293673642E+03 -0.48734114832E+03  0.51553355554E+03  0.91016747567E+02 0.  0.
        -11    1    3    3    0    0  0.54132585467E+02 -0.27492976291E+01 -0.30997167669E+03  0.31467496849E+03  0.00000000000E+00 0.  1.
         12    1    3    3    0    0  0.24726949692E+02 -0.14022616875E+02 -0.23946003606E+02  0.37168089994E+02  0.00000000000E+00 0. -1.
        -13    1    4    4    0    0 -0.89558896572E+02 -0.97287883879E+02 -0.42775119863E+03  0.44772404027E+03  0.00000000000E+00 0.  1.
         13    1    4    4    0    0  0.19730803828E+02 -0.25648852546E+02 -0.59589949690E+02  0.67809515266E+02  0.00000000000E+00 0. -1.
         -2    1    1    2    0  502 -0.90314424140E+01  0.13970865093E+03 -0.20185834088E+03  0.24565598685E+03  0.00000000000E+00 0.  1.
<scales pt_clust_5="13000.00000" pt_clust_6="13000.00000" pt_clust_7="13000.00000" pt_clust_8="13000.00000" pt_clust_9="135.40098"></scales>
<clustering>
<clus scale="   76.108">  5  6 -1 -1</clus>
<clus scale="   91.017">  7  8 -1 -1</clus>
<clus scale="  110.872">  2  5  1 -1</clus>
<clus scale="  135.401">  1  9  2 -1</clus>
<clus scale="  135.401">  1  5  2 -1</clus>
</clustering>
</event>
<event>
 9    2  0.1665830E-004  0.1636224E+03  0.7546771E-02  0.1186479E+00
         -3   -1    0    0    0  501 -0.00000000000E+00  0.00000000000E+00  0.10844656668E+03  0.10844656668E+03  0.00000000000E+00 0.  1.
         21   -1    0    0  501  502  0.00000000000E+00 -0.00000000000E+00 -0.34568151888E+03  0.34568151888E+03  0.00000000000E+00 0. -1.
         23    2    1    2    0    0  0.31028715446E+02 -0.13067236364E+03 -0.30150315899E+02  0.17093556626E+03  0.10135027608E+03 0.  0.
         24    2    1    2    0    0 -0.40595513611E+02  0.10806226151E+03 -0.21233683897E+03  0.25808622570E+03  0.90532417531E+02 0.  0.
        -11    1    4    4    0    0 -0.16478954509E+02  0.40949576804E+02 -0.12456414356E+02  0.45864867172E+02  0.00000000000E+00 0.  1.
         12    1    4    4    0    0 -0.24116559102E+02  0.67112684707E+02 -0.19988042461E+03  0.21222135853E+03  0.00000000000E+00 0. -1.
        -11    1    3    3    0    0  0.51513124195E+01 -0.12776578647E+03  0.40698127124E+01  0.12793434092E+03  0.00000000000E+00 0.  1.
         11    1    3    3    0    0  0.25877403026E+02 -0.29065771722E+01 -0.34220128611E+02  0.43001225336E+02  0.00000000000E+00 0. -1.
         -4    1    1    2    0  502  0.95667981653E+01  0.22610102129E+02  0.52522026659E+01  0.25106293598E+02  0.00000000000E+00 0.  1.
<scales pt_clust_5="13000.00000" pt_clust_6="13000.00000" pt_clust_7="13000.00000" pt_clust_8="13000.00000" pt_clust_9="24.55078"></scales>
<clustering>
<clus scale="   24.551">  2  9  1 -1</clus>
<clus scale="   90.532">  5  6 -1 -1</clus>
<clus scale="  101.350">  7  8 -1 -1</clus>
<clus scale="  157.151">  2  5  1 -1</clus>
<clus scale="   24.551">  2  5  1 -1</clus>
</clustering>
</event>
<event>
 9    2  0.1665830E-004  0.9789131E+02  0.7546771E-02  0.1286641E+00
         21   -1    0    0  501  502  0.00000000000E+00  0.00000000000E+00  0.43981050015E+02  0.43981050015E+02  0.00000000000E+00 0.  1.
          2   -1    0    0  502    0 -0.00000000000E+00 -0.00000000000E+00 -0.48978707897E+03  0.48978707897E+03  0.00000000000E+00 0. -1.
         23    2    1    2    0    0  0.30932768675E+02 -0.43499599248E+02 -0.35894577005E+03  0.37342697179E+03  0.88071482971E+02 0.  0.
         24    2    1    2    0    0 -0.77892527751E+01  0.52617298736E+00 -0.44280373792E+02  0.95569370829E+02  0.84331511434E+02 0.  0.
        -13    1    4    4    0    0 -0.20386581744E+02 -0.37904496027E+02 -0.30855181093E+02  0.52956640137E+02  0.00000000000E+00 0.  1.
         14    1    4    4    0    0  0.12597328969E+02  0.38430669014E+02 -0.13425192699E+02  0.42612730692E+02  0.00000000000E+00 0. -1.
        -11    1    3    3    0    0 -0.12168082977E+02 -0.55613407067E+02 -0.22958173632E+03  0.23653474785E+03  0.00000000000E+00 0.  1.
         11    1    3    3    0    0  0.43100851652E+02  0.12113807819E+02 -0.12936403373E+03  0.13689222395E+03  0.00000000000E+00 0. -1.
          1    1    1    2  501    0 -0.23143515900E+02  0.42973426261E+02 -0.42579885118E+02  0.64771786369E+02  0.00000000000E+00 0. -1.
<scales pt_clust_5="13000.00000" pt_clust_6="13000.00000" pt_clust_7="13000.00000" pt_clust_8="13000.00000" pt_clust_9="48.80920"></scales>
<clustering>
<clus scale="   48.809">  1  9  2 -1</clus>
<clus scale="   84.332">  5  6 -1 -1</clus>
<clus scale="   88.071">  7  8 -1 -1</clus>
<clus scale="   94.541">  1  5  2 -1</clus>
<clus scale="   48.809">  1  5  2 -1</clus>
</clustering>
</event>
<event>
 9    2  0.1665830E-004  0.1160267E+03  0.7546771E-02  0.1255913E+00
          2   -1    0    0  502    0 -0.00000000000E+00  0.00000000000E+00  0.14750815639E+04  0.14750815639E+04  0.00000000000E+00 0. -1.
         21   -1    0    0  501  502  0.00000000000E+00 -0.00000000000E+00 -0.24235244572E+02  0.24235244572E+02  0.00000000000E+00 0. -1.
         24    2    1    2    0    0  0.70055323551E+02  0.74875224451E+01  0.10273434915E+04  0.10328829746E+04  0.80304286574E+02 0.  0.
         23    2    1    2    0    0 -0.48970602537E+02  0.19656268621E+01  0.42915941596E+03  0.44264466656E+03  0.96718730980E+02 0.  0.
        -13    1    3    3    0    0  0.12697591575E+02 -0.22614072066E+02  0.10097439392E+03  0.10425187440E+03  0.00000000000E+00 0.  1.
         14    1    3    3    0    0  0.57357731976E+02  0.30101594511E+02  0.92636909755E+03  0.92863110022E+03  0.00000000000E+00 0. -1.
        -11    1    4    4    0    0 -0.29655971015E+02  0.48575802706E+02  0.19640892443E+03  0.20448851024E+03  0.00000000000E+00 0.  1.
         11    1    4    4    0    0 -0.19314631521E+02 -0.46610175844E+02  0.23275049153E+03  0.23815615631E+03  0.00000000000E+00 0. -1.
          1    1    1    2  501    0 -0.21084721014E+02 -0.94531493072E+01 -0.56565880950E+01  0.23789167303E+02  0.00000000000E+00 0. -1.
<scales pt_clust_5="13000.00000" pt_clust_6="13000.00000" pt_clust_7="13000.00000" pt_clust_8="13000.00000" pt_clust_9="23.10687"></scales>
<clustering>
<clus scale="   23.107">  2  9  1 -1</clus>
<clus scale="   80.304">  5  6 -1 -1</clus>
<clus scale="   96.719">  7  8 -1 -1</clus>
<clus scale="  102.745">  1  5  2 -1</clus>
<clus scale="   23.107">  2  5  1 -1</clus>
</clustering>
</event>
<event>
 9    2  0.1665830E-004  0.9951212E+02  0.7546771E-02  0.1286791E+00
         21   -1    0    0  501  502  0.00000000000E+00  0.00000000000E+00  0.12633654220E+03  0.12633654220E+03  0.00000000000E+00 0.  1.
         -3   -1    0    0    0  501 -0.00000000000E+00 -0.00000000000E+00 -0.16000519193E+03  0.16000519193E+03  0.00000000000E+00 0.  1.
         23    2    1    2    0    0 -0.37988317471E+02  0.36218205734E+01 -0.84307453840E+02  0.13010290537E+03  0.91448287918E+02 0.  0.
         24    2    1    2    0    0  0.30173252078E+02 -0.50464477107E+02  0.28498136484E+02  0.10384112956E+03  0.80707792776E+02 0.  0.
        -11    1    4    4    0    0  0.44574302910E+01 -0.67992510282E+02  0.24753196526E+02  0.72495316245E+02  0.00000000000E+00 0.  1.
         12    1    4    4    0    0  0.25715821787E+02  0.17528033174E+02  0.37449399576E+01  0.31345813315E+02  0.00000000000E+00 0. -1.
        -11    1    3    3    0    0  0.19592882057E+02  0.29604783027E+02 -0.24701622365E+02  0.43249212164E+02  0.00000000000E+00 0. -1.
         11    1    3    3    0    0 -0.57581199528E+02 -0.25982962454E+02 -0.59605831474E+02  0.86853693201E+02  0.00000000000E+00 0.  1.
         -4    1    1    2    0  502  0.78150653931E+01  0.46842656534E+02  0.22140667623E+02  0.52397699196E+02  0.00000000000E+00 0.  1.
<scales pt_clust_5="13000.00000" pt_clust_6="13000.00000" pt_clust_7="13000.00000" pt_clust_8="13000.00000" pt_clust_9="47.49010"></scales>
<clustering>
<clus scale="   47.490">  1  9  2 -1</clus>
<clus scale="   80.708">  5  6 -1 -1</clus>
<clus scale="   89.742">  1  5  2 -1</clus>
<clus scale="   91.448">  7  8 -1 -1</clus>
<clus scale="   47.490">  1  5  2 -1</clus>
</clustering>
</event>
<event>
 9    2  0.1665830E-004  0.1625938E+03  0.7546771E-02  0.1202910E+00
         21   -1    0    0  501  502  0.00000000000E+00  0.00000000000E+00  0.51405883239E+02  0.51405883239E+02  0.00000000000E+00 0.  1.
          2   -1    0    0  502    0 -0.00000000000E+00 -0.00000000000E+00 -0.89703327642E+03  0.89703327642E+03  0.00000000000E+00 0. -1.
         24    2    1    2    0    0  0.74097450660E+02 -0.34817558946E+02 -0.19386793992E+03  0.22375472781E+03  0.76017797137E+02 0.  0.
         23    2    1    2    0    0  0.53251974739E+02  0.11779891361E+03 -0.26623618772E+03  0.31027887006E+03  0.93160682125E+02 0.  0.
        -11    1    3    3    0    0  0.90031716911E+02 -0.27264774807E+02 -0.16466701554E+03  0.18964256907E+03  0.00000000000E+00 0.  1.
         12    1    3    3    0    0 -0.15934266252E+02 -0.75527841394E+01 -0.29200924379E+02  0.34112158739E+02  0.00000000000E+00 0. -1.
        -13    1    4    4    0    0  0.28920073176E+02  0.49001317452E+02 -0.21160458185E+03  0.21912096842E+03  0.00000000000E+00 0. -1.
         13    1    4    4    0    0  0.24331901562E+02  0.68797596155E+02 -0.54631605869E+02  0.91157901634E+02  0.00000000000E+00 0.  1.
          1    1    1    2  501    0 -0.12734942540E+03 -0.82981354662E+02 -0.38552326555E+03  0.41440556180E+03  0.00000000000E+00 0. -1.
<scales pt_clust_5="13000.00000" pt_clust_6="13000.00000" pt_clust_7="13000.00000" pt_clust_8="13000.00000" pt_clust_9="133.25861"></scales>
<clustering>
<clus scale="   76.018">  5  6 -1 -1</clus>
<clus scale="   93.161">  7  8 -1 -1</clus>
<clus scale="  111.720">  2  5  1 -1</clus>
<clus scale="  133.259">  1  9  2 -1</clus>
<clus scale="  133.259">  1  5  2 -1</clus>
</clustering>
</event>
<event>
 9    2  0.1967965E-004  0.1882268E+03  0.7546771E-02  0.1161323E+00
          2   -1    0    0  502    0 -0.00000000000E+00  0.00000000000E+00  0.11561807713E+04  0.11561807713E+04  0.00000000000E+00 0. -1.
         21   -1    0    0  501  502  0.00000000000E+00 -0.00000000000E+00 -0.21780718597E+03  0.21780718597E+03  0.00000000000E+00 0.  1.
         24    2    1    2    0    0 -0.24830744048E+02 -0.16167985505E+03  0.10489824259E+04  0.10646627684E+04  0.79910819984E+02 0.  0.
         23    2    1    2    0    0 -0.35471170916E+02  0.18508232647E+03 -0.39549111982E+02  0.21323418182E+03  0.91602469940E+02 0.  0.
        -11    1    3    3    0    0 -0.21011289025E+02 -0.10193520287E+02  0.64736303007E+02  0.68819844880E+02  0.00000000000E+00 0.  1.
         12    1    3    3    0    0 -0.38194550232E+01 -0.15148633476E+03  0.98424612286E+03  0.99584292347E+03  0.00000000000E+00 0. -1.
        -13    1    4    4    0    0  0.18683794752E+02  0.12818065590E+03 -0.36682366090E+02  0.13462897428E+03  0.00000000000E+00 0. -1.
         13    1    4    4    0    0 -0.54154965668E+02  0.56901670568E+02 -0.28667458920E+01  0.78605207537E+02  0.00000000000E+00 0.  1.
          1    1    1    2  501    0  0.60301914964E+02 -0.23402471422E+02 -0.71059728580E+02  0.96091007086E+02  0.00000000000E+00 0. -1.
<scales pt_clust_5="13000.00000" pt_clust_6="13000.00000" pt_clust_7="13000.00000" pt_clust_8="13000.00000" pt_clust_9="64.68382"></scales>
<clustering>
<clus scale="   64.684">  2  9  1 -1</clus>
<clus scale="   79.911">  5  6 -1 -1</clus>
<clus scale="   91.602">  7  8 -1 -1</clus>
<clus scale="  182.822">  1  5  2 -1</clus>
<clus scale="   64.684">  2  5  1 -1</clus>
</clustering>
</event>
<event>
 9    2  0.1665830E-004  0.1071064E+03  0.7546771E-02  0.1266196E+00
         21   -1    0    0  501  502  0.00000000000E+00  0.00000000000E+00  0.83089655957E+03  0.83089655957E+03  0.00000000000E+00 0. -1.
          2   -1    0    0  502    0 -0.00000000000E+00 -0.00000000000E+00 -0.59907617569E+02  0.59907617569E+02  0.00000000000E+00 0. -1.
         24    2    1    2    0    0 -0.73104855969E+02 -0.15824649923E+02  0.15897112895E+02  0.11525580754E+03  0.86234815827E+02 0.  0.
         23    2    1    2    0    0 -0.86897464927E+01  0.30477277430E+02  0.34561906677E+03  0.35772903116E+03  0.86678395722E+02 0.  0.
        -11    1    3    3    0    0 -0.55128901606E+02  0.17112796260E+02  0.40385273818E+02  0.70448661658E+02  0.00000000000E+00 0.  1.
         12    1    3    3    0    0 -0.17975954363E+02 -0.32937446183E+02 -0.24488160922E+02  0.44807145877E+02  0.00000000000E+00 0. -1.
        -13    1    4    4    0    0 -0.46565363952E+02  0.12756613928E+02  0.14596034044E+03  0.15373836639E+03  0.00000000000E+00 0. -1.
         13    1    4    4    0    0  0.37875617460E+02  0.17720663502E+02  0.19965872633E+03  0.20399066477E+03  0.00000000000E+00 0.  1.
          1    1    1    2  501    0  0.81794602462E+02 -0.14652627507E+02  0.40947276233E+03  0.41781933844E+03  0.00000000000E+00 0. -1.
<scales pt_clust_5="13000.00000" pt_clust_6="13000.00000" pt_clust_7="13000.00000" pt_clust_8="13000.00000" pt_clust_9="83.09667"></scales>
<clustering>
<clus scale="   83.097">  1  9  2 -1</clus>
<clus scale="   86.235">  5  6 -1 -1</clus>
<clus scale="   86.678">  7  8 -1 -1</clus>
<clus scale="  106.748">  2  5  1 -1</clus>
<clus scale="   83.097">  1  5  2 -1</clus>
</clustering>
</event>
<event>
 9    2  0.1665830E-004  0.1099035E+03  0.7546771E-02  0.1265073E+00
         -1   -1    0    0    0  501 -0.00000000000E+00  0.00000000000E+00  0.11604696599E+03  0.11604696599E+03  0.00000000000E+00 0.  1.
         21   -1    0    0  501  502  0.00000000000E+00 -0.00000000000E+00 -0.19330991872E+03  0.19330991872E+03  0.00000000000E+00 0.  1.
         23    2    1    2    0    0  0.15587192846E+02 -0.40688939020E+02 -0.96676840346E+01  0.10248254238E+03  0.92253222378E+02 0.  0.
         24    2    1    2    0    0 -0.64769865557E+02  0.70470752752E+02 -0.78755430728E+02  0.14830437612E+03  0.81427929054E+02 0.  0.
        -11    1    4    4    0    0 -0.81098009695E+02  0.48836076666E+02 -0.44449729255E+02  0.10458311523E+03  0.00000000000E+00 0.  1.
         12    1    4    4    0    0  0.16328144138E+02  0.21634676086E+02 -0.34305701473E+02  0.43721260891E+02  0.00000000000E+00 0. -1.
        -11    1    3    3    0    0  0.17612698896E+01 -0.68070458914E+02 -0.18500957897E+02  0.70561851531E+02  0.00000000000E+00 0.  1.
         11    1    3    3    0    0  0.13825922957E+02  0.27381519894E+02  0.88332738619E+01  0.31920690851E+02  0.00000000000E+00 0. -1.
         -2    1    1    2    0  502  0.49182672711E+02 -0.29781813731E+02  0.11160162030E+02  0.58569966200E+02  0.00000000000E+00 0.  1.
<scales pt_clust_5="13000.00000" pt_clust_6="13000.00000" pt_clust_7="13000.00000" pt_clust_8="13000.00000" pt_clust_9="57.49691"></scales>
<clustering>
<clus scale="   57.497">  2  9  1 -1</clus>
<clus scale="   81.428">  5  6 -1 -1</clus>
<clus scale="   92.253">  7  8 -1 -1</clus>
<clus scale="  100.988">  2  5  1 -1</clus>
<clus scale="   57.497">  2  5  1 -1</clus>
</clustering>
</event>
<event>
 9    2  0.1665830E-004  0.1499944E+03  0.7546771E-02  0.1202106E+00
         21   -1    0    0  501  502  0.00000000000E+00  0.00000000000E+00  0.70504371711E+02  0.70504371711E+02  0.00000000000E+00 0. -1.
          2   -1    0    0  502    0 -0.00000000000E+00 -0.00000000000E+00 -0.53300871796E+03  0.53300871796E+03  0.00000000000E+00 0. -1.
         24    2    1    2    0    0 -0.83961850157E+02  0.59394494410E+02 -0.22032918121E+03  0.25702748385E+03  0.83311950622E+02 0.  0.
         23    2    1    2    0    0  0.13782588747E+03 -0.75669559266E+02 -0.13972976770E+03  0.22960416295E+03  0.92042415244E+02 0.  0.
        -11    1    3    3    0    0 -0.66553733619E+02  0.14620366133E+02 -0.18570261985E+03  0.19780954877E+03  0.00000000000E+00 0.  1.
         12    1    3    3    0    0 -0.17408116537E+02  0.44774128277E+02 -0.34626561357E+02  0.59217935086E+02  0.00000000000E+00 0. -1.
        -11    1    4    4    0    0  0.63646558398E+02 -0.18293332604E+02 -0.63102696926E+01  0.66523303565E+02  0.00000000000E+00 0.  1.
         11    1    4    4    0    0  0.74179329071E+02 -0.57376226662E+02 -0.13341949801E+03  0.16308085938E+03  0.00000000000E+00 0. -1.
          1    1    1    2  501    0 -0.53864037312E+02  0.16275064856E+02 -0.10244539735E+03  0.11688144288E+03  0.00000000000E+00 0. -1.
<scales pt_clust_5="13000.00000" pt_clust_6="13000.00000" pt_clust_7="13000.00000" pt_clust_8="13000.00000" pt_clust_9="56.26913"></scales>
<clustering>
<clus scale="   56.269">  1  9  2 -1</clus>
<clus scale="   83.312">  5  6 -1 -1</clus>
<clus scale="   92.042">  7  8 -1 -1</clus>
<clus scale="  144.801">  2  5  1 -1</clus>
<clus scale="   56.269">  1  5  2 -1</clus>
</clustering>
</event>
<event>
 9    2  0.1665830E-004  0.1806238E+03  0.7546771E-02  0.1169002E+00
         21   -1    0    0  501  502  0.00000000000E+00  0.00000000000E+00  0.31921448838E+03  0.31921448838E+03  0.00000000000E+00 0.  1.
          2   -1    0    0  502    0 -0.00000000000E+00 -0.00000000000E+00 -0.11179396220E+04  0.11179396220E+04  0.00000000000E+00 0. -1.
         24    2    1    2    0    0 -0.14735531000E+03 -0.41804454687E+02 -0.31994460005E+03  0.36386947794E+03  0.81087915604E+02 0.  0.
         23    2    1    2    0    0 -0.16774231193E+02 -0.15306283246E+03  0.24655826434E+03  0.30450108836E+03  0.90666033244E+02 0.  0.
        -13    1    3    3    0    0 -0.13123194173E+03 -0.19499175708E+02 -0.19449656942E+03  0.23543779624E+03  0.00000000000E+00 0.  1.
         14    1    3    3    0    0 -0.16123368275E+02 -0.22305278979E+02 -0.12544803063E+03  0.12843168170E+03  0.00000000000E+00 0. -1.
        -11    1    4    4    0    0 -0.43178416475E+02 -0.30838315032E+02  0.85049308512E+02  0.10024351451E+03  0.00000000000E+00 0. -1.
         11    1    4    4    0    0  0.26404185282E+02 -0.12222451743E+03  0.16150895583E+03  0.20425757385E+03  0.00000000000E+00 0.  1.
          1    1    1    2  501    0  0.16412954119E+03  0.19486728715E+03 -0.72533879793E+03  0.76878354410E+03  0.00000000000E+00 0. -1.
<scales pt_clust_5="13000.00000" pt_clust_6="13000.00000" pt_clust_7="13000.00000" pt_clust_8="13000.00000" pt_clust_9="156.21987"></scales>
<clustering>
<clus scale="   81.088">  5  6 -1 -1</clus>
<clus scale="   90.666">  7  8 -1 -1</clus>
<clus scale="  173.310">  2  5  1 -1</clus>
<clus scale="  156.220">  1  9  2 -1</clus>
<clus scale="  156.220">  1  5  2 -1</clus>
</clustering>
</event>
<event>
 9    2  0.1665830E-004  0.1176669E+03  0.7546771E-02  0.1249115E+00
          2   -1    0    0  502    0 -0.00000000000E+00  0.00000000000E+00  0.31231959669E+03  0.31231959669E+03  0.00000000000E+00 0. -1.
         21   -1    0    0  501  502  0.00000000000E+00 -0.00000000000E+00 -0.33561313246E+03  0.33561313246E+03  0.00000000000E+00 0. -1.
         24    2    1    2    0    0 -0.18815062350E+02 -0.71168523832E+02  0.22333549569E+03  0.25086107756E+03  0.87370310994E+02 0.  0.
         23    2    1    2    0    0 -0.22172185114E+02  0.68889036912E+02  0.26192844915E+02  0.12117868912E+03  0.93599702844E+02 0.  0.
        -11    1    3    3    0    0  0.30797894514E+02 -0.21369978516E+02  0.12126511907E+03  0.12692681116E+03  0.00000000000E+00 0.  1.
         12    1    3    3    0    0 -0.49612956865E+02 -0.49798545316E+02  0.10207037662E+03  0.12393426640E+03  0.00000000000E+00 0. -1.
        -11    1    4    4    0    0 -0.18188542384E+02  0.28639986709E+02  0.59692981039E+02  0.68660934293E+02  0.00000000000E+00 0. -1.
         11    1    4    4    0    0 -0.39836427305E+01  0.40249050203E+02 -0.33500136124E+02  0.52517754826E+02  0.00000000000E+00 0.  1.
          1    1    1    2  501    0  0.40987247465E+02  0.22794869198E+01 -0.27282187637E+03  0.27589296247E+03  0.00000000000E+00 0. -1.
<scales pt_clust_5="13000.00000" pt_clust_6="13000.00000" pt_clust_7="13000.00000" pt_clust_8="13000.00000" pt_clust_9="41.05058"></scales>
<clustering>
<clus scale="   41.051">  2  9  1 -1</clus>
<clus scale="   87.370">  5  6 -1 -1</clus>
<clus scale="   93.600">  7  8 -1 -1</clus>
<clus scale="  112.775">  1  5  2 -1</clus>
<clus scale="   41.051">  2  5  1 -1</clus>
</clustering>
</event>
<event>
 9    2  0.1665830E-004  0.1748071E+03  0.7546771E-02  0.1184415E+00
         21   -1    0    0  501  502  0.00000000000E+00  0.00000000000E+00  0.15402502663E+03  0.15402502663E+03  0.00000000000E+00 0.  1.
          2   -1    0    0  502    0 -0.00000000000E+00 -0.00000000000E+00 -0.55822461622E+03  0.55822461622E+03  0.00000000000E+00 0. -1.
         23    2    1    2    0    0  0.42778092375E+02  0.91496365587E+02 -0.79387321979E+02  0.15655695153E+03  0.89477271303E+02 0.  0.
         24    2    1    2    0    0  0.13084636404E+03  0.31070261015E+02  0.33522674915E+01  0.16471955679E+03  0.95053472259E+02 0.  0.
        -11    1    4    4    0    0  0.14560008361E+03  0.33837345395E+02  0.53515917903E+01  0.14957603360E+03  0.00000000000E+00 0.  1.
         12    1    4    4    0    0 -0.14753719569E+02 -0.27670843801E+01 -0.19993242988E+01  0.15143523194E+02  0.00000000000E+00 0. -1.
        -13    1    3    3    0    0  0.48575072395E+02  0.60204798247E+02 -0.93831834899E+02  0.12160825889E+03  0.00000000000E+00 0. -1.
         13    1    3    3    0    0 -0.57969800202E+01  0.31291567340E+02  0.14444512920E+02  0.34948692643E+02  0.00000000000E+00 0.  1.
          1    1    1    2  501    0 -0.17362445642E+03 -0.12256662660E+03 -0.32816453510E+03  0.39097313453E+03  0.00000000000E+00 0. -1.
<scales pt_clust_5="13000.00000" pt_clust_6="13000.00000" pt_clust_7="13000.00000" pt_clust_8="13000.00000" pt_clust_9="146.70514"></scales>
<clustering>
<clus scale="   89.477">  7  8 -1 -1</clus>
<clus scale="   95.053">  5  6 -1 -1</clus>
<clus scale="  134.936">  2  7  1 -1</clus>
<clus scale="  146.705">  1  9  2 -1</clus>
<clus scale="  146.705">  1  5  2 -1</clus>
</clustering>
</event>
<event>
 9    2  0.1665830E-004  0.2186785E+03  0.7546771E-02  0.1135610E+00
          2   -1    0    0  502    0 -0.00000000000E+00  0.00000000000E+00  0.88305818832E+03  0.88305818832E+03  0.00000000000E+00 0. -1.
         21   -1    0    0  501  502  0.00000000000E+00 -0.00000000000E+00 -0.87909310748E+02  0.87909310748E+02  0.00000000000E+00 0. -1.
         24    2    1    2    0    0 -0.99133085733E+02  0.16216331701E+03  0.44489044362E+03  0.49038298149E+03  0.80147686465E+02 0.  0.
         23    2    1    2    0    0  0.84110867787E+02 -0.21020726741E+03  0.17971809422E+03  0.30277030082E+03  0.90052919545E+02 0.  0.
        -13    1    3    3    0    0 -0.13486985429E+02  0.41258521687E+02  0.19582529571E+03  0.20057844058E+03  0.00000000000E+00 0.  1.
         14    1    3    3    0    0 -0.85646100304E+02  0.12090479532E+03  0.24906514791E+03  0.28980454091E+03  0.00000000000E+00 0. -1.
        -13    1    4    4    0    0  0.28530221402E+02 -0.13973339770E+03  0.63984304723E+02  0.15631182686E+03  0.00000000000E+00 0. -1.
         13    1    4    4    0    0  0.55580646385E+02 -0.70473869715E+02  0.11573378949E+03  0.14645847396E+03  0.00000000000E+00 0.  1.
          1    1    1    2  501    0  0.15022217946E+02  0.48043950404E+02  0.17054033974E+03  0.17781421676E+03  0.00000000000E+00 0. -1.
<scales pt_clust_5="13000.00000" pt_clust_6="13000.00000" pt_clust_7="13000.00000" pt_clust_8="13000.00000" pt_clust_9="50.33777"></scales>
<clustering>
<clus scale="   50.338">  2  9  1 -1</clus>
<clus scale="   80.148">  5  6 -1 -1</clus>
<clus scale="   90.053">  7  8 -1 -1</clus>
<clus scale="  214.789">  1  5  2 -1</clus>
<clus scale="   50.338">  2  5  1 -1</clus>
</clustering>
</event>
<event>
 9    2  0.1665830E-004  0.9368345E+02  0.7546771E-02  0.1301950E+00
          2   -1    0    0  502    0 -0.00000000000E+00  0.00000000000E+00  0.18101877137E+03  0.18101877137E+03  0.00000000000E+00 0. -1.
         21   -1    0    0  501  502  0.00000000000E+00 -0.00000000000E+00 -0.69041372734E+02  0.69041372734E+02  0.00000000000E+00 0.  1.
         23    2    1    2    0    0 -0.12087593149E+02 -0.61272966592E+01  0.11114220039E+03  0.14507032433E+03  0.92245089961E+02 0.  0.
         24    2    1    2    0    0  0.26626758698E+02 -0.85949745468E+01 -0.62229678253E+00  0.84247185030E+02  0.79462840787E+02 0.  0.
        -13    1    4    4    0    0  0.45169201853E+02 -0.30840060860E+02 -0.51513511313E+01  0.54935440003E+02  0.00000000000E+00 0.  1.
         14    1    4    4    0    0 -0.18542443154E+02  0.22245086313E+02  0.45290543487E+01  0.29311745027E+02  0.00000000000E+00 0. -1.
        -11    1    3    3    0    0  0.38616419187E+02 -0.68514070430E+01  0.29965779714E+02  0.49357041678E+02  0.00000000000E+00 0.  1.
         11    1    3    3    0    0 -0.50704012336E+02  0.72411038378E+00  0.81176420673E+02  0.95713282652E+02  0.00000000000E+00 0. -1.
          1    1    1    2  501    0 -0.14539165550E+02  0.14722271206E+02  0.14574950322E+01  0.20742634744E+02  0.00000000000E+00 0. -1.
<scales pt_clust_5="13000.00000" pt_clust_6="13000.00000" pt_clust_7="13000.00000" pt_clust_8="13000.00000" pt_clust_9="20.69137"></scales>
<clustering>
<clus scale="   20.691">  2  9  1 -1</clus>
<clus scale="   79.463">  5  6 -1 -1</clus>
<clus scale="   81.128">  2  5  1 -1</clus>
<clus scale="   92.245">  7  8 -1 -1</clus>
<clus scale="   20.691">  2  5  1 -1</clus>
</clustering>
</event>
<event>
 9    2  0.1665830E-004  0.2234515E+03  0.7546771E-02  0.1132208E+00
         21   -1    0    0  501  502  0.00000000000E+00  0.00000000000E+00  0.11474136366E+03  0.11474136366E+03  0.00000000000E+00 0. -1.
          2   -1    0    0  502    0 -0.00000000000E+00 -0.00000000000E+00 -0.77395726687E+03  0.77395726687E+03  0.00000000000E+00 0. -1.
         24    2    1    2    0    0 -0.11849165141E+03 -0.88611411284E+02 -0.96563609542E+02  0.19365176464E+03  0.79273082423E+02 0.  0.
         23    2    1    2    0    0  0.22195316567E+03  0.14442984423E+03 -0.31932428928E+03  0.42480900750E+03  0.91495920560E+02 0.  0.
        -13    1    3    3    0    0 -0.45077525459E+02 -0.81666517665E+02 -0.63455966172E+02  0.11281871765E+03  0.00000000000E+00 0.  1.
         14    1    3    3    0    0 -0.73414125948E+02 -0.69448936188E+01 -0.33107643369E+02  0.80833046990E+02  0.00000000000E+00 0. -1.
        -13    1    4    4    0    0  0.20057160217E+03  0.89577829433E+02 -0.23202024490E+03  0.31950985769E+03  0.00000000000E+00 0. -1.
         13    1    4    4    0    0  0.21381563499E+02  0.54852014800E+02 -0.87304044383E+02  0.10529914981E+03  0.00000000000E+00 0.  1.
          1    1    1    2  501    0 -0.10346151426E+03 -0.55818432949E+02 -0.24332800439E+03  0.27023785840E+03  0.00000000000E+00 0. -1.
<scales pt_clust_5="13000.00000" pt_clust_6="13000.00000" pt_clust_7="13000.00000" pt_clust_8="13000.00000" pt_clust_9="117.55848"></scales>
<clustering>
<clus scale="   79.273">  5  6 -1 -1</clus>
<clus scale="   91.496">  7  8 -1 -1</clus>
<clus scale="  117.558">  1  9  2 -1</clus>
<clus scale="  218.731">  2  5  1 -1</clus>
<clus scale="  117.558">  1  5  2 -1</clus>
</clustering>
</event>
<event>
 9    2  0.1665830E-004  0.1250980E+03  0.7546771E-02  0.1238088E+00
          2   -1    0    0  502    0 -0.00000000000E+00  0.00000000000E+00  0.19391179754E+04  0.19391179754E+04  0.00000000000E+00 0. -1.
         21   -1    0    0  501  502  0.00000000000E+00 -0.00000000000E+00 -0.28651747409E+02  0.28651747409E+02  0.00000000000E+00 0. -1.
         24    2    1    2    0    0  0.66192865104E+02  0.70363139453E+02  0.12376902123E+04  0.12441098226E+04  0.81238674957E+02 0.  0.
         23    2    1    2    0    0 -0.41183522135E+02  0.31553551000E+02  0.11567234183E+03  0.15675868970E+03  0.92203508922E+02 0.  0.
        -11    1    3    3    0    0  0.40089227039E+02  0.25849623665E+02  0.21998561513E+03  0.22509780104E+03  0.00000000000E+00 0.  1.
         12    1    3    3    0    0  0.26103638065E+02  0.44513515788E+02  0.10177045972E+04  0.10190120216E+04  0.00000000000E+00 0. -1.
        -13    1    4    4    0    0 -0.43661067679E+02  0.53263682193E+02  0.43755813137E+02  0.81595832338E+02  0.00000000000E+00 0. -1.
         13    1    4    4    0    0  0.24775455445E+01 -0.21710131193E+02  0.71916528692E+02  0.75162857366E+02  0.00000000000E+00 0.  1.
          1    1    1    2  501    0 -0.25009342969E+02 -0.10191669045E+03  0.55710367388E+03  0.56690121051E+03  0.00000000000E+00 0. -1.
<scales pt_clust_5="13000.00000" pt_clust_6="13000.00000" pt_clust_7="13000.00000" pt_clust_8="13000.00000" pt_clust_9="104.94041"></scales>
<clustering>
<clus scale="   81.239">  5  6 -1 -1</clus>
<clus scale="   92.204">  7  8 -1 -1</clus>
<clus scale="  104.940">  2  9  1 -1</clus>
<clus scale="  117.251">  1  5  2 -1</clus>
<clus scale="  104.940">  2  5  1 -1</clus>
</clustering>
</event>
<event>
 9    2  0.1665830E-004  0.1684553E+03  0.7546771E-02  0.1180908E+00
          2   -1    0    0  502    0 -0.00000000000E+00  0.00000000000E+00  0.57530364195E+03  0.57530364195E+03  0.00000000000E+00 0. -1.
         21   -1    0    0  501  502  0.00000000000E+00 -0.00000000000E+00 -0.26111687038E+03  0.26111687038E+03  0.00000000000E+00 0.  1.
         24    2    1    2    0    0  0.10799630071E+02 -0.14858684759E+03  0.29118267955E+03  0.33704060887E+03  0.81328567382E+02 0.  0.
         23    2    1    2    0    0 -0.38811578444E+02  0.62064726939E+02 -0.21483054338E+03  0.24475064276E+03  0.91609747363E+02 0.  0.
        -13    1    3    3    0    0  0.27901196199E+02 -0.29933702956E+02  0.12918248709E+03  0.13550873881E+03  0.00000000000E+00 0.  1.
         14    1    3    3    0    0 -0.17101566129E+02 -0.11865314463E+03  0.16200019246E+03  0.20153187007E+03  0.00000000000E+00 0. -1.
        -11    1    4    4    0    0  0.28522347947E+02  0.18523306778E+02 -0.91789197291E+02  0.97887149135E+02  0.00000000000E+00 0. -1.
         11    1    4    4    0    0 -0.67333926391E+02  0.43541420161E+02 -0.12304134608E+03  0.14686349362E+03  0.00000000000E+00 0.  1.
          1    1    1    2  501    0  0.28011948373E+02  0.86522120647E+02  0.23783463540E+03  0.25462926071E+03  0.00000000000E+00 0. -1.
<scales pt_clust_5="13000.00000" pt_clust_6="13000.00000" pt_clust_7="13000.00000" pt_clust_8="13000.00000" pt_clust_9="90.94369"></scales>
<clustering>
<clus scale="   81.329">  5  6 -1 -1</clus>
<clus scale="   90.944">  2  9  1 -1</clus>
<clus scale="   91.610">  7  8 -1 -1</clus>
<clus scale="  163.093">  1  5  2 -1</clus>
<clus scale="   90.944">  2  5  1 -1</clus>
</clustering>
</event>
<event>
 9    2  0.1665830E-004  0.1182516E+03  0.7546771E-02  0.1250051E+00
         21   -1    0    0  501  502  0.00000000000E+00  0.00000000000E+00  0.15370951314E+03  0.15370951314E+03  0.00000000000E+00 0. -1.
          2   -1    0    0  502    0 -0.00000000000E+00 -0.00000000000E+00 -0.55035743475E+03  0.55035743475E+03  0.00000000000E+00 0. -1.
         24    2    1    2    0    0  0.39990920951E+02  0.77657285051E+02 -0.44266907120E+03  0.45838649046E+03  0.80822895039E+02 0.  0.
         23    2    1    2    0    0  0.70637231956E+01 -0.31369724932E+02 -0.64073649359E+02  0.11731557705E+03  0.92863104888E+02 0.  0.
        -13    1    3    3    0    0  0.39334033009E+02  0.46082490114E+02 -0.12250292107E+03  0.13666648353E+03  0.00000000000E+00 0.  1.
         14    1    3    3    0    0  0.65688794275E+00  0.31574794937E+02 -0.32016615013E+03  0.32172000694E+03  0.00000000000E+00 0. -1.
        -13    1    4    4    0    0  0.16904362367E+02  0.28770291966E+02 -0.75820989331E+01  0.34219517692E+02  0.00000000000E+00 0. -1.
         13    1    4    4    0    0 -0.98406391710E+01 -0.60140016898E+02 -0.56491550426E+02  0.83096059361E+02  0.00000000000E+00 0.  1.
          1    1    1    2  501    0 -0.47054644147E+02 -0.46287560119E+02  0.11009479895E+03  0.12836488037E+03  0.00000000000E+00 0. -1.
<scales pt_clust_5="13000.00000" pt_clust_6="13000.00000" pt_clust_7="13000.00000" pt_clust_8="13000.00000" pt_clust_9="66.00513"></scales>
<clustering>
<clus scale="   66.005">  1  9  2 -1</clus>
<clus scale="   80.823">  5  6 -1 -1</clus>
<clus scale="   92.863">  7  8 -1 -1</clus>
<clus scale="  109.052">  2  5  1 -1</clus>
<clus scale="   66.005">  1  5  2 -1</clus>
</clustering>
</event>
<event>
 9    2  0.1665830E-004  0.9002109E+02  0.7546771E-02  0.1308449E+00
          2   -1    0    0  502    0 -0.00000000000E+00  0.00000000000E+00  0.72578371855E+02  0.72578371855E+02  0.00000000000E+00 0. -1.
         21   -1    0    0  501  502  0.00000000000E+00 -0.00000000000E+00 -0.35420129613E+03  0.35420129613E+03  0.00000000000E+00 0.  1.
         24    2    1    2    0    0 -0.11219507878E+01 -0.82595870318E+00  0.11575902446E+02  0.81279204369E+02  0.80438588774E+02 0.  0.
         23    2    1    2    0    0 -0.91922378022E+01 -0.50265681935E+02 -0.93295970340E+02  0.13891418571E+03  0.89341350415E+02 0.  0.
        -13    1    3    3    0    0 -0.94508469663E+01 -0.36488894713E+02 -0.97052438577E+01  0.38922354812E+02  0.00000000000E+00 0.  1.
         14    1    3    3    0    0  0.83288961785E+01  0.35662936010E+02  0.21281146304E+02  0.42356849557E+02  0.00000000000E+00 0. -1.
        -11    1    4    4    0    0  0.26589486948E+01  0.25779192756E+02 -0.21766223421E+02  0.33843836504E+02  0.00000000000E+00 0. -1.
         11    1    4    4    0    0 -0.11851186497E+02 -0.76044874692E+02 -0.71529746919E+02  0.10507034921E+03  0.00000000000E+00 0.  1.
          1    1    1    2  501    0  0.10314188590E+02  0.51091640639E+02 -0.19990285638E+03  0.20658627791E+03  0.00000000000E+00 0. -1.
<scales pt_clust_5="13000.00000" pt_clust_6="13000.00000" pt_clust_7="13000.00000" pt_clust_8="13000.00000" pt_clust_9="52.12234"></scales>
<clustering>
<clus scale="   52.122">  2  9  1 -1</clus>
<clus scale="   80.439">  5  6 -1 -1</clus>
<clus scale="   81.193">  1  5  2 -1</clus>
<clus scale="   89.341">  7  8 -1 -1</clus>
<clus scale="   52.122">  2  5  1 -1</clus>
</clustering>
</event>
<event>
 9    2  0.1665830E-004  0.1536713E+03  0.7546771E-02  0.1197961E+00
         21   -1    0    0  501  502  0.00000000000E+00  0.00000000000E+00  0.11722448131E+03  0.11722448131E+03  0.00000000000E+00 0. -1.
          2   -1    0    0  502    0 -0.00000000000E+00 -0.00000000000E+00 -0.28196407958E+03  0.28196407958E+03  0.00000000000E+00 0. -1.
         23    2    1    2    0    0  0.12223074462E+03 -0.10560334529E+02 -0.88972889849E+02  0.17665320345E+03  0.90765101037E+02 0.  0.
         24    2    1    2    0    0 -0.12213598417E+03  0.38073511979E+02 -0.97035904151E+01  0.15097196265E+03  0.79571244148E+02 0.  0.
        -11    1    4    4    0    0 -0.60988091801E+02  0.41269121004E+02  0.28318077894E+02  0.78896142020E+02  0.00000000000E+00 0.  1.
         12    1    4    4    0    0 -0.61147892369E+02 -0.31956090244E+01 -0.38021668309E+02  0.72075820628E+02  0.00000000000E+00 0. -1.
        -11    1    3    3    0    0  0.51539390020E+02 -0.49873113861E+02 -0.42506784928E+02  0.83369436695E+02  0.00000000000E+00 0.  1.
         11    1    3    3    0    0  0.70691354603E+02  0.39312779332E+02 -0.46466104921E+02  0.93283766760E+02  0.00000000000E+00 0. -1.
          1    1    1    2  501    0 -0.94760452444E-01 -0.27513177450E+02 -0.66063118003E+02  0.71563394785E+02  0.00000000000E+00 0. -1.
<scales pt_clust_5="13000.00000" pt_clust_6="13000.00000" pt_clust_7="13000.00000" pt_clust_8="13000.00000" pt_clust_9="27.51335"></scales>
<clustering>
<clus scale="   27.513">  1  9  2 -1</clus>
<clus scale="   79.571">  5  6 -1 -1</clus>
<clus scale="   90.765">  7  8 -1 -1</clus>
<clus scale="  147.337">  1  5  2 -1</clus>
<clus scale="   27.513">  1  5  2 -1</clus>
</clustering>
</event>
<event>
 9    2  0.1665830E-004  0.9610886E+02  0.7546771E-02  0.1294478E+00
          4   -1    0    0  502    0 -0.00000000000E+00  0.00000000000E+00  0.34520638845E+03  0.34520638845E+03  0.00000000000E+00 0. -1.
         21   -1    0    0  501  502  0.00000000000E+00 -0.00000000000E+00 -0.10588734254E+03  0.10588734254E+03  0.00000000000E+00 0. -1.
         24    2    1    2    0    0  0.31730730982E+02 -0.11336842054E+02  0.23316270423E+03  0.24886586757E+03  0.80212281588E+02 0.  0.
         23    2    1    2    0    0  0.35516397872E+01  0.54639310075E+02  0.62397780555E+02  0.12296217810E+03  0.90709127848E+02 0.  0.
        -13    1    3    3    0    0 -0.24913689479E+02  0.33950291811E+01  0.10504193880E+03  0.10800938410E+03  0.00000000000E+00 0.  1.
         14    1    3    3    0    0  0.56644420461E+02 -0.14731871235E+02  0.12812076543E+03  0.14085648346E+03  0.00000000000E+00 0. -1.
        -13    1    4    4    0    0 -0.21011291037E+02 -0.15947768083E+02  0.33948577105E+02  0.42991993968E+02  0.00000000000E+00 0.  1.
         13    1    4    4    0    0  0.24562930824E+02  0.70587078158E+02  0.28449203450E+02  0.79970184135E+02  0.00000000000E+00 0. -1.
          3    1    1    2  501    0 -0.35282370769E+02 -0.43302468021E+02 -0.56241438876E+02  0.79265685329E+02  0.00000000000E+00 0. -1.
<scales pt_clust_5="13000.00000" pt_clust_6="13000.00000" pt_clust_7="13000.00000" pt_clust_8="13000.00000" pt_clust_9="55.85651"></scales>
<clustering>
<clus scale="   55.857">  2  9  1 -1</clus>
<clus scale="   80.212">  5  6 -1 -1</clus>
<clus scale="   86.272">  1  5  2 -1</clus>
<clus scale="   90.709">  7  8 -1 -1</clus>
<clus scale="   55.857">  2  5  1 -1</clus>
</clustering>
</event>
<event>
 9    2  0.1665830E-004  0.1548418E+03  0.7546771E-02  0.1221907E+00
          2   -1    0    0  502    0 -0.00000000000E+00  0.00000000000E+00  0.80029452348E+02  0.80029452348E+02  0.00000000000E+00 0. -1.
         21   -1    0    0  501  502  0.00000000000E+00 -0.00000000000E+00 -0.11058346527E+04  0.11058346527E+04  0.00000000000E+00 0. -1.
         24    2    1    2    0    0  0.22783861072E+02 -0.20143936538E+02 -0.26079689844E+03  0.27472361514E+03  0.80827965294E+02 0.  0.
         23    2    1    2    0    0 -0.96736423450E+02  0.11980278845E+03 -0.49442956743E+02  0.18489354055E+03  0.89612340793E+02 0.  0.
        -11    1    3    3    0    0  0.52582181893E+02 -0.16101169694E+02 -0.19016630029E+03  0.19795796342E+03  0.00000000000E+00 0.  1.
         12    1    3    3    0    0 -0.29798320821E+02 -0.40427668440E+01 -0.70630598154E+02  0.76765651714E+02  0.00000000000E+00 0. -1.
        -11    1    4    4    0    0 -0.37386549931E+02  0.90441879692E+02 -0.64213639977E+02  0.11705075513E+03  0.00000000000E+00 0.  1.
         11    1    4    4    0    0 -0.59349873519E+02  0.29360908762E+02  0.14770683234E+02  0.67842785418E+02  0.00000000000E+00 0. -1.
          1    1    1    2  501    0  0.73952562378E+02 -0.99658851917E+02 -0.71556534517E+03  0.72624694936E+03  0.00000000000E+00 0. -1.
<scales pt_clust_5="13000.00000" pt_clust_6="13000.00000" pt_clust_7="13000.00000" pt_clust_8="13000.00000" pt_clust_9="126.27594"></scales>
<clustering>
<clus scale="   80.828">  5  6 -1 -1</clus>
<clus scale="   86.360">  1  5  2 -1</clus>
<clus scale="   89.612">  7  8 -1 -1</clus>
<clus scale="  126.276">  2  9  1 -1</clus>
<clus scale="  126.276">  2  5  1 -1</clus>
</clustering>
</event>
<event>
 9    2  0.1665830E-004  0.1303057E+03  0.7546771E-02  0.1244021E+00
         -3   -1    0    0    0  501 -0.00000000000E+00  0.00000000000E+00  0.12341490037E+03  0.12341490037E+03  0.00000000000E+00 0.  1.
         21   -1    0    0  501  502  0.00000000000E+00 -0.00000000000E+00 -0.24339374383E+03  0.24339374383E+03  0.00000000000E+00 0.  1.
         24    2    1    2    0    0 -0.23806687859E+02 -0.26446949804E+02  0.17158429292E+02  0.93575659217E+02  0.84828018729E+02 0.  0.
         23    2    1    2    0    0  0.96549752793E+02 -0.31878827396E+02 -0.47095432148E+02  0.14361437967E+03  0.89827589959E+02 0.  0.
        -11    1    3    3    0    0 -0.85697003208E+01 -0.46503037054E+02  0.38174222757E+02  0.60772061854E+02  0.00000000000E+00 0.  1.
         12    1    3    3    0    0 -0.15236987538E+02  0.20056087251E+02 -0.21015793465E+02  0.32803597364E+02  0.00000000000E+00 0. -1.
        -11    1    4    4    0    0  0.68775250194E+02 -0.59471927429E+02 -0.51033452915E+02  0.10426580699E+03  0.00000000000E+00 0.  1.
         11    1    4    4    0    0  0.27774502599E+02  0.27593100033E+02  0.39380207675E+01  0.39348572676E+02  0.00000000000E+00 0. -1.
         -4    1    1    2    0  502 -0.72743064934E+02  0.58325777199E+02 -0.90041840607E+02  0.12961860531E+03  0.00000000000E+00 0.  1.
<scales pt_clust_5="13000.00000" pt_clust_6="13000.00000" pt_clust_7="13000.00000" pt_clust_8="13000.00000" pt_clust_9="94.39589"></scales>
<clustering>
<clus scale="   84.828">  5  6 -1 -1</clus>
<clus scale="   89.828">  7  8 -1 -1</clus>
<clus scale="   91.989">  1  5  2 -1</clus>
<clus scale="   94.396">  2  9  1 -1</clus>
<clus scale="   94.396">  2  5  1 -1</clus>
</clustering>
</event>
<event>
 9    2  0.1665830E-004  0.1146886E+03  0.7546771E-02  0.1255987E+00
         21   -1    0    0  501  502  0.00000000000E+00  0.00000000000E+00  0.41033427876E+02  0.41033427876E+02  0.00000000000E+00 0. -1.
          2   -1    0    0  502    0 -0.00000000000E+00 -0.00000000000E+00 -0.10934126886E+04  0.10934126886E+04  0.00000000000E+00 0. -1.
         24    2    1    2    0    0  0.40355030743E+02 -0.55924147345E+02 -0.83269326660E+02  0.13497541841E+03  0.80799406242E+02 0.  0.
         23    2    1    2    0    0 -0.28874089653E+02 -0.60553625843E+02 -0.26842580919E+03  0.28907846380E+03  0.83746573300E+02 0.  0.
        -11    1    3    3    0    0  0.32643375955E+02 -0.11929882266E+02 -0.83354899153E+02  0.90310305599E+02  0.00000000000E+00 0.  1.
         12    1    3    3    0    0  0.77116547881E+01 -0.43994265080E+02  0.85572492546E-01  0.44665112808E+02  0.00000000000E+00 0. -1.
        -13    1    4    4    0    0  0.23526376815E+02  0.42998606657E+01 -0.61455793174E+02  0.65945384391E+02  0.00000000000E+00 0.  1.
         13    1    4    4    0    0 -0.52400466468E+02 -0.64853486509E+02 -0.20697001602E+03  0.22313307941E+03  0.00000000000E+00 0. -1.
          1    1    1    2  501    0 -0.11480941090E+02  0.11647777319E+03 -0.70068412486E+03  0.71039223425E+03  0.00000000000E+00 0. -1.
<scales pt_clust_5="13000.00000" pt_clust_6="13000.00000" pt_clust_7="13000.00000" pt_clust_8="13000.00000" pt_clust_9="78.35814"></scales>
<clustering>
<clus scale="   80.799">  5  6 -1 -1</clus>
<clus scale="   83.747">  7  8 -1 -1</clus>
<clus scale="  106.229">  2  5  1 -1</clus>
<clus scale="   78.358">  1  9  2 -1</clus>
<clus scale="   78.358">  1  5  2 -1</clus>
</clustering>
</event>
<event>
 9    2  0.1665830E-004  0.2588446E+03  0.7546771E-02  0.1108313E+00
         -1   -1    0    0    0  501 -0.00000000000E+00  0.00000000000E+00  0.95086658690E+03  0.95086658690E+03  0.00000000000E+00 0.  1.
         21   -1    0    0  501  502  0.00000000000E+00 -0.00000000000E+00 -0.90277872980E+02  0.90277872980E+02  0.00000000000E+00 0.  1.
         23    2    1    2    0    0  0.55795844687E+02 -0.23479632968E+03  0.50897913414E+03  0.57057882017E+03  0.90873199134E+02 0.  0.
         24    2    1    2    0    0 -0.24832285392E+02  0.24441615098E+03  0.23531827462E+03  0.34983887954E+03  0.81588320301E+02 0.  0.
        -13    1    4    4    0    0  0.20871039366E+02  0.77719817938E+02  0.11021660726E+03  0.13646857111E+03  0.00000000000E+00 0.  1.
         14    1    4    4    0    0 -0.45703324758E+02  0.16669633304E+03  0.12510166736E+03  0.21337030843E+03  0.00000000000E+00 0. -1.
        -11    1    3    3    0    0 -0.25387323569E+02 -0.57730504488E+02  0.12137265666E+03  0.13677956401E+03  0.00000000000E+00 0. -1.
         11    1    3    3    0    0  0.81183168257E+02 -0.17706582519E+03  0.38760647748E+03  0.43379925616E+03  0.00000000000E+00 0.  1.
         -2    1    1    2    0  502 -0.30963559295E+02 -0.96198213012E+01  0.11629130515E+03  0.12072676017E+03  0.00000000000E+00 0.  1.
<scales pt_clust_5="13000.00000" pt_clust_6="13000.00000" pt_clust_7="13000.00000" pt_clust_8="13000.00000" pt_clust_9="32.42351"></scales>
<clustering>
<clus scale="   32.424">  2  9  1 -1</clus>
<clus scale="   81.588">  5  6 -1 -1</clus>
<clus scale="   90.873">  7  8 -1 -1</clus>
<clus scale="  255.733">  2  5  1 -1</clus>
<clus scale="   32.424">  2  5  1 -1</clus>
</clustering>
</event>
<event>
 9    2  0.1665830E-004  0.9710703E+02  0.7546771E-02  0.1290063E+00
          2   -1    0    0  502    0 -0.00000000000E+00  0.00000000000E+00  0.15027325821E+03  0.15027325821E+03  0.00000000000E+00 0. -1.
         21   -1    0    0  501  502  0.00000000000E+00 -0.00000000000E+00 -0.23674067432E+03  0.23674067432E+03  0.00000000000E+00 0.  1.
         23    2    1    2    0    0 -0.35969192139E+02 -0.10843560788E+02  0.97522672353E+02  0.13649175810E+03  0.87795004483E+02 0.  0.
         24    2    1    2    0    0  0.71498018656E+02 -0.26083177353E+02 -0.87743943794E+02  0.14148455768E+03  0.80787261225E+02 0.  0.
        -13    1    4    4    0    0  0.61774271736E+02 -0.34619694078E+02 -0.10074447824E+03  0.12314233132E+03  0.00000000000E+00 0.  1.
         14    1    4    4    0    0  0.97237469197E+01  0.85365167243E+01  0.13000534446E+02  0.18342226360E+02  0.00000000000E+00 0. -1.
        -11    1    3    3    0    0 -0.53864846201E+01 -0.29738547062E+02 -0.23819648574E+01  0.30316153359E+02  0.00000000000E+00 0.  1.
         11    1    3    3    0    0 -0.30582707519E+02  0.18894986275E+02  0.99904637210E+02  0.10617560474E+03  0.00000000000E+00 0. -1.
          1    1    1    2  501    0 -0.35528826517E+02  0.36926738141E+02 -0.96246144669E+02  0.10903761675E+03  0.00000000000E+00 0. -1.
<scales pt_clust_5="13000.00000" pt_clust_6="13000.00000" pt_clust_7="13000.00000" pt_clust_8="13000.00000" pt_clust_9="51.24336"></scales>
<clustering>
<clus scale="   51.243">  2  9  1 -1</clus>
<clus scale="   80.787">  5  6 -1 -1</clus>
<clus scale="   87.795">  7  8 -1 -1</clus>
<clus scale="   90.821">  2  5  1 -1</clus>
<clus scale="   51.243">  2  5  1 -1</clus>
</clustering>
</event>
<event>
 9    2  0.1665830E-004  0.1385809E+03  0.7546771E-02  0.1222961E+00
         21   -1    0    0  501  502  0.00000000000E+00  0.00000000000E+00  0.41603499802E+03  0.41603499802E+03  0.00000000000E+00 0. -1.
          2   -1    0    0  502    0 -0.00000000000E+00 -0.00000000000E+00 -0.37486537923E+03  0.37486537923E+03  0.00000000000E+00 0. -1.
         23    2    1    2    0    0  0.60923818739E+02  0.73419042781E+02 -0.27540125673E+03  0.31069891638E+03  0.10763780423E+03 0.  0.
         24    2    1    2    0    0  0.34137934918E+02 -0.95017218035E+02 -0.19952128392E+02  0.12984314379E+03  0.79167444300E+02 0.  0.
        -13    1    4    4    0    0  0.16162534691E+02 -0.97365523562E+02  0.52048500364E+01  0.98835030075E+02  0.00000000000E+00 0.  1.
         14    1    4    4    0    0  0.17975400227E+02  0.23483055267E+01 -0.25156978429E+02  0.31008113710E+02  0.00000000000E+00 0. -1.
        -11    1    3    3    0    0  0.18783951788E+02 -0.24644078328E+02 -0.30174799796E+02  0.43251427539E+02  0.00000000000E+00 0.  1.
         11    1    3    3    0    0  0.42139866951E+02  0.98063121110E+02 -0.24522645694E+03  0.26744748885E+03  0.00000000000E+00 0. -1.
          1    1    1    2  501    0 -0.95061753657E+02  0.21598175254E+02  0.33652300391E+03  0.35035831708E+03  0.00000000000E+00 0. -1.
<scales pt_clust_5="13000.00000" pt_clust_6="13000.00000" pt_clust_7="13000.00000" pt_clust_8="13000.00000" pt_clust_9="97.48445"></scales>
<clustering>
<clus scale="   79.167">  5  6 -1 -1</clus>
<clus scale="   97.484">  1  9  2 -1</clus>
<clus scale="  107.638">  7  8 -1 -1</clus>
<clus scale="  117.840">  1  5  2 -1</clus>
<clus scale="   97.484">  1  5  2 -1</clus>
</clustering>
</event>
<event>
 9    2  0.1665830E-004  0.1222752E+03  0.7546771E-02  0.1243727E+00
         21   -1    0    0  501  502  0.00000000000E+00  0.00000000000E+00  0.50190408116E+02  0.50190408116E+02  0.00000000000E+00 0.  1.
          4   -1    0    0  502    0 -0.00000000000E+00 -0.00000000000E+00 -0.50158293133E+03  0.50158293133E+03  0.00000000000E+00 0. -1.
         24    2    1    2    0    0  0.53674264606E+02  0.71767081919E+02 -0.31692213898E+03  0.33878588645E+03  0.79402732636E+02 0.  0.
         23    2    1    2    0    0 -0.48246071466E+02 -0.37924881927E+02 -0.13909429927E+03  0.17840219066E+03  0.93349544515E+02 0.  0.
        -13    1    3    3    0    0  0.57125835907E+02  0.86014900313E+02 -0.29371184430E+03  0.31133353768E+03  0.00000000000E+00 0.  1.
         14    1    3    3    0    0 -0.34515713015E+01 -0.14247818393E+02 -0.23210294682E+02  0.27452348764E+02  0.00000000000E+00 0. -1.
        -13    1    4    4    0    0  0.39200736910E+01 -0.45034616107E+02 -0.10842762654E+03  0.11747354520E+03  0.00000000000E+00 0. -1.
         13    1    4    4    0    0 -0.52166145157E+02  0.71097341799E+01 -0.30666672731E+02  0.60928645456E+02  0.00000000000E+00 0.  1.
          3    1    1    2  501    0 -0.54281931395E+01 -0.33842199992E+02  0.46239150356E+01  0.34585262343E+02  0.00000000000E+00 0. -1.
<scales pt_clust_5="13000.00000" pt_clust_6="13000.00000" pt_clust_7="13000.00000" pt_clust_8="13000.00000" pt_clust_9="34.27477"></scales>
<clustering>
<clus scale="   34.275">  1  9  2 -1</clus>
<clus scale="   79.403">  5  6 -1 -1</clus>
<clus scale="   93.350">  7  8 -1 -1</clus>
<clus scale="  111.991">  2  5  1 -1</clus>
<clus scale="   34.275">  1  5  2 -1</clus>
</clustering>
</event>
<event>
 9    2  0.1665830E-004  0.1029979E+03  0.7546771E-02  0.1277918E+00
         21   -1    0    0  501  502  0.00000000000E+00  0.00000000000E+00  0.27900149243E+02  0.27900149243E+02  0.00000000000E+00 0. -1.
          2   -1    0    0  502    0 -0.00000000000E+00 -0.00000000000E+00 -0.88765283122E+03  0.88765283122E+03  0.00000000000E+00 0. -1.
         24    2    1    2    0    0  0.17368256310E+02 -0.35242216586E+02 -0.29074648009E+03  0.30511617750E+03  0.83777657706E+02 0.  0.
         23    2    1    2    0    0 -0.90781670948E+02 -0.88283582333E+01 -0.27079774261E+03  0.30017879711E+03  0.91959997504E+02 0.  0.
        -11    1    3    3    0    0  0.40546752645E+02  0.84954911215E+01 -0.16110333285E+03  0.16634451110E+03  0.00000000000E+00 0.  1.
         12    1    3    3    0    0 -0.23178496335E+02 -0.43737707707E+02 -0.12964314724E+03  0.13877166640E+03  0.00000000000E+00 0. -1.
        -11    1    4    4    0    0  0.72176924499E+01  0.19512896443E+02 -0.92018897875E+02  0.94341537924E+02  0.00000000000E+00 0.  1.
         11    1    4    4    0    0 -0.97999363398E+02 -0.28341254676E+02 -0.17877884474E+03  0.20583725919E+03  0.00000000000E+00 0. -1.
          1    1    1    2  501    0  0.73413414638E+02  0.44070574819E+02 -0.29820845928E+03  0.31025800586E+03  0.00000000000E+00 0. -1.
<scales pt_clust_5="13000.00000" pt_clust_6="13000.00000" pt_clust_7="13000.00000" pt_clust_8="13000.00000" pt_clust_9="85.62565"></scales>
<clustering>
<clus scale="   83.778">  5  6 -1 -1</clus>
<clus scale="   85.626">  1  9  2 -1</clus>
<clus scale="   91.960">  7  8 -1 -1</clus>
<clus scale="   95.763">  2  5  1 -1</clus>
<clus scale="   85.626">  1  5  2 -1</clus>
</clustering>
</event>
<event>
 9    2  0.1809810E-004  0.1290959E+03  0.7546771E-02  0.1231980E+00
         21   -1    0    0  501  502  0.00000000000E+00  0.00000000000E+00  0.41225343634E+02  0.41225343634E+02  0.00000000000E+00 0.  1.
          2   -1    0    0  502    0 -0.00000000000E+00 -0.00000000000E+00 -0.15009579454E+04  0.15009579454E+04  0.00000000000E+00 0. -1.
         24    2    1    2    0    0  0.82818857501E+02  0.40302514958E+02 -0.13657657422E+04  0.13712212638E+04  0.80302153233E+02 0.  0.
         23    2    1    2    0    0 -0.62147727296E+02 -0.38036973186E+02 -0.93506901049E+02  0.15016202851E+03  0.92173439366E+02 0.  0.
        -13    1    3    3    0    0  0.26664789275E+02  0.36517442045E+01 -0.96426002021E+02  0.10011153824E+03  0.00000000000E+00 0.  1.
         14    1    3    3    0    0  0.56154068226E+02  0.36650770754E+02 -0.12693397401E+04  0.12711097255E+04  0.00000000000E+00 0. -1.
        -13    1    4    4    0    0 -0.79991349436E+02 -0.57457316944E+01 -0.58140594781E+02  0.99055328876E+02  0.00000000000E+00 0.  1.
         13    1    4    4    0    0  0.17843622140E+02 -0.32291241492E+02 -0.35366306267E+02  0.51106699631E+02  0.00000000000E+00 0. -1.
          1    1    1    2  501    0 -0.20671130205E+02 -0.22655417723E+01 -0.45995853696E+00  0.20799996763E+02  0.00000000000E+00 0. -1.
<scales pt_clust_5="13000.00000" pt_clust_6="13000.00000" pt_clust_7="13000.00000" pt_clust_8="13000.00000" pt_clust_9="20.79491"></scales>
<clustering>
<clus scale="   20.795">  1  9  2 -1</clus>
<clus scale="   80.302">  5  6 -1 -1</clus>
<clus scale="   92.173">  7  8 -1 -1</clus>
<clus scale="  120.906">  2  5  1 -1</clus>
<clus scale="   20.795">  1  5  2 -1</clus>
</clustering>
</event>
<event>
 9    2  0.1665830E-004  0.2383958E+03  0.7546771E-02  0.1146001E+00
         21   -1    0    0  501  502  0.00000000000E+00  0.00000000000E+00  0.11001709398E+03  0.11001709398E+03  0.00000000000E+00 0. -1.
          2   -1    0    0  502    0 -0.00000000000E+00 -0.00000000000E+00 -0.92385022610E+03  0.92385022610E+03  0.00000000000E+00 0. -1.
         23    2    1    2    0    0  0.84942317932E+02  0.33794628412E+02 -0.31161539513E+03  0.33728923039E+03  0.91118583018E+02 0.  0.
         24    2    1    2    0    0 -0.20880633670E+03 -0.18269758919E+03 -0.31542353191E+03  0.42749360123E+03  0.79248213038E+02 0.  0.
        -13    1    4    4    0    0 -0.32710198099E+02 -0.40217807724E+00 -0.55672565263E+02  0.64572078562E+02  0.00000000000E+00 0.  1.
         14    1    4    4    0    0 -0.17609613860E+03 -0.18229541111E+03 -0.25975096664E+03  0.36292152267E+03  0.00000000000E+00 0. -1.
        -13    1    3    3    0    0  0.60073168645E+02  0.10659111265E+02 -0.29149305152E+03  0.29780967300E+03  0.00000000000E+00 0.  1.
         13    1    3    3    0    0  0.24869149287E+02  0.23135517147E+02 -0.20122343607E+02  0.39479557396E+02  0.00000000000E+00 0. -1.
          1    1    1    2  501    0  0.12386401877E+03  0.14890296077E+03 -0.18679420508E+03  0.26908448845E+03  0.00000000000E+00 0. -1.
<scales pt_clust_5="13000.00000" pt_clust_6="13000.00000" pt_clust_7="13000.00000" pt_clust_8="13000.00000" pt_clust_9="224.83835"></scales>
<clustering>
<clus scale="   79.248">  5  6 -1 -1</clus>
<clus scale="   91.119">  7  8 -1 -1</clus>
<clus scale="  129.073">  2  7  1 -1</clus>
<clus scale="  224.838">  1  9  2 -1</clus>
<clus scale="  224.838">  1  5  2 -1</clus>
</clustering>
</event>
<event>
 9    2  0.1665830E-004  0.1709881E+03  0.7546771E-02  0.1192641E+00
         21   -1    0    0  501  502  0.00000000000E+00  0.00000000000E+00  0.11608727515E+03  0.11608727515E+03  0.00000000000E+00 0.  1.
         -1   -1    0    0    0  501 -0.00000000000E+00 -0.00000000000E+00 -0.10171678864E+04  0.10171678864E+04  0.00000000000E+00 0.  1.
         23    2    1    2    0    0 -0.51470647139E+02 -0.59394948143E+02 -0.65869608803E+03  0.66956737509E+03  0.90900748184E+02 0.  0.
         24    2    1    2    0    0  0.88225810925E+02 -0.95560493081E+02 -0.26172936183E+03  0.30326224737E+03  0.80932875160E+02 0.  0.
        -13    1    4    4    0    0  0.73496053284E+02 -0.10191714779E+03 -0.25772908275E+03  0.28672819003E+03  0.00000000000E+00 0.  1.
         14    1    4    4    0    0  0.14729757641E+02  0.63566547120E+01 -0.40002790819E+01  0.16534057337E+02  0.00000000000E+00 0. -1.
        -11    1    3    3    0    0 -0.39592286134E+02 -0.83959377961E+02 -0.50046396783E+03  0.50899991096E+03  0.00000000000E+00 0.  1.
         11    1    3    3    0    0 -0.11878361004E+02  0.24564429818E+02 -0.15823212020E+03  0.16056746413E+03  0.00000000000E+00 0. -1.
         -2    1    1    2    0  502 -0.36755163786E+02  0.15495544122E+03  0.19344838569E+02  0.16042553914E+03  0.00000000000E+00 0.  1.
<scales pt_clust_5="13000.00000" pt_clust_6="13000.00000" pt_clust_7="13000.00000" pt_clust_8="13000.00000" pt_clust_9="150.62141"></scales>
<clustering>
<clus scale="   80.933">  5  6 -1 -1</clus>
<clus scale="   90.901">  7  8 -1 -1</clus>
<clus scale="  120.166">  2  7  1 -1</clus>
<clus scale="  150.621">  1  9  2 -1</clus>
<clus scale="  150.621">  1  5  2 -1</clus>
</clustering>
</event>
<event>
 9    2  0.1665830E-004  0.1487978E+03  0.7546771E-02  0.1217498E+00
          2   -1    0    0  502    0 -0.00000000000E+00  0.00000000000E+00  0.74878065739E+03  0.74878065739E+03  0.00000000000E+00 0. -1.
         21   -1    0    0  501  502  0.00000000000E+00 -0.00000000000E+00 -0.66756645325E+02  0.66756645325E+02  0.00000000000E+00 0. -1.
         24    2    1    2    0    0 -0.51396468397E+02  0.49409518165E+02  0.10787055728E+03  0.15176988391E+03  0.79467874547E+02 0.  0.
         23    2    1    2    0    0  0.13456288595E+03  0.33190149673E+02  0.49602906689E+03  0.52290302260E+03  0.90410063197E+02 0.  0.
        -11    1    3    3    0    0 -0.45802468942E+02 -0.97292825666E+01  0.55143066340E+02  0.72341432566E+02  0.00000000000E+00 0.  1.
         12    1    3    3    0    0 -0.55939994553E+01  0.59138800731E+02  0.52727490941E+02  0.79428451344E+02  0.00000000000E+00 0. -1.
        -11    1    4    4    0    0  0.18650351634E+02 -0.20467652261E+02  0.35691728794E+02  0.45173663892E+02  0.00000000000E+00 0.  1.
         11    1    4    4    0    0  0.11591253432E+03  0.53657801934E+02  0.46033733810E+03  0.47772935870E+03  0.00000000000E+00 0. -1.
          1    1    1    2  501    0 -0.83166417554E+02 -0.82599667838E+02  0.78124387890E+02  0.14086439621E+03  0.00000000000E+00 0. -1.
<scales pt_clust_5="13000.00000" pt_clust_6="13000.00000" pt_clust_7="13000.00000" pt_clust_8="13000.00000" pt_clust_9="118.18119"></scales>
<clustering>
<clus scale="   79.468">  5  6 -1 -1</clus>
<clus scale="   90.410">  7  8 -1 -1</clus>
<clus scale="  106.762">  1  5  2 -1</clus>
<clus scale="  118.181">  2  9  1 -1</clus>
<clus scale="  118.181">  2  5  1 -1</clus>
</clustering>
</event>
<event>
 9    2  0.1665830E-004  0.2816597E+03  0.7546771E-02  0.1095170E+00
          2   -1    0    0  502    0 -0.00000000000E+00  0.00000000000E+00  0.23739235362E+04  0.23739235362E+04  0.00000000000E+00 0. -1.
         21   -1    0    0  501  502  0.00000000000E+00 -0.00000000000E+00 -0.38620152662E+02  0.38620152662E+02  0.00000000000E+00 0. -1.
         23    2    1    2    0    0 -0.20566207276E+03 -0.16001219873E+03  0.11371135392E+04  0.11701394525E+04  0.91095254161E+02 0.  0.
         24    2    1    2    0    0  0.19210158004E+03  0.19698849693E+03  0.10029835471E+04  0.10432645064E+04  0.81959438020E+02 0.  0.
        -13    1    4    4    0    0  0.14839755183E+03  0.16047230760E+03  0.89360428543E+03  0.91994663640E+03  0.00000000000E+00 0.  1.
         14    1    4    4    0    0  0.43704028214E+02  0.36516189330E+02  0.10937926172E+03  0.12331787000E+03  0.00000000000E+00 0. -1.
        -13    1    3    3    0    0 -0.65035840287E+02 -0.27876709635E+02  0.17311582743E+03  0.18701834447E+03  0.00000000000E+00 0.  1.
         13    1    3    3    0    0 -0.14062623248E+03 -0.13213548910E+03  0.96399771176E+03  0.98312110802E+03  0.00000000000E+00 0. -1.
          1    1    1    2  501    0  0.13560492722E+02 -0.36976298194E+02  0.19520629715E+03  0.19913972993E+03  0.00000000000E+00 0. -1.
<scales pt_clust_5="13000.00000" pt_clust_6="13000.00000" pt_clust_7="13000.00000" pt_clust_8="13000.00000" pt_clust_9="39.38445"></scales>
<clustering>
<clus scale="   39.384">  2  9  1 -1</clus>
<clus scale="   81.959">  5  6 -1 -1</clus>
<clus scale="   91.095">  7  8 -1 -1</clus>
<clus scale="  278.839">  2  5  1 -1</clus>
<clus scale="   39.384">  2  5  1 -1</clus>
</clustering>
</event>
<event>
 9    2  0.1665830E-004  0.1348961E+03  0.7546771E-02  0.1233423E+00
         21   -1    0    0  501  502  0.00000000000E+00  0.00000000000E+00  0.15851379313E+03  0.15851379313E+03  0.00000000000E+00 0. -1.
          2   -1    0    0  502    0 -0.00000000000E+00 -0.00000000000E+00 -0.39958737122E+03  0.39958737122E+03  0.00000000000E+00 0. -1.
         23    2    1    2    0    0  0.46991483110E+02 -0.22986950525E+02 -0.29784182059E+02  0.10709871060E+03  0.88580115890E+02 0.  0.
         24    2    1    2    0    0 -0.19824846759E+02 -0.81446954204E+02 -0.29261250060E+03  0.31588060533E+03  0.84450283679E+02 0.  0.
        -13    1    4    4    0    0  0.18554164615E+02 -0.48328120509E+02 -0.67141790365E+02  0.84781391059E+02  0.00000000000E+00 0.  1.
         14    1    4    4    0    0 -0.38379011374E+02 -0.33118833695E+02 -0.22547071024E+03  0.23109921427E+03  0.00000000000E+00 0. -1.
        -11    1    3    3    0    0  0.10832014532E+02 -0.52170843837E+02 -0.28914635896E+02  0.60623309498E+02  0.00000000000E+00 0. -1.
         11    1    3    3    0    0  0.36159468578E+02  0.29183893312E+02 -0.86954616312E+00  0.46475401098E+02  0.00000000000E+00 0.  1.
          1    1    1    2  501    0 -0.27166636351E+02  0.10443390473E+03  0.81323104571E+02  0.13512184843E+03  0.00000000000E+00 0. -1.
<scales pt_clust_5="13000.00000" pt_clust_6="13000.00000" pt_clust_7="13000.00000" pt_clust_8="13000.00000" pt_clust_9="105.19085"></scales>
<clustering>
<clus scale="   84.450">  5  6 -1 -1</clus>
<clus scale="   88.580">  7  8 -1 -1</clus>
<clus scale="  102.874">  2  7  1 -1</clus>
<clus scale="  105.191">  1  9  2 -1</clus>
<clus scale="  105.191">  1  5  2 -1</clus>
</clustering>
</event>
<event>
 9    2  0.1665830E-004  0.1266737E+03  0.7546771E-02  0.1235446E+00
         -3   -1    0    0    0  501 -0.00000000000E+00  0.00000000000E+00  0.38191452123E+03  0.38191452123E+03  0.00000000000E+00 0.  1.
         21   -1    0    0  501  502  0.00000000000E+00 -0.00000000000E+00 -0.13966093381E+03  0.13966093381E+03  0.00000000000E+00 0.  1.
         23    2    1    2    0    0  0.74182147460E+02  0.31233581277E+01  0.20606577440E+03  0.23708617374E+03  0.90741412993E+02 0.  0.
         24    2    1    2    0    0 -0.12096114245E+03  0.32988692965E+02  0.11357659713E+03  0.18711691093E+03  0.79957758186E+02 0.  0.
        -13    1    4    4    0    0 -0.77862669169E+02  0.75420859971E+01  0.11253840589E+03  0.13705608746E+03  0.00000000000E+00 0.  1.
         14    1    4    4    0    0 -0.43098473277E+02  0.25446606968E+02  0.10381912463E+01  0.50060823466E+02  0.00000000000E+00 0. -1.
        -13    1    3    3    0    0  0.55328323261E+02 -0.44966943331E+01  0.20926338320E+03  0.21650082486E+03  0.00000000000E+00 0.  1.
         13    1    3    3    0    0  0.18853824199E+02  0.76200524608E+01 -0.31976088054E+01  0.20585348880E+02  0.00000000000E+00 0. -1.
         -4    1    1    2    0  502  0.46778994986E+02 -0.36112051093E+02 -0.77388784116E+02  0.97372370377E+02  0.00000000000E+00 0.  1.
<scales pt_clust_5="13000.00000" pt_clust_6="13000.00000" pt_clust_7="13000.00000" pt_clust_8="13000.00000" pt_clust_9="59.09615"></scales>
<clustering>
<clus scale="   59.096">  2  9  1 -1</clus>
<clus scale="   79.958">  5  6 -1 -1</clus>
<clus scale="   90.741">  7  8 -1 -1</clus>
<clus scale="  119.187">  2  5  1 -1</clus>
<clus scale="   59.096">  2  5  1 -1</clus>
</clustering>
</event>
<event>
 9    2  0.1665830E-004  0.2528427E+03  0.7546771E-02  0.1111746E+00
         21   -1    0    0  501  502  0.00000000000E+00  0.00000000000E+00  0.20358832871E+03  0.20358832871E+03  0.00000000000E+00 0.  1.
          2   -1    0    0  502    0 -0.00000000000E+00 -0.00000000000E+00 -0.22969084905E+04  0.22969084905E+04  0.00000000000E+00 0. -1.
         24    2    1    2    0    0 -0.29524791339E+02  0.23012279156E+03 -0.18316186820E+04  0.18481972228E+04  0.84721695186E+02 0.  0.
         23    2    1    2    0    0  0.20593921555E+02 -0.25964906674E+03 -0.41387607055E+03  0.49702993594E+03  0.88902238329E+02 0.  0.
        -13    1    3    3    0    0  0.94001782171E+01  0.79141454033E+02 -0.38250429280E+03  0.39071891061E+03  0.00000000000E+00 0.  1.
         14    1    3    3    0    0 -0.38924969556E+02  0.15098133753E+03 -0.14491143892E+04  0.14574783122E+04  0.00000000000E+00 0. -1.
        -11    1    4    4    0    0 -0.32336889279E+01 -0.23871974266E+03 -0.39024058199E+03  0.45747708588E+03  0.00000000000E+00 0.  1.
         11    1    4    4    0    0  0.23827610482E+02 -0.20929324083E+02 -0.23635488566E+02  0.39552850057E+02  0.00000000000E+00 0. -1.
          1    1    1    2  501    0  0.89308697848E+01  0.29526275179E+02  0.15217459081E+03  0.15526966043E+03  0.00000000000E+00 0. -1.
<scales pt_clust_5="13000.00000" pt_clust_6="13000.00000" pt_clust_7="13000.00000" pt_clust_8="13000.00000" pt_clust_9="30.84739"></scales>
<clustering>
<clus scale="   30.847">  1  9  2 -1</clus>
<clus scale="   84.722">  5  6 -1 -1</clus>
<clus scale="   88.902">  7  8 -1 -1</clus>
<clus scale="  251.403">  2  5  1 -1</clus>
<clus scale="   30.847">  1  5  2 -1</clus>
</clustering>
</event>
<event>
 9    2  0.1665830E-004  0.1257134E+03  0.7546771E-02  0.1236865E+00
         21   -1    0    0  501  502  0.00000000000E+00  0.00000000000E+00  0.41193336659E+03  0.41193336659E+03  0.00000000000E+00 0. -1.
          2   -1    0    0  502    0 -0.00000000000E+00 -0.00000000000E+00 -0.67094672811E+02  0.67094672811E+02  0.00000000000E+00 0. -1.
         23    2    1    2    0    0  0.62663049502E+02 -0.11158742704E+02  0.11839034041E+03  0.16308584181E+03  0.92355529253E+02 0.  0.
         24    2    1    2    0    0 -0.83116445439E+02  0.82060618142E+02  0.12072789566E+03  0.18701496027E+03  0.82201472141E+02 0.  0.
        -13    1    4    4    0    0 -0.16166437794E+02  0.73541323923E+02  0.65850737951E+02  0.10002999412E+03  0.00000000000E+00 0.  1.
         14    1    4    4    0    0 -0.66950007644E+02  0.85192942184E+01  0.54877157714E+02  0.86984966151E+02  0.00000000000E+00 0. -1.
        -13    1    3    3    0    0 -0.15007678068E+02 -0.27706858873E+02  0.23262000943E+02  0.39166581641E+02  0.00000000000E+00 0.  1.
         13    1    3    3    0    0  0.77670727570E+02  0.16548116170E+02  0.95128339466E+02  0.12391926016E+03  0.00000000000E+00 0. -1.
          1    1    1    2  501    0  0.20453395937E+02 -0.70901875438E+02  0.10572045771E+03  0.12892723732E+03  0.00000000000E+00 0. -1.
<scales pt_clust_5="13000.00000" pt_clust_6="13000.00000" pt_clust_7="13000.00000" pt_clust_8="13000.00000" pt_clust_9="73.79307"></scales>
<clustering>
<clus scale="   73.793">  1  9  2 -1</clus>
<clus scale="   82.201">  5  6 -1 -1</clus>
<clus scale="   92.356">  7  8 -1 -1</clus>
<clus scale="  118.454">  1  5  2 -1</clus>
<clus scale="   73.793">  1  5  2 -1</clus>
</clustering>
</event>
<event>
 9    2  0.1665830E-004  0.9937635E+02  0.7546771E-02  0.1288316E+00
          2   -1    0    0  502    0 -0.00000000000E+00  0.00000000000E+00  0.53736918899E+02  0.53736918899E+02  0.00000000000E+00 0. -1.
         21   -1    0    0  501  502  0.00000000000E+00 -0.00000000000E+00 -0.33710639094E+03  0.33710639094E+03  0.00000000000E+00 0.  1.
         24    2    1    2    0    0  0.16661648312E+02  0.31971250689E+02 -0.76857116967E+02  0.11734484342E+03  0.81012495670E+02 0.  0.
         23    2    1    2    0    0 -0.28351542858E+02 -0.13187216282E+02 -0.22432559072E+03  0.24509415429E+03  0.93656079140E+02 0.  0.
        -11    1    3    3    0    0  0.50090919963E+01  0.55430017805E+02 -0.71501870727E+02  0.90609576723E+02  0.00000000000E+00 0.  1.
         12    1    3    3    0    0  0.11652556316E+02 -0.23458767116E+02 -0.53552462403E+01  0.26735266701E+02  0.00000000000E+00 0. -1.
        -13    1    4    4    0    0  0.13512442014E+02 -0.43158336035E+02 -0.12985021802E+03  0.13750020792E+03  0.00000000000E+00 0. -1.
         13    1    4    4    0    0 -0.41863984873E+02  0.29971119753E+02 -0.94475372705E+02  0.10759394637E+03  0.00000000000E+00 0.  1.
          1    1    1    2  501    0  0.11689894546E+02 -0.18784034407E+02  0.17813235645E+02  0.28404312124E+02  0.00000000000E+00 0. -1.
<scales pt_clust_5="13000.00000" pt_clust_6="13000.00000" pt_clust_7="13000.00000" pt_clust_8="13000.00000" pt_clust_9="22.12451"></scales>
<clustering>
<clus scale="   22.125">  2  9  1 -1</clus>
<clus scale="   81.012">  5  6 -1 -1</clus>
<clus scale="   87.563">  1  5  2 -1</clus>
<clus scale="   93.656">  7  8 -1 -1</clus>
<clus scale="   22.125">  2  5  1 -1</clus>
</clustering>
</event>
<event>
 9    2  0.1665830E-004  0.2051479E+03  0.7546771E-02  0.1147890E+00
          2   -1    0    0  502    0 -0.00000000000E+00  0.00000000000E+00  0.18411970511E+03  0.18411970511E+03  0.00000000000E+00 0. -1.
         21   -1    0    0  501  502  0.00000000000E+00 -0.00000000000E+00 -0.27024882938E+03  0.27024882938E+03  0.00000000000E+00 0.  1.
         24    2    1    2    0    0 -0.17237389649E+03 -0.44548253642E+02  0.24766378146E+02  0.19637117568E+03  0.79063000555E+02 0.  0.
         23    2    1    2    0    0  0.17491358585E+03  0.17436025589E+02 -0.88131710931E+02  0.22250492111E+03  0.10412715276E+03 0.  0.
        -13    1    3    3    0    0 -0.13142012174E+03 -0.78405614809E+01 -0.87872155654E+01  0.13194672394E+03  0.00000000000E+00 0.  1.
         14    1    3    3    0    0 -0.40953774750E+02 -0.36707692161E+02  0.33553593711E+02  0.64424451732E+02  0.00000000000E+00 0. -1.
        -11    1    4    4    0    0  0.35875009098E+02 -0.31328348216E+02 -0.52559891916E+02  0.70929711109E+02  0.00000000000E+00 0.  1.
         11    1    4    4    0    0  0.13903857675E+03  0.48764373805E+02 -0.35571819016E+02  0.15157521000E+03  0.00000000000E+00 0. -1.
          1    1    1    2  501    0 -0.25396893623E+01  0.27112228053E+02 -0.22763791482E+02  0.35492437711E+02  0.00000000000E+00 0. -1.
<scales pt_clust_5="13000.00000" pt_clust_6="13000.00000" pt_clust_7="13000.00000" pt_clust_8="13000.00000" pt_clust_9="27.23092"></scales>
<clustering>
<clus scale="   27.231">  2  9  1 -1</clus>
<clus scale="   79.063">  5  6 -1 -1</clus>
<clus scale="  104.127">  7  8 -1 -1</clus>
<clus scale="  193.634">  1  5  2 -1</clus>
<clus scale="   27.231">  2  5  1 -1</clus>
</clustering>
</event>
<event>
 9    2  0.1665830E-004  0.1389144E+03  0.7546771E-02  0.1216795E+00
          2   -1    0    0  502    0 -0.00000000000E+00  0.00000000000E+00  0.10955087482E+04  0.10955087482E+04  0.00000000000E+00 0. -1.
         21   -1    0    0  501  502  0.00000000000E+00 -0.00000000000E+00 -0.10484283255E+03  0.10484283255E+03  0.00000000000E+00 0. -1.
         23    2    1    2    0    0  0.89731956418E+02 -0.17652054479E+02  0.51787709860E+03  0.53345079789E+03  0.89496622739E+02 0.  0.
         24    2    1    2    0    0 -0.12107771056E+03  0.30111407805E+02  0.55687526725E+03  0.57630098761E+03  0.80288580525E+02 0.  0.
        -13    1    4    4    0    0 -0.19989211380E+02  0.21918768140E+02  0.41327007630E+02  0.50871627928E+02  0.00000000000E+00 0.  1.
         14    1    4    4    0    0 -0.10108849917E+03  0.81926396648E+01  0.51554825962E+03  0.52542935968E+03  0.00000000000E+00 0. -1.
        -11    1    3    3    0    0  0.70762105103E+01 -0.38937652850E+02  0.11461934006E+03  0.12125925399E+03  0.00000000000E+00 0.  1.
         11    1    3    3    0    0  0.82655745908E+02  0.21285598371E+02  0.40325775854E+03  0.41219154389E+03  0.00000000000E+00 0. -1.
          1    1    1    2  501    0  0.31345754137E+02 -0.12459353326E+02 -0.84086450214E+02  0.90599795239E+02  0.00000000000E+00 0. -1.
<scales pt_clust_5="13000.00000" pt_clust_6="13000.00000" pt_clust_7="13000.00000" pt_clust_8="13000.00000" pt_clust_9="33.73117"></scales>
<clustering>
<clus scale="   33.731">  2  9  1 -1</clus>
<clus scale="   80.289">  5  6 -1 -1</clus>
<clus scale="   89.497">  7  8 -1 -1</clus>
<clus scale="  133.168">  2  5  1 -1</clus>
<clus scale="   33.731">  2  5  1 -1</clus>
</clustering>
</event>
<event>
 9    2  0.1665830E-004  0.1417727E+03  0.7546771E-02  0.1214156E+00
          2   -1    0    0  502    0 -0.00000000000E+00  0.00000000000E+00  0.18889209043E+04  0.18889209043E+04  0.00000000000E+00 0. -1.
         21   -1    0    0  501  502  0.00000000000E+00 -0.00000000000E+00 -0.35558642335E+02  0.35558642335E+02  0.00000000000E+00 0. -1.
         24    2    1    2    0    0  0.11067534766E+03  0.33140213745E+02  0.14020182154E+04  0.14088087454E+04  0.75760797787E+02 0.  0.
         23    2    1    2    0    0 -0.96291484974E+02  0.41346220191E+02  0.40168983838E+03  0.42500291974E+03  0.91056002154E+02 0.  0.
        -11    1    3    3    0    0  0.29773371588E+02 -0.15727783307E+02  0.17869939111E+03  0.18184413437E+03  0.00000000000E+00 0.  1.
         12    1    3    3    0    0  0.80901976073E+02  0.48867997052E+02  0.12233188243E+04  0.12269646110E+04  0.00000000000E+00 0. -1.
        -13    1    4    4    0    0 -0.14135389968E+02 -0.25070905803E+02  0.48968904710E+02  0.56800644326E+02  0.00000000000E+00 0.  1.
         13    1    4    4    0    0 -0.82156095006E+02  0.66417125994E+02  0.35272093367E+03  0.36820227542E+03  0.00000000000E+00 0. -1.
          1    1    1    2  501    0 -0.14383862687E+02 -0.74486433935E+02  0.49654208230E+02  0.90667881530E+02  0.00000000000E+00 0. -1.
<scales pt_clust_5="13000.00000" pt_clust_6="13000.00000" pt_clust_7="13000.00000" pt_clust_8="13000.00000" pt_clust_9="75.86254"></scales>
<clustering>
<clus scale="   75.761">  5  6 -1 -1</clus>
<clus scale="   75.863">  2  9  1 -1</clus>
<clus scale="   91.056">  7  8 -1 -1</clus>
<clus scale="  132.469">  1  5  2 -1</clus>
<clus scale="   75.863">  2  5  1 -1</clus>
</clustering>
</event>
<event>
 9    2  0.1665830E-004  0.9688988E+02  0.7546771E-02  0.1297803E+00
          2   -1    0    0  502    0 -0.00000000000E+00  0.00000000000E+00  0.29116312740E+03  0.29116312740E+03  0.00000000000E+00 0. -1.
         21   -1    0    0  501  502  0.00000000000E+00 -0.00000000000E+00 -0.47100319809E+02  0.47100319809E+02  0.00000000000E+00 0. -1.
         23    2    1    2    0    0  0.22284847130E+02 -0.10737048132E+02  0.90568973143E+02  0.12615192591E+03  0.84259544868E+02 0.  0.
         24    2    1    2    0    0 -0.70281980725E+02  0.22174754688E+02  0.99261112899E+02  0.13879212378E+03  0.63080968050E+02 0.  0.
        -13    1    4    4    0    0  0.52550473514E+01  0.20442545800E+02  0.26701511418E+02  0.34036508538E+02  0.00000000000E+00 0.  1.
         14    1    4    4    0    0 -0.75537028077E+02  0.17322088884E+01  0.72559601481E+02  0.10475561524E+03  0.00000000000E+00 0. -1.
        -11    1    3    3    0    0 -0.14917272122E+02  0.29223588460E+02  0.39982780034E+02  0.51722005271E+02  0.00000000000E+00 0.  1.
         11    1    3    3    0    0  0.37202119252E+02 -0.39960636591E+02  0.50586193109E+02  0.74429920643E+02  0.00000000000E+00 0. -1.
          1    1    1    2  501    0  0.47997133595E+02 -0.11437706557E+02  0.54232721545E+02  0.73319397508E+02  0.00000000000E+00 0. -1.
<scales pt_clust_5="13000.00000" pt_clust_6="13000.00000" pt_clust_7="13000.00000" pt_clust_8="13000.00000" pt_clust_9="49.34114"></scales>
<clustering>
<clus scale="   49.341">  2  9  1 -1</clus>
<clus scale="   63.081">  5  6 -1 -1</clus>
<clus scale="   79.166">  2  5  1 -1</clus>
<clus scale="   84.260">  7  8 -1 -1</clus>
<clus scale="   49.341">  2  5  1 -1</clus>
</clustering>
</event>
<event>
 9    2  0.1665830E-004  0.9446367E+02  0.7546771E-02  0.1300533E+00
         21   -1    0    0  501  502  0.00000000000E+00  0.00000000000E+00  0.12107926298E+03  0.12107926298E+03  0.00000000000E+00 0. -1.
         -3   -1    0    0    0  501 -0.00000000000E+00 -0.00000000000E+00 -0.21813687494E+03  0.21813687494E+03  0.00000000000E+00 0.  1.
         24    2    1    2    0    0  0.12060715893E+02  0.13095067177E+02 -0.12703503312E+03  0.15117340879E+03  0.79990988442E+02 0.  0.
         23    2    1    2    0    0  0.99235161122E+01  0.14849031610E+02  0.81635781103E+02  0.12533096576E+03  0.93404926588E+02 0.  0.
        -13    1    3    3    0    0 -0.32119897194E+02  0.11641102892E+02 -0.34146834451E+02  0.48303306050E+02  0.00000000000E+00 0.  1.
         14    1    3    3    0    0  0.44180613088E+02  0.14539642854E+01 -0.92888198670E+02  0.10287010274E+03  0.00000000000E+00 0. -1.
        -11    1    4    4    0    0  0.51472571133E+01 -0.38718497124E+02  0.21238698078E+02  0.44460078401E+02  0.00000000000E+00 0. -1.
         11    1    4    4    0    0  0.47762589990E+01  0.53567528734E+02  0.60397083025E+02  0.80870887362E+02  0.00000000000E+00 0.  1.
         -4    1    1    2    0  502 -0.21984232006E+02 -0.27944098787E+02 -0.51658359942E+02  0.62711763376E+02  0.00000000000E+00 0.  1.
<scales pt_clust_5="13000.00000" pt_clust_6="13000.00000" pt_clust_7="13000.00000" pt_clust_8="13000.00000" pt_clust_9="35.55531"></scales>
<clustering>
<clus scale="   35.555">  1  9  2 -1</clus>
<clus scale="   79.991">  5  6 -1 -1</clus>
<clus scale="   81.225">  2  5  1 -1</clus>
<clus scale="   93.405">  7  8 -1 -1</clus>
<clus scale="   35.555">  1  5  2 -1</clus>
</clustering>
</event>
<event>
 9    2  0.1665830E-004  0.1665475E+03  0.7546771E-02  0.1183290E+00
         -1   -1    0    0    0  501 -0.00000000000E+00  0.00000000000E+00  0.31916668290E+03  0.31916668290E+03  0.00000000000E+00 0.  1.
         21   -1    0    0  501  502  0.00000000000E+00 -0.00000000000E+00 -0.97646602303E+02  0.97646602303E+02  0.00000000000E+00 0.  1.
         24    2    1    2    0    0 -0.13532238236E+03  0.36845556626E+02  0.10197027140E+03  0.19134368459E+03  0.80899488086E+02 0.  0.
         23    2    1    2    0    0  0.13632374083E+03 -0.11806857031E+02  0.97776693338E+02  0.19227309823E+03  0.93193875108E+02 0.  0.
        -11    1    3    3    0    0 -0.12297131956E+03  0.26858904570E+02  0.11523259185E+03  0.17065138855E+03  0.00000000000E+00 0.  1.
         12    1    3    3    0    0 -0.12351062805E+02  0.99866520564E+01 -0.13262320454E+02  0.20692296043E+02  0.00000000000E+00 0. -1.
        -13    1    4    4    0    0  0.13253118378E+03  0.14834290837E+02  0.97777648313E+02  0.16536335558E+03  0.00000000000E+00 0.  1.
         13    1    4    4    0    0  0.37925570449E+01 -0.26641147868E+02 -0.95497512531E-03  0.26909742651E+02  0.00000000000E+00 0. -1.
         -2    1    1    2    0  502 -0.10013584648E+01 -0.25038699595E+02  0.21773115861E+02  0.33196502383E+02  0.00000000000E+00 0.  1.
<scales pt_clust_5="13000.00000" pt_clust_6="13000.00000" pt_clust_7="13000.00000" pt_clust_8="13000.00000" pt_clust_9="25.05873"></scales>
<clustering>
<clus scale="   25.059">  2  9  1 -1</clus>
<clus scale="   80.899">  5  6 -1 -1</clus>
<clus scale="   93.194">  7  8 -1 -1</clus>
<clus scale="  159.993">  1  5  2 -1</clus>
<clus scale="   25.059">  2  5  1 -1</clus>
</clustering>
</event>
<event>
 9    2  0.1665830E-004  0.9745791E+02  0.7546771E-02  0.1290384E+00
          2   -1    0    0  502    0 -0.00000000000E+00  0.00000000000E+00  0.99687881604E+03  0.99687881604E+03  0.00000000000E+00 0. -1.
         21   -1    0    0  501  502  0.00000000000E+00 -0.00000000000E+00 -0.42778426645E+02  0.42778426645E+02  0.00000000000E+00 0. -1.
         24    2    1    2    0    0 -0.20633584325E+02 -0.21663990820E+02  0.39990759414E+03  0.40923380594E+03  0.81554587697E+02 0.  0.
         23    2    1    2    0    0  0.40555925549E+02  0.79545931406E+02  0.75443156107E+02  0.14777611653E+03  0.90408918323E+02 0.  0.
        -13    1    3    3    0    0 -0.48490977008E+02 -0.30847749544E+02  0.27218985826E+03  0.27819108081E+03  0.00000000000E+00 0.  1.
         14    1    3    3    0    0  0.27857392683E+02  0.91837587245E+01  0.12771773588E+03  0.13104272513E+03  0.00000000000E+00 0. -1.
        -13    1    4    4    0    0 -0.15060997439E+02  0.45400893876E+02  0.66481734939E+02  0.81901745336E+02  0.00000000000E+00 0.  1.
         13    1    4    4    0    0  0.55616922988E+02  0.34145037530E+02  0.89614211678E+01  0.65874371192E+02  0.00000000000E+00 0. -1.
          1    1    1    2  501    0 -0.19922341224E+02 -0.57881940586E+02  0.47874963915E+03  0.48264732021E+03  0.00000000000E+00 0. -1.
<scales pt_clust_5="13000.00000" pt_clust_6="13000.00000" pt_clust_7="13000.00000" pt_clust_8="13000.00000" pt_clust_9="61.21456"></scales>
<clustering>
<clus scale="   61.215">  2  9  1 -1</clus>
<clus scale="   81.555">  5  6 -1 -1</clus>
<clus scale="   89.305">  1  5  2 -1</clus>
<clus scale="   90.409">  7  8 -1 -1</clus>
<clus scale="   61.215">  2  5  1 -1</clus>
</clustering>
</event>
<event>
 9    2  0.1665830E-004  0.1159729E+03  0.7546771E-02  0.1251527E+00
         21   -1    0    0  501  502  0.00000000000E+00  0.00000000000E+00  0.43378100011E+02  0.43378100011E+02  0.00000000000E+00 0. -1.
          2   -1    0    0  502    0 -0.00000000000E+00 -0.00000000000E+00 -0.74258138036E+03  0.74258138036E+03  0.00000000000E+00 0. -1.
         23    2    1    2    0    0 -0.60982521969E+02 -0.27522385303E+02 -0.16259003010E+03  0.19560498277E+03  0.85728884974E+02 0.  0.
         24    2    1    2    0    0  0.26169456299E+02  0.10902847645E+03 -0.20556112103E+03  0.24764367971E+03  0.80622382151E+02 0.  0.
        -13    1    4    4    0    0 -0.26120322162E+02  0.15600899968E+02 -0.36309946135E+02  0.47371631785E+02  0.00000000000E+00 0.  1.
         14    1    4    4    0    0  0.52289778461E+02  0.93427576479E+02 -0.16925117490E+03  0.20027204793E+03  0.00000000000E+00 0. -1.
        -11    1    3    3    0    0 -0.37509834723E+02  0.27162706388E+02 -0.94056931402E+02  0.10484038661E+03  0.00000000000E+00 0.  1.
         11    1    3    3    0    0 -0.23472687246E+02 -0.54685091691E+02 -0.68533098701E+02  0.90764596167E+02  0.00000000000E+00 0. -1.
          1    1    1    2  501    0  0.34813065670E+02 -0.81506091144E+02 -0.33105212921E+03  0.34271081788E+03  0.00000000000E+00 0. -1.
<scales pt_clust_5="13000.00000" pt_clust_6="13000.00000" pt_clust_7="13000.00000" pt_clust_8="13000.00000" pt_clust_9="88.62957"></scales>
<clustering>
<clus scale="   80.622">  5  6 -1 -1</clus>
<clus scale="   85.729">  7  8 -1 -1</clus>
<clus scale="   88.630">  1  9  2 -1</clus>
<clus scale="  112.251">  1  5  2 -1</clus>
<clus scale="   88.630">  1  5  2 -1</clus>
</clustering>
</event>
<event>
 9    2  0.1665830E-004  0.1989810E+03  0.7546771E-02  0.1178855E+00
         21   -1    0    0  501  502  0.00000000000E+00  0.00000000000E+00  0.44081741854E+02  0.44081741854E+02  0.00000000000E+00 0. -1.
          2   -1    0    0  502    0 -0.00000000000E+00 -0.00000000000E+00 -0.16475023212E+04  0.16475023212E+04  0.00000000000E+00 0. -1.
         23    2    1    2    0    0 -0.52510469029E+02 -0.11751908723E+01 -0.19304826048E+03  0.21910666572E+03  0.89338511626E+02 0.  0.
         24    2    1    2    0    0 -0.12930042865E+03  0.67173929560E+02 -0.10510102373E+04  0.10643693948E+04  0.83837653335E+02 0.  0.
        -11    1    4    4    0    0 -0.12761366184E+02  0.38287506322E+02 -0.14769653431E+03  0.15311124013E+03  0.00000000000E+00 0.  1.
         12    1    4    4    0    0 -0.11653906247E+03  0.28886423238E+02 -0.90331370295E+03  0.91125815468E+03  0.00000000000E+00 0. -1.
        -11    1    3    3    0    0  0.22644686422E+02 -0.16439655403E+01 -0.81488853559E+02  0.84592657484E+02  0.00000000000E+00 0.  1.
         11    1    3    3    0    0 -0.75155155450E+02  0.46877466797E+00 -0.11155940692E+03  0.13451400824E+03  0.00000000000E+00 0. -1.
          1    1    1    2  501    0  0.18181089768E+03 -0.65998738687E+02 -0.35936208159E+03  0.40810800251E+03  0.00000000000E+00 0. -1.
<scales pt_clust_5="13000.00000" pt_clust_6="13000.00000" pt_clust_7="13000.00000" pt_clust_8="13000.00000" pt_clust_9="180.45685"></scales>
<clustering>
<clus scale="   83.838">  5  6 -1 -1</clus>
<clus scale="   89.339">  7  8 -1 -1</clus>
<clus scale="  103.635">  2  7  1 -1</clus>
<clus scale="  180.457">  1  9  2 -1</clus>
<clus scale="  180.457">  1  5  2 -1</clus>
</clustering>
</event>
<event>
 9    2  0.1665830E-004  0.2235981E+03  0.7546771E-02  0.1162956E+00
         21   -1    0    0  501  502  0.00000000000E+00  0.00000000000E+00  0.69017790731E+03  0.69017790731E+03  0.00000000000E+00 0.  1.
          4   -1    0    0  502    0 -0.00000000000E+00 -0.00000000000E+00 -0.12740175530E+03  0.12740175530E+03  0.00000000000E+00 0. -1.
         24    2    1    2    0    0 -0.17329962376E+02 -0.64079534093E+02  0.77270479692E+02  0.13037554903E+03  0.81366715963E+02 0.  0.
         23    2    1    2    0    0  0.10532445300E+03 -0.15928578296E+03  0.35665988477E+03  0.41474066244E+03  0.91314525814E+02 0.  0.
        -13    1    3    3    0    0 -0.29896674415E+02 -0.19765800304E+02  0.76306753243E+02  0.84304321320E+02  0.00000000000E+00 0.  1.
         14    1    3    3    0    0  0.12566712039E+02 -0.44313733788E+02  0.96372644926E+00  0.46071227707E+02  0.00000000000E+00 0. -1.
        -13    1    4    4    0    0  0.82686553795E+02 -0.16676672963E+03  0.33074581123E+03  0.37952733754E+03  0.00000000000E+00 0.  1.
         13    1    4    4    0    0  0.22637899200E+02  0.74809466731E+01  0.25914073540E+02  0.35213324903E+02  0.00000000000E+00 0. -1.
          3    1    1    2  501    0 -0.87994490619E+02  0.22336531705E+03  0.12884578755E+03  0.27246345115E+03  0.00000000000E+00 0. -1.
<scales pt_clust_5="13000.00000" pt_clust_6="13000.00000" pt_clust_7="13000.00000" pt_clust_8="13000.00000" pt_clust_9="204.10240"></scales>
<clustering>
<clus scale="   81.367">  5  6 -1 -1</clus>
<clus scale="   91.315">  7  8 -1 -1</clus>
<clus scale="  105.010">  2  5  1 -1</clus>
<clus scale="  204.102">  1  9  2 -1</clus>
<clus scale="  204.102">  1  5  2 -1</clus>
</clustering>
</event>
<event>
 9    2  0.1665830E-004  0.1227450E+03  0.7546771E-02  0.1243346E+00
         -3   -1    0    0    0  501 -0.00000000000E+00  0.00000000000E+00  0.12815186339E+03  0.12815186339E+03  0.00000000000E+00 0.  1.
         21   -1    0    0  501  502  0.00000000000E+00 -0.00000000000E+00 -0.32098939556E+03  0.32098939556E+03  0.00000000000E+00 0. -1.
         24    2    1    2    0    0  0.56546735848E+02 -0.65894101000E+02  0.62148933842E+02  0.13294766267E+03  0.79202431466E+02 0.  0.
         23    2    1    2    0    0 -0.17077180802E+02  0.54690197088E+02 -0.79558541156E+02  0.13603164120E+03  0.94299513125E+02 0.  0.
        -13    1    3    3    0    0  0.21554154699E+02 -0.48293321794E+02  0.74958486886E+02  0.91736586327E+02  0.00000000000E+00 0.  1.
         14    1    3    3    0    0  0.34992581149E+02 -0.17600779206E+02 -0.12809553044E+02  0.41211076343E+02  0.00000000000E+00 0. -1.
        -11    1    4    4    0    0 -0.18993563283E+02  0.81607787859E+01  0.18331122810E+02  0.27629401370E+02  0.00000000000E+00 0.  1.
         11    1    4    4    0    0  0.19163824811E+01  0.46529418302E+02 -0.97889663965E+02  0.10840223983E+03  0.00000000000E+00 0. -1.
         -4    1    1    2    0  502 -0.39469555046E+02  0.11203903912E+02 -0.17542792486E+03  0.18016195508E+03  0.00000000000E+00 0.  1.
<scales pt_clust_5="13000.00000" pt_clust_6="13000.00000" pt_clust_7="13000.00000" pt_clust_8="13000.00000" pt_clust_9="41.02893"></scales>
<clustering>
<clus scale="   41.029">  2  9  1 -1</clus>
<clus scale="   79.202">  5  6 -1 -1</clus>
<clus scale="   94.300">  7  8 -1 -1</clus>
<clus scale="  111.566">  1  5  2 -1</clus>
<clus scale="   41.029">  2  5  1 -1</clus>
</clustering>
</event>
<event>
 9    2  0.1665830E-004  0.9915468E+02  0.7546771E-02  0.1287150E+00
         21   -1    0    0  501  502  0.00000000000E+00  0.00000000000E+00  0.29785721028E+02  0.29785721028E+02  0.00000000000E+00 0. -1.
          2   -1    0    0  502    0 -0.00000000000E+00 -0.00000000000E+00 -0.50807685443E+03  0.50807685443E+03  0.00000000000E+00 0. -1.
         24    2    1    2    0    0  0.42102658989E+01 -0.40487382142E+02 -0.28601331852E+03  0.30005195632E+03  0.81059260225E+02 0.  0.
         23    2    1    2    0    0  0.31071062232E+02  0.34931929774E+02 -0.15847231315E+03  0.18863290963E+03  0.91012361429E+02 0.  0.
        -11    1    3    3    0    0 -0.36359683769E+02 -0.21867954254E+02 -0.97612128808E+02  0.10643477682E+03  0.00000000000E+00 0.  1.
         12    1    3    3    0    0  0.40569949667E+02 -0.18619427888E+02 -0.18840118971E+03  0.19361717949E+03  0.00000000000E+00 0. -1.
        -11    1    4    4    0    0  0.22336161750E+02 -0.27624476328E+02 -0.82564209623E+02  0.89882503997E+02  0.00000000000E+00 0.  1.
         11    1    4    4    0    0  0.87349004823E+01  0.62556406102E+02 -0.75908103529E+02  0.98750405631E+02  0.00000000000E+00 0. -1.
          1    1    1    2  501    0 -0.35281328131E+02  0.55554523679E+01 -0.33805501732E+02  0.49177709514E+02  0.00000000000E+00 0. -1.
<scales pt_clust_5="13000.00000" pt_clust_6="13000.00000" pt_clust_7="13000.00000" pt_clust_8="13000.00000" pt_clust_9="35.71604"></scales>
<clustering>
<clus scale="   35.716">  1  9  2 -1</clus>
<clus scale="   81.059">  5  6 -1 -1</clus>
<clus scale="   90.106">  2  5  1 -1</clus>
<clus scale="   91.012">  7  8 -1 -1</clus>
<clus scale="   35.716">  1  5  2 -1</clus>
</clustering>
</event>
<event>
 9    2  0.1665830E-004  0.1089401E+03  0.7546771E-02  0.1265296E+00
         21   -1    0    0  501  502  0.00000000000E+00  0.00000000000E+00  0.39894191628E+03  0.39894191628E+03  0.00000000000E+00 0. -1.
          4   -1    0    0  502    0 -0.00000000000E+00 -0.00000000000E+00 -0.10214953871E+03  0.10214953871E+03  0.00000000000E+00 0. -1.
         24    2    1    2    0    0  0.61598526888E+02  0.33075616105E+02 -0.32378658164E+02  0.12387687805E+03  0.96998600579E+02 0.  0.
         23    2    1    2    0    0  0.20631756893E+02  0.19003738063E+01  0.14022103165E+03  0.16819964093E+03  0.90553302956E+02 0.  0.
        -13    1    3    3    0    0 -0.27179595684E+01 -0.23939129743E+02 -0.29216792992E+02  0.37869383805E+02  0.00000000000E+00 0.  1.
         14    1    3    3    0    0  0.64316486456E+02  0.57014745848E+02 -0.31618651723E+01  0.86007494240E+02  0.00000000000E+00 0. -1.
        -13    1    4    4    0    0  0.19439420190E+02 -0.27943876259E+02  0.13324939311E+03  0.13752873170E+03  0.00000000000E+00 0. -1.
         13    1    4    4    0    0  0.11923367031E+01  0.29844250066E+02  0.69716385398E+01  0.30670909226E+02  0.00000000000E+00 0.  1.
          3    1    1    2  501    0 -0.82230283781E+02 -0.34975989911E+02  0.18895000407E+03  0.20901493602E+03  0.00000000000E+00 0. -1.
<scales pt_clust_5="13000.00000" pt_clust_6="13000.00000" pt_clust_7="13000.00000" pt_clust_8="13000.00000" pt_clust_9="89.35961"></scales>
<clustering>
<clus scale="   89.360">  1  9  2 -1</clus>
<clus scale="   90.553">  7  8 -1 -1</clus>
<clus scale="   96.999">  5  6 -1 -1</clus>
<clus scale="  103.243">  1  7  2 -1</clus>
<clus scale="   89.360">  1  5  2 -1</clus>
</clustering>
</event>
<event>
 9    2  0.1665830E-004  0.1221981E+03  0.7546771E-02  0.1242891E+00
         21   -1    0    0  501  502  0.00000000000E+00  0.00000000000E+00  0.85151975339E+02  0.85151975339E+02  0.00000000000E+00 0.  1.
          2   -1    0    0  502    0 -0.00000000000E+00 -0.00000000000E+00 -0.37467083385E+03  0.37467083385E+03  0.00000000000E+00 0. -1.
         23    2    1    2    0    0  0.22862518433E+02  0.77692622798E+02 -0.12237911899E+03  0.17262173828E+03  0.90899820548E+02 0.  0.
         24    2    1    2    0    0 -0.89251233508E+02 -0.49244679675E+02 -0.30953225095E+02  0.13304688294E+03  0.79702884246E+02 0.  0.
        -11    1    4    4    0    0 -0.65392305527E+02 -0.37745932358E+02  0.17790868611E+02  0.77572057068E+02  0.00000000000E+00 0.  1.
         12    1    4    4    0    0 -0.23858927980E+02 -0.11498747318E+02 -0.48744093706E+02  0.55474825872E+02  0.00000000000E+00 0. -1.
        -13    1    3    3    0    0 -0.82484039496E+01  0.25327972160E+02 -0.10635479530E+03  0.10963979581E+03  0.00000000000E+00 0.  1.
         13    1    3    3    0    0  0.31110922382E+02  0.52364650638E+02 -0.16024323690E+02  0.62981942472E+02  0.00000000000E+00 0. -1.
          1    1    1    2  501    0  0.66388715075E+02 -0.28447943122E+02 -0.13618651443E+03  0.15415418797E+03  0.00000000000E+00 0. -1.
<scales pt_clust_5="13000.00000" pt_clust_6="13000.00000" pt_clust_7="13000.00000" pt_clust_8="13000.00000" pt_clust_9="72.22709"></scales>
<clustering>
<clus scale="   72.227">  1  9  2 -1</clus>
<clus scale="   79.703">  5  6 -1 -1</clus>
<clus scale="   90.900">  7  8 -1 -1</clus>
<clus scale="  114.115">  1  5  2 -1</clus>
<clus scale="   72.227">  1  5  2 -1</clus>
</clustering>
</event>
<event>
 9    2  0.1665830E-004  0.1904221E+03  0.7546771E-02  0.1175711E+00
         21   -1    0    0  501  502  0.00000000000E+00  0.00000000000E+00  0.49799773837E+02  0.49799773837E+02  0.00000000000E+00 0. -1.
          2   -1    0    0  502    0 -0.00000000000E+00 -0.00000000000E+00 -0.19355003315E+04  0.19355003315E+04  0.00000000000E+00 0. -1.
         23    2    1    2    0    0 -0.65151925460E+02  0.50115071495E+02 -0.66783963979E+03  0.67979821378E+03  0.96744680488E+02 0.  0.
         24    2    1    2    0    0 -0.15035593329E+03  0.38026921183E+02 -0.22693279510E+03  0.28758677104E+03  0.84585483263E+02 0.  0.
        -13    1    4    4    0    0 -0.15323129692E+02  0.36690387265E+02 -0.70418256756E+02  0.80868496374E+02  0.00000000000E+00 0.  1.
         14    1    4    4    0    0 -0.13503280360E+03  0.13365339180E+01 -0.15651453834E+03  0.20671827467E+03  0.00000000000E+00 0. -1.
        -11    1    3    3    0    0  0.11562633800E+02 -0.19833029780E+02 -0.13524625288E+03  0.13718087508E+03  0.00000000000E+00 0.  1.
         11    1    3    3    0    0 -0.76714559260E+02  0.69948101275E+02 -0.53259338692E+03  0.54261733870E+03  0.00000000000E+00 0. -1.
          1    1    1    2  501    0  0.21550785875E+03 -0.88141992678E+02 -0.99092812278E+03  0.10179151205E+04  0.00000000000E+00 0. -1.
<scales pt_clust_5="13000.00000" pt_clust_6="13000.00000" pt_clust_7="13000.00000" pt_clust_8="13000.00000" pt_clust_9="170.60449"></scales>
<clustering>
<clus scale="   84.585">  5  6 -1 -1</clus>
<clus scale="   96.745">  7  8 -1 -1</clus>
<clus scale="  126.948">  2  7  1 -1</clus>
<clus scale="  170.604">  1  9  2 -1</clus>
<clus scale="  170.604">  1  5  2 -1</clus>
</clustering>
</event>
<event>
 9    2  0.1665830E-004  0.1646247E+03  0.7546771E-02  0.1193976E+00
          2   -1    0    0  502    0 -0.00000000000E+00  0.00000000000E+00  0.87892884512E+03  0.87892884512E+03  0.00000000000E+00 0. -1.
         21   -1    0    0  501  502  0.00000000000E+00 -0.00000000000E+00 -0.77215208026E+03  0.77215208026E+03  0.00000000000E+00 0. -1.
         23    2    1    2    0    0 -0.34340029788E+02  0.87499909117E+02  0.11515549189E+03  0.17423271004E+03  0.90888823254E+02 0.  0.
         24    2    1    2    0    0  0.16657145258E+03 -0.14314957705E+03  0.70836259491E+03  0.74588983260E+03  0.79600416392E+02 0.  0.
        -11    1    4    4    0    0  0.41923815206E+02 -0.87661032557E+02  0.29420508281E+03  0.30983655960E+03  0.00000000000E+00 0.  1.
         12    1    4    4    0    0  0.12464763737E+03 -0.55488544490E+02  0.41415751210E+03  0.43605327300E+03  0.00000000000E+00 0. -1.
        -11    1    3    3    0    0 -0.39707047843E+02  0.46283459704E+02  0.10835376033E+02  0.61937175140E+02  0.00000000000E+00 0. -1.
         11    1    3    3    0    0  0.53670180555E+01  0.41216449413E+02  0.10432011586E+03  0.11229553490E+03  0.00000000000E+00 0.  1.
          1    1    1    2  501    0 -0.13223142279E+03  0.55649667929E+02 -0.71674132194E+03  0.73095838273E+03  0.00000000000E+00 0. -1.
<scales pt_clust_5="13000.00000" pt_clust_6="13000.00000" pt_clust_7="13000.00000" pt_clust_8="13000.00000" pt_clust_9="144.10091"></scales>
<clustering>
<clus scale="   79.600">  5  6 -1 -1</clus>
<clus scale="   90.889">  7  8 -1 -1</clus>
<clus scale="  130.753">  1  7  2 -1</clus>
<clus scale="  144.101">  2  9  1 -1</clus>
<clus scale="  144.101">  2  5  1 -1</clus>
</clustering>
</event>
<event>
 9    2  0.1665830E-004  0.1486941E+03  0.7546771E-02  0.1204757E+00
          2   -1    0    0  502    0 -0.00000000000E+00  0.00000000000E+00  0.22064075950E+03  0.22064075950E+03  0.00000000000E+00 0. -1.
         21   -1    0    0  501  502  0.00000000000E+00 -0.00000000000E+00 -0.18479871308E+03  0.18479871308E+03  0.00000000000E+00 0.  1.
         23    2    1    2    0    0  0.12761668320E+03 -0.67808433056E+02  0.11159040639E+03  0.20529216537E+03  0.93853358689E+02 0.  0.
         24    2    1    2    0    0 -0.52780541920E+02  0.33922318218E+02 -0.54208451545E+02  0.11521978237E+03  0.80003329633E+02 0.  0.
        -13    1    4    4    0    0 -0.26203723675E+02  0.48537393084E+02 -0.62908887306E+02  0.83666252240E+02  0.00000000000E+00 0.  1.
         14    1    4    4    0    0 -0.26576818246E+02 -0.14615074866E+02  0.87004357608E+01  0.31553530133E+02  0.00000000000E+00 0. -1.
        -11    1    3    3    0    0  0.55309496165E+02 -0.79822738866E+02  0.48349543570E+02  0.10848266391E+03  0.00000000000E+00 0.  1.
         11    1    3    3    0    0  0.72307187039E+02  0.12014305811E+02  0.63240862818E+02  0.96809501452E+02  0.00000000000E+00 0. -1.
          1    1    1    2  501    0 -0.74836141283E+02  0.33886114838E+02 -0.21539908424E+02  0.84927524842E+02  0.00000000000E+00 0. -1.
<scales pt_clust_5="13000.00000" pt_clust_6="13000.00000" pt_clust_7="13000.00000" pt_clust_8="13000.00000" pt_clust_9="82.15057"></scales>
<clustering>
<clus scale="   80.003">  5  6 -1 -1</clus>
<clus scale="   82.151">  2  9  1 -1</clus>
<clus scale="   93.853">  7  8 -1 -1</clus>
<clus scale="  140.364">  2  5  1 -1</clus>
<clus scale="   82.151">  2  5  1 -1</clus>
</clustering>
</event>
<event>
 9    2  0.1665830E-004  0.1062263E+03  0.7546771E-02  0.1275226E+00
         21   -1    0    0  501  502  0.00000000000E+00  0.00000000000E+00  0.12799221237E+03  0.12799221237E+03  0.00000000000E+00 0. -1.
          4   -1    0    0  502    0 -0.00000000000E+00 -0.00000000000E+00 -0.18767106914E+03  0.18767106914E+03  0.00000000000E+00 0. -1.
         23    2    1    2    0    0 -0.16879508146E+02  0.71828288382E+02 -0.45992080778E+02  0.12809020285E+03  0.94061723166E+02 0.  0.
         24    2    1    2    0    0 -0.54399189134E+02 -0.20069520117E+02 -0.21386570145E+02  0.99148480225E+02  0.77530499368E+02 0.  0.
        -13    1    4    4    0    0 -0.60667261252E+02 -0.18686622926E+02  0.12466287615E+02  0.64692463171E+02  0.00000000000E+00 0.  1.
         14    1    4    4    0    0  0.62680721185E+01 -0.13828971915E+01 -0.33852857760E+02  0.34456017054E+02  0.00000000000E+00 0. -1.
        -13    1    3    3    0    0  0.55747944662E+01  0.34430659767E+02  0.26282072861E+02  0.43672600326E+02  0.00000000000E+00 0. -1.
         13    1    3    3    0    0 -0.22454302613E+02  0.37397628615E+02 -0.72274153640E+02  0.84417602526E+02  0.00000000000E+00 0.  1.
          3    1    1    2  501    0  0.71278697280E+02 -0.51758768265E+02  0.76997941550E+01  0.88424598434E+02  0.00000000000E+00 0. -1.
<scales pt_clust_5="13000.00000" pt_clust_6="13000.00000" pt_clust_7="13000.00000" pt_clust_8="13000.00000" pt_clust_9="88.08872"></scales>
<clustering>
<clus scale="   77.530">  5  6 -1 -1</clus>
<clus scale="   88.089">  1  9  2 -1</clus>
<clus scale="   91.910">  1  5  2 -1</clus>
<clus scale="   94.062">  7  8 -1 -1</clus>
<clus scale="   88.089">  1  5  2 -1</clus>
</clustering>
</event>
<event>
 9    2  0.1665830E-004  0.1297996E+03  0.7546771E-02  0.1234188E+00
         21   -1    0    0  501  502  0.00000000000E+00  0.00000000000E+00  0.21431288033E+03  0.21431288033E+03  0.00000000000E+00 0. -1.
          2   -1    0    0  502    0 -0.00000000000E+00 -0.00000000000E+00 -0.32625572515E+03  0.32625572515E+03  0.00000000000E+00 0. -1.
         24    2    1    2    0    0  0.24719069891E+02 -0.67099483912E+02 -0.25181527549E+03  0.27628685654E+03  0.88374888803E+02 0.  0.
         23    2    1    2    0    0 -0.86741166527E+02  0.41771351640E+02  0.13339430279E+03  0.19697483328E+03  0.10833360116E+03 0.  0.
        -13    1    3    3    0    0 -0.32139094973E+02 -0.17652816750E+02 -0.61558219141E+02  0.71651641353E+02  0.00000000000E+00 0.  1.
         14    1    3    3    0    0  0.56858164864E+02 -0.49446667162E+02 -0.19025705635E+03  0.20463521519E+03  0.00000000000E+00 0. -1.
        -13    1    4    4    0    0 -0.87265236745E+02 -0.13381184223E+02  0.95504155724E+02  0.13005891510E+03  0.00000000000E+00 0. -1.
         13    1    4    4    0    0  0.52407021863E+00  0.55152535863E+02  0.37890147063E+02  0.66915918182E+02  0.00000000000E+00 0.  1.
          1    1    1    2  501    0  0.62022096636E+02  0.25328132271E+02  0.64781278789E+01  0.67306915664E+02  0.00000000000E+00 0. -1.
<scales pt_clust_5="13000.00000" pt_clust_6="13000.00000" pt_clust_7="13000.00000" pt_clust_8="13000.00000" pt_clust_9="66.99444"></scales>
<clustering>
<clus scale="   66.994">  1  9  2 -1</clus>
<clus scale="   88.375">  5  6 -1 -1</clus>
<clus scale="  108.334">  7  8 -1 -1</clus>
<clus scale="  113.675">  2  5  1 -1</clus>
<clus scale="   66.994">  1  5  2 -1</clus>
</clustering>
</event>
<event>
 9    2  0.1665830E-004  0.1134087E+03  0.7546771E-02  0.1255663E+00
         21   -1    0    0  501  502  0.00000000000E+00  0.00000000000E+00  0.20839050472E+03  0.20839050472E+03  0.00000000000E+00 0.  1.
         -3   -1    0    0    0  501 -0.00000000000E+00 -0.00000000000E+00 -0.15647691032E+03  0.15647691032E+03  0.00000000000E+00 0.  1.
         24    2    1    2    0    0  0.65080879860E+02 -0.50310576597E+02 -0.74583575456E+02  0.14257392613E+03  0.89431200620E+02 0.  0.
         23    2    1    2    0    0  0.12428437574E+02  0.58330624272E+02  0.79430033680E+02  0.13125871115E+03  0.85806708449E+02 0.  0.
        -13    1    3    3    0    0 -0.15486112636E+02 -0.36180234454E+02 -0.29427165151E+02  0.49140483295E+02  0.00000000000E+00 0.  1.
         14    1    3    3    0    0  0.80566992496E+02 -0.14130342143E+02 -0.45156410306E+02  0.93433442838E+02  0.00000000000E+00 0. -1.
        -11    1    4    4    0    0  0.42253662609E+02  0.60386487853E+02  0.64023676456E+02  0.97626487523E+02  0.00000000000E+00 0.  1.
         11    1    4    4    0    0 -0.29825225035E+02 -0.20558635815E+01  0.15406357224E+02  0.33632223631E+02  0.00000000000E+00 0. -1.
         -4    1    1    2    0  502 -0.77509317434E+02 -0.80200476752E+01  0.47067136178E+02  0.91034777760E+02  0.00000000000E+00 0.  1.
<scales pt_clust_5="13000.00000" pt_clust_6="13000.00000" pt_clust_7="13000.00000" pt_clust_8="13000.00000" pt_clust_9="77.92314"></scales>
<clustering>
<clus scale="   77.923">  1  9  2 -1</clus>
<clus scale="   85.807">  7  8 -1 -1</clus>
<clus scale="   89.431">  5  6 -1 -1</clus>
<clus scale="  110.573">  1  7  2 -1</clus>
<clus scale="   77.923">  1  5  2 -1</clus>
</clustering>
</event>
<event>
 9    2  0.1665830E-004  0.1865563E+03  0.7546771E-02  0.1162745E+00
          2   -1    0    0  502    0 -0.00000000000E+00  0.00000000000E+00  0.45063344396E+03  0.45063344396E+03  0.00000000000E+00 0. -1.
         21   -1    0    0  501  502  0.00000000000E+00 -0.00000000000E+00 -0.15933434406E+03  0.15933434406E+03  0.00000000000E+00 0. -1.
         24    2    1    2    0    0 -0.16279309448E+03  0.68831616712E+02  0.32543801167E+03  0.37891263519E+03  0.80159232767E+02 0.  0.
         23    2    1    2    0    0  0.98776686191E+02 -0.80806661012E+02  0.20401245140E+01  0.15655397914E+03  0.90655590432E+02 0.  0.
        -13    1    3    3    0    0 -0.37174294322E+02  0.96575344544E+01  0.19803345099E+02  0.43213060609E+02  0.00000000000E+00 0.  1.
         14    1    3    3    0    0 -0.12561880015E+03  0.59174082257E+02  0.30563466657E+03  0.33569957458E+03  0.00000000000E+00 0. -1.
        -11    1    4    4    0    0  0.11533234395E+03 -0.68028815909E+02  0.97723766624E+01  0.13425709925E+03  0.00000000000E+00 0.  1.
         11    1    4    4    0    0 -0.16555657756E+02 -0.12777845102E+02 -0.77322521484E+01  0.22296879882E+02  0.00000000000E+00 0. -1.
          1    1    1    2  501    0  0.64016408284E+02  0.11975044300E+02 -0.36179036286E+02  0.74501173696E+02  0.00000000000E+00 0. -1.
<scales pt_clust_5="13000.00000" pt_clust_6="13000.00000" pt_clust_7="13000.00000" pt_clust_8="13000.00000" pt_clust_9="65.12682"></scales>
<clustering>
<clus scale="   65.127">  2  9  1 -1</clus>
<clus scale="   80.159">  5  6 -1 -1</clus>
<clus scale="   90.656">  7  8 -1 -1</clus>
<clus scale="  181.687">  1  5  2 -1</clus>
<clus scale="   65.127">  2  5  1 -1</clus>
</clustering>
</event>
<event>
 9    2  0.1665830E-004  0.2040933E+03  0.7546771E-02  0.1172787E+00
         21   -1    0    0  501  502  0.00000000000E+00  0.00000000000E+00  0.11024014098E+03  0.11024014098E+03  0.00000000000E+00 0. -1.
          2   -1    0    0  502    0 -0.00000000000E+00 -0.00000000000E+00 -0.80057289667E+03  0.80057289667E+03  0.00000000000E+00 0. -1.
         24    2    1    2    0    0  0.78573489009E+02 -0.45402996860E+02 -0.13716592070E+03  0.17594038389E+03  0.62492428201E+02 0.  0.
         23    2    1    2    0    0  0.13972890317E+03  0.10200043666E+03 -0.81515728857E+02  0.21207826727E+03  0.91673998144E+02 0.  0.
        -11    1    3    3    0    0  0.71951433851E+02 -0.51524335431E+02 -0.84001160531E+02  0.12201623230E+03  0.00000000000E+00 0.  1.
         12    1    3    3    0    0  0.66220551577E+01  0.61213385712E+01 -0.53164760168E+02  0.53924151585E+02  0.00000000000E+00 0. -1.
        -13    1    4    4    0    0  0.20063687966E+02  0.15909646521E+02  0.20503904481E+02  0.32803635868E+02  0.00000000000E+00 0.  1.
         13    1    4    4    0    0  0.11966521521E+03  0.86090790144E+02 -0.10201963334E+03  0.17927463140E+03  0.00000000000E+00 0. -1.
          1    1    1    2  501    0 -0.21830239218E+03 -0.56597439805E+02 -0.47165110613E+03  0.52279438649E+03  0.00000000000E+00 0. -1.
<scales pt_clust_5="13000.00000" pt_clust_6="13000.00000" pt_clust_7="13000.00000" pt_clust_8="13000.00000" pt_clust_9="182.34584"></scales>
<clustering>
<clus scale="   62.492">  5  6 -1 -1</clus>
<clus scale="   91.674">  7  8 -1 -1</clus>
<clus scale="  110.184">  2  5  1 -1</clus>
<clus scale="  182.346">  1  9  2 -1</clus>
<clus scale="  182.346">  1  5  2 -1</clus>
</clustering>
</event>
<event>
 9    2  0.1665830E-004  0.9442635E+02  0.7546771E-02  0.1296223E+00
         21   -1    0    0  501  502  0.00000000000E+00  0.00000000000E+00  0.14196787841E+03  0.14196787841E+03  0.00000000000E+00 0. -1.
          4   -1    0    0  502    0 -0.00000000000E+00 -0.00000000000E+00 -0.15597477237E+03  0.15597477237E+03  0.00000000000E+00 0. -1.
         24    2    1    2    0    0 -0.22085676788E+02 -0.28448832257E+02 -0.22228245258E+02  0.91184392010E+02  0.80767476641E+02 0.  0.
         23    2    1    2    0    0  0.62308962682E+02 -0.37853076206E+02  0.42884983636E+02  0.12181461157E+03  0.87660798314E+02 0.  0.
        -11    1    3    3    0    0 -0.42642506425E+02 -0.37247233813E+02 -0.33868074264E+02  0.65975648806E+02  0.00000000000E+00 0.  1.
         12    1    3    3    0    0  0.20556829637E+02  0.87984015560E+01  0.11639829005E+02  0.25208743205E+02  0.00000000000E+00 0. -1.
        -13    1    4    4    0    0  0.12194585972E+02  0.19914604567E+02 -0.13341121807E+02  0.26893957186E+02  0.00000000000E+00 0.  1.
         13    1    4    4    0    0  0.50114376710E+02 -0.57767680773E+02  0.56226105443E+02  0.94920654381E+02  0.00000000000E+00 0. -1.
          3    1    1    2  501    0 -0.40223285894E+02  0.66301908463E+02 -0.34663632332E+02  0.84943647205E+02  0.00000000000E+00 0. -1.
<scales pt_clust_5="13000.00000" pt_clust_6="13000.00000" pt_clust_7="13000.00000" pt_clust_8="13000.00000" pt_clust_9="77.54909"></scales>
<clustering>
<clus scale="   77.549">  1  9  2 -1</clus>
<clus scale="   80.767">  5  6 -1 -1</clus>
<clus scale="   87.661">  7  8 -1 -1</clus>
<clus scale="   88.064">  2  5  1 -1</clus>
<clus scale="   77.549">  1  5  2 -1</clus>
</clustering>
</event>
<event>
 9    2  0.1665830E-004  0.1389246E+03  0.7546771E-02  0.1216591E+00
         21   -1    0    0  501  502  0.00000000000E+00  0.00000000000E+00  0.18553574400E+03  0.18553574400E+03  0.00000000000E+00 0.  1.
          2   -1    0    0  502    0 -0.00000000000E+00 -0.00000000000E+00 -0.38536191220E+03  0.38536191220E+03  0.00000000000E+00 0. -1.
         23    2    1    2    0    0 -0.98327993889E+02 -0.31585662895E+02 -0.33091672067E+03  0.35848562234E+03  0.91323693105E+02 0.  0.
         24    2    1    2    0    0  0.11789020408E+03  0.25035340730E+02  0.11287596972E+03  0.18489189917E+03  0.83181496362E+02 0.  0.
        -11    1    4    4    0    0  0.24344943984E+02  0.26531461098E+02  0.76427961315E+02  0.84485667402E+02  0.00000000000E+00 0.  1.
         12    1    4    4    0    0  0.93545260093E+02 -0.14961203677E+01  0.36448008406E+02  0.10040623177E+03  0.00000000000E+00 0. -1.
        -11    1    3    3    0    0 -0.35807724170E+02 -0.55465570984E+02 -0.21185272567E+03  0.22190132953E+03  0.00000000000E+00 0. -1.
         11    1    3    3    0    0 -0.62520269719E+02  0.23879908089E+02 -0.11906399501E+03  0.13658429281E+03  0.00000000000E+00 0.  1.
          1    1    1    2  501    0 -0.19562210188E+02  0.65503221650E+01  0.18214582756E+02  0.27520134682E+02  0.00000000000E+00 0. -1.
<scales pt_clust_5="13000.00000" pt_clust_6="13000.00000" pt_clust_7="13000.00000" pt_clust_8="13000.00000" pt_clust_9="20.62975"></scales>
<clustering>
<clus scale="   20.630">  1  9  2 -1</clus>
<clus scale="   83.181">  5  6 -1 -1</clus>
<clus scale="   91.324">  7  8 -1 -1</clus>
<clus scale="  133.713">  1  5  2 -1</clus>
<clus scale="   20.630">  1  5  2 -1</clus>
</clustering>
</event>
<event>
 9    2  0.1665830E-004  0.1567190E+03  0.7546771E-02  0.1216433E+00
         21   -1    0    0  501  502  0.00000000000E+00  0.00000000000E+00  0.42305318141E+03  0.42305318141E+03  0.00000000000E+00 0. -1.
          2   -1    0    0  502    0 -0.00000000000E+00 -0.00000000000E+00 -0.16933594974E+03  0.16933594974E+03  0.00000000000E+00 0. -1.
         23    2    1    2    0    0 -0.54894543485E+01  0.58017624464E+01  0.15896220499E+03  0.18439757631E+03  0.93111164620E+02 0.  0.
         24    2    1    2    0    0 -0.25560648937E+02  0.12597368418E+03 -0.91925860749E+02  0.17738663082E+03  0.80578762943E+02 0.  0.
        -13    1    4    4    0    0 -0.19025418409E+02  0.16886369465E+02  0.10581691611E+02  0.27551555613E+02  0.00000000000E+00 0.  1.
         14    1    4    4    0    0 -0.65352305279E+01  0.10908731472E+03 -0.10250755236E+03  0.14983507520E+03  0.00000000000E+00 0. -1.
        -11    1    3    3    0    0 -0.40085683938E+02 -0.13724807794E+02  0.12548961559E+03  0.13244952256E+03  0.00000000000E+00 0. -1.
         11    1    3    3    0    0  0.34596229589E+02  0.19526570241E+02  0.33472589405E+02  0.51948053752E+02  0.00000000000E+00 0.  1.
          1    1    1    2  501    0  0.31050103285E+02 -0.13177544663E+03  0.18668088742E+03  0.23060492401E+03  0.00000000000E+00 0. -1.
<scales pt_clust_5="13000.00000" pt_clust_6="13000.00000" pt_clust_7="13000.00000" pt_clust_8="13000.00000" pt_clust_9="134.41694"></scales>
<clustering>
<clus scale="   80.579">  5  6 -1 -1</clus>
<clus scale="   93.111">  7  8 -1 -1</clus>
<clus scale="   93.453">  2  7  1 -1</clus>
<clus scale="  134.417">  1  9  2 -1</clus>
<clus scale="  134.417">  1  5  2 -1</clus>
</clustering>
</event>
<event>
 9    2  0.1665830E-004  0.2366034E+03  0.7546771E-02  0.1136448E+00
          2   -1    0    0  502    0 -0.00000000000E+00  0.00000000000E+00  0.14855527958E+04  0.14855527958E+04  0.00000000000E+00 0. -1.
         21   -1    0    0  501  502  0.00000000000E+00 -0.00000000000E+00 -0.87161216869E+02  0.87161216869E+02  0.00000000000E+00 0. -1.
         23    2    1    2    0    0  0.88248761146E+02  0.11214126950E+03  0.18889877707E+03  0.25157751365E+03  0.85117502450E+02 0.  0.
         24    2    1    2    0    0 -0.25342830313E+03  0.35643032218E+02  0.90889803892E+03  0.94766402022E+03  0.80468127128E+02 0.  0.
        -11    1    4    4    0    0 -0.11439161457E+03  0.33482488164E+02  0.29405883936E+03  0.31729657972E+03  0.00000000000E+00 0.  1.
         12    1    4    4    0    0 -0.13903668856E+03  0.21605440545E+01  0.61483919957E+03  0.63036744050E+03  0.00000000000E+00 0. -1.
        -13    1    3    3    0    0  0.78783730997E+02  0.84481096717E+02  0.18995747176E+03  0.22232357736E+03  0.00000000000E+00 0.  1.
         13    1    3    3    0    0  0.94650301495E+01  0.27660172781E+02 -0.10586946817E+01  0.29253936289E+02  0.00000000000E+00 0. -1.
          1    1    1    2  501    0  0.16517954198E+03 -0.14778430172E+03  0.30059476294E+03  0.37347247882E+03  0.00000000000E+00 0. -1.
<scales pt_clust_5="13000.00000" pt_clust_6="13000.00000" pt_clust_7="13000.00000" pt_clust_8="13000.00000" pt_clust_9="222.49950"></scales>
<clustering>
<clus scale="   80.468">  5  6 -1 -1</clus>
<clus scale="   85.118">  7  8 -1 -1</clus>
<clus scale="  166.158">  1  7  2 -1</clus>
<clus scale="  222.500">  2  9  1 -1</clus>
<clus scale="  222.500">  2  5  1 -1</clus>
</clustering>
</event>
<event>
 9    2  0.1665830E-004  0.1269457E+03  0.7546771E-02  0.1237295E+00
         21   -1    0    0  501  502  0.00000000000E+00  0.00000000000E+00  0.72384849452E+03  0.72384849452E+03  0.00000000000E+00 0. -1.
          2   -1    0    0  502    0 -0.00000000000E+00 -0.00000000000E+00 -0.57166213522E+02  0.57166213522E+02  0.00000000000E+00 0. -1.
         24    2    1    2    0    0 -0.57372891155E+02 -0.47930715539E+02  0.42735426898E+02  0.11851347379E+03  0.81425577228E+02 0.  0.
         23    2    1    2    0    0  0.39170737044E+02  0.10612868680E+03  0.33368417568E+03  0.36590260857E+03  0.98701292060E+02 0.  0.
        -13    1    3    3    0    0 -0.59932374425E+02 -0.53636269054E+02  0.59875232044E+02  0.10026855078E+03  0.00000000000E+00 0.  1.
         14    1    3    3    0    0  0.25594832699E+01  0.57055535157E+01 -0.17139805145E+02  0.18244923018E+02  0.00000000000E+00 0. -1.
        -13    1    4    4    0    0 -0.25611193260E+02  0.32637745108E+02  0.45754701020E+02  0.61762839081E+02  0.00000000000E+00 0. -1.
         13    1    4    4    0    0  0.64781930304E+02  0.73490941689E+02  0.28792947466E+03  0.30413976949E+03  0.00000000000E+00 0.  1.
          1    1    1    2  501    0  0.18202154111E+02 -0.58197971259E+02  0.29026267841E+03  0.29659862568E+03  0.00000000000E+00 0. -1.
<scales pt_clust_5="13000.00000" pt_clust_6="13000.00000" pt_clust_7="13000.00000" pt_clust_8="13000.00000" pt_clust_9="60.97805"></scales>
<clustering>
<clus scale="   60.978">  1  9  2 -1</clus>
<clus scale="   81.426">  5  6 -1 -1</clus>
<clus scale="   98.701">  7  8 -1 -1</clus>
<clus scale="  114.032">  2  5  1 -1</clus>
<clus scale="   60.978">  1  5  2 -1</clus>
</clustering>
</event>
<event>
 9    2  0.1665830E-004  0.1434086E+03  0.7546771E-02  0.1232934E+00
         21   -1    0    0  501  502  0.00000000000E+00  0.00000000000E+00  0.26250350431E+02  0.26250350431E+02  0.00000000000E+00 0. -1.
          2   -1    0    0  502    0 -0.00000000000E+00 -0.00000000000E+00 -0.11329286194E+04  0.11329286194E+04  0.00000000000E+00 0. -1.
         24    2    1    2    0    0 -0.31345559912E+02  0.26907935776E+01 -0.23673743169E+03  0.25204009182E+03  0.80559368323E+02 0.  0.
         23    2    1    2    0    0  0.93627418935E+02  0.76601726748E+02 -0.43855304722E+03  0.46412447739E+03  0.91917556395E+02 0.  0.
        -11    1    3    3    0    0  0.51640942578E+01 -0.33748798595E+02 -0.78378349131E+02  0.85491607124E+02  0.00000000000E+00 0.  1.
         12    1    3    3    0    0 -0.36509654169E+02  0.36439592172E+02 -0.15835908256E+03  0.16654848469E+03  0.00000000000E+00 0. -1.
        -11    1    4    4    0    0  0.70726665099E+02  0.35937348617E+01 -0.15469033162E+03  0.17013017011E+03  0.00000000000E+00 0. -1.
         11    1    4    4    0    0  0.22900753836E+02  0.73007991886E+02 -0.28386271560E+03  0.29399430728E+03  0.00000000000E+00 0.  1.
          1    1    1    2  501    0 -0.62281859023E+02 -0.79292520326E+02 -0.43138779009E+03  0.44301440065E+03  0.00000000000E+00 0. -1.
<scales pt_clust_5="13000.00000" pt_clust_6="13000.00000" pt_clust_7="13000.00000" pt_clust_8="13000.00000" pt_clust_9="110.07821"></scales>
<clustering>
<clus scale="   80.559">  5  6 -1 -1</clus>
<clus scale="   86.485">  2  5  1 -1</clus>
<clus scale="   91.918">  7  8 -1 -1</clus>
<clus scale="  110.078">  1  9  2 -1</clus>
<clus scale="  110.078">  1  5  2 -1</clus>
</clustering>
</event>
<event>
 9    2  0.1665830E-004  0.2956377E+03  0.7546771E-02  0.1087442E+00
         21   -1    0    0  501  502  0.00000000000E+00  0.00000000000E+00  0.49505040974E+02  0.49505040974E+02  0.00000000000E+00 0.  1.
         -1   -1    0    0    0  501 -0.00000000000E+00 -0.00000000000E+00 -0.16202440978E+04  0.16202440978E+04  0.00000000000E+00 0.  1.
         24    2    1    2    0    0  0.14800699684E+03  0.29339799671E+02 -0.81595777791E+03  0.83378452080E+03  0.81502373159E+02 0.  0.
         23    2    1    2    0    0  0.77291413159E+02  0.29951780864E+01 -0.37396311636E+03  0.39231227969E+03  0.89875351238E+02 0.  0.
        -11    1    3    3    0    0  0.81470459833E+02  0.45337524698E+02 -0.32599578012E+03  0.33906662417E+03  0.00000000000E+00 0.  1.
         12    1    3    3    0    0  0.66536537006E+02 -0.15997725027E+02 -0.48996199779E+03  0.49471789663E+03  0.00000000000E+00 0. -1.
        -13    1    4    4    0    0  0.50993673159E+01  0.32418729799E+02 -0.55776519659E+02  0.64714741242E+02  0.00000000000E+00 0. -1.
         13    1    4    4    0    0  0.72192045843E+02 -0.29423551713E+02 -0.31818659670E+03  0.32759753845E+03  0.00000000000E+00 0.  1.
         -2    1    1    2    0  502 -0.22529841000E+03 -0.32334977757E+02 -0.38081816256E+03  0.44365233829E+03  0.00000000000E+00 0.  1.
<scales pt_clust_5="13000.00000" pt_clust_6="13000.00000" pt_clust_7="13000.00000" pt_clust_8="13000.00000" pt_clust_9="227.60695"></scales>
<clustering>
<clus scale="   81.502">  5  6 -1 -1</clus>
<clus scale="   89.875">  7  8 -1 -1</clus>
<clus scale="   95.831">  5  7 -1 -1</clus>
<clus scale="  227.607">  1  9  2 -1</clus>
<clus scale="  227.607">  1  5  2 -1</clus>
</clustering>
</event>
<event>
 9    2  0.1665830E-004  0.2288222E+03  0.7546771E-02  0.1128167E+00
          2   -1    0    0  502    0 -0.00000000000E+00  0.00000000000E+00  0.66151955652E+03  0.66151955652E+03  0.00000000000E+00 0. -1.
         21   -1    0    0  501  502  0.00000000000E+00 -0.00000000000E+00 -0.12226338463E+03  0.12226338463E+03  0.00000000000E+00 0.  1.
         23    2    1    2    0    0 -0.16322932317E+03  0.14954819851E+03  0.31306452913E+03  0.39403977305E+03  0.90826580523E+02 0.  0.
         24    2    1    2    0    0  0.17902274488E+03 -0.80143256623E+02  0.79039789365E+02  0.22628018732E+03  0.80519253017E+02 0.  0.
        -11    1    4    4    0    0  0.61491165147E+02 -0.24340293536E+02 -0.12360018600E+02  0.67278401737E+02  0.00000000000E+00 0.  1.
         12    1    4    4    0    0  0.11753157973E+03 -0.55802963087E+02  0.91399807966E+02  0.15900178559E+03  0.00000000000E+00 0. -1.
        -11    1    3    3    0    0 -0.12823242997E+03  0.58160617394E+02  0.17059526098E+03  0.22119890728E+03  0.00000000000E+00 0. -1.
         11    1    3    3    0    0 -0.34996893200E+02  0.91387581115E+02  0.14246926815E+03  0.17284086578E+03  0.00000000000E+00 0.  1.
          1    1    1    2  501    0 -0.15793421711E+02 -0.69404941885E+02  0.14715185339E+03  0.16346298077E+03  0.00000000000E+00 0. -1.
<scales pt_clust_5="13000.00000" pt_clust_6="13000.00000" pt_clust_7="13000.00000" pt_clust_8="13000.00000" pt_clust_9="71.17923"></scales>
<clustering>
<clus scale="   71.179">  2  9  1 -1</clus>
<clus scale="   80.519">  5  6 -1 -1</clus>
<clus scale="   90.827">  7  8 -1 -1</clus>
<clus scale="  224.930">  2  5  1 -1</clus>
<clus scale="   71.179">  2  5  1 -1</clus>
</clustering>
</event>
<event>
 9    2  0.1665830E-004  0.1020254E+03  0.7546771E-02  0.1279852E+00
         21   -1    0    0  501  502  0.00000000000E+00  0.00000000000E+00  0.14955573845E+03  0.14955573845E+03  0.00000000000E+00 0.  1.
         -1   -1    0    0    0  501 -0.00000000000E+00 -0.00000000000E+00 -0.18665968600E+03  0.18665968600E+03  0.00000000000E+00 0.  1.
         23    2    1    2    0    0 -0.18084349503E+02 -0.42490338944E+02 -0.72584721098E+02  0.12373292766E+03  0.88931563849E+02 0.  0.
         24    2    1    2    0    0  0.83020907270E+02  0.40899205765E+01 -0.21615312762E+02  0.11787112466E+03  0.80729064086E+02 0.  0.
        -11    1    4    4    0    0  0.72937796006E+02 -0.57038684663E+01 -0.48330954256E+02  0.87683164524E+02  0.00000000000E+00 0.  1.
         12    1    4    4    0    0  0.10083111264E+02  0.97937890428E+01  0.26715641495E+02  0.30187960134E+02  0.00000000000E+00 0. -1.
        -11    1    3    3    0    0 -0.45698902051E+02 -0.24047286190E+02 -0.95914227541E+01  0.52522918923E+02  0.00000000000E+00 0.  1.
         11    1    3    3    0    0  0.27614552548E+02 -0.18443052754E+02 -0.62993298344E+02  0.71210008732E+02  0.00000000000E+00 0. -1.
         -2    1    1    2    0  502 -0.64936557766E+02  0.38400418367E+02  0.57096086316E+02  0.94611372139E+02  0.00000000000E+00 0.  1.
<scales pt_clust_5="13000.00000" pt_clust_6="13000.00000" pt_clust_7="13000.00000" pt_clust_8="13000.00000" pt_clust_9="75.44103"></scales>
<clustering>
<clus scale="   75.441">  1  9  2 -1</clus>
<clus scale="   80.729">  5  6 -1 -1</clus>
<clus scale="   88.932">  7  8 -1 -1</clus>
<clus scale="   94.961">  1  5  2 -1</clus>
<clus scale="   75.441">  1  5  2 -1</clus>
</clustering>
</event>
<event>
 9    2  0.1665830E-004  0.1490791E+03  0.7546771E-02  0.1206294E+00
         21   -1    0    0  501  502  0.00000000000E+00  0.00000000000E+00  0.31593427034E+02  0.31593427034E+02  0.00000000000E+00 0. -1.
          2   -1    0    0  502    0 -0.00000000000E+00 -0.00000000000E+00 -0.10927499385E+04  0.10927499385E+04  0.00000000000E+00 0. -1.
         24    2    1    2    0    0  0.11749892808E+02  0.11694598094E+03 -0.57322813356E+03  0.58977094029E+03  0.73653557093E+02 0.  0.
         23    2    1    2    0    0  0.10971253334E+02 -0.10754075658E+03 -0.48876304618E+03  0.50996743797E+03  0.97427356321E+02 0.  0.
        -13    1    3    3    0    0 -0.51068978256E+01  0.61716795610E+02 -0.14505048296E+03  0.15771710710E+03  0.00000000000E+00 0.  1.
         14    1    3    3    0    0  0.16856790634E+02  0.55229185326E+02 -0.42817765060E+03  0.43205383319E+03  0.00000000000E+00 0. -1.
        -13    1    4    4    0    0 -0.29111274226E+02 -0.92141258544E+02 -0.26375337424E+03  0.28089734822E+03  0.00000000000E+00 0.  1.
         13    1    4    4    0    0  0.40082527560E+02 -0.15399498039E+02 -0.22500967194E+03  0.22907008976E+03  0.00000000000E+00 0. -1.
          1    1    1    2  501    0 -0.22721146143E+02 -0.94052243521E+01  0.83466827183E+00  0.24604987264E+02  0.00000000000E+00 0. -1.
<scales pt_clust_5="13000.00000" pt_clust_6="13000.00000" pt_clust_7="13000.00000" pt_clust_8="13000.00000" pt_clust_9="24.59083"></scales>
<clustering>
<clus scale="   24.591">  1  9  2 -1</clus>
<clus scale="   73.654">  5  6 -1 -1</clus>
<clus scale="   97.427">  7  8 -1 -1</clus>
<clus scale="  134.749">  2  5  1 -1</clus>
<clus scale="   24.591">  1  5  2 -1</clus>
</clustering>
</event>
<event>
 9    2  0.1665830E-004  0.1434499E+03  0.7546771E-02  0.1228983E+00
         21   -1    0    0  501  502  0.00000000000E+00  0.00000000000E+00  0.98329458867E+02  0.98329458867E+02  0.00000000000E+00 0. -1.
         -1   -1    0    0    0  501 -0.00000000000E+00 -0.00000000000E+00 -0.35175175393E+03  0.35175175393E+03  0.00000000000E+00 0.  1.
         23    2    1    2    0    0  0.22109690579E+02 -0.19215819925E+01 -0.49296314513E+02  0.10591348992E+03  0.91076944541E+02 0.  0.
         24    2    1    2    0    0 -0.10868210391E+03  0.64621242265E+02 -0.52769406547E+02  0.15887108869E+03  0.80422060977E+02 0.  0.
        -11    1    4    4    0    0 -0.36858547998E+02 -0.15048354137E+02 -0.11432422330E+01  0.39828539084E+02  0.00000000000E+00 0.  1.
         12    1    4    4    0    0 -0.71823555914E+02  0.79669596402E+02 -0.51626164314E+02  0.11904254961E+03  0.00000000000E+00 0. -1.
        -11    1    3    3    0    0 -0.10806220179E+02  0.39412885889E+02 -0.22938251681E+02  0.46864841394E+02  0.00000000000E+00 0.  1.
         11    1    3    3    0    0  0.32915910758E+02 -0.41334467882E+02 -0.26358062832E+02  0.59048648523E+02  0.00000000000E+00 0. -1.
         -2    1    1    2    0  502  0.86572413333E+02 -0.62699660272E+02 -0.15135657400E+03  0.18529663419E+03  0.00000000000E+00 0.  1.
<scales pt_clust_5="13000.00000" pt_clust_6="13000.00000" pt_clust_7="13000.00000" pt_clust_8="13000.00000" pt_clust_9="118.78631"></scales>
<clustering>
<clus scale="   80.422">  5  6 -1 -1</clus>
<clus scale="   91.077">  7  8 -1 -1</clus>
<clus scale="   93.742">  2  7  1 -1</clus>
<clus scale="  118.786">  1  9  2 -1</clus>
<clus scale="  118.786">  1  5  2 -1</clus>
</clustering>
</event>
<event>
 9    2  0.1665830E-004  0.1837274E+03  0.7546771E-02  0.1165259E+00
         21   -1    0    0  501  502  0.00000000000E+00  0.00000000000E+00  0.10222199389E+03  0.10222199389E+03  0.00000000000E+00 0.  1.
         -1   -1    0    0    0  501 -0.00000000000E+00 -0.00000000000E+00 -0.36570514861E+03  0.36570514861E+03  0.00000000000E+00 0.  1.
         24    2    1    2    0    0  0.35194919763E+02 -0.14560331847E+03 -0.10580017790E+03  0.20057393859E+03  0.81223263108E+02 0.  0.
         23    2    1    2    0    0 -0.45019169041E+02  0.16497655081E+03 -0.13420395965E+03  0.23536723430E+03  0.90238818123E+02 0.  0.
        -13    1    3    3    0    0 -0.25285015723E+02 -0.63582344907E+02 -0.39760512531E+02  0.79138770276E+02  0.00000000000E+00 0.  1.
         14    1    3    3    0    0  0.60479935486E+02 -0.82020973558E+02 -0.66039665374E+02  0.12143516831E+03  0.00000000000E+00 0. -1.
        -13    1    4    4    0    0  0.15992728860E+02  0.12948916402E+02  0.40947648885E+01  0.20981156114E+02  0.00000000000E+00 0. -1.
         13    1    4    4    0    0 -0.61011897901E+02  0.15202763441E+03 -0.13829872454E+03  0.21438607819E+03  0.00000000000E+00 0.  1.
         -2    1    1    2    0  502  0.98242492774E+01 -0.19373232346E+02 -0.23479017161E+02  0.31985969615E+02  0.00000000000E+00 0.  1.
<scales pt_clust_5="13000.00000" pt_clust_6="13000.00000" pt_clust_7="13000.00000" pt_clust_8="13000.00000" pt_clust_9="21.72184"></scales>
<clustering>
<clus scale="   21.722">  1  9  2 -1</clus>
<clus scale="   81.223">  5  6 -1 -1</clus>
<clus scale="   90.239">  7  8 -1 -1</clus>
<clus scale="  179.471">  2  5  1 -1</clus>
<clus scale="   21.722">  1  5  2 -1</clus>
</clustering>
</event>
<event>
 9    2  0.1665830E-004  0.1690516E+03  0.7546771E-02  0.1207285E+00
         -1   -1    0    0    0  501 -0.00000000000E+00  0.00000000000E+00  0.86012900465E+03  0.86012900465E+03  0.00000000000E+00 0.  1.
         21   -1    0    0  501  502  0.00000000000E+00 -0.00000000000E+00 -0.65425697782E+02  0.65425697782E+02  0.00000000000E+00 0.  1.
         24    2    1    2    0    0 -0.25074930367E+02  0.31176543372E+02  0.34858906249E+02  0.96948457444E+02  0.81136496512E+02 0.  0.
         23    2    1    2    0    0 -0.11425301241E+03 -0.77900338738E+02  0.53620266881E+03  0.56100390400E+03  0.89943674867E+02 0.  0.
        -11    1    3    3    0    0 -0.42704459849E+02  0.49232060303E+02  0.23573254497E+02  0.69304869817E+02  0.00000000000E+00 0.  1.
         12    1    3    3    0    0  0.17629529482E+02 -0.18055516932E+02  0.11285651751E+02  0.27643587627E+02  0.00000000000E+00 0. -1.
        -13    1    4    4    0    0 -0.67736388043E+02 -0.14816742583E+02  0.37961290597E+03  0.38589339526E+03  0.00000000000E+00 0. -1.
         13    1    4    4    0    0 -0.46516624371E+02 -0.63083596154E+02  0.15658976283E+03  0.17511050874E+03  0.00000000000E+00 0.  1.
         -2    1    1    2    0  502  0.13932794278E+03  0.46723795366E+02  0.22364173181E+03  0.26760234099E+03  0.00000000000E+00 0.  1.
<scales pt_clust_5="13000.00000" pt_clust_6="13000.00000" pt_clust_7="13000.00000" pt_clust_8="13000.00000" pt_clust_9="143.13836"></scales>
<clustering>
<clus scale="   81.136">  5  6 -1 -1</clus>
<clus scale="   89.944">  7  8 -1 -1</clus>
<clus scale="   90.465">  1  5  2 -1</clus>
<clus scale="  143.138">  2  9  1 -1</clus>
<clus scale="  143.138">  2  5  1 -1</clus>
</clustering>
</event>
<event>
 9    2  0.1665830E-004  0.1632162E+03  0.7546771E-02  0.1187095E+00
         21   -1    0    0  501  502  0.00000000000E+00  0.00000000000E+00  0.31040655648E+03  0.31040655648E+03  0.00000000000E+00 0.  1.
          2   -1    0    0  502    0 -0.00000000000E+00 -0.00000000000E+00 -0.30317026597E+03  0.30317026597E+03  0.00000000000E+00 0. -1.
         23    2    1    2    0    0 -0.13151008926E+03 -0.81730347441E+01 -0.22738314993E+03  0.27816418426E+03  0.91162023112E+02 0.  0.
         24    2    1    2    0    0  0.15759344159E+03  0.38986459493E+02  0.12662251443E+03  0.22011673869E+03  0.77861933157E+02 0.  0.
        -13    1    4    4    0    0  0.15540930526E+03  0.43587103672E+02  0.93350002057E+02  0.18645672595E+03  0.00000000000E+00 0.  1.
         14    1    4    4    0    0  0.21841363343E+01 -0.46006441794E+01  0.33272512369E+02  0.33660012741E+02  0.00000000000E+00 0. -1.
        -13    1    3    3    0    0 -0.27587861111E+02  0.73097842074E+01 -0.96628414579E+00  0.28556203020E+02  0.00000000000E+00 0.  1.
         13    1    3    3    0    0 -0.10392222815E+03 -0.15482818952E+02 -0.22641686579E+03  0.24960798124E+03  0.00000000000E+00 0. -1.
          1    1    1    2  501    0 -0.26083352336E+02 -0.30813424748E+02  0.10799692601E+03  0.11529589950E+03  0.00000000000E+00 0. -1.
<scales pt_clust_5="13000.00000" pt_clust_6="13000.00000" pt_clust_7="13000.00000" pt_clust_8="13000.00000" pt_clust_9="40.37089"></scales>
<clustering>
<clus scale="   40.371">  1  9  2 -1</clus>
<clus scale="   77.862">  5  6 -1 -1</clus>
<clus scale="   91.162">  7  8 -1 -1</clus>
<clus scale="  156.178">  1  5  2 -1</clus>
<clus scale="   40.371">  1  5  2 -1</clus>
</clustering>
</event>
<event>
 9    2  0.1665830E-004  0.2130701E+03  0.7546771E-02  0.1153840E+00
         21   -1    0    0  501  502  0.00000000000E+00  0.00000000000E+00  0.13844220354E+03  0.13844220354E+03  0.00000000000E+00 0. -1.
          2   -1    0    0  502    0 -0.00000000000E+00 -0.00000000000E+00 -0.11938630584E+04  0.11938630584E+04  0.00000000000E+00 0. -1.
         24    2    1    2    0    0 -0.88635306638E+01  0.12699199643E+03 -0.61112136770E+03  0.62929383916E+03  0.79598245058E+02 0.  0.
         23    2    1    2    0    0  0.16075480131E+03 -0.22310960213E+03 -0.43562631915E+03  0.52305371642E+03  0.90525684841E+02 0.  0.
        -11    1    3    3    0    0  0.24905198028E+02  0.19442581279E+02 -0.73864411425E+02  0.80338248243E+02  0.00000000000E+00 0.  1.
         12    1    3    3    0    0 -0.33768728692E+02  0.10754941515E+03 -0.53725695627E+03  0.54895559092E+03  0.00000000000E+00 0. -1.
        -13    1    4    4    0    0  0.12112821730E+03 -0.20923981781E+03 -0.40268244746E+03  0.46968766205E+03  0.00000000000E+00 0. -1.
         13    1    4    4    0    0  0.39626584009E+02 -0.13869784312E+02 -0.32943871685E+02  0.53366054367E+02  0.00000000000E+00 0.  1.
          1    1    1    2  501    0 -0.15189127065E+03  0.96117605700E+02 -0.86731679777E+01  0.17995770633E+03  0.00000000000E+00 0. -1.
<scales pt_clust_5="13000.00000" pt_clust_6="13000.00000" pt_clust_7="13000.00000" pt_clust_8="13000.00000" pt_clust_9="192.88328"></scales>
<clustering>
<clus scale="   79.598">  5  6 -1 -1</clus>
<clus scale="   90.526">  7  8 -1 -1</clus>
<clus scale="  150.138">  2  5  1 -1</clus>
<clus scale="  192.883">  1  9  2 -1</clus>
<clus scale="  192.883">  1  5  2 -1</clus>
</clustering>
</event>
<event>
 9    2  0.1665830E-004  0.1221953E+03  0.7546771E-02  0.1243213E+00
         21   -1    0    0  501  502  0.00000000000E+00  0.00000000000E+00  0.20397113582E+03  0.20397113582E+03  0.00000000000E+00 0. -1.
          2   -1    0    0  502    0 -0.00000000000E+00 -0.00000000000E+00 -0.41818472116E+03  0.41818472116E+03  0.00000000000E+00 0. -1.
         23    2    1    2    0    0 -0.39185216253E+02  0.61351478390E+02 -0.28724805190E+03  0.30980105069E+03  0.90364609307E+02 0.  0.
         24    2    1    2    0    0  0.21777905739E+02 -0.14682526466E+03 -0.37211895647E+02  0.17177371589E+03  0.78035560941E+02 0.  0.
        -13    1    4    4    0    0  0.28619930685E+02 -0.10128636642E+02 -0.18714272073E+01  0.30416968166E+02  0.00000000000E+00 0.  1.
         14    1    4    4    0    0 -0.68420249459E+01 -0.13669662802E+03 -0.35340468439E+02  0.14135674772E+03  0.00000000000E+00 0. -1.
        -11    1    3    3    0    0 -0.15668857900E+02 -0.22444472070E+02 -0.93037993970E+02  0.96981110307E+02  0.00000000000E+00 0. -1.
         11    1    3    3    0    0 -0.23516358353E+02  0.83795950460E+02 -0.19421005793E+03  0.21281994038E+03  0.00000000000E+00 0.  1.
          1    1    1    2  501    0  0.17407310514E+02  0.85473786267E+02  0.11024636221E+03  0.14058109040E+03  0.00000000000E+00 0. -1.
<scales pt_clust_5="13000.00000" pt_clust_6="13000.00000" pt_clust_7="13000.00000" pt_clust_8="13000.00000" pt_clust_9="87.22834"></scales>
<clustering>
<clus scale="   78.036">  5  6 -1 -1</clus>
<clus scale="   87.228">  1  9  2 -1</clus>
<clus scale="   90.365">  7  8 -1 -1</clus>
<clus scale="  113.382">  1  5  2 -1</clus>
<clus scale="   87.228">  1  5  2 -1</clus>
</clustering>
</event>
<event>
 9    2  0.1665830E-004  0.1033978E+03  0.7546771E-02  0.1278486E+00
         21   -1    0    0  501  502  0.00000000000E+00  0.00000000000E+00  0.18010513256E+03  0.18010513256E+03  0.00000000000E+00 0. -1.
         -3   -1    0    0    0  501 -0.00000000000E+00 -0.00000000000E+00 -0.22085344125E+03  0.22085344125E+03  0.00000000000E+00 0.  1.
         23    2    1    2    0    0 -0.45603117090E+02 -0.65275848833E+01 -0.16551079050E+03  0.19407164565E+03  0.90264767323E+02 0.  0.
         24    2    1    2    0    0  0.71124569304E+02  0.21912624290E+02  0.37632198951E+02  0.11480147789E+03  0.78894419743E+02 0.  0.
        -11    1    4    4    0    0  0.42642936581E+02  0.15286722696E+02 -0.20504587594E+02  0.49724662326E+02  0.00000000000E+00 0.  1.
         12    1    4    4    0    0  0.28481632722E+02  0.66259015944E+01  0.58136786545E+02  0.65076815566E+02  0.00000000000E+00 0. -1.
        -13    1    3    3    0    0 -0.67895464178E+02  0.49718039858E+01 -0.80444389785E+02  0.10538411996E+03  0.00000000000E+00 0.  1.
         13    1    3    3    0    0  0.22292347088E+02 -0.11499388869E+02 -0.85066400713E+02  0.88687525692E+02  0.00000000000E+00 0. -1.
         -4    1    1    2    0  502 -0.25521452214E+02 -0.15385039407E+02  0.87130282855E+02  0.92085450268E+02  0.00000000000E+00 0.  1.
<scales pt_clust_5="13000.00000" pt_clust_6="13000.00000" pt_clust_7="13000.00000" pt_clust_8="13000.00000" pt_clust_9="29.80007"></scales>
<clustering>
<clus scale="   29.800">  1  9  2 -1</clus>
<clus scale="   78.894">  5  6 -1 -1</clus>
<clus scale="   90.265">  7  8 -1 -1</clus>
<clus scale="   93.636">  1  5  2 -1</clus>
<clus scale="   29.800">  1  5  2 -1</clus>
</clustering>
</event>
<event>
 9    2  0.1665830E-004  0.1492729E+03  0.7546771E-02  0.1203543E+00
          2   -1    0    0  502    0 -0.00000000000E+00  0.00000000000E+00  0.13461713171E+04  0.13461713171E+04  0.00000000000E+00 0. -1.
         21   -1    0    0  501  502  0.00000000000E+00 -0.00000000000E+00 -0.70976127620E+02  0.70976127620E+02  0.00000000000E+00 0. -1.
         24    2    1    2    0    0 -0.49191462270E-01  0.12079323745E+03  0.12350267027E+04  0.12434692745E+04  0.79585625314E+02 0.  0.
         23    2    1    2    0    0  0.65403387715E+01 -0.81665711325E+02  0.85556518783E+01  0.12295865100E+03  0.91288368590E+02 0.  0.
        -13    1    3    3    0    0 -0.11892230021E+02  0.85008691032E+02  0.48795412717E+03  0.49544639761E+03  0.00000000000E+00 0.  1.
         14    1    3    3    0    0  0.11843038559E+02  0.35784546413E+02  0.74707257550E+03  0.74802287692E+03  0.00000000000E+00 0. -1.
        -13    1    4    4    0    0  0.22941528813E+02 -0.20080596123E+02  0.41278401460E+02  0.51317156118E+02  0.00000000000E+00 0.  1.
         13    1    4    4    0    0 -0.16401190041E+02 -0.61585115201E+02 -0.32722749581E+02  0.71641494885E+02  0.00000000000E+00 0. -1.
          1    1    1    2  501    0 -0.64911473093E+01 -0.39127526120E+02  0.31612834912E+02  0.50719519170E+02  0.00000000000E+00 0. -1.
<scales pt_clust_5="13000.00000" pt_clust_6="13000.00000" pt_clust_7="13000.00000" pt_clust_8="13000.00000" pt_clust_9="39.66230"></scales>
<clustering>
<clus scale="   39.662">  2  9  1 -1</clus>
<clus scale="   79.586">  5  6 -1 -1</clus>
<clus scale="   91.288">  7  8 -1 -1</clus>
<clus scale="  142.417">  1  5  2 -1</clus>
<clus scale="   39.662">  2  5  1 -1</clus>
</clustering>
</event>
<event>
 9    2  0.1665830E-004  0.1292925E+03  0.7546771E-02  0.1250492E+00
         -1   -1    0    0    0  501 -0.00000000000E+00  0.00000000000E+00  0.60482882554E+03  0.60482882554E+03  0.00000000000E+00 0.  1.
         21   -1    0    0  501  502  0.00000000000E+00 -0.00000000000E+00 -0.60027240865E+02  0.60027240865E+02  0.00000000000E+00 0.  1.
         24    2    1    2    0    0 -0.91551317156E+00  0.18031126441E+02  0.35122623712E+03  0.36083105404E+03  0.80704524205E+02 0.  0.
         23    2    1    2    0    0 -0.27043388316E+02  0.78349961839E+02  0.63441353835E+02  0.13969038221E+03  0.92836071289E+02 0.  0.
        -11    1    3    3    0    0  0.32738017875E+02  0.95129539817E+00  0.72414087667E+02  0.79476303826E+02  0.00000000000E+00 0.  1.
         12    1    3    3    0    0 -0.33653531047E+02  0.17079831042E+02  0.27881214946E+03  0.28135475021E+03  0.00000000000E+00 0. -1.
        -11    1    4    4    0    0  0.33806199440E+02  0.19548278080E+02  0.12898384159E+02  0.41126179136E+02  0.00000000000E+00 0.  1.
         11    1    4    4    0    0 -0.60849587755E+02  0.58801683759E+02  0.50542969677E+02  0.98564203069E+02  0.00000000000E+00 0. -1.
         -2    1    1    2    0  502  0.27958901487E+02 -0.96381088279E+02  0.13013399371E+03  0.16433463016E+03  0.00000000000E+00 0.  1.
<scales pt_clust_5="13000.00000" pt_clust_6="13000.00000" pt_clust_7="13000.00000" pt_clust_8="13000.00000" pt_clust_9="89.98904"></scales>
<clustering>
<clus scale="   80.705">  5  6 -1 -1</clus>
<clus scale="   82.699">  1  5  2 -1</clus>
<clus scale="   89.989">  2  9  1 -1</clus>
<clus scale="   92.836">  7  8 -1 -1</clus>
<clus scale="   89.989">  2  5  1 -1</clus>
</clustering>
</event>
<event>
 9    2  0.1665830E-004  0.1150038E+03  0.7546771E-02  0.1253971E+00
         -1   -1    0    0    0  501 -0.00000000000E+00  0.00000000000E+00  0.12313037802E+03  0.12313037802E+03  0.00000000000E+00 0.  1.
         21   -1    0    0  501  502  0.00000000000E+00 -0.00000000000E+00 -0.23772064333E+03  0.23772064333E+03  0.00000000000E+00 0.  1.
         23    2    1    2    0    0 -0.61681565550E+02  0.50991332786E+02  0.59312335995E+02  0.13279384641E+03  0.87815265728E+02 0.  0.
         24    2    1    2    0    0  0.34311703095E+02 -0.49505701846E+02 -0.75331195736E+02  0.12574569726E+03  0.80678893418E+02 0.  0.
        -11    1    4    4    0    0 -0.24254537175E+02 -0.97394956111E+00 -0.13879064110E+02  0.27961751946E+02  0.00000000000E+00 0.  1.
         12    1    4    4    0    0  0.58566240270E+02 -0.48531752285E+02 -0.61452131625E+02  0.97783945310E+02  0.00000000000E+00 0. -1.
        -11    1    3    3    0    0  0.14659973064E+02  0.18339927425E+02  0.41790091227E+02  0.47934115961E+02  0.00000000000E+00 0.  1.
         11    1    3    3    0    0 -0.76341538614E+02  0.32651405361E+02  0.17522244769E+02  0.84859730449E+02  0.00000000000E+00 0. -1.
         -2    1    1    2    0  502  0.27369862455E+02 -0.14856309404E+01 -0.98571405564E+02  0.10231147768E+03  0.00000000000E+00 0.  1.
<scales pt_clust_5="13000.00000" pt_clust_6="13000.00000" pt_clust_7="13000.00000" pt_clust_8="13000.00000" pt_clust_9="27.41015"></scales>
<clustering>
<clus scale="   27.410">  2  9  1 -1</clus>
<clus scale="   80.679">  5  6 -1 -1</clus>
<clus scale="   87.815">  7  8 -1 -1</clus>
<clus scale="  109.651">  2  5  1 -1</clus>
<clus scale="   27.410">  2  5  1 -1</clus>
</clustering>
</event>
<event>
 9    2  0.1665830E-004  0.1078965E+03  0.7546771E-02  0.1268668E+00
         21   -1    0    0  501  502  0.00000000000E+00  0.00000000000E+00  0.90045516879E+02  0.90045516879E+02  0.00000000000E+00 0.  1.
          2   -1    0    0  502    0 -0.00000000000E+00 -0.00000000000E+00 -0.23915980850E+03  0.23915980850E+03  0.00000000000E+00 0. -1.
         23    2    1    2    0    0  0.47125195608E+02 -0.46648415009E+02 -0.13543809331E+03  0.17647365543E+03  0.91665780197E+02 0.  0.
         24    2    1    2    0    0 -0.16645449949E+02  0.23256815667E+02  0.32718635314E+02  0.92493290132E+02  0.81648938411E+02 0.  0.
        -13    1    4    4    0    0  0.17410164415E+02  0.43322195291E+02  0.21518668155E+02  0.51409916445E+02  0.00000000000E+00 0.  1.
         14    1    4    4    0    0 -0.34055614364E+02 -0.20065379623E+02  0.11199967159E+02  0.41083373687E+02  0.00000000000E+00 0. -1.
        -11    1    3    3    0    0  0.38982284773E+02  0.17559377824E+02 -0.28196721849E+02  0.51215284816E+02  0.00000000000E+00 0.  1.
         11    1    3    3    0    0  0.81429108347E+01 -0.64207792833E+02 -0.10724137146E+03  0.12525837062E+03  0.00000000000E+00 0. -1.
          1    1    1    2  501    0 -0.30479745659E+02  0.23391599341E+02 -0.46394833624E+02  0.60238379810E+02  0.00000000000E+00 0. -1.
<scales pt_clust_5="13000.00000" pt_clust_6="13000.00000" pt_clust_7="13000.00000" pt_clust_8="13000.00000" pt_clust_9="38.42113"></scales>
<clustering>
<clus scale="   38.421">  1  9  2 -1</clus>
<clus scale="   81.649">  5  6 -1 -1</clus>
<clus scale="   91.666">  7  8 -1 -1</clus>
<clus scale="   99.527">  1  5  2 -1</clus>
<clus scale="   38.421">  1  5  2 -1</clus>
</clustering>
</event>
<event>
 9    2  0.1665830E-004  0.9237249E+02  0.7546771E-02  0.1303871E+00
          2   -1    0    0  502    0 -0.00000000000E+00  0.00000000000E+00  0.11105223948E+03  0.11105223948E+03  0.00000000000E+00 0. -1.
         21   -1    0    0  501  502  0.00000000000E+00 -0.00000000000E+00 -0.42246567328E+03  0.42246567328E+03  0.00000000000E+00 0. -1.
         23    2    1    2    0    0 -0.25633777521E+02 -0.17533891208E+02  0.53625990625E+02  0.10995988300E+03  0.90834470920E+02 0.  0.
         24    2    1    2    0    0 -0.58673969515E+01 -0.26911235534E+02 -0.39226997217E+02  0.93222698616E+02  0.79956696290E+02 0.  0.
        -13    1    4    4    0    0  0.32001804963E+02 -0.33098555067E+02 -0.18561096962E+02  0.49640146946E+02  0.00000000000E+00 0.  1.
         14    1    4    4    0    0 -0.37869201915E+02  0.61873195332E+01 -0.20665900255E+02  0.43582551669E+02  0.00000000000E+00 0. -1.
        -13    1    3    3    0    0  0.33328880536E+02 -0.48055623755E+01  0.30257906892E+02  0.45270836496E+02  0.00000000000E+00 0.  1.
         13    1    3    3    0    0 -0.58962658056E+02 -0.12728328833E+02  0.23368083733E+02  0.64689046502E+02  0.00000000000E+00 0. -1.
          1    1    1    2  501    0  0.31501174472E+02  0.44445126742E+02 -0.32581242721E+03  0.33033533115E+03  0.00000000000E+00 0. -1.
<scales pt_clust_5="13000.00000" pt_clust_6="13000.00000" pt_clust_7="13000.00000" pt_clust_8="13000.00000" pt_clust_9="54.47654"></scales>
<clustering>
<clus scale="   54.477">  2  9  1 -1</clus>
<clus scale="   79.957">  5  6 -1 -1</clus>
<clus scale="   81.700">  2  5  1 -1</clus>
<clus scale="   90.834">  7  8 -1 -1</clus>
<clus scale="   54.477">  2  5  1 -1</clus>
</clustering>
</event>
<event>
 9    2  0.1665830E-004  0.1898724E+03  0.7546771E-02  0.1160352E+00
         21   -1    0    0  501  502  0.00000000000E+00  0.00000000000E+00  0.17819724553E+03  0.17819724553E+03  0.00000000000E+00 0. -1.
          2   -1    0    0  502    0 -0.00000000000E+00 -0.00000000000E+00 -0.61714543778E+03  0.61714543778E+03  0.00000000000E+00 0. -1.
         23    2    1    2    0    0 -0.13698083573E+03 -0.42570420898E+02 -0.32109553736E+03  0.36478787541E+03  0.96911608391E+02 0.  0.
         24    2    1    2    0    0  0.17905084137E+03  0.15327530427E+03 -0.16950445323E+03  0.30135200278E+03  0.80800663497E+02 0.  0.
        -11    1    4    4    0    0  0.96491106091E+02  0.76581761002E+02 -0.13663930304E+03  0.18397173372E+03  0.00000000000E+00 0.  1.
         12    1    4    4    0    0  0.82559735280E+02  0.76693543264E+02 -0.32865150194E+02  0.11738026906E+03  0.00000000000E+00 0. -1.
        -13    1    3    3    0    0 -0.22594464341E+02 -0.34632236828E+02 -0.17087849283E+03  0.17581058262E+03  0.00000000000E+00 0. -1.
         13    1    3    3    0    0 -0.11438637139E+03 -0.79381840701E+01 -0.15021704453E+03  0.18897729280E+03  0.00000000000E+00 0.  1.
          1    1    1    2  501    0 -0.42070005641E+02 -0.11070488337E+03  0.51651798343E+02  0.12920280511E+03  0.00000000000E+00 0. -1.
<scales pt_clust_5="13000.00000" pt_clust_6="13000.00000" pt_clust_7="13000.00000" pt_clust_8="13000.00000" pt_clust_9="118.42912"></scales>
<clustering>
<clus scale="   80.801">  5  6 -1 -1</clus>
<clus scale="   96.912">  7  8 -1 -1</clus>
<clus scale="  118.429">  1  9  2 -1</clus>
<clus scale="  182.177">  1  5  2 -1</clus>
<clus scale="  118.429">  1  5  2 -1</clus>
</clustering>
</event>
<event>
 9    2  0.1665830E-004  0.1103603E+03  0.7546771E-02  0.1263831E+00
         21   -1    0    0  501  502  0.00000000000E+00  0.00000000000E+00  0.23273811457E+02  0.23273811457E+02  0.00000000000E+00 0.  1.
          2   -1    0    0  502    0 -0.00000000000E+00 -0.00000000000E+00 -0.64253185397E+03  0.64253185397E+03  0.00000000000E+00 0. -1.
         24    2    1    2    0    0 -0.67550245123E+02 -0.21919393181E+02 -0.39377924955E+03  0.40782623690E+03  0.78845714625E+02 0.  0.
         23    2    1    2    0    0  0.54085993739E+02  0.62050803711E+01 -0.19298133773E+03  0.21945268082E+03  0.89184553957E+02 0.  0.
        -13    1    3    3    0    0 -0.38270711805E+02 -0.51702015264E+02 -0.24295481365E+03  0.25132605763E+03  0.00000000000E+00 0.  1.
         14    1    3    3    0    0 -0.29279533318E+02  0.29782622083E+02 -0.15082443589E+03  0.15650017927E+03  0.00000000000E+00 0. -1.
        -11    1    4    4    0    0  0.49393596601E+02 -0.35224788542E+02 -0.92000203057E+02  0.11020231611E+03  0.00000000000E+00 0.  1.
         11    1    4    4    0    0  0.46923971377E+01  0.41429868914E+02 -0.10098113468E+03  0.10925036471E+03  0.00000000000E+00 0. -1.
          1    1    1    2  501    0  0.13464251384E+02  0.15714312810E+02 -0.32497455230E+02  0.38526747707E+02  0.00000000000E+00 0. -1.
<scales pt_clust_5="13000.00000" pt_clust_6="13000.00000" pt_clust_7="13000.00000" pt_clust_8="13000.00000" pt_clust_9="20.69361"></scales>
<clustering>
<clus scale="   20.694">  1  9  2 -1</clus>
<clus scale="   78.846">  5  6 -1 -1</clus>
<clus scale="   89.185">  7  8 -1 -1</clus>
<clus scale="  102.187">  2  5  1 -1</clus>
<clus scale="   20.694">  1  5  2 -1</clus>
</clustering>
</event>
<event>
 9    2  0.1665830E-004  0.9570731E+02  0.7546771E-02  0.1293197E+00
          2   -1    0    0  502    0 -0.00000000000E+00  0.00000000000E+00  0.27394158468E+03  0.27394158468E+03  0.00000000000E+00 0. -1.
         21   -1    0    0  501  502  0.00000000000E+00 -0.00000000000E+00 -0.13785128674E+03  0.13785128674E+03  0.00000000000E+00 0. -1.
         24    2    1    2    0    0  0.10184660752E+01 -0.18448640233E+02  0.19069999237E+03  0.20981735202E+03  0.85530371890E+02 0.  0.
         23    2    1    2    0    0 -0.28844418007E+02  0.70872122609E+02  0.23537541984E+01  0.11971167811E+03  0.92035251415E+02 0.  0.
        -11    1    3    3    0    0 -0.26866270564E+02 -0.20675248390E+02  0.17392823647E+03  0.17720128055E+03  0.00000000000E+00 0.  1.
         12    1    3    3    0    0  0.27884736639E+02  0.22266081565E+01  0.16771755908E+02  0.32616071461E+02  0.00000000000E+00 0. -1.
        -11    1    4    4    0    0  0.14271354479E+02  0.59066457826E+02 -0.26724975470E+02  0.66383298447E+02  0.00000000000E+00 0.  1.
         11    1    4    4    0    0 -0.43115772486E+02  0.11805664783E+02  0.29078729668E+02  0.53328379660E+02  0.00000000000E+00 0. -1.
          1    1    1    2  501    0  0.27825951932E+02 -0.52423482376E+02 -0.56963448628E+02  0.82263841297E+02  0.00000000000E+00 0. -1.
<scales pt_clust_5="13000.00000" pt_clust_6="13000.00000" pt_clust_7="13000.00000" pt_clust_8="13000.00000" pt_clust_9="59.35070"></scales>
<clustering>
<clus scale="   59.351">  2  9  1 -1</clus>
<clus scale="   85.530">  5  6 -1 -1</clus>
<clus scale="   89.470">  1  5  2 -1</clus>
<clus scale="   92.035">  7  8 -1 -1</clus>
<clus scale="   59.351">  2  5  1 -1</clus>
</clustering>
</event>
<event>
 9    2  0.1665830E-004  0.1126795E+03  0.7546771E-02  0.1259087E+00
         -1   -1    0    0    0  501 -0.00000000000E+00  0.00000000000E+00  0.94582106022E+03  0.94582106022E+03  0.00000000000E+00 0.  1.
         21   -1    0    0  501  502  0.00000000000E+00 -0.00000000000E+00 -0.31333037793E+02  0.31333037793E+02  0.00000000000E+00 0.  1.
         23    2    1    2    0    0 -0.95625089129E+02  0.52238997378E+01  0.35033574370E+03  0.37415615249E+03  0.89923558277E+02 0.  0.
         24    2    1    2    0    0  0.26238501343E+02  0.57990929985E+02  0.17696917473E+03  0.20459943990E+03  0.80569442656E+02 0.  0.
        -11    1    4    4    0    0 -0.19953703467E+02 -0.74107039830E+01  0.25055484194E+02  0.32876223989E+02  0.00000000000E+00 0.  1.
         12    1    4    4    0    0  0.46192204810E+02  0.65401633968E+02  0.15191369054E+03  0.17172321591E+03  0.00000000000E+00 0. -1.
        -13    1    3    3    0    0 -0.48856612450E+02 -0.38840103579E+02  0.12322247455E+03  0.13812784100E+03  0.00000000000E+00 0. -1.
         13    1    3    3    0    0 -0.46768476679E+02  0.44064003317E+02  0.22711326915E+03  0.23602831148E+03  0.00000000000E+00 0.  1.
         -2    1    1    2    0  502  0.69386587786E+02 -0.63214829722E+02  0.38718310399E+03  0.39839850562E+03  0.00000000000E+00 0.  1.
<scales pt_clust_5="13000.00000" pt_clust_6="13000.00000" pt_clust_7="13000.00000" pt_clust_8="13000.00000" pt_clust_9="93.86491"></scales>
<clustering>
<clus scale="   80.569">  5  6 -1 -1</clus>
<clus scale="   89.924">  7  8 -1 -1</clus>
<clus scale="   93.865">  2  9  1 -1</clus>
<clus scale="  105.365">  2  5  1 -1</clus>
<clus scale="   93.865">  2  5  1 -1</clus>
</clustering>
</event>
<event>
 9    2  0.1665830E-004  0.1210185E+03  0.7546771E-02  0.1247513E+00
          2   -1    0    0  502    0 -0.00000000000E+00  0.00000000000E+00  0.23010578121E+03  0.23010578121E+03  0.00000000000E+00 0. -1.
         21   -1    0    0  501  502  0.00000000000E+00 -0.00000000000E+00 -0.29215299377E+03  0.29215299377E+03  0.00000000000E+00 0. -1.
         24    2    1    2    0    0 -0.13919043386E+02 -0.82663842766E+02  0.18404096491E+03  0.21447173911E+03  0.71414280368E+02 0.  0.
         23    2    1    2    0    0  0.35169201555E+02  0.46254039146E+02 -0.74762600864E+02  0.13135093917E+03  0.91034684917E+02 0.  0.
        -13    1    3    3    0    0  0.25118423157E+02 -0.25627656426E+02  0.34726133578E+02  0.49936122287E+02  0.00000000000E+00 0.  1.
         14    1    3    3    0    0 -0.39037466543E+02 -0.57036186340E+02  0.14931483133E+03  0.16453561682E+03  0.00000000000E+00 0. -1.
        -13    1    4    4    0    0  0.64132419090E+02  0.19932466370E+02 -0.58146270561E+02  0.88832759577E+02  0.00000000000E+00 0. -1.
         13    1    4    4    0    0 -0.28963217534E+02  0.26321572775E+02 -0.16616330303E+02  0.42518179595E+02  0.00000000000E+00 0.  1.
          1    1    1    2  501    0 -0.21250158169E+02  0.36409803621E+02 -0.17132557660E+03  0.17643609671E+03  0.00000000000E+00 0. -1.
<scales pt_clust_5="13000.00000" pt_clust_6="13000.00000" pt_clust_7="13000.00000" pt_clust_8="13000.00000" pt_clust_9="42.15736"></scales>
<clustering>
<clus scale="   42.157">  2  9  1 -1</clus>
<clus scale="   71.414">  5  6 -1 -1</clus>
<clus scale="   91.035">  7  8 -1 -1</clus>
<clus scale="  107.043">  1  5  2 -1</clus>
<clus scale="   42.157">  2  5  1 -1</clus>
</clustering>
</event>
<event>
 9    2  0.1665830E-004  0.2285032E+03  0.7546771E-02  0.1141617E+00
         21   -1    0    0  501  502  0.00000000000E+00  0.00000000000E+00  0.24583671207E+03  0.24583671207E+03  0.00000000000E+00 0.  1.
         -1   -1    0    0    0  501 -0.00000000000E+00 -0.00000000000E+00 -0.50362632336E+03  0.50362632336E+03  0.00000000000E+00 0.  1.
         23    2    1    2    0    0 -0.12040280868E+03 -0.60195472657E+02  0.53528912351E+02  0.17137967804E+03  0.91571383734E+02 0.  0.
         24    2    1    2    0    0 -0.12451441369E+02 -0.18549164603E+03 -0.90304399135E+02  0.22190972660E+03  0.80788941821E+02 0.  0.
        -13    1    4    4    0    0 -0.32662524470E+02 -0.15247789569E+03 -0.44958101996E+02  0.16228857050E+03  0.00000000000E+00 0.  1.
         14    1    4    4    0    0  0.20211083101E+02 -0.33013750339E+02 -0.45346297139E+02  0.59621156109E+02  0.00000000000E+00 0. -1.
        -13    1    3    3    0    0 -0.99015701269E+02 -0.50873138574E+02 -0.17981458448E+01  0.11133471451E+03  0.00000000000E+00 0. -1.
         13    1    3    3    0    0 -0.21387107413E+02 -0.93223340827E+01  0.55327058196E+02  0.60044963526E+02  0.00000000000E+00 0.  1.
         -2    1    1    2    0  502  0.13285425005E+03  0.24568711868E+03 -0.22101412450E+03  0.35617363079E+03  0.00000000000E+00 0.  1.
<scales pt_clust_5="13000.00000" pt_clust_6="13000.00000" pt_clust_7="13000.00000" pt_clust_8="13000.00000" pt_clust_9="213.74500"></scales>
<clustering>
<clus scale="   80.789">  5  6 -1 -1</clus>
<clus scale="   91.571">  7  8 -1 -1</clus>
<clus scale="  162.806">  2  7  1 -1</clus>
<clus scale="  213.745">  1  9  2 -1</clus>
<clus scale="  213.745">  1  5  2 -1</clus>
</clustering>
</event>
<event>
 9    2  0.1665830E-004  0.2985290E+03  0.7546771E-02  0.1085978E+00
          4   -1    0    0  502    0 -0.00000000000E+00  0.00000000000E+00  0.68955565143E+02  0.68955565143E+02  0.00000000000E+00 0. -1.
         21   -1    0    0  501  502  0.00000000000E+00 -0.00000000000E+00 -0.11771187441E+04  0.11771187441E+04  0.00000000000E+00 0. -1.
         24    2    1    2    0    0 -0.63247019529E+02 -0.76745202008E+02 -0.23889339017E+03  0.27124100602E+03  0.81311868558E+02 0.  0.
         23    2    1    2    0    0 -0.10351964557E+03 -0.67281996311E+02 -0.12939869346E+03  0.20284613225E+03  0.95704479800E+02 0.  0.
        -13    1    3    3    0    0 -0.44978071248E+02 -0.11621240957E+02 -0.16341944946E+03  0.16989407464E+03  0.00000000000E+00 0.  1.
         14    1    3    3    0    0 -0.18268948281E+02 -0.65123961051E+02 -0.75473940710E+02  0.10134693138E+03  0.00000000000E+00 0. -1.
        -13    1    4    4    0    0 -0.67239269978E+01  0.22395891578E+02 -0.27700878267E+02  0.36250873239E+02  0.00000000000E+00 0.  1.
         13    1    4    4    0    0 -0.96795718577E+02 -0.89677887889E+02 -0.10169781519E+03  0.16659525901E+03  0.00000000000E+00 0. -1.
          3    1    1    2  501    0  0.16676666510E+03  0.14402719832E+03 -0.73987109534E+03  0.77198717098E+03  0.00000000000E+00 0. -1.
<scales pt_clust_5="13000.00000" pt_clust_6="13000.00000" pt_clust_7="13000.00000" pt_clust_8="13000.00000" pt_clust_9="220.35189"></scales>
<clustering>
<clus scale="   81.312">  5  6 -1 -1</clus>
<clus scale="   95.704">  7  8 -1 -1</clus>
<clus scale="  126.762">  5  7 -1 -1</clus>
<clus scale="  220.352">  2  9  1 -1</clus>
<clus scale="  220.352">  2  5  1 -1</clus>
</clustering>
</event>
<event>
 9    2  0.1665830E-004  0.1497928E+03  0.7546771E-02  0.1201598E+00
          2   -1    0    0  502    0 -0.00000000000E+00  0.00000000000E+00  0.29871778081E+03  0.29871778081E+03  0.00000000000E+00 0. -1.
         21   -1    0    0  501  502  0.00000000000E+00 -0.00000000000E+00 -0.20305552253E+03  0.20305552253E+03  0.00000000000E+00 0. -1.
         24    2    1    2    0    0  0.10215879995E+03 -0.75586850077E+02  0.20385141321E+03  0.25357730608E+03  0.81217357640E+02 0.  0.
         23    2    1    2    0    0 -0.10383825766E+03  0.15306459202E+02 -0.12606408034E+03  0.18529878697E+03  0.86178980361E+02 0.  0.
        -11    1    3    3    0    0  0.61750344030E+02 -0.72683130139E+02  0.18656841755E+03  0.20953213792E+03  0.00000000000E+00 0.  1.
         12    1    3    3    0    0  0.40408455925E+02 -0.29037199382E+01  0.17282995657E+02  0.44045168164E+02  0.00000000000E+00 0. -1.
        -11    1    4    4    0    0  0.45626114295E+01 -0.19587375581E+02 -0.31019245241E+02  0.36968585049E+02  0.00000000000E+00 0.  1.
         11    1    4    4    0    0 -0.10840086909E+03  0.34893834782E+02 -0.95044835097E+02  0.14833020192E+03  0.00000000000E+00 0. -1.
          1    1    1    2  501    0  0.16794577019E+01  0.60280390876E+02  0.17874925419E+02  0.62897210280E+02  0.00000000000E+00 0. -1.
<scales pt_clust_5="13000.00000" pt_clust_6="13000.00000" pt_clust_7="13000.00000" pt_clust_8="13000.00000" pt_clust_9="60.30381"></scales>
<clustering>
<clus scale="   60.304">  2  9  1 -1</clus>
<clus scale="   81.217">  5  6 -1 -1</clus>
<clus scale="   86.179">  7  8 -1 -1</clus>
<clus scale="  146.994">  1  5  2 -1</clus>
<clus scale="   60.304">  2  5  1 -1</clus>
</clustering>
</event>
<event>
 9    2  0.1665830E-004  0.1169479E+03  0.7546771E-02  0.1252018E+00
         21   -1    0    0  501  502  0.00000000000E+00  0.00000000000E+00  0.11802177517E+03  0.11802177517E+03  0.00000000000E+00 0.  1.
          4   -1    0    0  502    0 -0.00000000000E+00 -0.00000000000E+00 -0.14946837304E+03  0.14946837304E+03  0.00000000000E+00 0. -1.
         23    2    1    2    0    0 -0.56392734241E+02 -0.53168489023E+02 -0.47583237835E+02  0.12959574126E+03  0.92324768782E+02 0.  0.
         24    2    1    2    0    0  0.61667950341E+02  0.23533740069E+02  0.22672258482E+02  0.10709244987E+03  0.81228003134E+02 0.  0.
        -13    1    4    4    0    0  0.44851032159E+02 -0.22597186182E+02  0.28339144503E+02  0.57665891307E+02  0.00000000000E+00 0.  1.
         14    1    4    4    0    0  0.16816918182E+02  0.46130926252E+02 -0.56668860211E+01  0.49426558561E+02  0.00000000000E+00 0. -1.
        -13    1    3    3    0    0 -0.71396797002E+02 -0.20604648284E+02 -0.55658315210E+02  0.92843428443E+02  0.00000000000E+00 0. -1.
         13    1    3    3    0    0  0.15004062761E+02 -0.32563840740E+02  0.80750773752E+01  0.36752312821E+02  0.00000000000E+00 0.  1.
          3    1    1    2  501    0 -0.52752161001E+01  0.29634748954E+02 -0.65356185204E+01  0.30801957079E+02  0.00000000000E+00 0. -1.
<scales pt_clust_5="13000.00000" pt_clust_6="13000.00000" pt_clust_7="13000.00000" pt_clust_8="13000.00000" pt_clust_9="30.10062"></scales>
<clustering>
<clus scale="   30.101">  1  9  2 -1</clus>
<clus scale="   81.228">  5  6 -1 -1</clus>
<clus scale="   92.325">  7  8 -1 -1</clus>
<clus scale="  108.402">  1  5  2 -1</clus>
<clus scale="   30.101">  1  5  2 -1</clus>
</clustering>
</event>
<event>
 9    2  0.1665830E-004  0.1635992E+03  0.7546771E-02  0.1185614E+00
          2   -1    0    0  502    0 -0.00000000000E+00  0.00000000000E+00  0.28756501419E+03  0.28756501419E+03  0.00000000000E+00 0. -1.
         21   -1    0    0  501  502  0.00000000000E+00 -0.00000000000E+00 -0.20298685330E+03  0.20298685330E+03  0.00000000000E+00 0. -1.
         23    2    1    2    0    0  0.43128731213E+02  0.15664294053E+03  0.17794170242E+03  0.25449837870E+03  0.81908955723E+02 0.  0.
         24    2    1    2    0    0  0.10349255817E+02 -0.75596683109E+02 -0.70485402197E+02  0.13629477890E+03  0.88238932670E+02 0.  0.
        -13    1    4    4    0    0  0.45673256500E+02 -0.47402791920E+02 -0.61762902000E+02  0.90264761145E+02  0.00000000000E+00 0.  1.
         14    1    4    4    0    0 -0.35324000682E+02 -0.28193891189E+02 -0.87225001970E+01  0.46030017752E+02  0.00000000000E+00 0. -1.
        -13    1    3    3    0    0  0.10074593270E+02  0.14592566971E+03  0.15337747171E+03  0.21194444399E+03  0.00000000000E+00 0. -1.
         13    1    3    3    0    0  0.33054137944E+02  0.10717270817E+02  0.24564230713E+02  0.42553934712E+02  0.00000000000E+00 0.  1.
          1    1    1    2  501    0 -0.53477987031E+02 -0.81046257419E+02 -0.22878139332E+02  0.99758709884E+02  0.00000000000E+00 0. -1.
<scales pt_clust_5="13000.00000" pt_clust_6="13000.00000" pt_clust_7="13000.00000" pt_clust_8="13000.00000" pt_clust_9="97.09990"></scales>
<clustering>
<clus scale="   81.909">  7  8 -1 -1</clus>
<clus scale="   88.239">  5  6 -1 -1</clus>
<clus scale="   97.100">  2  9  1 -1</clus>
<clus scale="  160.274">  1  7  2 -1</clus>
<clus scale="   97.100">  2  5  1 -1</clus>
</clustering>
</event>
<event>
 9    2  0.1665830E-004  0.1224426E+03  0.7546771E-02  0.1241091E+00
         -1   -1    0    0    0  501 -0.00000000000E+00  0.00000000000E+00  0.55682571659E+03  0.55682571659E+03  0.00000000000E+00 0.  1.
         21   -1    0    0  501  502  0.00000000000E+00 -0.00000000000E+00 -0.61321210621E+02  0.61321210621E+02  0.00000000000E+00 0. -1.
         23    2    1    2    0    0 -0.78115987558E+02  0.39346048455E+02  0.43827938427E+03  0.45590955821E+03  0.90080450460E+02 0.  0.
         24    2    1    2    0    0  0.48640515299E+02 -0.51287266547E+02  0.67868474356E+02  0.12870116304E+03  0.83436060056E+02 0.  0.
        -13    1    4    4    0    0 -0.68673340387E+00  0.20098024493E+02  0.29301813324E+01  0.20322109978E+02  0.00000000000E+00 0.  1.
         14    1    4    4    0    0  0.49327248703E+02 -0.71385291041E+02  0.64938293023E+02  0.10837905306E+03  0.00000000000E+00 0. -1.
        -11    1    3    3    0    0 -0.50847460418E+02  0.56718201272E+02  0.39274515943E+03  0.40006396843E+03  0.00000000000E+00 0. -1.
         11    1    3    3    0    0 -0.27268527140E+02 -0.17372152817E+02  0.45534224841E+02  0.55845589779E+02  0.00000000000E+00 0.  1.
         -2    1    1    2    0  502  0.29475472259E+02  0.11941218093E+02 -0.10643352655E+02  0.33536205959E+02  0.00000000000E+00 0.  1.
<scales pt_clust_5="13000.00000" pt_clust_6="13000.00000" pt_clust_7="13000.00000" pt_clust_8="13000.00000" pt_clust_9="31.80246"></scales>
<clustering>
<clus scale="   31.802">  2  9  1 -1</clus>
<clus scale="   83.436">  5  6 -1 -1</clus>
<clus scale="   90.080">  7  8 -1 -1</clus>
<clus scale="  117.640">  2  5  1 -1</clus>
<clus scale="   31.802">  2  5  1 -1</clus>
</clustering>
</event>
<event>
 9    2  0.1665830E-004  0.1798714E+03  0.7546771E-02  0.1169543E+00
          2   -1    0    0  502    0 -0.00000000000E+00  0.00000000000E+00  0.13363040467E+04  0.13363040467E+04  0.00000000000E+00 0. -1.
         21   -1    0    0  501  502  0.00000000000E+00 -0.00000000000E+00 -0.35116643628E+02  0.35116643628E+02  0.00000000000E+00 0. -1.
         24    2    1    2    0    0  0.12697020021E+03  0.11635609270E+03  0.77261372770E+03  0.79538176360E+03  0.77717472892E+02 0.  0.
         23    2    1    2    0    0 -0.10648367702E+03 -0.65235176753E+02  0.26583936144E+03  0.30759458353E+03  0.91375379421E+02 0.  0.
        -13    1    3    3    0    0  0.21983117580E+02 -0.92346587139E+01  0.13509801660E+03  0.13718604328E+03  0.00000000000E+00 0.  1.
         14    1    3    3    0    0  0.10498708263E+03  0.12559075141E+03  0.63751571109E+03  0.65819572032E+03  0.00000000000E+00 0. -1.
        -11    1    4    4    0    0 -0.46732132422E+02  0.14961008076E+02  0.12968562847E+03  0.13865816310E+03  0.00000000000E+00 0.  1.
         11    1    4    4    0    0 -0.59751544602E+02 -0.80196184829E+02  0.13615373298E+03  0.16893642043E+03  0.00000000000E+00 0. -1.
          1    1    1    2  501    0 -0.20486523183E+02 -0.51120915946E+02  0.26273431396E+03  0.26844434323E+03  0.00000000000E+00 0. -1.
<scales pt_clust_5="13000.00000" pt_clust_6="13000.00000" pt_clust_7="13000.00000" pt_clust_8="13000.00000" pt_clust_9="55.07312"></scales>
<clustering>
<clus scale="   55.073">  2  9  1 -1</clus>
<clus scale="   77.717">  5  6 -1 -1</clus>
<clus scale="   91.375">  7  8 -1 -1</clus>
<clus scale="  173.333">  1  5  2 -1</clus>
<clus scale="   55.073">  2  5  1 -1</clus>
</clustering>
</event>
<event>
 9    2  0.1665830E-004  0.1046686E+03  0.7546771E-02  0.1275890E+00
         -3   -1    0    0    0  501 -0.00000000000E+00  0.00000000000E+00  0.16235563949E+03  0.16235563949E+03  0.00000000000E+00 0.  1.
         21   -1    0    0  501  502  0.00000000000E+00 -0.00000000000E+00 -0.19759816509E+03  0.19759816509E+03  0.00000000000E+00 0.  1.
         24    2    1    2    0    0  0.40933290089E+02  0.58170481115E+02  0.33630960907E+02  0.11232284205E+03  0.80162586056E+02 0.  0.
         23    2    1    2    0    0  0.48632041384E+02 -0.13025802605E+02 -0.97929293000E+02  0.14320763904E+03  0.91561642998E+02 0.  0.
        -11    1    3    3    0    0  0.62478655072E+02  0.49487497322E+02  0.12036992866E+02  0.80606971957E+02  0.00000000000E+00 0.  1.
         12    1    3    3    0    0 -0.21545364983E+02  0.86829837931E+01  0.21593968041E+02  0.31715870090E+02  0.00000000000E+00 0. -1.
        -11    1    4    4    0    0  0.25469383983E+02  0.12545578799E+02 -0.10432352228E+03  0.10811789106E+03  0.00000000000E+00 0.  1.
         11    1    4    4    0    0  0.23162657401E+02 -0.25571381404E+02  0.63942292768E+01  0.35089747973E+02  0.00000000000E+00 0. -1.
         -4    1    1    2    0  502 -0.89565331473E+02 -0.45144678510E+02  0.29055806492E+02  0.10442332350E+03  0.00000000000E+00 0.  1.
<scales pt_clust_5="13000.00000" pt_clust_6="13000.00000" pt_clust_7="13000.00000" pt_clust_8="13000.00000" pt_clust_9="100.29955"></scales>
<clustering>
<clus scale="   80.163">  5  6 -1 -1</clus>
<clus scale="   91.562">  7  8 -1 -1</clus>
<clus scale="  100.300">  2  9  1 -1</clus>
<clus scale="   94.858">  1  5  2 -1</clus>
<clus scale="  100.300">  2  5  1 -1</clus>
</clustering>
</event>
<event>
 9    2  0.1665830E-004  0.9755193E+02  0.7546771E-02  0.1289538E+00
         21   -1    0    0  501  502  0.00000000000E+00  0.00000000000E+00  0.40837026217E+03  0.40837026217E+03  0.00000000000E+00 0.  1.
         -1   -1    0    0    0  501 -0.00000000000E+00 -0.00000000000E+00 -0.45252500419E+02  0.45252500419E+02  0.00000000000E+00 0.  1.
         24    2    1    2    0    0 -0.33513683516E+02 -0.18798879331E+02  0.47961237317E+02  0.10175481804E+03  0.81099925167E+02 0.  0.
         23    2    1    2    0    0  0.53159190855E+02 -0.18297325288E+02  0.16283294449E+03  0.19386621240E+03  0.88931708711E+02 0.  0.
        -13    1    3    3    0    0  0.19320028823E+02  0.66750092289E+01  0.36730453058E+02  0.42035050182E+02  0.00000000000E+00 0.  1.
         14    1    3    3    0    0 -0.52833712338E+02 -0.25473888559E+02  0.11230784259E+02  0.59719767857E+02  0.00000000000E+00 0. -1.
        -13    1    4    4    0    0  0.46695806916E+01  0.32344562217E+02  0.33801754486E+02  0.47016319456E+02  0.00000000000E+00 0. -1.
         13    1    4    4    0    0  0.48489610164E+02 -0.50641887506E+02  0.12903119000E+03  0.14684989294E+03  0.00000000000E+00 0.  1.
         -2    1    1    2    0  502 -0.19645507340E+02  0.37096204619E+02  0.15232357995E+03  0.15800173215E+03  0.00000000000E+00 0.  1.
<scales pt_clust_5="13000.00000" pt_clust_6="13000.00000" pt_clust_7="13000.00000" pt_clust_8="13000.00000" pt_clust_9="41.97707"></scales>
<clustering>
<clus scale="   41.977">  1  9  2 -1</clus>
<clus scale="   81.100">  5  6 -1 -1</clus>
<clus scale="   88.932">  7  8 -1 -1</clus>
<clus scale="   90.469">  2  5  1 -1</clus>
<clus scale="   41.977">  1  5  2 -1</clus>
</clustering>
</event>
<event>
 9    2  0.1665830E-004  0.9826215E+02  0.7546771E-02  0.1291047E+00
          2   -1    0    0  502    0 -0.00000000000E+00  0.00000000000E+00  0.58364297351E+03  0.58364297351E+03  0.00000000000E+00 0. -1.
         21   -1    0    0  501  502  0.00000000000E+00 -0.00000000000E+00 -0.12845906560E+03  0.12845906560E+03  0.00000000000E+00 0.  1.
         24    2    1    2    0    0  0.24048375308E+02 -0.16368447208E+02  0.50913263325E+03  0.51637328774E+03  0.81111550548E+02 0.  0.
         23    2    1    2    0    0 -0.36140113128E+02 -0.10552811135E+02  0.30947431562E+02  0.10584926690E+03  0.93961982647E+02 0.  0.
        -13    1    3    3    0    0  0.30600698696E+02 -0.23510843230E+02  0.10093108262E+03  0.10805667934E+03  0.00000000000E+00 0.  1.
         14    1    3    3    0    0 -0.65523233882E+01  0.71423960214E+01  0.40820155062E+03  0.40831660840E+03  0.00000000000E+00 0. -1.
        -11    1    4    4    0    0 -0.59682701901E+02 -0.32876496677E+02  0.26462789661E+02  0.73096977890E+02  0.00000000000E+00 0. -1.
         11    1    4    4    0    0  0.23542588773E+02  0.22323685543E+02  0.44846419007E+01  0.32752289009E+02  0.00000000000E+00 0.  1.
          1    1    1    2  501    0  0.12091737821E+02  0.26921258343E+02 -0.84896156896E+02  0.89879484478E+02  0.00000000000E+00 0. -1.
<scales pt_clust_5="13000.00000" pt_clust_6="13000.00000" pt_clust_7="13000.00000" pt_clust_8="13000.00000" pt_clust_9="29.51210"></scales>
<clustering>
<clus scale="   29.512">  2  9  1 -1</clus>
<clus scale="   81.112">  5  6 -1 -1</clus>
<clus scale="   86.056">  1  5  2 -1</clus>
<clus scale="   93.962">  7  8 -1 -1</clus>
<clus scale="   29.512">  2  5  1 -1</clus>
</clustering>
</event>
<event>
 9    2  0.1665830E-004  0.1395156E+03  0.7546771E-02  0.1238536E+00
         -3   -1    0    0    0  501 -0.00000000000E+00  0.00000000000E+00  0.39862013980E+03  0.39862013980E+03  0.00000000000E+00 0.  1.
         21   -1    0    0  501  502  0.00000000000E+00 -0.00000000000E+00 -0.95116317169E+02  0.95116317169E+02  0.00000000000E+00 0.  1.
         24    2    1    2    0    0 -0.92889702505E+01  0.29003787082E+02  0.20665644249E+03  0.22298560775E+03  0.78026863384E+02 0.  0.
         23    2    1    2    0    0  0.10851237711E+03 -0.48001933508E+02  0.76758511153E+02  0.16774707893E+03  0.90377496360E+02 0.  0.
        -11    1    3    3    0    0  0.29505452989E+02  0.25453587794E+02  0.14422870937E+03  0.14940005854E+03  0.00000000000E+00 0.  1.
         12    1    3    3    0    0 -0.38794423240E+02  0.35501992878E+01  0.62427733122E+02  0.73585549208E+02  0.00000000000E+00 0. -1.
        -11    1    4    4    0    0  0.24934576810E+02  0.25712801325E+02  0.76757370509E+01  0.36630563905E+02  0.00000000000E+00 0. -1.
         11    1    4    4    0    0  0.83577800297E+02 -0.73714734833E+02  0.69082774102E+02  0.13111651502E+03  0.00000000000E+00 0.  1.
         -4    1    1    2    0  502 -0.99223406857E+02  0.18998146426E+02  0.20088868988E+02  0.10300377029E+03  0.00000000000E+00 0.  1.
<scales pt_clust_5="13000.00000" pt_clust_6="13000.00000" pt_clust_7="13000.00000" pt_clust_8="13000.00000" pt_clust_9="106.28500"></scales>
<clustering>
<clus scale="   78.027">  5  6 -1 -1</clus>
<clus scale="   83.760">  1  5  2 -1</clus>
<clus scale="   90.377">  7  8 -1 -1</clus>
<clus scale="  106.285">  2  9  1 -1</clus>
<clus scale="  106.285">  2  5  1 -1</clus>
</clustering>
</event>
<event>
 9    2  0.1665830E-004  0.1431779E+03  0.7546771E-02  0.1213092E+00
         21   -1    0    0  501  502  0.00000000000E+00  0.00000000000E+00  0.20589726127E+03  0.20589726127E+03  0.00000000000E+00 0.  1.
          2   -1    0    0  502    0 -0.00000000000E+00 -0.00000000000E+00 -0.21623888996E+03  0.21623888996E+03  0.00000000000E+00 0. -1.
         24    2    1    2    0    0  0.40555737730E+02 -0.99601266779E+02 -0.96988459434E+02  0.16526990059E+03  0.79637921686E+02 0.  0.
         23    2    1    2    0    0  0.10429651131E+02  0.10085365026E+03  0.12871695087E+03  0.19075291348E+03  0.97664651577E+02 0.  0.
        -13    1    3    3    0    0 -0.91900155563E+01 -0.79608803183E+02 -0.55517846965E+02  0.97489739264E+02  0.00000000000E+00 0.  1.
         14    1    3    3    0    0  0.49745753286E+02 -0.19992463596E+02 -0.41470612468E+02  0.67780161324E+02  0.00000000000E+00 0. -1.
        -11    1    4    4    0    0  0.32163870362E+02  0.77900828523E+01  0.35657194076E+01  0.33285346662E+02  0.00000000000E+00 0. -1.
         11    1    4    4    0    0 -0.21734219231E+02  0.93063567406E+02  0.12515123147E+03  0.15746756682E+03  0.00000000000E+00 0.  1.
          1    1    1    2  501    0 -0.50985388860E+02 -0.12523834796E+01 -0.42070120135E+02  0.66113337155E+02  0.00000000000E+00 0. -1.
<scales pt_clust_5="13000.00000" pt_clust_6="13000.00000" pt_clust_7="13000.00000" pt_clust_8="13000.00000" pt_clust_9="51.00079"></scales>
<clustering>
<clus scale="   51.001">  1  9  2 -1</clus>
<clus scale="   79.638">  5  6 -1 -1</clus>
<clus scale="   97.665">  7  8 -1 -1</clus>
<clus scale="  131.544">  2  5  1 -1</clus>
<clus scale="   51.001">  1  5  2 -1</clus>
</clustering>
</event>
<event>
 9    2  0.1665830E-004  0.1089437E+03  0.7546771E-02  0.1270825E+00
         21   -1    0    0  501  502  0.00000000000E+00  0.00000000000E+00  0.10873358202E+03  0.10873358202E+03  0.00000000000E+00 0. -1.
          2   -1    0    0  502    0 -0.00000000000E+00 -0.00000000000E+00 -0.15573306893E+03  0.15573306893E+03  0.00000000000E+00 0. -1.
         24    2    1    2    0    0 -0.45326302753E+02 -0.37546501603E+02 -0.75483559604E+02  0.12413838806E+03  0.79046556638E+02 0.  0.
         23    2    1    2    0    0  0.18536697063E+02  0.16979595960E+02  0.85448316440E+01  0.10110768265E+03  0.97559384615E+02 0.  0.
        -13    1    3    3    0    0 -0.37668650671E+02 -0.24716345682E+02  0.21258997633E+01  0.45103707575E+02  0.00000000000E+00 0.  1.
         14    1    3    3    0    0 -0.76576520820E+01 -0.12830155921E+02 -0.77609459367E+02  0.79034680487E+02  0.00000000000E+00 0. -1.
        -13    1    4    4    0    0  0.40247678087E+02 -0.21085532888E+02 -0.19107802064E+02  0.49290804298E+02  0.00000000000E+00 0.  1.
         13    1    4    4    0    0 -0.21710981025E+02  0.38065128848E+02  0.27652633708E+02  0.51816878354E+02  0.00000000000E+00 0. -1.
          1    1    1    2  501    0  0.26789605690E+02  0.20566905643E+02  0.19939241051E+02  0.39220580241E+02  0.00000000000E+00 0. -1.
<scales pt_clust_5="13000.00000" pt_clust_6="13000.00000" pt_clust_7="13000.00000" pt_clust_8="13000.00000" pt_clust_9="33.77396"></scales>
<clustering>
<clus scale="   33.774">  1  9  2 -1</clus>
<clus scale="   79.047">  5  6 -1 -1</clus>
<clus scale="   92.732">  2  5  1 -1</clus>
<clus scale="   97.559">  7  8 -1 -1</clus>
<clus scale="   33.774">  1  5  2 -1</clus>
</clustering>
</event>
<event>
 9    2  0.1665830E-004  0.1248456E+03  0.7546771E-02  0.1239884E+00
          4   -1    0    0  502    0 -0.00000000000E+00  0.00000000000E+00  0.12142230568E+03  0.12142230568E+03  0.00000000000E+00 0. -1.
         21   -1    0    0  501  502  0.00000000000E+00 -0.00000000000E+00 -0.21309982716E+03  0.21309982716E+03  0.00000000000E+00 0. -1.
         24    2    1    2    0    0 -0.77441975733E+02  0.45429355294E+02  0.17371440750E+02  0.12036673403E+03  0.78264281637E+02 0.  0.
         23    2    1    2    0    0  0.74590499797E+02 -0.11656353485E+02 -0.24120479443E+02  0.12271364820E+03  0.93686865088E+02 0.  0.
        -13    1    3    3    0    0 -0.67221696180E+02  0.67165491266E+02  0.12308882640E+02  0.95819978325E+02  0.00000000000E+00 0.  1.
         14    1    3    3    0    0 -0.10220279553E+02 -0.21736135973E+02  0.50625581097E+01  0.24546755708E+02  0.00000000000E+00 0. -1.
        -11    1    4    4    0    0  0.35980071014E+02 -0.40865267863E+02 -0.44368430261E+02  0.70235982456E+02  0.00000000000E+00 0.  1.
         11    1    4    4    0    0  0.38610428783E+02  0.29208914378E+02  0.20247950818E+02  0.52477665747E+02  0.00000000000E+00 0. -1.
          3    1    1    2  501    0  0.28514759361E+01 -0.33773001808E+02 -0.84928482786E+02  0.91441750609E+02  0.00000000000E+00 0. -1.
<scales pt_clust_5="13000.00000" pt_clust_6="13000.00000" pt_clust_7="13000.00000" pt_clust_8="13000.00000" pt_clust_9="33.89316"></scales>
<clustering>
<clus scale="   33.893">  2  9  1 -1</clus>
<clus scale="   78.264">  5  6 -1 -1</clus>
<clus scale="   93.687">  7  8 -1 -1</clus>
<clus scale="  113.730">  1  5  2 -1</clus>
<clus scale="   33.893">  2  5  1 -1</clus>
</clustering>
</event>
<event>
 9    2  0.1665830E-004  0.2453834E+03  0.7546771E-02  0.1116994E+00
          2   -1    0    0  502    0 -0.00000000000E+00  0.00000000000E+00  0.51532982911E+03  0.51532982911E+03  0.00000000000E+00 0. -1.
         21   -1    0    0  501  502  0.00000000000E+00 -0.00000000000E+00 -0.22306240348E+03  0.22306240348E+03  0.00000000000E+00 0.  1.
         24    2    1    2    0    0 -0.11511821587E+03  0.15125686087E+03  0.59630622166E+02  0.21442441783E+03  0.79316948234E+02 0.  0.
         23    2    1    2    0    0  0.43672044017E+02 -0.29160089117E+03  0.12509367057E+03  0.33326771580E+03  0.92090264494E+02 0.  0.
        -13    1    3    3    0    0 -0.45338004654E+02  0.12335652577E+02  0.31153529226E+02  0.56375929028E+02  0.00000000000E+00 0.  1.
         14    1    3    3    0    0 -0.69780211212E+02  0.13892120829E+03  0.28477092939E+02  0.15804848880E+03  0.00000000000E+00 0. -1.
        -13    1    4    4    0    0  0.54539923757E+02 -0.20194312911E+03  0.12354936212E+03  0.24294047740E+03  0.00000000000E+00 0. -1.
         13    1    4    4    0    0 -0.10867879741E+02 -0.89657762062E+02  0.15443084510E+01  0.90327238398E+02  0.00000000000E+00 0.  1.
          1    1    1    2  501    0  0.71446171849E+02  0.14034403030E+03  0.10754313289E+03  0.19070009897E+03  0.00000000000E+00 0. -1.
<scales pt_clust_5="13000.00000" pt_clust_6="13000.00000" pt_clust_7="13000.00000" pt_clust_8="13000.00000" pt_clust_9="157.48342"></scales>
<clustering>
<clus scale="   79.317">  5  6 -1 -1</clus>
<clus scale="   92.090">  7  8 -1 -1</clus>
<clus scale="  157.483">  2  9  1 -1</clus>
<clus scale="  240.881">  1  5  2 -1</clus>
<clus scale="  157.483">  2  5  1 -1</clus>
</clustering>
</event>
<event>
 9    2  0.1665830E-004  0.9652617E+02  0.7546771E-02  0.1297668E+00
          4   -1    0    0  502    0 -0.00000000000E+00  0.00000000000E+00  0.48872183001E+02  0.48872183001E+02  0.00000000000E+00 0. -1.
         21   -1    0    0  501  502  0.00000000000E+00 -0.00000000000E+00 -0.27435393755E+03  0.27435393755E+03  0.00000000000E+00 0. -1.
         24    2    1    2    0    0  0.40354186351E+02 -0.54132899788E+01 -0.39902986308E+02  0.93202576306E+02  0.73734034539E+02 0.  0.
         23    2    1    2    0    0 -0.49373148478E+01  0.18035165146E+02 -0.15808352404E+03  0.18344398893E+03  0.91168263347E+02 0.  0.
        -11    1    3    3    0    0  0.13410591805E+02 -0.38220666281E+02 -0.27557755106E+02  0.48990745759E+02  0.00000000000E+00 0.  1.
         12    1    3    3    0    0  0.26943594546E+02  0.32807376302E+02 -0.12345231202E+02  0.44211830547E+02  0.00000000000E+00 0. -1.
        -13    1    4    4    0    0 -0.26102019852E+02  0.26883422342E+02 -0.15596903470E+03  0.16040690017E+03  0.00000000000E+00 0. -1.
         13    1    4    4    0    0  0.21164705004E+02 -0.88482571954E+01 -0.21144893402E+01  0.23037088759E+02  0.00000000000E+00 0.  1.
          3    1    1    2  501    0 -0.35416871503E+02 -0.12621875167E+02 -0.27495244206E+02  0.46579555320E+02  0.00000000000E+00 0. -1.
<scales pt_clust_5="13000.00000" pt_clust_6="13000.00000" pt_clust_7="13000.00000" pt_clust_8="13000.00000" pt_clust_9="37.59878"></scales>
<clustering>
<clus scale="   37.599">  2  9  1 -1</clus>
<clus scale="   73.734">  5  6 -1 -1</clus>
<clus scale="   80.264">  1  5  2 -1</clus>
<clus scale="   91.168">  7  8 -1 -1</clus>
<clus scale="   37.599">  2  5  1 -1</clus>
</clustering>
</event>
<event>
 9    2  0.1665830E-004  0.4779941E+03  0.7546771E-02  0.1025813E+00
          2   -1    0    0  502    0 -0.00000000000E+00  0.00000000000E+00  0.41585638167E+04  0.41585638167E+04  0.00000000000E+00 0. -1.
         21   -1    0    0  501  502  0.00000000000E+00 -0.00000000000E+00 -0.17699324837E+03  0.17699324837E+03  0.00000000000E+00 0. -1.
         23    2    1    2    0    0  0.30921717197E+03 -0.23221538698E+03  0.11013513391E+04  0.11708896042E+04  0.92024170129E+02 0.  0.
         24    2    1    2    0    0  0.86619414712E+02  0.51593022862E+03  0.24755580371E+04  0.25314760244E+04  0.79349501643E+02 0.  0.
        -11    1    4    4    0    0 -0.12256627001E+02  0.38722221777E+02  0.14990866093E+03  0.15531336706E+03  0.00000000000E+00 0.  1.
         12    1    4    4    0    0  0.98876041713E+02  0.47720800685E+03  0.23256493761E+04  0.23761626573E+04  0.00000000000E+00 0. -1.
        -13    1    3    3    0    0  0.13943661935E+03 -0.11378987087E+03  0.64774315344E+03  0.67228111558E+03  0.00000000000E+00 0.  1.
         13    1    3    3    0    0  0.16978055261E+03 -0.11842551611E+03  0.45360818561E+03  0.49860848866E+03  0.00000000000E+00 0. -1.
          1    1    1    2  501    0 -0.39583658668E+03 -0.28371484164E+03  0.40466119226E+03  0.63319143648E+03  0.00000000000E+00 0. -1.
<scales pt_clust_5="13000.00000" pt_clust_6="13000.00000" pt_clust_7="13000.00000" pt_clust_8="13000.00000" pt_clust_9="471.36191"></scales>
<clustering>
<clus scale="   79.350">  5  6 -1 -1</clus>
<clus scale="   92.024">  7  8 -1 -1</clus>
<clus scale="  397.502">  1  7  2 -1</clus>
<clus scale="  471.362">  2  9  1 -1</clus>
<clus scale="  471.362">  2  5  1 -1</clus>
</clustering>
</event>
<event>
 9    2  0.1665830E-004  0.9296887E+02  0.7546771E-02  0.1304372E+00
         -1   -1    0    0    0  501 -0.00000000000E+00  0.00000000000E+00  0.83276442211E+02  0.83276442211E+02  0.00000000000E+00 0.  1.
         21   -1    0    0  501  502  0.00000000000E+00 -0.00000000000E+00 -0.96025310148E+03  0.96025310148E+03  0.00000000000E+00 0.  1.
         24    2    1    2    0    0  0.43266907842E+01 -0.11123431898E+02  0.48270604915E+02  0.93173406108E+02  0.78795820425E+02 0.  0.
         23    2    1    2    0    0 -0.45921509823E+02 -0.56246889317E+02 -0.33937716540E+03  0.35916017870E+03  0.92448233871E+02 0.  0.
        -13    1    3    3    0    0 -0.24636507594E+01 -0.44756204362E+02  0.21835384330E+02  0.49859516772E+02  0.00000000000E+00 0.  1.
         14    1    3    3    0    0  0.67903415436E+01  0.33632772464E+02  0.26435220586E+02  0.43313889335E+02  0.00000000000E+00 0. -1.
        -11    1    4    4    0    0 -0.79610784338E+01 -0.74731701303E+02 -0.22665341868E+03  0.23878856369E+03  0.00000000000E+00 0.  1.
         11    1    4    4    0    0 -0.37960431390E+02  0.18484811986E+02 -0.11272374672E+03  0.12037161501E+03  0.00000000000E+00 0. -1.
         -2    1    1    2    0  502  0.41594819039E+02  0.67370321215E+02 -0.58587009878E+03  0.59119595888E+03  0.00000000000E+00 0.  1.
<scales pt_clust_5="13000.00000" pt_clust_6="13000.00000" pt_clust_7="13000.00000" pt_clust_8="13000.00000" pt_clust_9="79.17632"></scales>
<clustering>
<clus scale="   78.796">  5  6 -1 -1</clus>
<clus scale="   79.176">  2  9  1 -1</clus>
<clus scale="   79.406">  1  5  2 -1</clus>
<clus scale="   92.448">  7  8 -1 -1</clus>
<clus scale="   79.176">  2  5  1 -1</clus>
</clustering>
</event>
<event>
 9    2  0.1665830E-004  0.4371522E+03  0.7546771E-02  0.1054882E+00
          2   -1    0    0  502    0 -0.00000000000E+00  0.00000000000E+00  0.19459260951E+04  0.19459260951E+04  0.00000000000E+00 0. -1.
         21   -1    0    0  501  502  0.00000000000E+00 -0.00000000000E+00 -0.24567116210E+03  0.24567116210E+03  0.00000000000E+00 0.  1.
         23    2    1    2    0    0  0.51927263128E+02 -0.19645280974E+03  0.10850199550E+04  0.11077288622E+04  0.92221375850E+02 0.  0.
         24    2    1    2    0    0  0.38987373104E+03 -0.21996464354E+02  0.30758532875E+03  0.50287225868E+03  0.76068413197E+02 0.  0.
        -13    1    4    4    0    0  0.33929566243E+03 -0.67324253307E+01  0.29225599170E+03  0.44786207339E+03  0.00000000000E+00 0.  1.
         14    1    4    4    0    0  0.50578068610E+02 -0.15264039023E+02  0.15329337059E+02  0.55010185296E+02  0.00000000000E+00 0. -1.
        -11    1    3    3    0    0  0.26136077833E+02 -0.43446171323E+01  0.82747276744E+02  0.86885453737E+02  0.00000000000E+00 0.  1.
         11    1    3    3    0    0  0.25791185296E+02 -0.19210819261E+03  0.10022726783E+04  0.10208434084E+04  0.00000000000E+00 0. -1.
          1    1    1    2  501    0 -0.44180099417E+03  0.21844927409E+03  0.30764964923E+03  0.58099613637E+03  0.00000000000E+00 0. -1.
<scales pt_clust_5="13000.00000" pt_clust_6="13000.00000" pt_clust_7="13000.00000" pt_clust_8="13000.00000" pt_clust_9="430.48320"></scales>
<clustering>
<clus scale="   76.068">  5  6 -1 -1</clus>
<clus scale="   92.221">  7  8 -1 -1</clus>
<clus scale="  223.148">  1  7  2 -1</clus>
<clus scale="  430.483">  2  9  1 -1</clus>
<clus scale="  430.483">  2  5  1 -1</clus>
</clustering>
</event>
<event>
 9    2  0.1683927E-004  0.1442115E+03  0.7546771E-02  0.1211940E+00
         21   -1    0    0  501  502  0.00000000000E+00  0.00000000000E+00  0.16061424509E+03  0.16061424509E+03  0.00000000000E+00 0.  1.
          2   -1    0    0  502    0 -0.00000000000E+00 -0.00000000000E+00 -0.49711718414E+03  0.49711718414E+03  0.00000000000E+00 0. -1.
         24    2    1    2    0    0 -0.96813282343E+01 -0.92340977204E+02 -0.26301075879E+03  0.29907572079E+03  0.10793999879E+03 0.  0.
         23    2    1    2    0    0 -0.51692518703E+02  0.12017323121E+03  0.89196489900E+02  0.18256202074E+03  0.90879896670E+02 0.  0.
        -11    1    3    3    0    0 -0.44545272248E+02 -0.10116461957E+01 -0.86552625895E+02  0.97348147168E+02  0.00000000000E+00 0.  1.
         12    1    3    3    0    0  0.34863944014E+02 -0.91329331008E+02 -0.17645813290E+03  0.20172757362E+03  0.00000000000E+00 0. -1.
        -11    1    4    4    0    0 -0.22533893845E+02 -0.37953555436E+01 -0.59257035261E+01  0.23607097615E+02  0.00000000000E+00 0. -1.
         11    1    4    4    0    0 -0.29158624858E+02  0.12396858675E+03  0.95122193426E+02  0.15895492313E+03  0.00000000000E+00 0.  1.
          1    1    1    2  501    0  0.61373846937E+02 -0.27832254002E+02 -0.16268867016E+03  0.17609368770E+03  0.00000000000E+00 0. -1.
<scales pt_clust_5="13000.00000" pt_clust_6="13000.00000" pt_clust_7="13000.00000" pt_clust_8="13000.00000" pt_clust_9="67.38982"></scales>
<clustering>
<clus scale="   67.390">  1  9  2 -1</clus>
<clus scale="   90.880">  7  8 -1 -1</clus>
<clus scale="  107.940">  5  6 -1 -1</clus>
<clus scale="  131.928">  1  7  2 -1</clus>
<clus scale="   67.390">  1  5  2 -1</clus>
</clustering>
</event>
<event>
 9    2  0.1665830E-004  0.1463666E+03  0.7546771E-02  0.1215829E+00
         21   -1    0    0  501  502  0.00000000000E+00  0.00000000000E+00  0.16026428568E+03  0.16026428568E+03  0.00000000000E+00 0. -1.
          2   -1    0    0  502    0 -0.00000000000E+00 -0.00000000000E+00 -0.13584621126E+04  0.13584621126E+04  0.00000000000E+00 0. -1.
         23    2    1    2    0    0 -0.77473161759E+02  0.11013737799E+02 -0.48166082017E+03  0.49547769791E+03  0.85893016190E+02 0.  0.
         24    2    1    2    0    0  0.67307492974E+01 -0.11092455224E+03 -0.83889449814E+03  0.85016486099E+03  0.81772566205E+02 0.  0.
        -11    1    4    4    0    0 -0.34627504255E+02 -0.61893281815E+02 -0.35293715228E+03  0.35999232748E+03  0.00000000000E+00 0.  1.
         12    1    4    4    0    0  0.41358253553E+02 -0.49031270422E+02 -0.48595734586E+03  0.49017253351E+03  0.00000000000E+00 0. -1.
        -13    1    3    3    0    0  0.64152751305E-01 -0.25160125394E+02 -0.57349248512E+02  0.62625652335E+02  0.00000000000E+00 0.  1.
         13    1    3    3    0    0 -0.77537314510E+02  0.36173863193E+02 -0.42431157166E+03  0.43285204558E+03  0.00000000000E+00 0. -1.
          1    1    1    2  501    0  0.70742412462E+02  0.99910814438E+02  0.12235749137E+03  0.17308383939E+03  0.00000000000E+00 0. -1.
<scales pt_clust_5="13000.00000" pt_clust_6="13000.00000" pt_clust_7="13000.00000" pt_clust_8="13000.00000" pt_clust_9="121.39373"></scales>
<clustering>
<clus scale="   81.773">  5  6 -1 -1</clus>
<clus scale="   85.893">  7  8 -1 -1</clus>
<clus scale="  116.194">  2  7  1 -1</clus>
<clus scale="  121.394">  1  9  2 -1</clus>
<clus scale="  121.394">  1  5  2 -1</clus>
</clustering>
</event>
<event>
 9    2  0.1665830E-004  0.1594683E+03  0.7546771E-02  0.1191048E+00
         21   -1    0    0  501  502  0.00000000000E+00  0.00000000000E+00  0.44372932048E+03  0.44372932048E+03  0.00000000000E+00 0.  1.
          2   -1    0    0  502    0 -0.00000000000E+00 -0.00000000000E+00 -0.97536800231E+02  0.97536800231E+02  0.00000000000E+00 0. -1.
         23    2    1    2    0    0 -0.12176363685E+03  0.66070553192E+02  0.97401889587E+02  0.19214067375E+03  0.90770089543E+02 0.  0.
         24    2    1    2    0    0  0.76069149264E+02 -0.98374534374E+02  0.25305837164E+03  0.29300284002E+03  0.79674715688E+02 0.  0.
        -13    1    4    4    0    0  0.70375415024E+02 -0.37428113816E+02  0.98153754778E+02  0.12644256530E+03  0.00000000000E+00 0.  1.
         14    1    4    4    0    0  0.56937342399E+01 -0.60946420558E+02  0.15490461686E+03  0.16656027472E+03  0.00000000000E+00 0. -1.
        -13    1    3    3    0    0 -0.12436155542E+03  0.31985916801E+02  0.90944871832E+02  0.15735267730E+03  0.00000000000E+00 0.  1.
         13    1    3    3    0    0  0.25979185707E+01  0.34084636391E+02  0.64570177556E+01  0.34787996452E+02  0.00000000000E+00 0. -1.
          1    1    1    2  501    0  0.45694487587E+02  0.32303981182E+02 -0.42677409831E+01  0.56122606935E+02  0.00000000000E+00 0. -1.
<scales pt_clust_5="13000.00000" pt_clust_6="13000.00000" pt_clust_7="13000.00000" pt_clust_8="13000.00000" pt_clust_9="55.96013"></scales>
<clustering>
<clus scale="   55.960">  1  9  2 -1</clus>
<clus scale="   79.675">  5  6 -1 -1</clus>
<clus scale="   90.770">  7  8 -1 -1</clus>
<clus scale="  153.424">  1  5  2 -1</clus>
<clus scale="   55.960">  1  5  2 -1</clus>
</clustering>
</event>
<event>
 9    2  0.1665830E-004  0.2060446E+03  0.7546771E-02  0.1177955E+00
         -3   -1    0    0    0  501 -0.00000000000E+00  0.00000000000E+00  0.29214153142E+03  0.29214153142E+03  0.00000000000E+00 0.  1.
         21   -1    0    0  501  502  0.00000000000E+00 -0.00000000000E+00 -0.35270074772E+03  0.35270074772E+03  0.00000000000E+00 0.  1.
         23    2    1    2    0    0  0.18222615560E+02  0.25536206607E+02  0.13414882527E+03  0.16452422208E+03  0.89934146822E+02 0.  0.
         24    2    1    2    0    0  0.18219938732E+03 -0.40654855220E+02 -0.19246008335E+03  0.27931406185E+03  0.78268943200E+02 0.  0.
        -13    1    4    4    0    0  0.18920959557E+03 -0.34440973692E+02 -0.17778849444E+03  0.26190685459E+03  0.00000000000E+00 0.  1.
         14    1    4    4    0    0 -0.70102082515E+01 -0.62138815281E+01 -0.14671588915E+02  0.17407207262E+02  0.00000000000E+00 0. -1.
        -13    1    3    3    0    0 -0.32744536184E+02  0.23224596291E+02  0.83420317205E+02  0.92577188580E+02  0.00000000000E+00 0. -1.
         13    1    3    3    0    0  0.50967151744E+02  0.23116103154E+01  0.50728508060E+02  0.71947033498E+02  0.00000000000E+00 0.  1.
         -4    1    1    2    0  502 -0.20042200288E+03  0.15118648614E+02 -0.22479582077E+01  0.20100399521E+03  0.00000000000E+00 0.  1.
<scales pt_clust_5="13000.00000" pt_clust_6="13000.00000" pt_clust_7="13000.00000" pt_clust_8="13000.00000" pt_clust_9="190.60006"></scales>
<clustering>
<clus scale="   78.269">  5  6 -1 -1</clus>
<clus scale="   89.934">  7  8 -1 -1</clus>
<clus scale="   95.249">  1  7  2 -1</clus>
<clus scale="  190.600">  2  9  1 -1</clus>
<clus scale="  190.600">  2  5  1 -1</clus>
</clustering>
</event>
<event>
 9    2  0.1665830E-004  0.1038034E+03  0.7546771E-02  0.1278117E+00
         21   -1    0    0  501  502  0.00000000000E+00  0.00000000000E+00  0.13274130130E+03  0.13274130130E+03  0.00000000000E+00 0.  1.
          2   -1    0    0  502    0 -0.00000000000E+00 -0.00000000000E+00 -0.10747949843E+03  0.10747949843E+03  0.00000000000E+00 0. -1.
         23    2    1    2    0    0 -0.23467521749E+01  0.43241714311E+02 -0.31639692559E+02  0.10575414346E+03  0.91145573734E+02 0.  0.
         24    2    1    2    0    0  0.41901155447E+01 -0.63515343931E+02  0.49727640411E+02  0.11288235080E+03  0.78853223898E+02 0.  0.
        -11    1    4    4    0    0 -0.23484899383E+02 -0.52704892017E+02  0.58232210116E+02  0.81977658155E+02  0.00000000000E+00 0.  1.
         12    1    4    4    0    0  0.27675014928E+02 -0.10810451914E+02 -0.85045697048E+01  0.30904692649E+02  0.00000000000E+00 0. -1.
        -13    1    3    3    0    0 -0.34136061914E+02  0.39372960322E+01 -0.41883583026E+02  0.54175709964E+02  0.00000000000E+00 0.  1.
         13    1    3    3    0    0  0.31789309739E+02  0.39304418279E+02  0.10243890467E+02  0.51578433495E+02  0.00000000000E+00 0. -1.
          1    1    1    2  501    0 -0.18433633698E+01  0.20273629620E+02  0.71738550262E+01  0.21584305465E+02  0.00000000000E+00 0. -1.
<scales pt_clust_5="13000.00000" pt_clust_6="13000.00000" pt_clust_7="13000.00000" pt_clust_8="13000.00000" pt_clust_9="20.35726"></scales>
<clustering>
<clus scale="   20.357">  1  9  2 -1</clus>
<clus scale="   78.853">  5  6 -1 -1</clus>
<clus scale="   91.146">  7  8 -1 -1</clus>
<clus scale="   93.196">  1  5  2 -1</clus>
<clus scale="   20.357">  1  5  2 -1</clus>
</clustering>
</event>
<event>
 9    2  0.1665830E-004  0.1247011E+03  0.7546771E-02  0.1236897E+00
         21   -1    0    0  501  502  0.00000000000E+00  0.00000000000E+00  0.27049934370E+03  0.27049934370E+03  0.00000000000E+00 0. -1.
         -1   -1    0    0    0  501 -0.00000000000E+00 -0.00000000000E+00 -0.66530399854E+02  0.66530399854E+02  0.00000000000E+00 0.  1.
         24    2    1    2    0    0 -0.89658719291E+02  0.43311973525E+01  0.77190320662E+02  0.14685162587E+03  0.86888487154E+02 0.  0.
         23    2    1    2    0    0  0.76764882691E+02 -0.20307802119E+02  0.10834650445E+03  0.16258743225E+03  0.91599421703E+02 0.  0.
        -13    1    3    3    0    0 -0.65071247456E+02  0.38625404460E+02  0.24909706733E+02  0.79666069344E+02  0.00000000000E+00 0.  1.
         14    1    3    3    0    0 -0.24587471835E+02 -0.34294207107E+02  0.52280613929E+02  0.67185556522E+02  0.00000000000E+00 0. -1.
        -13    1    4    4    0    0  0.72621346224E+02  0.24013096498E+02  0.73191852089E+02  0.10586565044E+03  0.00000000000E+00 0.  1.
         13    1    4    4    0    0  0.41435364675E+01 -0.44320898617E+02  0.35154652365E+02  0.56721781809E+02  0.00000000000E+00 0. -1.
         -2    1    1    2    0  502  0.12893836600E+02  0.15976604766E+02  0.18432118731E+02  0.27590685440E+02  0.00000000000E+00 0.  1.
<scales pt_clust_5="13000.00000" pt_clust_6="13000.00000" pt_clust_7="13000.00000" pt_clust_8="13000.00000" pt_clust_9="20.53054"></scales>
<clustering>
<clus scale="   20.531">  1  9  2 -1</clus>
<clus scale="   86.888">  5  6 -1 -1</clus>
<clus scale="   91.599">  7  8 -1 -1</clus>
<clus scale="  121.283">  2  5  1 -1</clus>
<clus scale="   20.531">  1  5  2 -1</clus>
</clustering>
</event>
<event>
 9    2  0.1665830E-004  0.9803778E+02  0.7546771E-02  0.1286316E+00
         21   -1    0    0  501  502  0.00000000000E+00  0.00000000000E+00  0.10412215361E+03  0.10412215361E+03  0.00000000000E+00 0. -1.
          2   -1    0    0  502    0 -0.00000000000E+00 -0.00000000000E+00 -0.30977558119E+03  0.30977558119E+03  0.00000000000E+00 0. -1.
         23    2    1    2    0    0 -0.30323116178E+02 -0.30199829300E+02 -0.42868351426E+02  0.11452473038E+03  0.97194121477E+02 0.  0.
         24    2    1    2    0    0 -0.15061961502E+02 -0.52909989508E+02  0.10178474373E+02  0.10218416835E+03  0.85508322673E+02 0.  0.
        -11    1    4    4    0    0 -0.14614770822E+02 -0.38979068025E+02 -0.35323146099E+02  0.54595640125E+02  0.00000000000E+00 0.  1.
         12    1    4    4    0    0 -0.44719067961E+00 -0.13930921482E+02  0.45501620472E+02  0.47588528223E+02  0.00000000000E+00 0. -1.
        -11    1    3    3    0    0 -0.59270627768E+02 -0.33983776759E+02 -0.76034650435E+01  0.68743851212E+02  0.00000000000E+00 0. -1.
         11    1    3    3    0    0  0.28947511590E+02  0.37839474587E+01 -0.35264886382E+02  0.45780879166E+02  0.00000000000E+00 0.  1.
          1    1    1    2  501    0  0.45385077680E+02  0.83109818808E+02 -0.17296355053E+03  0.19718883607E+03  0.00000000000E+00 0. -1.
<scales pt_clust_5="13000.00000" pt_clust_6="13000.00000" pt_clust_7="13000.00000" pt_clust_8="13000.00000" pt_clust_9="94.69454"></scales>
<clustering>
<clus scale="   85.508">  5  6 -1 -1</clus>
<clus scale="   94.695">  1  9  2 -1</clus>
<clus scale="   94.695">  1  5  2 -1</clus>
<clus scale="   97.194">  7  8 -1 -1</clus>
<clus scale="   94.695">  1  5  2 -1</clus>
</clustering>
</event>
<event>
 9    2  0.1665830E-004  0.1228604E+03  0.7546771E-02  0.1238656E+00
         21   -1    0    0  501  502  0.00000000000E+00  0.00000000000E+00  0.30583150117E+03  0.30583150117E+03  0.00000000000E+00 0.  1.
         -1   -1    0    0    0  501 -0.00000000000E+00 -0.00000000000E+00 -0.29352387159E+03  0.29352387159E+03  0.00000000000E+00 0.  1.
         23    2    1    2    0    0 -0.24061636292E+00  0.97297247185E+02 -0.22570336489E+03  0.25890347788E+03  0.81376837810E+02 0.  0.
         24    2    1    2    0    0  0.49975600723E+02 -0.63459134290E+02  0.23381853950E+02  0.11755224366E+03  0.82141320314E+02 0.  0.
        -11    1    4    4    0    0  0.41621462840E+02 -0.26175526356E+01 -0.15921603523E+02  0.44639614800E+02  0.00000000000E+00 0.  1.
         12    1    4    4    0    0  0.83541378828E+01 -0.60841581654E+02  0.39303457473E+02  0.72912628860E+02  0.00000000000E+00 0. -1.
        -11    1    3    3    0    0 -0.39396240660E+02  0.44323347308E+02 -0.86189050929E+02  0.10461919229E+03  0.00000000000E+00 0. -1.
         11    1    3    3    0    0  0.39155624297E+02  0.52973899877E+02 -0.13951431396E+03  0.15428428559E+03  0.00000000000E+00 0.  1.
         -2    1    1    2    0  502 -0.49734984360E+02 -0.33838112895E+02  0.21462914052E+03  0.22289965122E+03  0.00000000000E+00 0.  1.
<scales pt_clust_5="13000.00000" pt_clust_6="13000.00000" pt_clust_7="13000.00000" pt_clust_8="13000.00000" pt_clust_9="60.15469"></scales>
<clustering>
<clus scale="   60.155">  1  9  2 -1</clus>
<clus scale="   81.377">  7  8 -1 -1</clus>
<clus scale="   82.141">  5  6 -1 -1</clus>
<clus scale="  122.351">  2  7  1 -1</clus>
<clus scale="   60.155">  1  5  2 -1</clus>
</clustering>
</event>
<event>
 9    2  0.1665830E-004  0.7148513E+03  0.7546771E-02  0.9872630E-01
          2   -1    0    0  502    0 -0.00000000000E+00  0.00000000000E+00  0.32990242771E+04  0.32990242771E+04  0.00000000000E+00 0. -1.
         21   -1    0    0  501  502  0.00000000000E+00 -0.00000000000E+00 -0.27922503178E+03  0.27922503178E+03  0.00000000000E+00 0. -1.
         24    2    1    2    0    0  0.29420356458E+03  0.25260597808E+03  0.10106299006E+04  0.10848336312E+04  0.71593952193E+02 0.  0.
         23    2    1    2    0    0 -0.44057560499E+03  0.51606464475E+03  0.10770902425E+04  0.12764313912E+04  0.93403022691E+02 0.  0.
        -13    1    3    3    0    0  0.18602483206E+03  0.15752522041E+03  0.72617455840E+03  0.76599538019E+03  0.00000000000E+00 0.  1.
         14    1    3    3    0    0  0.10817873252E+03  0.95080757662E+02  0.28445534217E+03  0.31883825106E+03  0.00000000000E+00 0. -1.
        -13    1    4    4    0    0 -0.37502316768E+03  0.46752265817E+03  0.89800466013E+03  0.10796444701E+04  0.00000000000E+00 0. -1.
         13    1    4    4    0    0 -0.65552437307E+02  0.48541986579E+02  0.17908558239E+03  0.19678692110E+03  0.00000000000E+00 0.  1.
          1    1    1    2  501    0  0.14637204041E+03 -0.76867062282E+03  0.93207910225E+03  0.12169842864E+04  0.00000000000E+00 0. -1.
<scales pt_clust_5="13000.00000" pt_clust_6="13000.00000" pt_clust_7="13000.00000" pt_clust_8="13000.00000" pt_clust_9="708.72297"></scales>
<clustering>
<clus scale="   71.594">  5  6 -1 -1</clus>
<clus scale="   93.403">  7  8 -1 -1</clus>
<clus scale="  394.324">  1  5  2 -1</clus>
<clus scale="  708.723">  2  9  1 -1</clus>
<clus scale="  708.723">  2  5  1 -1</clus>
</clustering>
</event>
<event>
 9    2  0.1665830E-004  0.1226475E+03  0.7546771E-02  0.1239866E+00
         -3   -1    0    0    0  501 -0.00000000000E+00  0.00000000000E+00  0.22895996272E+03  0.22895996272E+03  0.00000000000E+00 0.  1.
         21   -1    0    0  501  502  0.00000000000E+00 -0.00000000000E+00 -0.14399449412E+03  0.14399449412E+03  0.00000000000E+00 0. -1.
         24    2    1    2    0    0 -0.54353826537E+02  0.97514852933E+01  0.16829589588E+02  0.10252761276E+03  0.84730433543E+02 0.  0.
         23    2    1    2    0    0  0.14519739264E+03 -0.15307983962E+02  0.21842770211E+02  0.16831670696E+03  0.80850417626E+02 0.  0.
        -11    1    3    3    0    0  0.96481214943E+01 -0.20264615902E+02  0.22282353609E+02  0.31626637323E+02  0.00000000000E+00 0.  1.
         12    1    3    3    0    0 -0.64001948031E+02  0.30016101195E+02 -0.54527640213E+01  0.70900975439E+02  0.00000000000E+00 0. -1.
        -13    1    4    4    0    0  0.10066291746E+03 -0.47786552070E+02  0.95143717292E+01  0.11183515002E+03  0.00000000000E+00 0. -1.
         13    1    4    4    0    0  0.44534475183E+02  0.32478568108E+02  0.12328398482E+02  0.56481556948E+02  0.00000000000E+00 0.  1.
         -4    1    1    2    0  502 -0.90843566102E+02  0.55564986686E+01  0.46293108794E+02  0.10211013711E+03  0.00000000000E+00 0.  1.
<scales pt_clust_5="13000.00000" pt_clust_6="13000.00000" pt_clust_7="13000.00000" pt_clust_8="13000.00000" pt_clust_9="91.01339"></scales>
<clustering>
<clus scale="   80.850">  7  8 -1 -1</clus>
<clus scale="   84.730">  5  6 -1 -1</clus>
<clus scale="   91.013">  2  9  1 -1</clus>
<clus scale="  120.000">  2  7  1 -1</clus>
<clus scale="   91.013">  2  5  1 -1</clus>
</clustering>
</event>
<event>
 9    2  0.1665830E-004  0.9397985E+02  0.7546771E-02  0.1299475E+00
         21   -1    0    0  501  502  0.00000000000E+00  0.00000000000E+00  0.43063254250E+03  0.43063254250E+03  0.00000000000E+00 0.  1.
          2   -1    0    0  502    0 -0.00000000000E+00 -0.00000000000E+00 -0.12762574434E+03  0.12762574434E+03  0.00000000000E+00 0. -1.
         24    2    1    2    0    0 -0.45668143642E+01 -0.27979987325E+02 -0.10207597388E+03  0.13257542288E+03  0.79705726421E+02 0.  0.
         23    2    1    2    0    0 -0.82652751619E+01  0.71919716868E+01  0.20581373166E+03  0.22492192509E+03  0.90058542166E+02 0.  0.
        -13    1    3    3    0    0 -0.17475152732E+02  0.23678481095E+02 -0.23513805257E+02  0.37668958940E+02  0.00000000000E+00 0.  1.
         14    1    3    3    0    0  0.12908338368E+02 -0.51658468419E+02 -0.78562168626E+02  0.94906463942E+02  0.00000000000E+00 0. -1.
        -13    1    4    4    0    0 -0.36100522937E+02 -0.20696975732E+02  0.15574295806E+03  0.16120633221E+03  0.00000000000E+00 0.  1.
         13    1    4    4    0    0  0.27835247775E+02  0.27888947419E+02  0.50070773598E+02  0.63715592876E+02  0.00000000000E+00 0. -1.
          1    1    1    2  501    0  0.12832089526E+02  0.20788015638E+02  0.19926904039E+03  0.20076093887E+03  0.00000000000E+00 0. -1.
<scales pt_clust_5="13000.00000" pt_clust_6="13000.00000" pt_clust_7="13000.00000" pt_clust_8="13000.00000" pt_clust_9="24.42957"></scales>
<clustering>
<clus scale="   24.430">  1  9  2 -1</clus>
<clus scale="   79.706">  5  6 -1 -1</clus>
<clus scale="   84.111">  2  5  1 -1</clus>
<clus scale="   90.059">  7  8 -1 -1</clus>
<clus scale="   24.430">  1  5  2 -1</clus>
</clustering>
</event>
<event>
 9    2  0.1665830E-004  0.1051294E+03  0.7546771E-02  0.1272747E+00
          2   -1    0    0  502    0 -0.00000000000E+00  0.00000000000E+00  0.73275134134E+03  0.73275134134E+03  0.00000000000E+00 0. -1.
         21   -1    0    0  501  502  0.00000000000E+00 -0.00000000000E+00 -0.73632465546E+02  0.73632465546E+02  0.00000000000E+00 0. -1.
         24    2    1    2    0    0 -0.42307889740E+02  0.37986698110E+02  0.58953935770E+03  0.59826062490E+03  0.84416670502E+02 0.  0.
         23    2    1    2    0    0  0.34190682108E+02 -0.13900741049E+02  0.11793471825E+03  0.15349491303E+03  0.91048653009E+02 0.  0.
        -11    1    3    3    0    0 -0.98249339287E+01  0.51113304258E+02  0.18427368894E+03  0.19148339781E+03  0.00000000000E+00 0.  1.
         12    1    3    3    0    0 -0.32482955812E+02 -0.13126606148E+02  0.40526566876E+03  0.40677722709E+03  0.00000000000E+00 0. -1.
        -13    1    4    4    0    0  0.25591395928E+02 -0.52266665444E+02  0.61038694200E+02  0.84335319124E+02  0.00000000000E+00 0.  1.
         13    1    4    4    0    0  0.85992861802E+01  0.38365924395E+02  0.56896024047E+02  0.69159593911E+02  0.00000000000E+00 0. -1.
          1    1    1    2  501    0  0.81172076323E+01 -0.24085957061E+02 -0.48355200151E+02  0.54628268955E+02  0.00000000000E+00 0. -1.
<scales pt_clust_5="13000.00000" pt_clust_6="13000.00000" pt_clust_7="13000.00000" pt_clust_8="13000.00000" pt_clust_9="25.41697"></scales>
<clustering>
<clus scale="   25.417">  2  9  1 -1</clus>
<clus scale="   84.417">  5  6 -1 -1</clus>
<clus scale="   91.049">  7  8 -1 -1</clus>
<clus scale="   99.441">  1  5  2 -1</clus>
<clus scale="   25.417">  2  5  1 -1</clus>
</clustering>
</event>
<event>
 9    2  0.1665830E-004  0.1066260E+03  0.7546771E-02  0.1270036E+00
          2   -1    0    0  502    0 -0.00000000000E+00  0.00000000000E+00  0.60655038564E+03  0.60655038564E+03  0.00000000000E+00 0. -1.
         21   -1    0    0  501  502  0.00000000000E+00 -0.00000000000E+00 -0.92517006557E+02  0.92517006557E+02  0.00000000000E+00 0. -1.
         24    2    1    2    0    0 -0.23570531757E+02  0.65914204958E+02  0.49901400035E+03  0.51040926080E+03  0.81255083409E+02 0.  0.
         23    2    1    2    0    0 -0.38135026424E+01 -0.17137563526E+02  0.66750552937E+02  0.11246652770E+03  0.88796647733E+02 0.  0.
        -11    1    3    3    0    0 -0.33810096469E+02 -0.31944091926E+01  0.10835018006E+03  0.11354773619E+03  0.00000000000E+00 0.  1.
         12    1    3    3    0    0  0.10239564712E+02  0.69108614151E+02  0.39066382029E+03  0.39686152461E+03  0.00000000000E+00 0. -1.
        -13    1    4    4    0    0  0.30750598284E+02  0.21921658698E+02  0.21750146738E+02  0.43580125035E+02  0.00000000000E+00 0. -1.
         13    1    4    4    0    0 -0.34564100926E+02 -0.39059222225E+02  0.45000406199E+02  0.68886402662E+02  0.00000000000E+00 0.  1.
          1    1    1    2  501    0  0.27384034399E+02 -0.48776641432E+02 -0.51731174208E+02  0.76191603700E+02  0.00000000000E+00 0. -1.
<scales pt_clust_5="13000.00000" pt_clust_6="13000.00000" pt_clust_7="13000.00000" pt_clust_8="13000.00000" pt_clust_9="55.93788"></scales>
<clustering>
<clus scale="   55.938">  2  9  1 -1</clus>
<clus scale="   81.255">  5  6 -1 -1</clus>
<clus scale="   88.797">  7  8 -1 -1</clus>
<clus scale="  100.432">  1  5  2 -1</clus>
<clus scale="   55.938">  2  5  1 -1</clus>
</clustering>
</event>
<event>
 9    2  0.1665830E-004  0.1076225E+03  0.7546771E-02  0.1269428E+00
         21   -1    0    0  501  502  0.00000000000E+00  0.00000000000E+00  0.76985597870E+02  0.76985597870E+02  0.00000000000E+00 0. -1.
         -1   -1    0    0    0  501 -0.00000000000E+00 -0.00000000000E+00 -0.31006967290E+03  0.31006967290E+03  0.00000000000E+00 0.  1.
         24    2    1    2    0    0 -0.46074052555E+02 -0.34906323050E+02 -0.23167350903E+03  0.25188791480E+03  0.80209956546E+02 0.  0.
         23    2    1    2    0    0  0.31316810934E+02  0.52362937629E+02 -0.11807137161E+02  0.11005564028E+03  0.90830697376E+02 0.  0.
        -11    1    3    3    0    0 -0.38245627827E+02  0.51736214867E+00 -0.20031804172E+03  0.20393703330E+03  0.00000000000E+00 0.  1.
         12    1    3    3    0    0 -0.78284247281E+01 -0.35423685198E+02 -0.31355467307E+02  0.47950881502E+02  0.00000000000E+00 0. -1.
        -13    1    4    4    0    0 -0.27949289573E+01  0.46728205730E+02 -0.42945303821E+02  0.63526655499E+02  0.00000000000E+00 0.  1.
         13    1    4    4    0    0  0.34111739891E+02  0.56347318988E+01  0.31138166660E+02  0.46528984783E+02  0.00000000000E+00 0. -1.
         -2    1    1    2    0  502  0.14757241621E+02 -0.17456614579E+02  0.10396571161E+02  0.25111715686E+02  0.00000000000E+00 0.  1.
<scales pt_clust_5="13000.00000" pt_clust_6="13000.00000" pt_clust_7="13000.00000" pt_clust_8="13000.00000" pt_clust_9="22.85847"></scales>
<clustering>
<clus scale="   22.858">  1  9  2 -1</clus>
<clus scale="   80.210">  5  6 -1 -1</clus>
<clus scale="   90.831">  7  8 -1 -1</clus>
<clus scale="   98.823">  2  5  1 -1</clus>
<clus scale="   22.858">  1  5  2 -1</clus>
</clustering>
</event>
<event>
 9    2  0.1665830E-004  0.9392856E+02  0.7546771E-02  0.1301031E+00
         -1   -1    0    0    0  501 -0.00000000000E+00  0.00000000000E+00  0.50797780460E+02  0.50797780460E+02  0.00000000000E+00 0.  1.
         21   -1    0    0  501  502  0.00000000000E+00 -0.00000000000E+00 -0.37594775854E+03  0.37594775854E+03  0.00000000000E+00 0.  1.
         24    2    1    2    0    0 -0.15007744648E+02 -0.11505228103E+02 -0.93587295952E+02  0.12293226459E+03  0.77434856754E+02 0.  0.
         23    2    1    2    0    0 -0.36282673953E+02  0.56054977635E+02 -0.19912550450E+03  0.22853009092E+03  0.90091303508E+02 0.  0.
        -13    1    3    3    0    0  0.21768040404E+02  0.21277000765E+02 -0.36418819369E+02  0.47464605221E+02  0.00000000000E+00 0.  1.
         14    1    3    3    0    0 -0.36775785052E+02 -0.32782228868E+02 -0.57168476583E+02  0.75467659368E+02  0.00000000000E+00 0. -1.
        -13    1    4    4    0    0  0.23825672257E+02 -0.21475936966E+01 -0.21411285223E+02  0.32104796404E+02  0.00000000000E+00 0. -1.
         13    1    4    4    0    0 -0.60108346211E+02  0.58202571332E+02 -0.17771421927E+03  0.19642529452E+03  0.00000000000E+00 0.  1.
         -2    1    1    2    0  502  0.51290418601E+02 -0.44549749532E+02 -0.32437177631E+02  0.75283183490E+02  0.00000000000E+00 0.  1.
<scales pt_clust_5="13000.00000" pt_clust_6="13000.00000" pt_clust_7="13000.00000" pt_clust_8="13000.00000" pt_clust_9="67.93668"></scales>
<clustering>
<clus scale="   67.937">  2  9  1 -1</clus>
<clus scale="   77.435">  5  6 -1 -1</clus>
<clus scale="   81.868">  1  5  2 -1</clus>
<clus scale="   90.091">  7  8 -1 -1</clus>
<clus scale="   67.937">  2  5  1 -1</clus>
</clustering>
</event>
<event>
 9    2  0.1665830E-004  0.5234630E+03  0.7546771E-02  0.1030316E+00
         21   -1    0    0  501  502  0.00000000000E+00  0.00000000000E+00  0.37343900610E+03  0.37343900610E+03  0.00000000000E+00 0. -1.
          2   -1    0    0  502    0 -0.00000000000E+00 -0.00000000000E+00 -0.14983244715E+04  0.14983244715E+04  0.00000000000E+00 0. -1.
         23    2    1    2    0    0  0.78097100747E+02 -0.23528751986E+03 -0.29499861469E+03  0.39632400272E+03  0.92677712073E+02 0.  0.
         24    2    1    2    0    0 -0.25714313591E+03 -0.30087352014E+03 -0.81507876475E+03  0.90997911114E+03  0.84030485486E+02 0.  0.
        -13    1    4    4    0    0 -0.12505723701E+03 -0.16065408960E+03 -0.32623653260E+03  0.38455080839E+03  0.00000000000E+00 0.  1.
         14    1    4    4    0    0 -0.13208589890E+03 -0.14021943054E+03 -0.48884223215E+03  0.52542830274E+03  0.00000000000E+00 0. -1.
        -13    1    3    3    0    0  0.69151308742E+02 -0.10353081074E+03 -0.19206219623E+03  0.22888516661E+03  0.00000000000E+00 0.  1.
         13    1    3    3    0    0  0.89457920051E+01 -0.13175670912E+03 -0.10293641847E+03  0.16743883611E+03  0.00000000000E+00 0. -1.
          1    1    1    2  501    0  0.17904603516E+03  0.53616104000E+03 -0.14808085923E+02  0.56546036371E+03  0.00000000000E+00 0. -1.
<scales pt_clust_5="13000.00000" pt_clust_6="13000.00000" pt_clust_7="13000.00000" pt_clust_8="13000.00000" pt_clust_9="516.67436"></scales>
<clustering>
<clus scale="   84.030">  5  6 -1 -1</clus>
<clus scale="   92.678">  7  8 -1 -1</clus>
<clus scale="  264.667">  2  7  1 -1</clus>
<clus scale="  516.674">  1  9  2 -1</clus>
<clus scale="  516.674">  1  5  2 -1</clus>
</clustering>
</event>
<event>
 9    2  0.1665830E-004  0.1051005E+03  0.7546771E-02  0.1275336E+00
         21   -1    0    0  501  502  0.00000000000E+00  0.00000000000E+00  0.11939506179E+03  0.11939506179E+03  0.00000000000E+00 0.  1.
          2   -1    0    0  502    0 -0.00000000000E+00 -0.00000000000E+00 -0.18834780932E+03  0.18834780932E+03  0.00000000000E+00 0. -1.
         23    2    1    2    0    0  0.29746084981E+02 -0.38558052718E+02 -0.12683741861E+03  0.16432289333E+03  0.92426887380E+02 0.  0.
         24    2    1    2    0    0 -0.55326058672E+02  0.26377925763E+02  0.54602058163E+02  0.11489865078E+03  0.80396190577E+02 0.  0.
        -13    1    4    4    0    0 -0.22314070178E+02  0.34358195369E+02  0.67175902396E+02  0.78682940843E+02  0.00000000000E+00 0.  1.
         14    1    4    4    0    0 -0.33011988494E+02 -0.79802696060E+01 -0.12573844234E+02  0.36215709935E+02  0.00000000000E+00 0. -1.
        -11    1    3    3    0    0  0.42820399364E+02  0.93933426730E+01 -0.23700896123E+02  0.49835268287E+02  0.00000000000E+00 0. -1.
         11    1    3    3    0    0 -0.13074314383E+02 -0.47951395391E+02 -0.10313652249E+03  0.11448762504E+03  0.00000000000E+00 0.  1.
          1    1    1    2  501    0  0.25579973691E+02  0.12180126955E+02  0.32826129175E+01  0.28521327007E+02  0.00000000000E+00 0. -1.
<scales pt_clust_5="13000.00000" pt_clust_6="13000.00000" pt_clust_7="13000.00000" pt_clust_8="13000.00000" pt_clust_9="28.33179"></scales>
<clustering>
<clus scale="   28.332">  1  9  2 -1</clus>
<clus scale="   80.396">  5  6 -1 -1</clus>
<clus scale="   92.427">  7  8 -1 -1</clus>
<clus scale="   94.694">  1  5  2 -1</clus>
<clus scale="   28.332">  1  5  2 -1</clus>
</clustering>
</event>
<event>
 9    2  0.1665830E-004  0.1163197E+03  0.7546771E-02  0.1255049E+00
          2   -1    0    0  502    0 -0.00000000000E+00  0.00000000000E+00  0.78994356240E+03  0.78994356240E+03  0.00000000000E+00 0. -1.
         21   -1    0    0  501  502  0.00000000000E+00 -0.00000000000E+00 -0.26137668653E+02  0.26137668653E+02  0.00000000000E+00 0.  1.
         24    2    1    2    0    0  0.64550490086E+02 -0.16751580153E+02  0.51415331198E+03  0.52468999305E+03  0.80613766731E+02 0.  0.
         23    2    1    2    0    0 -0.52831869144E+02  0.37491100534E+02  0.23819605514E+03  0.26495819457E+03  0.96274062819E+02 0.  0.
        -13    1    3    3    0    0  0.34454451061E+02 -0.45636362989E+02  0.20834061153E+03  0.21604535921E+03  0.00000000000E+00 0.  1.
         14    1    3    3    0    0  0.30096039024E+02  0.28884782835E+02  0.30581270045E+03  0.30864463384E+03  0.00000000000E+00 0. -1.
        -11    1    4    4    0    0 -0.28290240974E+02 -0.16684592778E+02  0.17547380386E+03  0.17852106098E+03  0.00000000000E+00 0. -1.
         11    1    4    4    0    0 -0.24541628171E+02  0.54175693312E+02  0.62722251273E+02  0.86437133594E+02  0.00000000000E+00 0.  1.
          1    1    1    2  501    0 -0.11718620941E+02 -0.20739520380E+02  0.11456526634E+02  0.26433043428E+02  0.00000000000E+00 0. -1.
<scales pt_clust_5="13000.00000" pt_clust_6="13000.00000" pt_clust_7="13000.00000" pt_clust_8="13000.00000" pt_clust_9="23.82129"></scales>
<clustering>
<clus scale="   23.821">  2  9  1 -1</clus>
<clus scale="   80.614">  5  6 -1 -1</clus>
<clus scale="   96.274">  7  8 -1 -1</clus>
<clus scale="  103.731">  1  5  2 -1</clus>
<clus scale="   23.821">  2  5  1 -1</clus>
</clustering>
</event>
<event>
 9    2  0.1665830E-004  0.2250543E+03  0.7546771E-02  0.1156687E+00
         21   -1    0    0  501  502  0.00000000000E+00  0.00000000000E+00  0.35534690934E+03  0.35534690934E+03  0.00000000000E+00 0.  1.
          2   -1    0    0  502    0 -0.00000000000E+00 -0.00000000000E+00 -0.23016921107E+03  0.23016921107E+03  0.00000000000E+00 0. -1.
         23    2    1    2    0    0  0.52838378300E+02 -0.72701789812E+02  0.42436192216E+02  0.12649962826E+03  0.78255230354E+02 0.  0.
         24    2    1    2    0    0 -0.22454543777E+03 -0.28143614201E+02  0.98252124655E+02  0.25928244629E+03  0.79757070627E+02 0.  0.
        -11    1    4    4    0    0 -0.18081296775E+03 -0.46508677598E+02  0.10004883417E+03  0.21181632519E+03  0.00000000000E+00 0.  1.
         12    1    4    4    0    0 -0.43732470020E+02  0.18365063397E+02 -0.17967095192E+01  0.47466121104E+02  0.00000000000E+00 0. -1.
        -13    1    3    3    0    0  0.19657869152E+02 -0.67367181606E+02 -0.26973186909E+01  0.70228516325E+02  0.00000000000E+00 0.  1.
         13    1    3    3    0    0  0.33180509148E+02 -0.53346082065E+01  0.45133510907E+02  0.56271111939E+02  0.00000000000E+00 0. -1.
          1    1    1    2  501    0  0.17170705947E+03  0.10084540401E+03 -0.15510618602E+02  0.19973404585E+03  0.00000000000E+00 0. -1.
<scales pt_clust_5="13000.00000" pt_clust_6="13000.00000" pt_clust_7="13000.00000" pt_clust_8="13000.00000" pt_clust_9="210.44781"></scales>
<clustering>
<clus scale="   78.255">  7  8 -1 -1</clus>
<clus scale="   79.757">  5  6 -1 -1</clus>
<clus scale="  119.169">  2  7  1 -1</clus>
<clus scale="  210.448">  1  9  2 -1</clus>
<clus scale="  210.448">  1  5  2 -1</clus>
</clustering>
</event>
<event>
 9    2  0.1665830E-004  0.1146833E+03  0.7546771E-02  0.1255981E+00
         -1   -1    0    0    0  501 -0.00000000000E+00  0.00000000000E+00  0.47652549178E+03  0.47652549178E+03  0.00000000000E+00 0.  1.
         21   -1    0    0  501  502  0.00000000000E+00 -0.00000000000E+00 -0.65392404065E+02  0.65392404065E+02  0.00000000000E+00 0.  1.
         24    2    1    2    0    0 -0.28042243142E+02  0.68325490426E+02  0.18699148495E+03  0.21653563685E+03  0.80418446509E+02 0.  0.
         23    2    1    2    0    0  0.10047482944E+03 -0.69650325924E-02  0.14033050681E+03  0.19523541780E+03  0.91263496647E+02 0.  0.
        -13    1    3    3    0    0 -0.14698123767E+02  0.50872475697E+02  0.18722005382E+03  0.19456462211E+03  0.00000000000E+00 0.  1.
         14    1    3    3    0    0 -0.13344119375E+02  0.17453014729E+02 -0.22856886274E+00  0.21971014741E+02  0.00000000000E+00 0. -1.
        -11    1    4    4    0    0  0.31477525279E+02  0.14534453908E+02 -0.37026461090E+01  0.34868245386E+02  0.00000000000E+00 0.  1.
         11    1    4    4    0    0  0.68997304161E+02 -0.14541418940E+02  0.14403315292E+03  0.16036717241E+03  0.00000000000E+00 0. -1.
         -2    1    1    2    0  502 -0.72432586298E+02 -0.68318525393E+02  0.83811095952E+02  0.13014684120E+03  0.00000000000E+00 0.  1.
<scales pt_clust_5="13000.00000" pt_clust_6="13000.00000" pt_clust_7="13000.00000" pt_clust_8="13000.00000" pt_clust_9="99.56857"></scales>
<clustering>
<clus scale="   80.418">  5  6 -1 -1</clus>
<clus scale="   91.263">  7  8 -1 -1</clus>
<clus scale="   99.569">  2  9  1 -1</clus>
<clus scale="  106.256">  1  5  2 -1</clus>
<clus scale="   99.569">  2  5  1 -1</clus>
</clustering>
</event>
<event>
 9    2  0.1665830E-004  0.1344633E+03  0.7546771E-02  0.1224865E+00
          2   -1    0    0  502    0 -0.00000000000E+00  0.00000000000E+00  0.14536042473E+04  0.14536042473E+04  0.00000000000E+00 0. -1.
         21   -1    0    0  501  502  0.00000000000E+00 -0.00000000000E+00 -0.21721745312E+02  0.21721745312E+02  0.00000000000E+00 0. -1.
         24    2    1    2    0    0 -0.99170813564E+02  0.41795936784E+02  0.86735182423E+03  0.87729673754E+03  0.75951485261E+02 0.  0.
         23    2    1    2    0    0  0.85739928561E+02  0.23635155147E+02  0.32334903736E+03  0.34776899029E+03  0.92079936667E+02 0.  0.
        -11    1    3    3    0    0 -0.65791157239E+02  0.61365980568E+02  0.51199613046E+03  0.51984064630E+03  0.00000000000E+00 0.  1.
         12    1    3    3    0    0 -0.33379656326E+02 -0.19570043784E+02  0.35535569377E+03  0.35745609124E+03  0.00000000000E+00 0. -1.
        -11    1    4    4    0    0  0.21184556265E+02  0.48127202249E+01  0.48634706525E+01  0.22262098888E+02  0.00000000000E+00 0. -1.
         11    1    4    4    0    0  0.64555372296E+02  0.18822434922E+02  0.31848556671E+03  0.32550689140E+03  0.00000000000E+00 0.  1.
          1    1    1    2  501    0  0.13430885003E+02 -0.65431091930E+02  0.24118164041E+03  0.25026026479E+03  0.00000000000E+00 0. -1.
<scales pt_clust_5="13000.00000" pt_clust_6="13000.00000" pt_clust_7="13000.00000" pt_clust_8="13000.00000" pt_clust_9="66.79533"></scales>
<clustering>
<clus scale="   66.795">  2  9  1 -1</clus>
<clus scale="   75.951">  5  6 -1 -1</clus>
<clus scale="   92.080">  7  8 -1 -1</clus>
<clus scale="  123.977">  1  5  2 -1</clus>
<clus scale="   66.795">  2  5  1 -1</clus>
</clustering>
</event>
<event>
 9    2  0.1665830E-004  0.9798482E+02  0.7546771E-02  0.1290035E+00
         21   -1    0    0  501  502  0.00000000000E+00  0.00000000000E+00  0.13207913765E+03  0.13207913765E+03  0.00000000000E+00 0.  1.
         -1   -1    0    0    0  501 -0.00000000000E+00 -0.00000000000E+00 -0.26606783731E+03  0.26606783731E+03  0.00000000000E+00 0.  1.
         23    2    1    2    0    0  0.37954890906E+02 -0.17506098924E+02 -0.16862039649E+03  0.19566104538E+03  0.90018716519E+02 0.  0.
         24    2    1    2    0    0  0.22909931862E+02  0.71737418324E+02  0.48513981812E+02  0.11979203324E+03  0.79532399888E+02 0.  0.
        -11    1    4    4    0    0  0.27417591415E+02  0.85294967001E+02  0.53861091928E+02  0.10453694533E+03  0.00000000000E+00 0.  1.
         12    1    4    4    0    0 -0.45076595536E+01 -0.13557548677E+02 -0.53471101159E+01  0.15255087917E+02  0.00000000000E+00 0. -1.
        -13    1    3    3    0    0 -0.15281805030E+02 -0.30432648995E+02 -0.25890337136E+02  0.42778373588E+02  0.00000000000E+00 0. -1.
         13    1    3    3    0    0  0.53236695936E+02  0.12926550071E+02 -0.14273005936E+03  0.15288267179E+03  0.00000000000E+00 0.  1.
         -2    1    1    2    0  502 -0.60864822768E+02 -0.54231319400E+02 -0.13882284986E+02  0.82693896334E+02  0.00000000000E+00 0.  1.
<scales pt_clust_5="13000.00000" pt_clust_6="13000.00000" pt_clust_7="13000.00000" pt_clust_8="13000.00000" pt_clust_9="81.52032"></scales>
<clustering>
<clus scale="   79.532">  5  6 -1 -1</clus>
<clus scale="   81.520">  1  9  2 -1</clus>
<clus scale="   88.448">  1  5  2 -1</clus>
<clus scale="   90.019">  7  8 -1 -1</clus>
<clus scale="   81.520">  1  5  2 -1</clus>
</clustering>
</event>
<event>
 9    2  0.1665830E-004  0.9128523E+02  0.7546771E-02  0.1305807E+00
         21   -1    0    0  501  502  0.00000000000E+00  0.00000000000E+00  0.30277065475E+02  0.30277065475E+02  0.00000000000E+00 0. -1.
          2   -1    0    0  502    0 -0.00000000000E+00 -0.00000000000E+00 -0.10088987087E+04  0.10088987087E+04  0.00000000000E+00 0. -1.
         24    2    1    2    0    0  0.10019132381E+02  0.95697889723E+01 -0.76748062036E+03  0.77191614832E+03  0.81462098768E+02 0.  0.
         23    2    1    2    0    0  0.27723772042E+02  0.18288821857E+02 -0.19479995086E+03  0.21758408190E+03  0.91064390952E+02 0.  0.
        -11    1    3    3    0    0 -0.27779773537E+02 -0.82106326298E+01 -0.13576652471E+03  0.13882247490E+03  0.00000000000E+00 0.  1.
         12    1    3    3    0    0  0.37798905918E+02  0.17780421602E+02 -0.63171409565E+03  0.63309367341E+03  0.00000000000E+00 0. -1.
        -11    1    4    4    0    0 -0.11930163966E+02 -0.30255430414E+02 -0.87070147879E+02  0.92945847317E+02  0.00000000000E+00 0.  1.
         11    1    4    4    0    0  0.39653936008E+02  0.48544252270E+02 -0.10772980299E+03  0.12463823459E+03  0.00000000000E+00 0. -1.
          1    1    1    2  501    0 -0.37742904423E+02 -0.27858610829E+02 -0.16341071983E+02  0.49675543934E+02  0.00000000000E+00 0. -1.
<scales pt_clust_5="13000.00000" pt_clust_6="13000.00000" pt_clust_7="13000.00000" pt_clust_8="13000.00000" pt_clust_9="46.91086"></scales>
<clustering>
<clus scale="   46.911">  1  9  2 -1</clus>
<clus scale="   81.462">  5  6 -1 -1</clus>
<clus scale="   81.709">  2  5  1 -1</clus>
<clus scale="   91.064">  7  8 -1 -1</clus>
<clus scale="   46.911">  1  5  2 -1</clus>
</clustering>
</event>
<event>
 9    2  0.1665830E-004  0.2199828E+03  0.7546771E-02  0.1136740E+00
          2   -1    0    0  502    0 -0.00000000000E+00  0.00000000000E+00  0.67893937589E+03  0.67893937589E+03  0.00000000000E+00 0. -1.
         21   -1    0    0  501  502  0.00000000000E+00 -0.00000000000E+00 -0.13746073008E+03  0.13746073008E+03  0.00000000000E+00 0. -1.
         24    2    1    2    0    0  0.13376407868E+03 -0.16377550940E+03  0.49114822422E+03  0.53716956660E+03  0.51081492749E+02 0.  0.
         23    2    1    2    0    0 -0.14002039906E+03  0.78858929813E+02  0.14356423731E+02  0.18679626242E+03  0.94139756689E+02 0.  0.
        -13    1    3    3    0    0  0.37458871151E+02 -0.16495024896E+02  0.77438780249E+02  0.87590054005E+02  0.00000000000E+00 0.  1.
         14    1    3    3    0    0  0.96305207527E+02 -0.14728048451E+03  0.41370944397E+03  0.44957951259E+03  0.00000000000E+00 0. -1.
        -11    1    4    4    0    0 -0.37118121516E+02  0.34903545310E+02  0.47949433010E+02  0.69965423932E+02  0.00000000000E+00 0.  1.
         11    1    4    4    0    0 -0.10290227754E+03  0.43955384503E+02 -0.33593009279E+02  0.11683083849E+03  0.00000000000E+00 0. -1.
          1    1    1    2  501    0  0.62563203799E+01  0.84916579591E+02  0.35973997860E+02  0.92434276955E+02  0.00000000000E+00 0. -1.
<scales pt_clust_5="13000.00000" pt_clust_6="13000.00000" pt_clust_7="13000.00000" pt_clust_8="13000.00000" pt_clust_9="85.14674"></scales>
<clustering>
<clus scale="   51.081">  5  6 -1 -1</clus>
<clus scale="   85.147">  2  9  1 -1</clus>
<clus scale="   94.140">  7  8 -1 -1</clus>
<clus scale="  205.279">  1  5  2 -1</clus>
<clus scale="   85.147">  2  5  1 -1</clus>
</clustering>
</event>
<event>
 9    2  0.1665830E-004  0.1496383E+03  0.7546771E-02  0.1222212E+00
         21   -1    0    0  501  502  0.00000000000E+00  0.00000000000E+00  0.47027839732E+03  0.47027839732E+03  0.00000000000E+00 0.  1.
         -3   -1    0    0    0  501 -0.00000000000E+00 -0.00000000000E+00 -0.10115042783E+03  0.10115042783E+03  0.00000000000E+00 0.  1.
         24    2    1    2    0    0  0.42393822975E+02  0.26512468603E+02  0.39717564191E+02  0.10303874040E+03  0.80866246982E+02 0.  0.
         23    2    1    2    0    0 -0.11646554487E+03  0.45998420594E+02  0.33005869967E+03  0.36473262326E+03  0.91711849854E+02 0.  0.
        -11    1    3    3    0    0  0.47813451561E+00 -0.25419529099E+02  0.22896038379E+02  0.34214173170E+02  0.00000000000E+00 0.  1.
         12    1    3    3    0    0  0.41915688459E+02  0.51931997702E+02  0.16821525812E+02  0.68824567234E+02  0.00000000000E+00 0. -1.
        -11    1    4    4    0    0 -0.39476653342E+02  0.63649191487E+02  0.18452855703E+03  0.19914922569E+03  0.00000000000E+00 0.  1.
         11    1    4    4    0    0 -0.76988891530E+02 -0.17650770894E+02  0.14553014264E+03  0.16558339756E+03  0.00000000000E+00 0. -1.
         -4    1    1    2    0  502  0.74071721898E+02 -0.72510889197E+02 -0.64829437261E+00  0.10365746149E+03  0.00000000000E+00 0.  1.
<scales pt_clust_5="13000.00000" pt_clust_6="13000.00000" pt_clust_7="13000.00000" pt_clust_8="13000.00000" pt_clust_9="118.23945"></scales>
<clustering>
<clus scale="   80.866">  5  6 -1 -1</clus>
<clus scale="   91.712">  7  8 -1 -1</clus>
<clus scale="   95.076">  2  5  1 -1</clus>
<clus scale="  118.239">  1  9  2 -1</clus>
<clus scale="  118.239">  1  5  2 -1</clus>
</clustering>
</event>
<event>
 9    2  0.1665830E-004  0.9597946E+02  0.7546771E-02  0.1293221E+00
         21   -1    0    0  501  502  0.00000000000E+00  0.00000000000E+00  0.32554105766E+03  0.32554105766E+03  0.00000000000E+00 0.  1.
          2   -1    0    0  502    0 -0.00000000000E+00 -0.00000000000E+00 -0.59557253818E+02  0.59557253818E+02  0.00000000000E+00 0. -1.
         23    2    1    2    0    0 -0.23426501899E+02 -0.17711871466E+02  0.24912721696E+02  0.10036093852E+03  0.92677736791E+02 0.  0.
         24    2    1    2    0    0  0.46955199941E+01  0.54578672652E+01  0.24719797677E+03  0.26153071142E+03  0.85086056868E+02 0.  0.
        -11    1    4    4    0    0  0.25497808535E+02  0.34586229935E+02  0.82847913998E+02  0.93328036490E+02  0.00000000000E+00 0.  1.
         12    1    4    4    0    0 -0.20802288541E+02 -0.29128362670E+02  0.16435006277E+03  0.16820267493E+03  0.00000000000E+00 0. -1.
        -13    1    3    3    0    0 -0.45637673668E+02 -0.39137613290E+02  0.32829717032E+02  0.68500659502E+02  0.00000000000E+00 0. -1.
         13    1    3    3    0    0  0.22211171769E+02  0.21425741824E+02 -0.79169953358E+01  0.31860279020E+02  0.00000000000E+00 0.  1.
          1    1    1    2  501    0  0.18730981905E+02  0.12254004201E+02 -0.61268946219E+01  0.23206661539E+02  0.00000000000E+00 0. -1.
<scales pt_clust_5="13000.00000" pt_clust_6="13000.00000" pt_clust_7="13000.00000" pt_clust_8="13000.00000" pt_clust_9="22.38327"></scales>
<clustering>
<clus scale="   22.383">  1  9  2 -1</clus>
<clus scale="   85.086">  5  6 -1 -1</clus>
<clus scale="   88.671">  1  5  2 -1</clus>
<clus scale="   92.678">  7  8 -1 -1</clus>
<clus scale="   22.383">  1  5  2 -1</clus>
</clustering>
</event>
<event>
 9    2  0.1665830E-004  0.1076752E+03  0.7546771E-02  0.1269568E+00
         21   -1    0    0  501  502  0.00000000000E+00  0.00000000000E+00  0.99845888098E+02  0.99845888098E+02  0.00000000000E+00 0. -1.
         -1   -1    0    0    0  501 -0.00000000000E+00 -0.00000000000E+00 -0.33108814233E+03  0.33108814233E+03  0.00000000000E+00 0.  1.
         24    2    1    2    0    0 -0.31794424330E+02  0.40846885222E+02 -0.17865540281E+03  0.20266586664E+03  0.80475754698E+02 0.  0.
         23    2    1    2    0    0  0.28474131486E+02 -0.60718895371E+02 -0.11566262578E+03  0.16205279969E+03  0.91573503068E+02 0.  0.
        -13    1    3    3    0    0  0.37311243541E+01  0.55678523419E+02 -0.12214384227E+03  0.13428751790E+03  0.00000000000E+00 0.  1.
         14    1    3    3    0    0 -0.35525548684E+02 -0.14831638197E+02 -0.56511560540E+02  0.68378348734E+02  0.00000000000E+00 0. -1.
        -13    1    4    4    0    0  0.57622508844E+02 -0.32024500264E+02 -0.43119606938E+02  0.78773235589E+02  0.00000000000E+00 0. -1.
         13    1    4    4    0    0 -0.29148377358E+02 -0.28694395106E+02 -0.72543018845E+02  0.83279564097E+02  0.00000000000E+00 0.  1.
         -2    1    1    2    0  502  0.33202928435E+01  0.19872010148E+02  0.63075774365E+02  0.66215364106E+02  0.00000000000E+00 0.  1.
<scales pt_clust_5="13000.00000" pt_clust_6="13000.00000" pt_clust_7="13000.00000" pt_clust_8="13000.00000" pt_clust_9="20.14748"></scales>
<clustering>
<clus scale="   20.147">  1  9  2 -1</clus>
<clus scale="   80.476">  5  6 -1 -1</clus>
<clus scale="   91.574">  7  8 -1 -1</clus>
<clus scale="   98.410">  2  5  1 -1</clus>
<clus scale="   20.147">  1  5  2 -1</clus>
</clustering>
</event>
<event>
 9    2  0.1665830E-004  0.1970221E+03  0.7546771E-02  0.1180008E+00
          2   -1    0    0  502    0 -0.00000000000E+00  0.00000000000E+00  0.12125272548E+04  0.12125272548E+04  0.00000000000E+00 0. -1.
         21   -1    0    0  501  502  0.00000000000E+00 -0.00000000000E+00 -0.99301276119E+02  0.99301276119E+02  0.00000000000E+00 0. -1.
         24    2    1    2    0    0 -0.20235718668E+02 -0.60491604277E+02  0.64265181733E+03  0.65101598088E+03  0.82168914708E+02 0.  0.
         23    2    1    2    0    0  0.92412058497E+02 -0.10634289548E+03  0.44642303096E+03  0.47743738426E+03  0.93830343364E+02 0.  0.
        -11    1    3    3    0    0 -0.23699797739E+02 -0.70970746030E+02  0.33880634036E+03  0.34697011899E+03  0.00000000000E+00 0.  1.
         12    1    3    3    0    0  0.34640790710E+01  0.10479141753E+02  0.30384547698E+03  0.30404586189E+03  0.00000000000E+00 0. -1.
        -13    1    4    4    0    0  0.30517615913E+02 -0.63516130445E+02  0.33914963046E+03  0.34639297849E+03  0.00000000000E+00 0.  1.
         13    1    4    4    0    0  0.61894442584E+02 -0.42826765040E+02  0.10727340050E+03  0.13104440576E+03  0.00000000000E+00 0. -1.
          1    1    1    2  501    0 -0.72176339830E+02  0.16683449976E+03  0.24151130434E+02  0.18337516583E+03  0.00000000000E+00 0. -1.
<scales pt_clust_5="13000.00000" pt_clust_6="13000.00000" pt_clust_7="13000.00000" pt_clust_8="13000.00000" pt_clust_9="173.24422"></scales>
<clustering>
<clus scale="   82.169">  5  6 -1 -1</clus>
<clus scale="   93.830">  7  8 -1 -1</clus>
<clus scale="  104.021">  1  5  2 -1</clus>
<clus scale="  173.244">  2  9  1 -1</clus>
<clus scale="  173.244">  2  5  1 -1</clus>
</clustering>
</event>
<event>
 9    2  0.1665830E-004  0.9271026E+02  0.7546771E-02  0.1297530E+00
         21   -1    0    0  501  502  0.00000000000E+00  0.00000000000E+00  0.27049056168E+02  0.27049056168E+02  0.00000000000E+00 0.  1.
          2   -1    0    0  502    0 -0.00000000000E+00 -0.00000000000E+00 -0.10391965017E+04  0.10391965017E+04  0.00000000000E+00 0. -1.
         24    2    1    2    0    0 -0.24184808593E+02  0.12143226951E+02 -0.37216945886E+03  0.38390305359E+03  0.90216880467E+02 0.  0.
         23    2    1    2    0    0 -0.32427292154E+02  0.39179260937E+02 -0.13277299095E+03  0.16941381976E+03  0.92118572699E+02 0.  0.
        -11    1    3    3    0    0 -0.18192013685E+02  0.51320314392E+02 -0.22432765736E+03  0.23084111828E+03  0.00000000000E+00 0.  1.
         12    1    3    3    0    0 -0.59927949077E+01 -0.39177087440E+02 -0.14784180150E+03  0.15306193532E+03  0.00000000000E+00 0. -1.
        -11    1    4    4    0    0  0.20244192957E+02  0.28566509308E+02 -0.10121911552E+03  0.10710360474E+03  0.00000000000E+00 0. -1.
         11    1    4    4    0    0 -0.52671485112E+02  0.10612751629E+02 -0.31553875435E+02  0.62310215021E+02  0.00000000000E+00 0.  1.
          1    1    1    2  501    0  0.56612100747E+02 -0.51322487889E+02 -0.50720499572E+03  0.51292868451E+03  0.00000000000E+00 0. -1.
<scales pt_clust_5="13000.00000" pt_clust_6="13000.00000" pt_clust_7="13000.00000" pt_clust_8="13000.00000" pt_clust_9="76.41291"></scales>
<clustering>
<clus scale="   76.413">  1  9  2 -1</clus>
<clus scale="   90.217">  5  6 -1 -1</clus>
<clus scale="   90.821">  2  5  1 -1</clus>
<clus scale="   92.119">  7  8 -1 -1</clus>
<clus scale="   76.413">  1  5  2 -1</clus>
</clustering>
</event>
<event>
 9    2  0.1665830E-004  0.3645618E+03  0.7546771E-02  0.1085489E+00
         21   -1    0    0  501  502  0.00000000000E+00  0.00000000000E+00  0.32049081120E+03  0.32049081120E+03  0.00000000000E+00 0. -1.
          2   -1    0    0  502    0 -0.00000000000E+00 -0.00000000000E+00 -0.63830779328E+03  0.63830779328E+03  0.00000000000E+00 0. -1.
         23    2    1    2    0    0  0.11542716594E+03  0.76506881553E+02 -0.18568184397E+02  0.16710530749E+03  0.91666093823E+02 0.  0.
         24    2    1    2    0    0 -0.36834356604E+02  0.31031128186E+03 -0.20913123124E+03  0.38681517088E+03  0.90775784605E+02 0.  0.
        -11    1    4    4    0    0 -0.18792590002E+02  0.51385030727E+02 -0.20115443035E+01  0.54750608511E+02  0.00000000000E+00 0.  1.
         12    1    4    4    0    0 -0.18041766602E+02  0.25892625113E+03 -0.20711968694E+03  0.33206456237E+03  0.00000000000E+00 0. -1.
        -13    1    3    3    0    0  0.10253771920E+03  0.25475493158E+02  0.11843993792E+02  0.10631681334E+03  0.00000000000E+00 0. -1.
         13    1    3    3    0    0  0.12889446748E+02  0.51031388395E+02 -0.30412178189E+02  0.60788494151E+02  0.00000000000E+00 0.  1.
          1    1    1    2  501    0 -0.78592809340E+02 -0.38681816341E+03 -0.90117566444E+02  0.40487812611E+03  0.00000000000E+00 0. -1.
<scales pt_clust_5="13000.00000" pt_clust_6="13000.00000" pt_clust_7="13000.00000" pt_clust_8="13000.00000" pt_clust_9="353.07941"></scales>
<clustering>
<clus scale="   90.776">  5  6 -1 -1</clus>
<clus scale="   91.666">  7  8 -1 -1</clus>
<clus scale="  166.071">  2  7  1 -1</clus>
<clus scale="  353.079">  1  9  2 -1</clus>
<clus scale="  353.079">  1  5  2 -1</clus>
</clustering>
</event>
<event>
 9    2  0.1665830E-004  0.1315489E+03  0.7546771E-02  0.1247949E+00
         21   -1    0    0  501  502  0.00000000000E+00  0.00000000000E+00  0.37223388975E+03  0.37223388975E+03  0.00000000000E+00 0. -1.
          2   -1    0    0  502    0 -0.00000000000E+00 -0.00000000000E+00 -0.26432041744E+03  0.26432041744E+03  0.00000000000E+00 0. -1.
         24    2    1    2    0    0  0.20276496767E+02  0.81281344463E+00  0.74818990033E+02  0.11145866736E+03  0.80083433204E+02 0.  0.
         23    2    1    2    0    0 -0.33935887577E+01 -0.95447737244E+02 -0.21901073612E+03  0.25528488665E+03  0.89904859849E+02 0.  0.
        -11    1    3    3    0    0 -0.26639587215E+02  0.14067439971E+02  0.45499746789E+02  0.54569106940E+02  0.00000000000E+00 0.  1.
         12    1    3    3    0    0  0.46916083983E+02 -0.13254626527E+02  0.29319243244E+02  0.56889560422E+02  0.00000000000E+00 0. -1.
        -13    1    4    4    0    0  0.36018986990E+02 -0.41789936998E+02 -0.14798300628E+03  0.15793269581E+03  0.00000000000E+00 0. -1.
         13    1    4    4    0    0 -0.39412575748E+02 -0.53657800246E+02 -0.71027729836E+02  0.97352190833E+02  0.00000000000E+00 0.  1.
          1    1    1    2  501    0 -0.16882908009E+02  0.94634923799E+02  0.25210521840E+03  0.26981075317E+03  0.00000000000E+00 0. -1.
<scales pt_clust_5="13000.00000" pt_clust_6="13000.00000" pt_clust_7="13000.00000" pt_clust_8="13000.00000" pt_clust_9="96.03246"></scales>
<clustering>
<clus scale="   80.083">  5  6 -1 -1</clus>
<clus scale="   82.615">  2  5  1 -1</clus>
<clus scale="   89.905">  7  8 -1 -1</clus>
<clus scale="   96.032">  1  9  2 -1</clus>
<clus scale="   96.032">  1  5  2 -1</clus>
</clustering>
</event>
<event>
 9    2  0.1665830E-004  0.1221550E+03  0.7546771E-02  0.1242409E+00
         21   -1    0    0  501  502  0.00000000000E+00  0.00000000000E+00  0.36190282404E+02  0.36190282404E+02  0.00000000000E+00 0. -1.
          2   -1    0    0  502    0 -0.00000000000E+00 -0.00000000000E+00 -0.73679358803E+03  0.73679358803E+03  0.00000000000E+00 0. -1.
         23    2    1    2    0    0  0.10480024488E+02  0.77701106471E+02 -0.36600158261E+03  0.38482102688E+03  0.89346356359E+02 0.  0.
         24    2    1    2    0    0 -0.74744198296E+02 -0.74702770115E+02 -0.22601653703E+03  0.26195025832E+03  0.79795136327E+02 0.  0.
        -11    1    4    4    0    0 -0.25706677208E+02  0.51674953177E+01 -0.13083746104E+02  0.29303936136E+02  0.00000000000E+00 0.  1.
         12    1    4    4    0    0 -0.49037521088E+02 -0.79870265432E+02 -0.21293279092E+03  0.23264632218E+03  0.00000000000E+00 0. -1.
        -11    1    3    3    0    0  0.18914881967E+02 -0.14610697640E+02 -0.10965226603E+03  0.11222684479E+03  0.00000000000E+00 0.  1.
         11    1    3    3    0    0 -0.84348574786E+01  0.92311804111E+02 -0.25634931658E+03  0.27259418209E+03  0.00000000000E+00 0. -1.
          1    1    1    2  501    0  0.64264173808E+02 -0.29983363564E+01 -0.10858518599E+03  0.12621258524E+03  0.00000000000E+00 0. -1.
<scales pt_clust_5="13000.00000" pt_clust_6="13000.00000" pt_clust_7="13000.00000" pt_clust_8="13000.00000" pt_clust_9="64.33408"></scales>
<clustering>
<clus scale="   64.334">  1  9  2 -1</clus>
<clus scale="   79.795">  5  6 -1 -1</clus>
<clus scale="   89.346">  7  8 -1 -1</clus>
<clus scale="  115.353">  1  5  2 -1</clus>
<clus scale="   64.334">  1  5  2 -1</clus>
</clustering>
</event>
<event>
 9    2  0.1665830E-004  0.1987518E+03  0.7546771E-02  0.1164262E+00
         21   -1    0    0  501  502  0.00000000000E+00  0.00000000000E+00  0.65428742576E+02  0.65428742576E+02  0.00000000000E+00 0. -1.
          2   -1    0    0  502    0 -0.00000000000E+00 -0.00000000000E+00 -0.12279125156E+04  0.12279125156E+04  0.00000000000E+00 0. -1.
         24    2    1    2    0    0  0.89736279077E+02  0.80103365783E+02 -0.49531975774E+03  0.51612739191E+03  0.81096690980E+02 0.  0.
         23    2    1    2    0    0  0.49739355597E+02 -0.19478216963E+03 -0.33489926918E+03  0.39905445248E+03  0.81687443664E+02 0.  0.
        -11    1    3    3    0    0  0.56880150159E+02  0.81215706067E+02 -0.25550173149E+03  0.27406655613E+03  0.00000000000E+00 0.  1.
         12    1    3    3    0    0  0.32856128919E+02 -0.11123402838E+01 -0.23981802624E+03  0.24206083578E+03  0.00000000000E+00 0. -1.
        -13    1    4    4    0    0  0.57651080093E+02 -0.13983373864E+03 -0.18351902970E+03  0.23781580217E+03  0.00000000000E+00 0. -1.
         13    1    4    4    0    0 -0.79117244960E+01 -0.54948430986E+02 -0.15138023947E+03  0.16123865031E+03  0.00000000000E+00 0.  1.
          1    1    1    2  501    0 -0.13947563467E+03  0.11467880384E+03 -0.33226474608E+03  0.37815941375E+03  0.00000000000E+00 0. -1.
<scales pt_clust_5="13000.00000" pt_clust_6="13000.00000" pt_clust_7="13000.00000" pt_clust_8="13000.00000" pt_clust_9="181.18909"></scales>
<clustering>
<clus scale="   81.097">  5  6 -1 -1</clus>
<clus scale="   81.687">  7  8 -1 -1</clus>
<clus scale="  145.072">  2  5  1 -1</clus>
<clus scale="  181.189">  1  9  2 -1</clus>
<clus scale="  181.189">  1  5  2 -1</clus>
</clustering>
</event>
<event>
 9    2  0.1665830E-004  0.2088032E+03  0.7546771E-02  0.1143469E+00
         21   -1    0    0  501  502  0.00000000000E+00  0.00000000000E+00  0.55323921842E+03  0.55323921842E+03  0.00000000000E+00 0. -1.
          2   -1    0    0  502    0 -0.00000000000E+00 -0.00000000000E+00 -0.15298968068E+03  0.15298968068E+03  0.00000000000E+00 0. -1.
         24    2    1    2    0    0  0.19185942882E+03  0.38385269420E+02 -0.66078847524E+01  0.21173789723E+03  0.80658562132E+02 0.  0.
         23    2    1    2    0    0 -0.16014510091E+03  0.16383970140E+02  0.38539320574E+03  0.42766151139E+03  0.91932352679E+02 0.  0.
        -13    1    3    3    0    0  0.57440979803E+02  0.13197018414E+02  0.35303226155E+02  0.68701857564E+02  0.00000000000E+00 0.  1.
         14    1    3    3    0    0  0.13441844902E+03  0.25188251006E+02 -0.41911110907E+02  0.14303603966E+03  0.00000000000E+00 0. -1.
        -13    1    4    4    0    0 -0.26667731562E+02 -0.32059585585E+02  0.65204425881E+02  0.77398979897E+02  0.00000000000E+00 0.  1.
         13    1    4    4    0    0 -0.13347736935E+03  0.48443555725E+02  0.32018877986E+03  0.35026253149E+03  0.00000000000E+00 0. -1.
          1    1    1    2  501    0 -0.31714327911E+02 -0.54769239561E+02  0.21464216752E+02  0.66829490479E+02  0.00000000000E+00 0. -1.
<scales pt_clust_5="13000.00000" pt_clust_6="13000.00000" pt_clust_7="13000.00000" pt_clust_8="13000.00000" pt_clust_9="63.28880"></scales>
<clustering>
<clus scale="   63.289">  1  9  2 -1</clus>
<clus scale="   80.659">  5  6 -1 -1</clus>
<clus scale="   91.932">  7  8 -1 -1</clus>
<clus scale="  204.091">  2  5  1 -1</clus>
<clus scale="   63.289">  1  5  2 -1</clus>
</clustering>
</event>
<event>
 9    2  0.1665830E-004  0.1182975E+03  0.7546771E-02  0.1252385E+00
         -1   -1    0    0    0  501 -0.00000000000E+00  0.00000000000E+00  0.48345374950E+02  0.48345374950E+02  0.00000000000E+00 0.  1.
         21   -1    0    0  501  502  0.00000000000E+00 -0.00000000000E+00 -0.36289368974E+03  0.36289368974E+03  0.00000000000E+00 0.  1.
         23    2    1    2    0    0  0.34068349188E+02 -0.48788246531E+02 -0.14675450292E+03  0.18304854895E+03  0.91809268197E+02 0.  0.
         24    2    1    2    0    0 -0.38993090402E+02  0.81976475428E+02 -0.15151570548E+03  0.19089858148E+03  0.72419995729E+02 0.  0.
        -11    1    4    4    0    0 -0.36621514752E+02  0.51247523184E+02 -0.14677004194E+03  0.15971502493E+03  0.00000000000E+00 0.  1.
         12    1    4    4    0    0 -0.23715756496E+01  0.30728952244E+02 -0.47456635406E+01  0.31183556557E+02  0.00000000000E+00 0. -1.
        -11    1    3    3    0    0  0.26507083080E+02 -0.83169664324E+01  0.28078828140E+01  0.27922779051E+02  0.00000000000E+00 0. -1.
         11    1    3    3    0    0  0.75612661079E+01 -0.40471280099E+02 -0.14956238574E+03  0.15512576989E+03  0.00000000000E+00 0.  1.
         -2    1    1    2    0  502  0.49247412142E+01 -0.33188228897E+02 -0.16278106380E+02  0.37291934258E+02  0.00000000000E+00 0.  1.
<scales pt_clust_5="13000.00000" pt_clust_6="13000.00000" pt_clust_7="13000.00000" pt_clust_8="13000.00000" pt_clust_9="33.55164"></scales>
<clustering>
<clus scale="   33.552">  2  9  1 -1</clus>
<clus scale="   72.420">  5  6 -1 -1</clus>
<clus scale="   91.809">  7  8 -1 -1</clus>
<clus scale="  103.971">  2  5  1 -1</clus>
<clus scale="   33.552">  2  5  1 -1</clus>
</clustering>
</event>
<event>
 9    2  0.1665830E-004  0.2483305E+03  0.7546771E-02  0.1115015E+00
          2   -1    0    0  502    0 -0.00000000000E+00  0.00000000000E+00  0.20552277854E+04  0.20552277854E+04  0.00000000000E+00 0. -1.
         21   -1    0    0  501  502  0.00000000000E+00 -0.00000000000E+00 -0.56044410390E+02  0.56044410390E+02  0.00000000000E+00 0. -1.
         24    2    1    2    0    0  0.15300574441E+03 -0.16915132356E+03  0.88839657296E+03  0.92072300192E+03  0.80370687007E+02 0.  0.
         23    2    1    2    0    0 -0.61875598796E+02  0.24852737310E+03  0.51335734061E+03  0.58101886479E+03  0.91938659838E+02 0.  0.
        -13    1    3    3    0    0  0.71340607700E+02 -0.66809562704E+02  0.23816962636E+03  0.25744469483E+03  0.00000000000E+00 0.  1.
         14    1    3    3    0    0  0.81665136712E+02 -0.10234176085E+03  0.65022694660E+03  0.66327830709E+03  0.00000000000E+00 0. -1.
        -13    1    4    4    0    0 -0.54841894221E+02  0.21817515183E+03  0.35985279809E+03  0.42438433823E+03  0.00000000000E+00 0. -1.
         13    1    4    4    0    0 -0.70337045749E+01  0.30352221266E+02  0.15350454253E+03  0.15663452656E+03  0.00000000000E+00 0.  1.
          1    1    1    2  501    0 -0.91130145617E+02 -0.79376049541E+02  0.59742946148E+03  0.60953032913E+03  0.00000000000E+00 0. -1.
<scales pt_clust_5="13000.00000" pt_clust_6="13000.00000" pt_clust_7="13000.00000" pt_clust_8="13000.00000" pt_clust_9="120.85229"></scales>
<clustering>
<clus scale="   80.371">  5  6 -1 -1</clus>
<clus scale="   91.939">  7  8 -1 -1</clus>
<clus scale="  120.852">  2  9  1 -1</clus>
<clus scale="  244.284">  1  5  2 -1</clus>
<clus scale="  120.852">  2  5  1 -1</clus>
</clustering>
</event>
<event>
 9    2  0.1665830E-004  0.2332760E+03  0.7546771E-02  0.1125378E+00
         21   -1    0    0  501  502  0.00000000000E+00  0.00000000000E+00  0.17581643691E+03  0.17581643691E+03  0.00000000000E+00 0. -1.
          2   -1    0    0  502    0 -0.00000000000E+00 -0.00000000000E+00 -0.11192729965E+04  0.11192729965E+04  0.00000000000E+00 0. -1.
         24    2    1    2    0    0 -0.14004531675E+03 -0.18250784737E+03 -0.84895741419E+03  0.88319397039E+03  0.79881744691E+02 0.  0.
         23    2    1    2    0    0  0.12952784347E+03  0.11707628319E+03 -0.20335802826E+03  0.28445071731E+03  0.95254420355E+02 0.  0.
        -13    1    3    3    0    0 -0.40490205265E+02 -0.11708748701E+03 -0.40435123048E+03  0.42290525408E+03  0.00000000000E+00 0.  1.
         14    1    3    3    0    0 -0.99555111490E+02 -0.65420360360E+02 -0.44460618371E+03  0.46028871631E+03  0.00000000000E+00 0. -1.
        -11    1    4    4    0    0  0.87139836439E+02  0.12667978785E+03 -0.17290589689E+03  0.23138186818E+03  0.00000000000E+00 0.  1.
         11    1    4    4    0    0  0.42388007031E+02 -0.96035046641E+01 -0.30452131372E+02  0.53068849121E+02  0.00000000000E+00 0. -1.
          1    1    1    2  501    0  0.10517473284E+02  0.65431564187E+02  0.10885888286E+03  0.12744474572E+03  0.00000000000E+00 0. -1.
<scales pt_clust_5="13000.00000" pt_clust_6="13000.00000" pt_clust_7="13000.00000" pt_clust_8="13000.00000" pt_clust_9="66.27146"></scales>
<clustering>
<clus scale="   66.271">  1  9  2 -1</clus>
<clus scale="   79.882">  5  6 -1 -1</clus>
<clus scale="   95.254">  7  8 -1 -1</clus>
<clus scale="  227.432">  2  5  1 -1</clus>
<clus scale="   66.271">  1  5  2 -1</clus>
</clustering>
</event>
<event>
 9    2  0.1665830E-004  0.8910541E+02  0.7546771E-02  0.1306704E+00
         21   -1    0    0  501  502  0.00000000000E+00  0.00000000000E+00  0.25665941277E+02  0.25665941277E+02  0.00000000000E+00 0.  1.
          2   -1    0    0  502    0 -0.00000000000E+00 -0.00000000000E+00 -0.74466073216E+03  0.74466073216E+03  0.00000000000E+00 0. -1.
         24    2    1    2    0    0  0.33982728450E+02  0.26237423526E+02 -0.60584557047E+03  0.61265239716E+03  0.80317347219E+02 0.  0.
         23    2    1    2    0    0 -0.23114787561E+02  0.51141424661E+00 -0.87655968915E+02  0.11915780794E+03  0.77333429751E+02 0.  0.
        -13    1    3    3    0    0  0.21317081913E+02 -0.17238099578E+02 -0.74556312501E+02  0.79436854117E+02  0.00000000000E+00 0.  1.
         14    1    3    3    0    0  0.12665646537E+02  0.43475523104E+02 -0.53128925797E+03  0.53321554305E+03  0.00000000000E+00 0. -1.
        -13    1    4    4    0    0 -0.45631477550E+02 -0.19820277902E+02 -0.47088279246E+02  0.68500957670E+02  0.00000000000E+00 0.  1.
         13    1    4    4    0    0  0.22516689988E+02  0.20331692148E+02 -0.40567689669E+02  0.50656850265E+02  0.00000000000E+00 0. -1.
          1    1    1    2  501    0 -0.10867940889E+02 -0.26748837773E+02 -0.25493251498E+02  0.38516468339E+02  0.00000000000E+00 0. -1.
<scales pt_clust_5="13000.00000" pt_clust_6="13000.00000" pt_clust_7="13000.00000" pt_clust_8="13000.00000" pt_clust_9="28.87235"></scales>
<clustering>
<clus scale="   28.872">  1  9  2 -1</clus>
<clus scale="   77.333">  7  8 -1 -1</clus>
<clus scale="   80.317">  5  6 -1 -1</clus>
<clus scale="   86.425">  1  7  2 -1</clus>
<clus scale="   28.872">  1  5  2 -1</clus>
</clustering>
</event>
<event>
 9    2  0.1665830E-004  0.8892198E+02  0.7546771E-02  0.1307405E+00
          2   -1    0    0  502    0 -0.00000000000E+00  0.00000000000E+00  0.27031826846E+03  0.27031826846E+03  0.00000000000E+00 0. -1.
         21   -1    0    0  501  502  0.00000000000E+00 -0.00000000000E+00 -0.23817640931E+03  0.23817640931E+03  0.00000000000E+00 0. -1.
         24    2    1    2    0    0 -0.22921124156E+02 -0.15406477044E+02  0.22225914522E+03  0.23858378123E+03  0.82221381425E+02 0.  0.
         23    2    1    2    0    0  0.19840598727E+02 -0.25251808188E+02 -0.17976352136E+02  0.93006722121E+02  0.85415443270E+02 0.  0.
        -13    1    3    3    0    0  0.24873400341E+02  0.43528934718E+01  0.28667093323E+02  0.38202564910E+02  0.00000000000E+00 0.  1.
         14    1    3    3    0    0 -0.47794524497E+02 -0.19759370516E+02  0.19359205190E+03  0.20038121632E+03  0.00000000000E+00 0. -1.
        -11    1    4    4    0    0  0.46013490804E+01  0.31567741127E+02 -0.15966383478E+01  0.31941257759E+02  0.00000000000E+00 0.  1.
         11    1    4    4    0    0  0.15239249646E+02 -0.56819549314E+02 -0.16379713788E+02  0.61065464363E+02  0.00000000000E+00 0. -1.
          1    1    1    2  501    0  0.30805254289E+01  0.40658285232E+02 -0.17214093393E+03  0.17690417443E+03  0.00000000000E+00 0. -1.
<scales pt_clust_5="13000.00000" pt_clust_6="13000.00000" pt_clust_7="13000.00000" pt_clust_8="13000.00000" pt_clust_9="40.77482"></scales>
<clustering>
<clus scale="   40.775">  2  9  1 -1</clus>
<clus scale="   82.221">  5  6 -1 -1</clus>
<clus scale="   85.415">  7  8 -1 -1</clus>
<clus scale="   85.858">  1  5  2 -1</clus>
<clus scale="   40.775">  2  5  1 -1</clus>
</clustering>
</event>
<event>
 9    2  0.1665830E-004  0.2058392E+03  0.7546771E-02  0.1146144E+00
          2   -1    0    0  502    0 -0.00000000000E+00  0.00000000000E+00  0.38946343220E+03  0.38946343220E+03  0.00000000000E+00 0. -1.
         21   -1    0    0  501  502  0.00000000000E+00 -0.00000000000E+00 -0.57715292517E+03  0.57715292517E+03  0.00000000000E+00 0. -1.
         23    2    1    2    0    0 -0.18831956451E+03 -0.49778108133E+02  0.33371348154E+03  0.39762713913E+03  0.93811169790E+02 0.  0.
         24    2    1    2    0    0  0.85437811262E+02  0.32189559478E+02 -0.24075360838E+03  0.26955962902E+03  0.79776602566E+02 0.  0.
        -13    1    4    4    0    0  0.49081252070E+02 -0.23013889224E+02 -0.92036715604E+02  0.10681463112E+03  0.00000000000E+00 0.  1.
         14    1    4    4    0    0  0.36356559192E+02  0.55203448702E+02 -0.14871689278E+03  0.16274499790E+03  0.00000000000E+00 0. -1.
        -13    1    3    3    0    0 -0.80458476181E+02 -0.34080335616E+02  0.23445036807E+03  0.25020393832E+03  0.00000000000E+00 0. -1.
         13    1    3    3    0    0 -0.10786108833E+03 -0.15697772517E+02  0.99263113477E+02  0.14742320080E+03  0.00000000000E+00 0.  1.
          1    1    1    2  501    0  0.10288175325E+03  0.17588548655E+02 -0.28064936613E+03  0.29942958923E+03  0.00000000000E+00 0. -1.
<scales pt_clust_5="13000.00000" pt_clust_6="13000.00000" pt_clust_7="13000.00000" pt_clust_8="13000.00000" pt_clust_9="104.37438"></scales>
<clustering>
<clus scale="   79.777">  5  6 -1 -1</clus>
<clus scale="   93.811">  7  8 -1 -1</clus>
<clus scale="  104.374">  2  9  1 -1</clus>
<clus scale="  199.834">  2  5  1 -1</clus>
<clus scale="  104.374">  2  5  1 -1</clus>
</clustering>
</event>
<event>
 9    2  0.1665830E-004  0.2740331E+03  0.7546771E-02  0.1138997E+00
         21   -1    0    0  501  502  0.00000000000E+00  0.00000000000E+00  0.96704356720E+03  0.96704356720E+03  0.00000000000E+00 0.  1.
          2   -1    0    0  502    0 -0.00000000000E+00 -0.00000000000E+00 -0.15482606904E+03  0.15482606904E+03  0.00000000000E+00 0. -1.
         23    2    1    2    0    0  0.17570631866E+02 -0.34101292570E+02  0.33684401083E+03  0.35153019114E+03  0.92940639059E+02 0.  0.
         24    2    1    2    0    0  0.14174968611E+03 -0.20781480547E+03  0.38520619563E+03  0.46696426038E+03  0.79948986416E+02 0.  0.
        -13    1    4    4    0    0  0.12510760710E+03 -0.21165861423E+03  0.36906407892E+03  0.44346316271E+03  0.00000000000E+00 0.  1.
         14    1    4    4    0    0  0.16642079011E+02  0.38438087565E+01  0.16142116713E+02  0.23501097667E+02  0.00000000000E+00 0. -1.
        -11    1    3    3    0    0  0.30528284554E+02 -0.61300325598E+02  0.26316845433E+03  0.27193260457E+03  0.00000000000E+00 0.  1.
         11    1    3    3    0    0 -0.12957652688E+02  0.27199033028E+02  0.73675556506E+02  0.79597586567E+02  0.00000000000E+00 0. -1.
          1    1    1    2  501    0 -0.15932031798E+03  0.24191609804E+03  0.90167291694E+02  0.30337518472E+03  0.00000000000E+00 0. -1.
<scales pt_clust_5="13000.00000" pt_clust_6="13000.00000" pt_clust_7="13000.00000" pt_clust_8="13000.00000" pt_clust_9="262.11138"></scales>
<clustering>
<clus scale="   79.949">  5  6 -1 -1</clus>
<clus scale="   92.941">  7  8 -1 -1</clus>
<clus scale="  100.546">  2  7  1 -1</clus>
<clus scale="  262.111">  1  9  2 -1</clus>
<clus scale="  262.111">  1  5  2 -1</clus>
</clustering>
</event>
<event>
 9    2  0.1665830E-004  0.1011492E+03  0.7546771E-02  0.1282994E+00
          2   -1    0    0  502    0 -0.00000000000E+00  0.00000000000E+00  0.19503021854E+03  0.19503021854E+03  0.00000000000E+00 0. -1.
         21   -1    0    0  501  502  0.00000000000E+00 -0.00000000000E+00 -0.21626900206E+03  0.21626900206E+03  0.00000000000E+00 0. -1.
         23    2    1    2    0    0  0.45665499152E+02 -0.16641989967E+02  0.15713902839E+03  0.18809030892E+03  0.91230457759E+02 0.  0.
         24    2    1    2    0    0  0.34421649006E+01  0.23774165676E+02 -0.10483624830E+03  0.13449142649E+03  0.80748036440E+02 0.  0.
        -13    1    4    4    0    0 -0.25690186643E+02  0.37618086997E+02 -0.85519033009E+02  0.96894845921E+02  0.00000000000E+00 0.  1.
         14    1    4    4    0    0  0.29132351544E+02 -0.13843921321E+02 -0.19317215293E+02  0.37596580571E+02  0.00000000000E+00 0. -1.
        -13    1    3    3    0    0  0.41324778059E+01  0.27966919686E+02  0.12073974515E+02  0.30740963390E+02  0.00000000000E+00 0.  1.
         13    1    3    3    0    0  0.41533021346E+02 -0.44608909653E+02  0.14506505388E+03  0.15734934553E+03  0.00000000000E+00 0. -1.
          1    1    1    2  501    0 -0.49107664053E+02 -0.71321757094E+01 -0.73541563615E+02  0.88717485188E+02  0.00000000000E+00 0. -1.
<scales pt_clust_5="13000.00000" pt_clust_6="13000.00000" pt_clust_7="13000.00000" pt_clust_8="13000.00000" pt_clust_9="49.62288"></scales>
<clustering>
<clus scale="   49.623">  2  9  1 -1</clus>
<clus scale="   80.748">  5  6 -1 -1</clus>
<clus scale="   91.230">  7  8 -1 -1</clus>
<clus scale="   91.806">  2  5  1 -1</clus>
<clus scale="   49.623">  2  5  1 -1</clus>
</clustering>
</event>
<event>
 9    2  0.1665830E-004  0.2650262E+03  0.7546771E-02  0.1105314E+00
          2   -1    0    0  502    0 -0.00000000000E+00  0.00000000000E+00  0.89229528337E+03  0.89229528337E+03  0.00000000000E+00 0. -1.
         21   -1    0    0  501  502  0.00000000000E+00 -0.00000000000E+00 -0.16824719533E+03  0.16824719533E+03  0.00000000000E+00 0.  1.
         24    2    1    2    0    0  0.22978791406E+03  0.95267292555E+02  0.62503992123E+03  0.67726482458E+03  0.78322391476E+02 0.  0.
         23    2    1    2    0    0 -0.20720395776E+03 -0.11360451135E+03  0.16895830275E+03  0.30751941897E+03  0.10090500416E+03 0.  0.
        -13    1    3    3    0    0  0.78451226293E+01  0.23871902313E+02  0.37323993687E+02  0.44994379359E+02  0.00000000000E+00 0.  1.
         14    1    3    3    0    0  0.22194279143E+03  0.71395390242E+02  0.58771592755E+03  0.63227044523E+03  0.00000000000E+00 0. -1.
        -11    1    4    4    0    0 -0.45798488065E+02 -0.74284575886E+02  0.83160110655E+02  0.12054585736E+03  0.00000000000E+00 0. -1.
         11    1    4    4    0    0 -0.16140546970E+03 -0.39319935459E+02  0.85798192096E+02  0.18697356161E+03  0.00000000000E+00 0.  1.
          1    1    1    2  501    0 -0.22583956297E+02  0.18337218791E+02 -0.69950135944E+02  0.75758235153E+02  0.00000000000E+00 0. -1.
<scales pt_clust_5="13000.00000" pt_clust_6="13000.00000" pt_clust_7="13000.00000" pt_clust_8="13000.00000" pt_clust_9="29.09104"></scales>
<clustering>
<clus scale="   29.091">  2  9  1 -1</clus>
<clus scale="   78.322">  5  6 -1 -1</clus>
<clus scale="  100.905">  7  8 -1 -1</clus>
<clus scale="  257.277">  1  5  2 -1</clus>
<clus scale="   29.091">  2  5  1 -1</clus>
</clustering>
</event>
<event>
 9    2  0.1665830E-004  0.9179797E+02  0.7546771E-02  0.1304884E+00
         21   -1    0    0  501  502  0.00000000000E+00  0.00000000000E+00  0.99403819205E+02  0.99403819205E+02  0.00000000000E+00 0.  1.
          4   -1    0    0  502    0 -0.00000000000E+00 -0.00000000000E+00 -0.26492362553E+03  0.26492362553E+03  0.00000000000E+00 0. -1.
         23    2    1    2    0    0 -0.10333168899E+02 -0.90480579185E+01 -0.43020684409E+02  0.10141884423E+03  0.90809476084E+02 0.  0.
         24    2    1    2    0    0  0.15595223521E+02 -0.40691540391E+02  0.34673391037E+02  0.97969473287E+02  0.80602488759E+02 0.  0.
        -13    1    4    4    0    0 -0.32616886843E+02 -0.24157543442E+02  0.17293369640E+02  0.44119257088E+02  0.00000000000E+00 0.  1.
         14    1    4    4    0    0  0.48212110364E+02 -0.16533996948E+02  0.17380021398E+02  0.53850216199E+02  0.00000000000E+00 0. -1.
        -11    1    3    3    0    0 -0.38734204672E-01 -0.31626511406E+02 -0.62384408572E+02  0.69943206653E+02  0.00000000000E+00 0. -1.
         11    1    3    3    0    0 -0.10294434694E+02  0.22578453487E+02  0.19363724163E+02  0.31475637579E+02  0.00000000000E+00 0.  1.
          3    1    1    2  501    0 -0.52620546222E+01  0.49739598309E+02 -0.15717251295E+03  0.16493912721E+03  0.00000000000E+00 0. -1.
<scales pt_clust_5="13000.00000" pt_clust_6="13000.00000" pt_clust_7="13000.00000" pt_clust_8="13000.00000" pt_clust_9="50.01719"></scales>
<clustering>
<clus scale="   50.017">  1  9  2 -1</clus>
<clus scale="   80.602">  5  6 -1 -1</clus>
<clus scale="   81.715">  1  5  2 -1</clus>
<clus scale="   90.809">  7  8 -1 -1</clus>
<clus scale="   50.017">  1  5  2 -1</clus>
</clustering>
</event>
<event>
 9    2  0.1665830E-004  0.1680721E+03  0.7546771E-02  0.1211495E+00
         21   -1    0    0  501  502  0.00000000000E+00  0.00000000000E+00  0.76179075016E+03  0.76179075016E+03  0.00000000000E+00 0. -1.
          4   -1    0    0  502    0 -0.00000000000E+00 -0.00000000000E+00 -0.97797185763E+02  0.97797185763E+02  0.00000000000E+00 0. -1.
         24    2    1    2    0    0 -0.10595699607E+02 -0.15134270086E+02  0.11715145181E+03  0.14423148000E+03  0.82078877793E+02 0.  0.
         23    2    1    2    0    0  0.77902302502E+02 -0.11117672626E+03  0.13579951758E+02  0.16322134677E+03  0.89597766467E+02 0.  0.
        -11    1    3    3    0    0  0.38808552117E+01  0.27523503043E+02  0.12858910725E+02  0.30626064748E+02  0.00000000000E+00 0.  1.
         12    1    3    3    0    0 -0.14476554819E+02 -0.42657773129E+02  0.10429254109E+03  0.11360541525E+03  0.00000000000E+00 0. -1.
        -13    1    4    4    0    0  0.24557932178E+02 -0.82701705461E+02  0.42524708942E+02  0.96182196844E+02  0.00000000000E+00 0.  1.
         13    1    4    4    0    0  0.53344370324E+02 -0.28475020794E+02 -0.28944757184E+02  0.67039149927E+02  0.00000000000E+00 0. -1.
          3    1    1    2  501    0 -0.67306602895E+02  0.12631099634E+03  0.53326216082E+03  0.55213510915E+03  0.00000000000E+00 0. -1.
<scales pt_clust_5="13000.00000" pt_clust_6="13000.00000" pt_clust_7="13000.00000" pt_clust_8="13000.00000" pt_clust_9="142.19874"></scales>
<clustering>
<clus scale="   82.079">  5  6 -1 -1</clus>
<clus scale="   84.132">  2  5  1 -1</clus>
<clus scale="   89.598">  7  8 -1 -1</clus>
<clus scale="  142.199">  1  9  2 -1</clus>
<clus scale="  142.199">  1  5  2 -1</clus>
</clustering>
</event>
<event>
 9    2  0.1665830E-004  0.1462165E+03  0.7546771E-02  0.1222232E+00
          2   -1    0    0  502    0 -0.00000000000E+00  0.00000000000E+00  0.52877591060E+03  0.52877591060E+03  0.00000000000E+00 0. -1.
         21   -1    0    0  501  502  0.00000000000E+00 -0.00000000000E+00 -0.75015320954E+02  0.75015320954E+02  0.00000000000E+00 0. -1.
         24    2    1    2    0    0  0.26795436277E+02 -0.55296414509E+02  0.71894896032E+02  0.12468241214E+03  0.81247393547E+02 0.  0.
         23    2    1    2    0    0  0.88149729561E+02  0.31518753709E+01  0.30763223572E+03  0.33267777632E+03  0.90865842119E+02 0.  0.
        -13    1    3    3    0    0  0.86142558732E+01  0.20869253256E+02  0.92360544317E+01  0.24393356415E+02  0.00000000000E+00 0.  1.
         14    1    3    3    0    0  0.18181180404E+02 -0.76165667765E+02  0.62658841601E+02  0.10028905572E+03  0.00000000000E+00 0. -1.
        -11    1    4    4    0    0  0.36492071007E+02  0.42745650453E+02  0.95775469817E+02  0.11104864924E+03  0.00000000000E+00 0.  1.
         11    1    4    4    0    0  0.51657658554E+02 -0.39593775082E+02  0.21185676590E+03  0.22162912708E+03  0.00000000000E+00 0. -1.
          1    1    1    2  501    0 -0.11494516584E+03  0.52144539138E+02  0.74233457895E+02  0.14643104310E+03  0.00000000000E+00 0. -1.
<scales pt_clust_5="13000.00000" pt_clust_6="13000.00000" pt_clust_7="13000.00000" pt_clust_8="13000.00000" pt_clust_9="114.55418"></scales>
<clustering>
<clus scale="   81.247">  5  6 -1 -1</clus>
<clus scale="   90.866">  7  8 -1 -1</clus>
<clus scale="  101.867">  1  5  2 -1</clus>
<clus scale="  114.554">  2  9  1 -1</clus>
<clus scale="  114.554">  2  5  1 -1</clus>
</clustering>
</event>
<event>
 9    2  0.1665830E-004  0.1197825E+03  0.7546771E-02  0.1247216E+00
         -3   -1    0    0    0  501 -0.00000000000E+00  0.00000000000E+00  0.62211611886E+02  0.62211611886E+02  0.00000000000E+00 0.  1.
         21   -1    0    0  501  502  0.00000000000E+00 -0.00000000000E+00 -0.38659287703E+03  0.38659287703E+03  0.00000000000E+00 0.  1.
         23    2    1    2    0    0 -0.47331438808E+02  0.58099264969E+02 -0.48207956599E+02  0.12870417663E+03  0.92870707503E+02 0.  0.
         24    2    1    2    0    0  0.75446404782E+02 -0.33989255036E+02 -0.15635519385E+03  0.19468849267E+03  0.81297189879E+02 0.  0.
        -11    1    4    4    0    0  0.77765096425E+02 -0.48432131796E+02 -0.96457715995E+02  0.13303072046E+03  0.00000000000E+00 0.  1.
         12    1    4    4    0    0 -0.23186916427E+01  0.14442876760E+02 -0.59897477858E+02  0.61657772209E+02  0.00000000000E+00 0. -1.
        -13    1    3    3    0    0 -0.73731016956E+02  0.50542092759E+02 -0.47517036294E+02  0.10123554089E+03  0.00000000000E+00 0.  1.
         13    1    3    3    0    0  0.26399578148E+02  0.75571722105E+01 -0.69092030459E+00  0.27468635734E+02  0.00000000000E+00 0. -1.
         -4    1    1    2    0  502 -0.28114965974E+02 -0.24110009933E+02 -0.11981811469E+03  0.12541181961E+03  0.00000000000E+00 0.  1.
<scales pt_clust_5="13000.00000" pt_clust_6="13000.00000" pt_clust_7="13000.00000" pt_clust_8="13000.00000" pt_clust_9="37.03706"></scales>
<clustering>
<clus scale="   37.037">  2  9  1 -1</clus>
<clus scale="   81.297">  5  6 -1 -1</clus>
<clus scale="   92.871">  7  8 -1 -1</clus>
<clus scale="  111.050">  2  5  1 -1</clus>
<clus scale="   37.037">  2  5  1 -1</clus>
</clustering>
</event>
<event>
 9    2  0.1665830E-004  0.1996023E+03  0.7546771E-02  0.1173898E+00
         21   -1    0    0  501  502  0.00000000000E+00  0.00000000000E+00  0.10468888104E+03  0.10468888104E+03  0.00000000000E+00 0. -1.
          2   -1    0    0  502    0 -0.00000000000E+00 -0.00000000000E+00 -0.62888951561E+03  0.62888951561E+03  0.00000000000E+00 0. -1.
         23    2    1    2    0    0 -0.62519271459E+02 -0.21613932042E+02 -0.18971978960E+03  0.22177564591E+03  0.93888322970E+02 0.  0.
         24    2    1    2    0    0  0.12030012926E+03  0.17174200504E+03 -0.18870984698E+03  0.29471693895E+03  0.85318405760E+02 0.  0.
        -11    1    4    4    0    0  0.12860044740E+02  0.15852914811E+02  0.77898809827E+01  0.21848979483E+02  0.00000000000E+00 0.  1.
         12    1    4    4    0    0  0.10744008452E+03  0.15588909022E+03 -0.19649972796E+03  0.27286795946E+03  0.00000000000E+00 0. -1.
        -11    1    3    3    0    0 -0.84275403021E+02 -0.12188878981E+02 -0.11310265271E+03  0.14157373476E+03  0.00000000000E+00 0.  1.
         11    1    3    3    0    0  0.21756131562E+02 -0.94250530614E+01 -0.76617136897E+02  0.80201911150E+02  0.00000000000E+00 0. -1.
          1    1    1    2  501    0 -0.57780857802E+02 -0.15012807299E+03 -0.14577099799E+03  0.21708581180E+03  0.00000000000E+00 0. -1.
<scales pt_clust_5="13000.00000" pt_clust_6="13000.00000" pt_clust_7="13000.00000" pt_clust_8="13000.00000" pt_clust_9="180.44898"></scales>
<clustering>
<clus scale="   85.318">  5  6 -1 -1</clus>
<clus scale="   93.888">  7  8 -1 -1</clus>
<clus scale="  114.851">  2  7  1 -1</clus>
<clus scale="  180.449">  1  9  2 -1</clus>
<clus scale="  180.449">  1  5  2 -1</clus>
</clustering>
</event>
<event>
 9    2  0.1665830E-004  0.1187566E+03  0.7546771E-02  0.1249930E+00
          2   -1    0    0  502    0 -0.00000000000E+00  0.00000000000E+00  0.71817361514E+03  0.71817361514E+03  0.00000000000E+00 0. -1.
         21   -1    0    0  501  502  0.00000000000E+00 -0.00000000000E+00 -0.38885779623E+02  0.38885779623E+02  0.00000000000E+00 0. -1.
         24    2    1    2    0    0 -0.42973338149E+02 -0.68132169573E+02  0.51966547707E+03  0.53205048622E+03  0.80850550396E+02 0.  0.
         23    2    1    2    0    0  0.22304368399E+02  0.24244744291E+02  0.67729119657E+02  0.12109702403E+03  0.94825962187E+02 0.  0.
        -11    1    3    3    0    0 -0.62897451550E+02 -0.36892143969E+02  0.27096421263E+03  0.28060421277E+03  0.00000000000E+00 0.  1.
         12    1    3    3    0    0  0.19924113401E+02 -0.31240025604E+02  0.24870126445E+03  0.25144627345E+03  0.00000000000E+00 0. -1.
        -13    1    4    4    0    0  0.59416675631E+02  0.16176934514E+02  0.49298751997E+02  0.78882200158E+02  0.00000000000E+00 0.  1.
         13    1    4    4    0    0 -0.37112307232E+02  0.80678097766E+01  0.18430367661E+02  0.42214823875E+02  0.00000000000E+00 0. -1.
          1    1    1    2  501    0  0.20668969751E+02  0.43887425282E+02  0.91893238788E+02  0.10391188451E+03  0.00000000000E+00 0. -1.
<scales pt_clust_5="13000.00000" pt_clust_6="13000.00000" pt_clust_7="13000.00000" pt_clust_8="13000.00000" pt_clust_9="48.51095"></scales>
<clustering>
<clus scale="   48.511">  2  9  1 -1</clus>
<clus scale="   80.851">  5  6 -1 -1</clus>
<clus scale="   94.826">  7  8 -1 -1</clus>
<clus scale="  107.926">  1  5  2 -1</clus>
<clus scale="   48.511">  2  5  1 -1</clus>
</clustering>
</event>
<event>
 9    2  0.1665830E-004  0.1870289E+03  0.7546771E-02  0.1162303E+00
          4   -1    0    0  502    0 -0.00000000000E+00  0.00000000000E+00  0.13192224924E+03  0.13192224924E+03  0.00000000000E+00 0. -1.
         21   -1    0    0  501  502  0.00000000000E+00 -0.00000000000E+00 -0.44431776612E+03  0.44431776612E+03  0.00000000000E+00 0.  1.
         24    2    1    2    0    0  0.79299317548E+02 -0.18077290135E+03 -0.37857737203E+02  0.21673938154E+03  0.81089627068E+02 0.  0.
         23    2    1    2    0    0 -0.51986031403E+02  0.95376250639E+02 -0.17874868301E+03  0.22829791054E+03  0.91485887624E+02 0.  0.
        -11    1    3    3    0    0 -0.14483191024E+02 -0.45839186118E+02 -0.17502165632E+02  0.51159745973E+02  0.00000000000E+00 0.  1.
         12    1    3    3    0    0  0.93782508573E+02 -0.13493371524E+03 -0.20355571572E+02  0.16557963557E+03  0.00000000000E+00 0. -1.
        -11    1    4    4    0    0 -0.56132628087E+02  0.10605342781E+02 -0.70079391323E+02  0.90412755293E+02  0.00000000000E+00 0. -1.
         11    1    4    4    0    0  0.41465966841E+01  0.84770907858E+02 -0.10866929168E+03  0.13788515525E+03  0.00000000000E+00 0.  1.
          3    1    1    2  501    0 -0.27313286145E+02  0.85396650716E+02 -0.95789096664E+02  0.13120272327E+03  0.00000000000E+00 0. -1.
<scales pt_clust_5="13000.00000" pt_clust_6="13000.00000" pt_clust_7="13000.00000" pt_clust_8="13000.00000" pt_clust_9="89.65826"></scales>
<clustering>
<clus scale="   81.090">  5  6 -1 -1</clus>
<clus scale="   89.658">  2  9  1 -1</clus>
<clus scale="   91.486">  7  8 -1 -1</clus>
<clus scale="  182.169">  1  5  2 -1</clus>
<clus scale="   89.658">  2  5  1 -1</clus>
</clustering>
</event>
<event>
 9    2  0.1665830E-004  0.9438369E+02  0.7546771E-02  0.1298401E+00
         21   -1    0    0  501  502  0.00000000000E+00  0.00000000000E+00  0.61111931749E+02  0.61111931749E+02  0.00000000000E+00 0.  1.
          2   -1    0    0  502    0 -0.00000000000E+00 -0.00000000000E+00 -0.12714531976E+04  0.12714531976E+04  0.00000000000E+00 0. -1.
         24    2    1    2    0    0 -0.18953753196E+02  0.57745017379E+00 -0.11693989808E+04  0.11724467067E+04  0.82326942339E+02 0.  0.
         23    2    1    2    0    0  0.35108063639E+02 -0.18855320394E+02 -0.69777904464E+02  0.12234892131E+03  0.92261602819E+02 0.  0.
        -13    1    3    3    0    0  0.16944700986E+02  0.13302607990E+02 -0.96646864917E+02  0.99018678890E+02  0.00000000000E+00 0.  1.
         14    1    3    3    0    0 -0.35898454182E+02 -0.12725157816E+02 -0.10727521159E+04  0.10734280278E+04  0.00000000000E+00 0. -1.
        -13    1    4    4    0    0 -0.16566639206E+02  0.17580421057E+02 -0.50934360950E+02  0.56372279220E+02  0.00000000000E+00 0. -1.
         13    1    4    4    0    0  0.51674702845E+02 -0.36435741452E+02 -0.18843543514E+02  0.65976642089E+02  0.00000000000E+00 0.  1.
          1    1    1    2  501    0 -0.16154310443E+02  0.18277870221E+02  0.28835619431E+02  0.37769501369E+02  0.00000000000E+00 0. -1.
<scales pt_clust_5="13000.00000" pt_clust_6="13000.00000" pt_clust_7="13000.00000" pt_clust_8="13000.00000" pt_clust_9="24.39349"></scales>
<clustering>
<clus scale="   24.393">  1  9  2 -1</clus>
<clus scale="   82.327">  5  6 -1 -1</clus>
<clus scale="   84.698">  2  5  1 -1</clus>
<clus scale="   92.262">  7  8 -1 -1</clus>
<clus scale="   24.393">  1  5  2 -1</clus>
</clustering>
</event>
<event>
 9    2  0.1665830E-004  0.1778576E+03  0.7546771E-02  0.1177570E+00
         21   -1    0    0  501  502  0.00000000000E+00  0.00000000000E+00  0.79514880351E+02  0.79514880351E+02  0.00000000000E+00 0.  1.
          2   -1    0    0  502    0 -0.00000000000E+00 -0.00000000000E+00 -0.83485501511E+03  0.83485501511E+03  0.00000000000E+00 0. -1.
         24    2    1    2    0    0 -0.20616037082E+02  0.12688892722E+03 -0.14869457755E+03  0.21077435733E+03  0.76091599262E+02 0.  0.
         23    2    1    2    0    0 -0.13199575445E+03 -0.12609862229E+03 -0.35449908954E+03  0.40886036097E+03  0.90407126692E+02 0.  0.
        -13    1    3    3    0    0  0.40838015454E+01  0.11453344274E+03 -0.89357703600E+02  0.14532510496E+03  0.00000000000E+00 0.  1.
         14    1    3    3    0    0 -0.24699838627E+02  0.12355484486E+02 -0.59336873950E+02  0.65449252366E+02  0.00000000000E+00 0. -1.
        -13    1    4    4    0    0 -0.11562885752E+03 -0.53210097890E+02 -0.19699909459E+03  0.23454208679E+03  0.00000000000E+00 0.  1.
         13    1    4    4    0    0 -0.16366896928E+02 -0.72888524400E+02 -0.15749999495E+03  0.17431827418E+03  0.00000000000E+00 0. -1.
          1    1    1    2  501    0  0.15261179153E+03 -0.79030493225E+00 -0.25214646767E+03  0.29473517715E+03  0.00000000000E+00 0. -1.
<scales pt_clust_5="13000.00000" pt_clust_6="13000.00000" pt_clust_7="13000.00000" pt_clust_8="13000.00000" pt_clust_9="153.16619"></scales>
<clustering>
<clus scale="   76.092">  5  6 -1 -1</clus>
<clus scale="   90.407">  7  8 -1 -1</clus>
<clus scale="  149.385">  2  5  1 -1</clus>
<clus scale="  153.166">  1  9  2 -1</clus>
<clus scale="  153.166">  1  5  2 -1</clus>
</clustering>
</event>
<event>
 9    2  0.1665830E-004  0.2110312E+03  0.7546771E-02  0.1141153E+00
          2   -1    0    0  502    0 -0.00000000000E+00  0.00000000000E+00  0.58872893438E+03  0.58872893438E+03  0.00000000000E+00 0. -1.
         21   -1    0    0  501  502  0.00000000000E+00 -0.00000000000E+00 -0.22221035863E+03  0.22221035863E+03  0.00000000000E+00 0. -1.
         23    2    1    2    0    0  0.17912818195E+03  0.10689354014E+03  0.48416076509E+03  0.53500877832E+03  0.91157072860E+02 0.  0.
         24    2    1    2    0    0 -0.76305422073E+02 -0.63084161758E+02 -0.69153864595E+02  0.15409907698E+03  0.95719066199E+02 0.  0.
        -11    1    4    4    0    0 -0.82187437563E+02 -0.11287705808E+02 -0.27585009091E+02  0.87424938788E+02  0.00000000000E+00 0.  1.
         12    1    4    4    0    0  0.58820154897E+01 -0.51796455950E+02 -0.41568855503E+02  0.66674138187E+02  0.00000000000E+00 0. -1.
        -11    1    3    3    0    0  0.10562790172E+03  0.12119863001E+02  0.19822418102E+03  0.22493770391E+03  0.00000000000E+00 0. -1.
         11    1    3    3    0    0  0.73500280226E+02  0.94773677140E+02  0.28593658407E+03  0.31007107440E+03  0.00000000000E+00 0.  1.
          1    1    1    2  501    0 -0.10282275987E+03 -0.43809378383E+02 -0.48488324742E+02  0.12183143773E+03  0.00000000000E+00 0. -1.
<scales pt_clust_5="13000.00000" pt_clust_6="13000.00000" pt_clust_7="13000.00000" pt_clust_8="13000.00000" pt_clust_9="111.76664"></scales>
<clustering>
<clus scale="   91.157">  7  8 -1 -1</clus>
<clus scale="   95.719">  5  6 -1 -1</clus>
<clus scale="  111.767">  2  9  1 -1</clus>
<clus scale="  209.002">  1  7  2 -1</clus>
<clus scale="  111.767">  2  5  1 -1</clus>
</clustering>
</event>
<event>
 9    2  0.1665830E-004  0.1321849E+03  0.7546771E-02  0.1247013E+00
         21   -1    0    0  501  502  0.00000000000E+00  0.00000000000E+00  0.65886076295E+02  0.65886076295E+02  0.00000000000E+00 0. -1.
          2   -1    0    0  502    0 -0.00000000000E+00 -0.00000000000E+00 -0.40587532479E+03  0.40587532479E+03  0.00000000000E+00 0. -1.
         24    2    1    2    0    0 -0.19425464462E+02  0.14711062195E+01 -0.14538670577E+03  0.16739645263E+03  0.80652125296E+02 0.  0.
         23    2    1    2    0    0  0.24532326743E+02 -0.95412241202E+02 -0.80087795212E+02  0.15616021074E+03  0.90920985749E+02 0.  0.
        -11    1    3    3    0    0 -0.29792116389E+02 -0.30016349472E+02 -0.11460384092E+03  0.12215806067E+03  0.00000000000E+00 0.  1.
         12    1    3    3    0    0  0.10366651928E+02  0.31487455692E+02 -0.30782864855E+02  0.45238391956E+02  0.00000000000E+00 0. -1.
        -13    1    4    4    0    0 -0.23659888830E+02 -0.79944521918E+02 -0.47312796699E+02  0.95861450310E+02  0.00000000000E+00 0.  1.
         13    1    4    4    0    0  0.48192215573E+02 -0.15467719284E+02 -0.32774998513E+02  0.60298760429E+02  0.00000000000E+00 0. -1.
          1    1    1    2  501    0 -0.51068622812E+01  0.93941134983E+02 -0.11451474752E+03  0.14820473772E+03  0.00000000000E+00 0. -1.
<scales pt_clust_5="13000.00000" pt_clust_6="13000.00000" pt_clust_7="13000.00000" pt_clust_8="13000.00000" pt_clust_9="95.94912"></scales>
<clustering>
<clus scale="   80.652">  5  6 -1 -1</clus>
<clus scale="   82.972">  2  5  1 -1</clus>
<clus scale="   90.921">  7  8 -1 -1</clus>
<clus scale="   95.949">  1  9  2 -1</clus>
<clus scale="   95.949">  1  5  2 -1</clus>
</clustering>
</event>
<event>
 9    2  0.1665830E-004  0.1018448E+03  0.7546771E-02  0.1281303E+00
         -1   -1    0    0    0  501 -0.00000000000E+00  0.00000000000E+00  0.24086422717E+03  0.24086422717E+03  0.00000000000E+00 0.  1.
         21   -1    0    0  501  502  0.00000000000E+00 -0.00000000000E+00 -0.12635649545E+03  0.12635649545E+03  0.00000000000E+00 0.  1.
         24    2    1    2    0    0 -0.59038912444E+02  0.18913489739E+02  0.14140467789E+03  0.17397812135E+03  0.80185974474E+02 0.  0.
         23    2    1    2    0    0 -0.11817748649E+01 -0.37715973997E+02  0.35777671863E+02  0.10431469599E+03  0.90430209048E+02 0.  0.
        -11    1    3    3    0    0  0.17211728179E+01 -0.24868940955E+02  0.49508109578E+02  0.55429951958E+02  0.00000000000E+00 0.  1.
         12    1    3    3    0    0 -0.60760085262E+02  0.43782430694E+02  0.91896568309E+02  0.11854816939E+03  0.00000000000E+00 0. -1.
        -11    1    4    4    0    0 -0.26634250259E+02 -0.58544485363E+02  0.17358114149E+02  0.66619397927E+02  0.00000000000E+00 0.  1.
         11    1    4    4    0    0  0.25452475394E+02  0.20828511366E+02  0.18419557714E+02  0.37695298060E+02  0.00000000000E+00 0. -1.
         -2    1    1    2    0  502  0.60220687309E+02  0.18802484258E+02 -0.62674618030E+02  0.88927905291E+02  0.00000000000E+00 0.  1.
<scales pt_clust_5="13000.00000" pt_clust_6="13000.00000" pt_clust_7="13000.00000" pt_clust_8="13000.00000" pt_clust_9="63.08775"></scales>
<clustering>
<clus scale="   63.088">  2  9  1 -1</clus>
<clus scale="   80.186">  5  6 -1 -1</clus>
<clus scale="   90.430">  7  8 -1 -1</clus>
<clus scale="   92.868">  1  5  2 -1</clus>
<clus scale="   63.088">  2  5  1 -1</clus>
</clustering>
</event>
<event>
 9    2  0.1665830E-004  0.1231935E+03  0.7546771E-02  0.1240983E+00
          4   -1    0    0  502    0 -0.00000000000E+00  0.00000000000E+00  0.54192586843E+03  0.54192586843E+03  0.00000000000E+00 0. -1.
         21   -1    0    0  501  502  0.00000000000E+00 -0.00000000000E+00 -0.41955536945E+02  0.41955536945E+02  0.00000000000E+00 0.  1.
         23    2    1    2    0    0  0.80686766026E+01 -0.67983086347E+02  0.19917378734E+03  0.22623133500E+03  0.82605180232E+02 0.  0.
         24    2    1    2    0    0 -0.38006086566E+02  0.99012452276E+02  0.17496132242E+03  0.22463287941E+03  0.92739084792E+02 0.  0.
        -11    1    4    4    0    0 -0.48820000102E+02  0.97588552567E+02  0.18160161652E+03  0.21186331708E+03  0.00000000000E+00 0.  1.
         12    1    4    4    0    0  0.10813913536E+02  0.14238997092E+01 -0.66402941007E+01  0.12769562330E+02  0.00000000000E+00 0. -1.
        -11    1    3    3    0    0 -0.22270109939E+02 -0.43520934322E+02  0.17176286446E+03  0.17858474494E+03  0.00000000000E+00 0. -1.
         11    1    3    3    0    0  0.30338786541E+02 -0.24462152025E+02  0.27410922884E+02  0.47646590055E+02  0.00000000000E+00 0.  1.
          3    1    1    2  501    0  0.29937409964E+02 -0.31029365929E+02  0.12583522172E+03  0.13301719096E+03  0.00000000000E+00 0. -1.
<scales pt_clust_5="13000.00000" pt_clust_6="13000.00000" pt_clust_7="13000.00000" pt_clust_8="13000.00000" pt_clust_9="43.11696"></scales>
<clustering>
<clus scale="   43.117">  2  9  1 -1</clus>
<clus scale="   82.605">  7  8 -1 -1</clus>
<clus scale="   92.739">  5  6 -1 -1</clus>
<clus scale="  115.757">  1  7  2 -1</clus>
<clus scale="   43.117">  2  5  1 -1</clus>
</clustering>
</event>
<event>
 9    2  0.2117469E-004  0.1018485E+03  0.7546771E-02  0.1282698E+00
         21   -1    0    0  501  502  0.00000000000E+00  0.00000000000E+00  0.83545626452E+03  0.83545626452E+03  0.00000000000E+00 0. -1.
         -1   -1    0    0    0  501 -0.00000000000E+00 -0.00000000000E+00 -0.10601330285E+03  0.10601330285E+03  0.00000000000E+00 0.  1.
         23    2    1    2    0    0  0.24796264400E+02 -0.36762220805E+02 -0.66801175498E+02  0.12142651459E+03  0.91190382121E+02 0.  0.
         24    2    1    2    0    0 -0.57244393045E+02  0.50448683627E+02  0.76560060139E+03  0.77336086558E+03  0.78235269136E+02 0.  0.
        -11    1    4    4    0    0 -0.31156439192E+02  0.24938946142E+02  0.11481327692E+03  0.12155148413E+03  0.00000000000E+00 0.  1.
         12    1    4    4    0    0 -0.26087953853E+02  0.25509737485E+02  0.65078732448E+03  0.65180938145E+03  0.00000000000E+00 0. -1.
        -11    1    3    3    0    0 -0.36659989730E+01 -0.56728646261E+02 -0.65369334199E+02  0.86629837289E+02  0.00000000000E+00 0.  1.
         11    1    3    3    0    0  0.28462263373E+02  0.19966425457E+02 -0.14318412990E+01  0.34796677303E+02  0.00000000000E+00 0. -1.
         -2    1    1    2    0  502  0.32448128645E+02 -0.13686462823E+02  0.30643535770E+02  0.46682187198E+02  0.00000000000E+00 0.  1.
<scales pt_clust_5="13000.00000" pt_clust_6="13000.00000" pt_clust_7="13000.00000" pt_clust_8="13000.00000" pt_clust_9="35.21650"></scales>
<clustering>
<clus scale="   35.216">  1  9  2 -1</clus>
<clus scale="   78.235">  5  6 -1 -1</clus>
<clus scale="   90.433">  1  5  2 -1</clus>
<clus scale="   91.190">  7  8 -1 -1</clus>
<clus scale="   35.216">  1  5  2 -1</clus>
</clustering>
</event>
<event>
 9    2  0.1665830E-004  0.1595394E+03  0.7546771E-02  0.1212589E+00
          2   -1    0    0  502    0 -0.00000000000E+00  0.00000000000E+00  0.58287449726E+03  0.58287449726E+03  0.00000000000E+00 0. -1.
         21   -1    0    0  501  502  0.00000000000E+00 -0.00000000000E+00 -0.15164116887E+03  0.15164116887E+03  0.00000000000E+00 0. -1.
         23    2    1    2    0    0  0.45674257577E+01  0.24349540817E+02 -0.46865368931E+00  0.96104350195E+02  0.92855075112E+02 0.  0.
         24    2    1    2    0    0  0.13049594932E+03 -0.44896480103E+02 -0.24878191154E+02  0.16183000430E+03  0.80778333614E+02 0.  0.
        -11    1    4    4    0    0  0.89246982273E+01 -0.21154497566E+02 -0.30093835245E+02  0.37852370144E+02  0.00000000000E+00 0.  1.
         12    1    4    4    0    0  0.12157125110E+03 -0.23741982537E+02  0.52156440920E+01  0.12397763416E+03  0.00000000000E+00 0. -1.
        -13    1    3    3    0    0  0.17457189673E+02 -0.28134688126E+02  0.19573971415E+02  0.38463677726E+02  0.00000000000E+00 0. -1.
         13    1    3    3    0    0 -0.12889763916E+02  0.52484228943E+02 -0.20042625105E+02  0.57640672469E+02  0.00000000000E+00 0.  1.
          1    1    1    2  501    0 -0.13506337508E+03  0.20546939286E+02  0.45658017324E+03  0.47658131163E+03  0.00000000000E+00 0. -1.
<scales pt_clust_5="13000.00000" pt_clust_6="13000.00000" pt_clust_7="13000.00000" pt_clust_8="13000.00000" pt_clust_9="137.57798"></scales>
<clustering>
<clus scale="   80.778">  5  6 -1 -1</clus>
<clus scale="   92.855">  7  8 -1 -1</clus>
<clus scale="   96.103">  1  7  2 -1</clus>
<clus scale="  137.578">  2  9  1 -1</clus>
<clus scale="  137.578">  2  5  1 -1</clus>
</clustering>
</event>
<event>
 9    2  0.1665830E-004  0.2477063E+03  0.7546771E-02  0.1156180E+00
         21   -1    0    0  501  502  0.00000000000E+00  0.00000000000E+00  0.30711471681E+03  0.30711471681E+03  0.00000000000E+00 0.  1.
         -1   -1    0    0    0  501 -0.00000000000E+00 -0.00000000000E+00 -0.37463186772E+03  0.37463186772E+03  0.00000000000E+00 0.  1.
         24    2    1    2    0    0 -0.37981729150E+02 -0.20297820791E+02  0.44682983658E+02  0.10087929014E+03  0.79532690585E+02 0.  0.
         23    2    1    2    0    0 -0.65327643854E+02  0.22550627350E+03 -0.21302039411E+03  0.32997277403E+03  0.91561798028E+02 0.  0.
        -13    1    3    3    0    0 -0.29606803393E+02  0.19188300480E+02  0.48895790076E+02  0.60295538555E+02  0.00000000000E+00 0.  1.
         14    1    3    3    0    0 -0.83749257563E+01 -0.39486121271E+02 -0.42128064177E+01  0.40583751581E+02  0.00000000000E+00 0. -1.
        -11    1    4    4    0    0  0.79423950276E+01  0.27301218969E+02  0.19922304153E+01  0.28502757375E+02  0.00000000000E+00 0. -1.
         11    1    4    4    0    0 -0.73270038881E+02  0.19820505453E+03 -0.21501262453E+03  0.30147001666E+03  0.00000000000E+00 0.  1.
         -2    1    1    2    0  502  0.10330937300E+03 -0.20520845271E+03  0.10082025954E+03  0.25089452036E+03  0.00000000000E+00 0.  1.
<scales pt_clust_5="13000.00000" pt_clust_6="13000.00000" pt_clust_7="13000.00000" pt_clust_8="13000.00000" pt_clust_9="230.16265"></scales>
<clustering>
<clus scale="   79.533">  5  6 -1 -1</clus>
<clus scale="   90.444">  2  5  1 -1</clus>
<clus scale="   91.562">  7  8 -1 -1</clus>
<clus scale="  230.163">  1  9  2 -1</clus>
<clus scale="  230.163">  1  5  2 -1</clus>
</clustering>
</event>
<event>
 9    2  0.1665830E-004  0.1144404E+03  0.7546771E-02  0.1256800E+00
         21   -1    0    0  501  502  0.00000000000E+00  0.00000000000E+00  0.18590271752E+03  0.18590271752E+03  0.00000000000E+00 0.  1.
          2   -1    0    0  502    0 -0.00000000000E+00 -0.00000000000E+00 -0.45263851874E+03  0.45263851874E+03  0.00000000000E+00 0. -1.
         24    2    1    2    0    0 -0.44954235153E+01 -0.67707510354E+02 -0.40625414268E+03  0.41952053825E+03  0.79690261486E+02 0.  0.
         23    2    1    2    0    0  0.31530971259E+02  0.80260271502E+02  0.71254242403E+02  0.14453257901E+03  0.91523690941E+02 0.  0.
        -11    1    3    3    0    0  0.33844356477E+02 -0.11538390024E+02 -0.16722971953E+03  0.17100980674E+03  0.00000000000E+00 0.  1.
         12    1    3    3    0    0 -0.38339779992E+02 -0.56169120330E+02 -0.23902442315E+03  0.24851073150E+03  0.00000000000E+00 0. -1.
        -13    1    4    4    0    0 -0.17493961445E+02  0.55324885497E+02  0.68060775601E+02  0.89437971901E+02  0.00000000000E+00 0.  1.
         13    1    4    4    0    0  0.49024932703E+02  0.24935386005E+02  0.31934668014E+01  0.55094607104E+02  0.00000000000E+00 0. -1.
          1    1    1    2  501    0 -0.27035547743E+02 -0.12552761148E+02  0.68264099059E+02  0.74488119016E+02  0.00000000000E+00 0. -1.
<scales pt_clust_5="13000.00000" pt_clust_6="13000.00000" pt_clust_7="13000.00000" pt_clust_8="13000.00000" pt_clust_9="29.80759"></scales>
<clustering>
<clus scale="   29.808">  1  9  2 -1</clus>
<clus scale="   79.690">  5  6 -1 -1</clus>
<clus scale="   91.524">  7  8 -1 -1</clus>
<clus scale="  105.217">  2  5  1 -1</clus>
<clus scale="   29.808">  1  5  2 -1</clus>
</clustering>
</event>
<event>
 9    2  0.1665830E-004  0.1103557E+03  0.7546771E-02  0.1264728E+00
         21   -1    0    0  501  502  0.00000000000E+00  0.00000000000E+00  0.14132287621E+03  0.14132287621E+03  0.00000000000E+00 0.  1.
          2   -1    0    0  502    0 -0.00000000000E+00 -0.00000000000E+00 -0.21794045489E+03  0.21794045489E+03  0.00000000000E+00 0. -1.
         23    2    1    2    0    0  0.46639604898E+02 -0.47425378263E+02 -0.17034780965E+03  0.20463079334E+03  0.91820292321E+02 0.  0.
         24    2    1    2    0    0 -0.14733808865E+02  0.34660583411E+02  0.60650489347E+02  0.10693359527E+03  0.79610745344E+02 0.  0.
        -11    1    4    4    0    0  0.31532867924E+02  0.13963611824E+02  0.11558825578E+02  0.36371838879E+02  0.00000000000E+00 0.  1.
         12    1    4    4    0    0 -0.46266676789E+02  0.20696971587E+02  0.49091663769E+02  0.70561756395E+02  0.00000000000E+00 0. -1.
        -13    1    3    3    0    0  0.62191353236E+02 -0.16114383816E+02 -0.15228012284E+03  0.16527756531E+03  0.00000000000E+00 0.  1.
         13    1    3    3    0    0 -0.15551748338E+02 -0.31310994447E+02 -0.18067686811E+02  0.39353228029E+02  0.00000000000E+00 0. -1.
          1    1    1    2  501    0 -0.31905796033E+02  0.12764794852E+02  0.33079741621E+02  0.47698942481E+02  0.00000000000E+00 0. -1.
<scales pt_clust_5="13000.00000" pt_clust_6="13000.00000" pt_clust_7="13000.00000" pt_clust_8="13000.00000" pt_clust_9="34.36451"></scales>
<clustering>
<clus scale="   34.365">  1  9  2 -1</clus>
<clus scale="   79.611">  5  6 -1 -1</clus>
<clus scale="   91.820">  7  8 -1 -1</clus>
<clus scale="  100.426">  1  5  2 -1</clus>
<clus scale="   34.365">  1  5  2 -1</clus>
</clustering>
</event>
<event>
 9    2  0.1665830E-004  0.1332041E+03  0.7546771E-02  0.1223618E+00
         -1   -1    0    0    0  501 -0.00000000000E+00  0.00000000000E+00  0.49733713296E+03  0.49733713296E+03  0.00000000000E+00 0.  1.
         21   -1    0    0  501  502  0.00000000000E+00 -0.00000000000E+00 -0.11776550077E+03  0.11776550077E+03  0.00000000000E+00 0.  1.
         23    2    1    2    0    0  0.21488165449E+02 -0.10816796216E+03  0.36599334480E+03  0.39221299161E+03  0.87851312219E+02 0.  0.
         24    2    1    2    0    0 -0.42850363040E+02  0.25878305626E+02 -0.56110445133E+02  0.11296034439E+03  0.84296008430E+02 0.  0.
        -13    1    4    4    0    0 -0.67526922441E+02  0.22897250217E+02 -0.31398642549E+02  0.77910487585E+02  0.00000000000E+00 0.  1.
         14    1    4    4    0    0  0.24676559401E+02  0.29810554094E+01 -0.24711802584E+02  0.35049856806E+02  0.00000000000E+00 0. -1.
        -11    1    3    3    0    0 -0.17325566200E+02 -0.52489532651E+02  0.73596678584E+02  0.92042367314E+02  0.00000000000E+00 0. -1.
         11    1    3    3    0    0  0.38813731650E+02 -0.55678429510E+02  0.29239666621E+03  0.30017062430E+03  0.00000000000E+00 0.  1.
         -2    1    1    2    0  502  0.21362197591E+02  0.82289656535E+02  0.69688732522E+02  0.10992929773E+03  0.00000000000E+00 0.  1.
<scales pt_clust_5="13000.00000" pt_clust_6="13000.00000" pt_clust_7="13000.00000" pt_clust_8="13000.00000" pt_clust_9="85.01728"></scales>
<clustering>
<clus scale="   84.296">  5  6 -1 -1</clus>
<clus scale="   85.017">  2  9  1 -1</clus>
<clus scale="   87.851">  7  8 -1 -1</clus>
<clus scale="  130.887">  2  5  1 -1</clus>
<clus scale="   85.017">  2  5  1 -1</clus>
</clustering>
</event>
<event>
 9    2  0.1665830E-004  0.9902749E+02  0.7546771E-02  0.1287498E+00
         21   -1    0    0  501  502  0.00000000000E+00  0.00000000000E+00  0.22767971457E+03  0.22767971457E+03  0.00000000000E+00 0.  1.
          2   -1    0    0  502    0 -0.00000000000E+00 -0.00000000000E+00 -0.15986585279E+03  0.15986585279E+03  0.00000000000E+00 0. -1.
         24    2    1    2    0    0  0.98108443110E+01  0.40947409008E+02 -0.10544653319E+03  0.13908732801E+03  0.80332872971E+02 0.  0.
         23    2    1    2    0    0 -0.23281870833E+02 -0.12832303496E+02  0.19069805076E+03  0.21273710341E+03  0.90468862505E+02 0.  0.
        -13    1    3    3    0    0 -0.27686473123E+02  0.10134985330E+02 -0.77875200260E+02  0.83269475423E+02  0.00000000000E+00 0.  1.
         14    1    3    3    0    0  0.37497317434E+02  0.30812423678E+02 -0.27571332930E+02  0.55817852585E+02  0.00000000000E+00 0. -1.
        -11    1    4    4    0    0  0.21048084368E+02 -0.28544692217E+02  0.33991185865E+02  0.49124556241E+02  0.00000000000E+00 0. -1.
         11    1    4    4    0    0 -0.44329955201E+02  0.15712388721E+02  0.15670686489E+03  0.16361254717E+03  0.00000000000E+00 0.  1.
          1    1    1    2  501    0  0.13471026522E+02 -0.28115105512E+02 -0.17437655786E+02  0.35721135939E+02  0.00000000000E+00 0. -1.
<scales pt_clust_5="13000.00000" pt_clust_6="13000.00000" pt_clust_7="13000.00000" pt_clust_8="13000.00000" pt_clust_9="31.17577"></scales>
<clustering>
<clus scale="   31.176">  1  9  2 -1</clus>
<clus scale="   80.333">  5  6 -1 -1</clus>
<clus scale="   89.862">  2  5  1 -1</clus>
<clus scale="   90.469">  7  8 -1 -1</clus>
<clus scale="   31.176">  1  5  2 -1</clus>
</clustering>
</event>
<event>
 9    2  0.1665830E-004  0.9523074E+02  0.7546771E-02  0.1293977E+00
          2   -1    0    0  502    0 -0.00000000000E+00  0.00000000000E+00  0.21794935829E+03  0.21794935829E+03  0.00000000000E+00 0. -1.
         21   -1    0    0  501  502  0.00000000000E+00 -0.00000000000E+00 -0.21812719261E+03  0.21812719261E+03  0.00000000000E+00 0. -1.
         24    2    1    2    0    0  0.92184947567E+01  0.22843487280E+02  0.13011974168E+03  0.15757451672E+03  0.85391894153E+02 0.  0.
         23    2    1    2    0    0 -0.48800948742E+02 -0.52258129292E+01  0.33560902877E+02  0.10901234655E+03  0.91370212758E+02 0.  0.
        -13    1    3    3    0    0  0.36672346379E+02  0.34252251107E+02  0.44964432979E+02  0.67378616251E+02  0.00000000000E+00 0.  1.
         14    1    3    3    0    0 -0.27453851622E+02 -0.11408763827E+02  0.85155308699E+02  0.90195900464E+02  0.00000000000E+00 0. -1.
        -11    1    4    4    0    0  0.24738355840E+02  0.12342061586E+02  0.44944911369E+01  0.28009162508E+02  0.00000000000E+00 0.  1.
         11    1    4    4    0    0 -0.73539304582E+02 -0.17567874516E+02  0.29066411740E+02  0.81003184041E+02  0.00000000000E+00 0. -1.
          1    1    1    2  501    0  0.39582453985E+02 -0.17617674350E+02 -0.16385847888E+03  0.16948968763E+03  0.00000000000E+00 0. -1.
<scales pt_clust_5="13000.00000" pt_clust_6="13000.00000" pt_clust_7="13000.00000" pt_clust_8="13000.00000" pt_clust_9="43.32613"></scales>
<clustering>
<clus scale="   43.326">  2  9  1 -1</clus>
<clus scale="   85.392">  5  6 -1 -1</clus>
<clus scale="   89.511">  1  5  2 -1</clus>
<clus scale="   91.370">  7  8 -1 -1</clus>
<clus scale="   43.326">  2  5  1 -1</clus>
</clustering>
</event>
<event>
 9    2  0.1665830E-004  0.1964995E+03  0.7546771E-02  0.1178884E+00
         21   -1    0    0  501  502  0.00000000000E+00  0.00000000000E+00  0.21687126827E+03  0.21687126827E+03  0.00000000000E+00 0.  1.
          2   -1    0    0  502    0 -0.00000000000E+00 -0.00000000000E+00 -0.32430440640E+03  0.32430440640E+03  0.00000000000E+00 0. -1.
         23    2    1    2    0    0  0.29482941317E+02 -0.47499387472E+02 -0.12020617423E+03  0.16128942289E+03  0.91865760613E+02 0.  0.
         24    2    1    2    0    0  0.10334484032E+03 -0.10766478372E+03 -0.26036196081E+02  0.17197931082E+03  0.81407236601E+02 0.  0.
        -11    1    4    4    0    0  0.10621195742E+03 -0.10600690073E+03 -0.41877677030E+02  0.15579532321E+03  0.00000000000E+00 0.  1.
         12    1    4    4    0    0 -0.28671170938E+01 -0.16578829870E+01  0.15841480950E+02  0.16183987614E+02  0.00000000000E+00 0. -1.
        -13    1    3    3    0    0 -0.16015802876E+02 -0.57742696042E+02 -0.78236041797E+02  0.98547466349E+02  0.00000000000E+00 0.  1.
         13    1    3    3    0    0  0.45498744193E+02  0.10243308569E+02 -0.41970132437E+02  0.62741956539E+02  0.00000000000E+00 0. -1.
          1    1    1    2  501    0 -0.13282778164E+03  0.15516417119E+03  0.38809232185E+02  0.20790694096E+03  0.00000000000E+00 0. -1.
<scales pt_clust_5="13000.00000" pt_clust_6="13000.00000" pt_clust_7="13000.00000" pt_clust_8="13000.00000" pt_clust_9="178.84331"></scales>
<clustering>
<clus scale="   81.407">  5  6 -1 -1</clus>
<clus scale="   91.866">  7  8 -1 -1</clus>
<clus scale="  107.540">  2  7  1 -1</clus>
<clus scale="  178.843">  1  9  2 -1</clus>
<clus scale="  178.843">  1  5  2 -1</clus>
</clustering>
</event>
<event>
 9    2  0.1665830E-004  0.9843622E+02  0.7546771E-02  0.1289624E+00
         21   -1    0    0  501  502  0.00000000000E+00  0.00000000000E+00  0.33998842668E+03  0.33998842668E+03  0.00000000000E+00 0. -1.
         -3   -1    0    0    0  501 -0.00000000000E+00 -0.00000000000E+00 -0.49361296507E+02  0.49361296507E+02  0.00000000000E+00 0.  1.
         23    2    1    2    0    0 -0.12629171677E+02  0.35673251779E+02  0.29534365601E+02  0.10233185315E+03  0.90373959460E+02 0.  0.
         24    2    1    2    0    0 -0.11096091042E+02 -0.46787891791E+02  0.18949036313E+03  0.21077269179E+03  0.78780072538E+02 0.  0.
        -13    1    4    4    0    0 -0.24982224302E+01  0.22062158384E+02  0.57879639119E+02  0.61992197674E+02  0.00000000000E+00 0.  1.
         14    1    4    4    0    0 -0.85978686114E+01 -0.68850050175E+02  0.13161072401E+03  0.14878049412E+03  0.00000000000E+00 0. -1.
        -11    1    3    3    0    0 -0.24666960778E+02  0.56178341529E+02  0.43077852376E+02  0.74967768916E+02  0.00000000000E+00 0.  1.
         11    1    3    3    0    0  0.12037789101E+02 -0.20505089750E+02 -0.13543486775E+02  0.27364084237E+02  0.00000000000E+00 0. -1.
         -4    1    1    2    0  502  0.23725262719E+02  0.11114640012E+02  0.71602401438E+02  0.76245178243E+02  0.00000000000E+00 0.  1.
<scales pt_clust_5="13000.00000" pt_clust_6="13000.00000" pt_clust_7="13000.00000" pt_clust_8="13000.00000" pt_clust_9="26.19968"></scales>
<clustering>
<clus scale="   26.200">  1  9  2 -1</clus>
<clus scale="   78.780">  5  6 -1 -1</clus>
<clus scale="   87.912">  1  5  2 -1</clus>
<clus scale="   90.374">  7  8 -1 -1</clus>
<clus scale="   26.200">  1  5  2 -1</clus>
</clustering>
</event>
<event>
 9    2  0.1665830E-004  0.1683300E+03  0.7546771E-02  0.1180349E+00
          2   -1    0    0  502    0 -0.00000000000E+00  0.00000000000E+00  0.77469858754E+03  0.77469858754E+03  0.00000000000E+00 0. -1.
         21   -1    0    0  501  502  0.00000000000E+00 -0.00000000000E+00 -0.86391499748E+02  0.86391499748E+02  0.00000000000E+00 0. -1.
         23    2    1    2    0    0 -0.14354458818E+03  0.21237055599E+02  0.54853021563E+03  0.57407963133E+03  0.87326767493E+02 0.  0.
         24    2    1    2    0    0  0.13263098887E+03 -0.56528359907E+02  0.17136065357E+03  0.23840882988E+03  0.81779348799E+02 0.  0.
        -11    1    4    4    0    0  0.79087235885E+02 -0.46480218261E+02  0.47954130050E+02  0.10351231887E+03  0.00000000000E+00 0.  1.
         12    1    4    4    0    0  0.53543752981E+02 -0.10048141647E+02  0.12340652352E+03  0.13489651101E+03  0.00000000000E+00 0. -1.
        -13    1    3    3    0    0 -0.13047513992E+02  0.22135556842E+02  0.30578274882E+02  0.39940598304E+02  0.00000000000E+00 0.  1.
         13    1    3    3    0    0 -0.13049707418E+03 -0.89850124292E+00  0.51795194075E+03  0.53413903303E+03  0.00000000000E+00 0. -1.
          1    1    1    2  501    0  0.10913599312E+02  0.35291304308E+02 -0.31583781410E+02  0.48601626082E+02  0.00000000000E+00 0. -1.
<scales pt_clust_5="13000.00000" pt_clust_6="13000.00000" pt_clust_7="13000.00000" pt_clust_8="13000.00000" pt_clust_9="36.94026"></scales>
<clustering>
<clus scale="   36.940">  2  9  1 -1</clus>
<clus scale="   81.779">  5  6 -1 -1</clus>
<clus scale="   87.327">  7  8 -1 -1</clus>
<clus scale="  165.520">  2  5  1 -1</clus>
<clus scale="   36.940">  2  5  1 -1</clus>
</clustering>
</event>
<event>
 9    2  0.1665830E-004  0.1106682E+03  0.7546771E-02  0.1264524E+00
          2   -1    0    0  502    0 -0.00000000000E+00  0.00000000000E+00  0.39832406633E+02  0.39832406633E+02  0.00000000000E+00 0. -1.
         21   -1    0    0  501  502  0.00000000000E+00 -0.00000000000E+00 -0.59495759762E+03  0.59495759762E+03  0.00000000000E+00 0. -1.
         23    2    1    2    0    0 -0.23074579907E+02  0.58357657550E+02 -0.65561743319E+02  0.12929427653E+03  0.92090256401E+02 0.  0.
         24    2    1    2    0    0 -0.30956342381E+01 -0.59918019504E+02 -0.40530210863E+03  0.41725011540E+03  0.78918359889E+02 0.  0.
        -13    1    4    4    0    0  0.36197669791E+02 -0.37817544303E+02 -0.25566521879E+03  0.26096961902E+03  0.00000000000E+00 0.  1.
         14    1    4    4    0    0 -0.39293304029E+02 -0.22100475201E+02 -0.14963688984E+03  0.15628049637E+03  0.00000000000E+00 0. -1.
        -13    1    3    3    0    0 -0.47106342457E+02  0.70112803092E+02 -0.46263535075E+02  0.96307462508E+02  0.00000000000E+00 0. -1.
         13    1    3    3    0    0  0.24031762550E+02 -0.11755145542E+02 -0.19298208244E+02  0.32986814023E+02  0.00000000000E+00 0.  1.
          1    1    1    2  501    0  0.26170214145E+02  0.15603619535E+01 -0.84261339040E+02  0.88245612325E+02  0.00000000000E+00 0. -1.
<scales pt_clust_5="13000.00000" pt_clust_6="13000.00000" pt_clust_7="13000.00000" pt_clust_8="13000.00000" pt_clust_9="26.21669"></scales>
<clustering>
<clus scale="   26.217">  2  9  1 -1</clus>
<clus scale="   78.918">  5  6 -1 -1</clus>
<clus scale="   92.090">  7  8 -1 -1</clus>
<clus scale="   99.975">  2  5  1 -1</clus>
<clus scale="   26.217">  2  5  1 -1</clus>
</clustering>
</event>
<event>
 9    2  0.1665830E-004  0.2130591E+03  0.7546771E-02  0.1139610E+00
         21   -1    0    0  501  502  0.00000000000E+00  0.00000000000E+00  0.25378686468E+03  0.25378686468E+03  0.00000000000E+00 0.  1.
         -3   -1    0    0    0  501 -0.00000000000E+00 -0.00000000000E+00 -0.40801040288E+03  0.40801040288E+03  0.00000000000E+00 0.  1.
         23    2    1    2    0    0 -0.14235939266E+03  0.14409303177E+03 -0.30232923256E+03  0.37474907869E+03  0.89470155028E+02 0.  0.
         24    2    1    2    0    0  0.10314110946E+03 -0.12374665549E+03  0.64988293046E+02  0.19291768815E+03  0.83919204972E+02 0.  0.
        -13    1    4    4    0    0  0.23066126317E+02 -0.91474178208E+02  0.23969868420E+02  0.97335122408E+02  0.00000000000E+00 0.  1.
         14    1    4    4    0    0  0.80074983141E+02 -0.32272477279E+02  0.41018424625E+02  0.95582565740E+02  0.00000000000E+00 0. -1.
        -13    1    3    3    0    0 -0.90454948451E+02  0.93967558245E+02 -0.26054099553E+03  0.29136508036E+03  0.00000000000E+00 0.  1.
         13    1    3    3    0    0 -0.51904444205E+02  0.50125473523E+02 -0.41788237030E+02  0.83383998334E+02  0.00000000000E+00 0. -1.
         -4    1    1    2    0  502  0.39218283198E+02 -0.20346376281E+02  0.83117401307E+02  0.94130500715E+02  0.00000000000E+00 0.  1.
<scales pt_clust_5="13000.00000" pt_clust_6="13000.00000" pt_clust_7="13000.00000" pt_clust_8="13000.00000" pt_clust_9="44.18200"></scales>
<clustering>
<clus scale="   44.182">  1  9  2 -1</clus>
<clus scale="   83.919">  5  6 -1 -1</clus>
<clus scale="   89.470">  7  8 -1 -1</clus>
<clus scale="  210.788">  1  5  2 -1</clus>
<clus scale="   44.182">  1  5  2 -1</clus>
</clustering>
</event>
<event>
 9    2  0.1665830E-004  0.1288060E+03  0.7546771E-02  0.1236125E+00
          2   -1    0    0  502    0 -0.00000000000E+00  0.00000000000E+00  0.81906605741E+02  0.81906605741E+02  0.00000000000E+00 0. -1.
         21   -1    0    0  501  502  0.00000000000E+00 -0.00000000000E+00 -0.49885597912E+03  0.49885597912E+03  0.00000000000E+00 0.  1.
         24    2    1    2    0    0 -0.24818439211E+02  0.75351922299E+02  0.22875645261E+02  0.11407271650E+03  0.78711005489E+02 0.  0.
         23    2    1    2    0    0  0.29210260097E+01 -0.82782646072E+02 -0.34313358816E+03  0.36727183635E+03  0.10142210591E+03 0.  0.
        -11    1    3    3    0    0 -0.15617658331E+02  0.35682835199E+02 -0.28682695986E+02  0.48372234066E+02  0.00000000000E+00 0.  1.
         12    1    3    3    0    0 -0.92007808798E+01  0.39669087100E+02  0.51558341247E+02  0.65700482436E+02  0.00000000000E+00 0. -1.
        -11    1    4    4    0    0  0.48599607634E+02 -0.31380242758E+02 -0.20442986890E+03  0.21245755528E+03  0.00000000000E+00 0.  1.
         11    1    4    4    0    0 -0.45678581624E+02 -0.51402403314E+02 -0.13870371927E+03  0.15481428107E+03  0.00000000000E+00 0. -1.
          1    1    1    2  501    0  0.21897413201E+02  0.74307237729E+01 -0.96691430477E+02  0.99418032008E+02  0.00000000000E+00 0. -1.
<scales pt_clust_5="13000.00000" pt_clust_6="13000.00000" pt_clust_7="13000.00000" pt_clust_8="13000.00000" pt_clust_9="23.12385"></scales>
<clustering>
<clus scale="   23.124">  2  9  1 -1</clus>
<clus scale="   78.711">  5  6 -1 -1</clus>
<clus scale="  101.422">  7  8 -1 -1</clus>
<clus scale="  111.803">  1  5  2 -1</clus>
<clus scale="   23.124">  2  5  1 -1</clus>
</clustering>
</event>
<event>
 9    2  0.1665830E-004  0.1571136E+03  0.7546771E-02  0.1194394E+00
         -3   -1    0    0    0  501 -0.00000000000E+00  0.00000000000E+00  0.18474181815E+03  0.18474181815E+03  0.00000000000E+00 0.  1.
         21   -1    0    0  501  502  0.00000000000E+00 -0.00000000000E+00 -0.23087322650E+03  0.23087322650E+03  0.00000000000E+00 0. -1.
         23    2    1    2    0    0 -0.53367439173E+02 -0.11530992855E+03  0.50531436475E+02  0.16602907924E+03  0.94168815935E+02 0.  0.
         24    2    1    2    0    0  0.97058657338E+02  0.86636380557E+02 -0.11814233567E+03  0.19308407671E+03  0.79985022360E+02 0.  0.
        -11    1    4    4    0    0  0.62182448135E+02  0.85451245122E+01 -0.73347973926E+02  0.96538082061E+02  0.00000000000E+00 0.  1.
         12    1    4    4    0    0  0.34876209204E+02  0.78091256045E+02 -0.44794361742E+02  0.96545994650E+02  0.00000000000E+00 0. -1.
        -11    1    3    3    0    0  0.15313803774E+02 -0.71169147030E+02  0.41737687660E+02  0.83914210037E+02  0.00000000000E+00 0.  1.
         11    1    3    3    0    0 -0.68681242947E+02 -0.44140781525E+02  0.87937488147E+01  0.82114869205E+02  0.00000000000E+00 0. -1.
         -4    1    1    2    0  502 -0.43691218166E+02  0.28673547998E+02  0.21479490837E+02  0.56501888696E+02  0.00000000000E+00 0.  1.
<scales pt_clust_5="13000.00000" pt_clust_6="13000.00000" pt_clust_7="13000.00000" pt_clust_8="13000.00000" pt_clust_9="52.25990"></scales>
<clustering>
<clus scale="   52.260">  2  9  1 -1</clus>
<clus scale="   79.985">  5  6 -1 -1</clus>
<clus scale="   94.169">  7  8 -1 -1</clus>
<clus scale="  149.045">  2  5  1 -1</clus>
<clus scale="   52.260">  2  5  1 -1</clus>
</clustering>
</event>
<event>
 9    2  0.1665830E-004  0.1284781E+03  0.7546771E-02  0.1233254E+00
          2   -1    0    0  502    0 -0.00000000000E+00  0.00000000000E+00  0.30642199629E+03  0.30642199629E+03  0.00000000000E+00 0. -1.
         21   -1    0    0  501  502  0.00000000000E+00 -0.00000000000E+00 -0.17712838301E+03  0.17712838301E+03  0.00000000000E+00 0. -1.
         23    2    1    2    0    0 -0.96792393072E+01  0.87589465803E+02  0.21723774142E+03  0.25212086153E+03  0.92774405554E+02 0.  0.
         24    2    1    2    0    0  0.77824688871E+02 -0.82987281473E+02 -0.85280911641E+02  0.16307693831E+03  0.79860395913E+02 0.  0.
        -13    1    4    4    0    0  0.18098598064E+02 -0.49089956313E+02  0.15842264995E+01  0.52343985675E+02  0.00000000000E+00 0.  1.
         14    1    4    4    0    0  0.59726090807E+02 -0.33897325160E+02 -0.86865138140E+02  0.11073295264E+03  0.00000000000E+00 0. -1.
        -11    1    3    3    0    0  0.22272214983E+02  0.81790718826E+02  0.10320987974E+03  0.13355917236E+03  0.00000000000E+00 0. -1.
         11    1    3    3    0    0 -0.31951454290E+02  0.57987469763E+01  0.11402786168E+03  0.11856168916E+03  0.00000000000E+00 0.  1.
          1    1    1    2  501    0 -0.68145449564E+02 -0.46021843301E+01 -0.26632165066E+01  0.68352579461E+02  0.00000000000E+00 0. -1.
<scales pt_clust_5="13000.00000" pt_clust_6="13000.00000" pt_clust_7="13000.00000" pt_clust_8="13000.00000" pt_clust_9="68.30068"></scales>
<clustering>
<clus scale="   68.301">  2  9  1 -1</clus>
<clus scale="   79.860">  5  6 -1 -1</clus>
<clus scale="   92.774">  7  8 -1 -1</clus>
<clus scale="  119.487">  2  5  1 -1</clus>
<clus scale="   68.301">  2  5  1 -1</clus>
</clustering>
</event>
<event>
 9    2  0.1665830E-004  0.1100788E+03  0.7546771E-02  0.1269353E+00
         21   -1    0    0  501  502  0.00000000000E+00  0.00000000000E+00  0.36479735868E+02  0.36479735868E+02  0.00000000000E+00 0.  1.
          2   -1    0    0  502    0 -0.00000000000E+00 -0.00000000000E+00 -0.11769784418E+04  0.11769784418E+04  0.00000000000E+00 0. -1.
         24    2    1    2    0    0 -0.42872469422E+01 -0.41743345484E+02 -0.93533013696E+03  0.93970569967E+03  0.80271100083E+02 0.  0.
         23    2    1    2    0    0  0.14601609249E+02  0.86406670288E+02 -0.17075578310E+03  0.21643373337E+03  0.10003351346E+03 0.  0.
        -11    1    3    3    0    0 -0.25456209385E+02  0.99850381757E+01 -0.15636446913E+03  0.15873741459E+03  0.00000000000E+00 0.  1.
         12    1    3    3    0    0  0.21168962443E+02 -0.51728383660E+02 -0.77896566783E+03  0.78096828509E+03  0.00000000000E+00 0. -1.
        -11    1    4    4    0    0  0.53580240028E+02  0.73415786859E+02 -0.12947330129E+03  0.15818993529E+03  0.00000000000E+00 0. -1.
         11    1    4    4    0    0 -0.38978630779E+02  0.12990883429E+02 -0.41282481818E+02  0.58243798080E+02  0.00000000000E+00 0.  1.
          1    1    1    2  501    0 -0.10314362307E+02 -0.44663324805E+02 -0.34412785825E+02  0.57318744583E+02  0.00000000000E+00 0. -1.
<scales pt_clust_5="13000.00000" pt_clust_6="13000.00000" pt_clust_7="13000.00000" pt_clust_8="13000.00000" pt_clust_9="45.83883"></scales>
<clustering>
<clus scale="   45.839">  1  9  2 -1</clus>
<clus scale="   80.271">  5  6 -1 -1</clus>
<clus scale="   92.488">  2  5  1 -1</clus>
<clus scale="  100.034">  7  8 -1 -1</clus>
<clus scale="   45.839">  1  5  2 -1</clus>
</clustering>
</event>
<event>
 9    2  0.1665830E-004  0.1358066E+03  0.7546771E-02  0.1222531E+00
         21   -1    0    0  501  502  0.00000000000E+00  0.00000000000E+00  0.16794181874E+03  0.16794181874E+03  0.00000000000E+00 0. -1.
          2   -1    0    0  502    0 -0.00000000000E+00 -0.00000000000E+00 -0.88116776580E+03  0.88116776580E+03  0.00000000000E+00 0. -1.
         24    2    1    2    0    0 -0.92307602432E+02 -0.68069803044E+02 -0.71580886517E+03  0.72888208514E+03  0.75713744033E+02 0.  0.
         23    2    1    2    0    0  0.39642443829E+01  0.75144575173E+02 -0.12052835649E+03  0.16853377097E+03  0.90631809140E+02 0.  0.
        -11    1    3    3    0    0 -0.10373770251E+03 -0.68703762088E+02 -0.67993533316E+03  0.69122628359E+03  0.00000000000E+00 0.  1.
         12    1    3    3    0    0  0.11430100076E+02  0.63395904419E+00 -0.35873532007E+02  0.37655801551E+02  0.00000000000E+00 0. -1.
        -11    1    4    4    0    0 -0.23229553702E+02 -0.25772519797E+01 -0.10066452953E+01  0.23393754032E+02  0.00000000000E+00 0.  1.
         11    1    4    4    0    0  0.27193798084E+02  0.77721827153E+02 -0.11952171120E+03  0.14514001694E+03  0.00000000000E+00 0. -1.
          1    1    1    2  501    0  0.88343358049E+02 -0.70747721291E+01  0.12311127459E+03  0.15169372842E+03  0.00000000000E+00 0. -1.
<scales pt_clust_5="13000.00000" pt_clust_6="13000.00000" pt_clust_7="13000.00000" pt_clust_8="13000.00000" pt_clust_9="88.62619"></scales>
<clustering>
<clus scale="   75.714">  5  6 -1 -1</clus>
<clus scale="   88.626">  1  9  2 -1</clus>
<clus scale="   90.632">  7  8 -1 -1</clus>
<clus scale="  126.340">  2  5  1 -1</clus>
<clus scale="   88.626">  1  5  2 -1</clus>
</clustering>
</event>
<event>
 9    2  0.1665830E-004  0.9585054E+02  0.7546771E-02  0.1294688E+00
         21   -1    0    0  501  502  0.00000000000E+00  0.00000000000E+00  0.53991631606E+03  0.53991631606E+03  0.00000000000E+00 0. -1.
          2   -1    0    0  502    0 -0.00000000000E+00 -0.00000000000E+00 -0.12468952698E+03  0.12468952698E+03  0.00000000000E+00 0. -1.
         24    2    1    2    0    0 -0.11945719770E+02 -0.78323016788E+01 -0.80895958503E+02  0.11757722356E+03  0.84120165406E+02 0.  0.
         23    2    1    2    0    0  0.67447199066E+02  0.48830179064E+02  0.15646457504E+03  0.20043243611E+03  0.93586789402E+02 0.  0.
        -11    1    3    3    0    0 -0.44415982869E+02  0.86044871046E+01 -0.27453688195E+02  0.52919955858E+02  0.00000000000E+00 0.  1.
         12    1    3    3    0    0  0.32470263099E+02 -0.16436788783E+02 -0.53442270308E+02  0.64657267704E+02  0.00000000000E+00 0. -1.
        -13    1    4    4    0    0  0.89107492252E+02  0.41037226108E+02  0.10310630309E+03  0.14232044421E+03  0.00000000000E+00 0. -1.
         13    1    4    4    0    0 -0.21660293186E+02  0.77929529556E+01  0.53358271954E+02  0.58111991901E+02  0.00000000000E+00 0.  1.
          1    1    1    2  501    0 -0.55501479295E+02 -0.40997877385E+02  0.33965817254E+03  0.34659618337E+03  0.00000000000E+00 0. -1.
<scales pt_clust_5="13000.00000" pt_clust_6="13000.00000" pt_clust_7="13000.00000" pt_clust_8="13000.00000" pt_clust_9="69.00174"></scales>
<clustering>
<clus scale="   69.002">  1  9  2 -1</clus>
<clus scale="   84.120">  5  6 -1 -1</clus>
<clus scale="   86.632">  2  5  1 -1</clus>
<clus scale="   93.587">  7  8 -1 -1</clus>
<clus scale="   69.002">  1  5  2 -1</clus>
</clustering>
</event>
<event>
 9    2  0.1665830E-004  0.1564419E+03  0.7546771E-02  0.1219269E+00
          2   -1    0    0  502    0 -0.00000000000E+00  0.00000000000E+00  0.15842393691E+04  0.15842393691E+04  0.00000000000E+00 0. -1.
         21   -1    0    0  501  502  0.00000000000E+00 -0.00000000000E+00 -0.25578318463E+02  0.25578318463E+02  0.00000000000E+00 0. -1.
         24    2    1    2    0    0 -0.32219618208E+02 -0.20402787509E+02  0.67886951802E+03  0.68461400746E+03  0.79863252954E+02 0.  0.
         23    2    1    2    0    0 -0.78332597086E+02  0.94542267866E+02  0.49385376924E+03  0.51695570148E+03  0.90980304002E+02 0.  0.
        -13    1    3    3    0    0  0.10204324913E+02  0.23735313245E+02  0.14947163839E+03  0.15168804839E+03  0.00000000000E+00 0.  1.
         14    1    3    3    0    0 -0.42423943121E+02 -0.44138100754E+02  0.52939787964E+03  0.53292595907E+03  0.00000000000E+00 0. -1.
        -11    1    4    4    0    0 -0.86399509480E+02  0.53277379053E+02  0.41881517066E+03  0.43094025286E+03  0.00000000000E+00 0. -1.
         11    1    4    4    0    0  0.80669123938E+01  0.41264888813E+02  0.75038598582E+02  0.86015448621E+02  0.00000000000E+00 0.  1.
          1    1    1    2  501    0  0.11055221529E+03 -0.74139480357E+02  0.38593776334E+03  0.40824797859E+03  0.00000000000E+00 0. -1.
<scales pt_clust_5="13000.00000" pt_clust_6="13000.00000" pt_clust_7="13000.00000" pt_clust_8="13000.00000" pt_clust_9="127.26610"></scales>
<clustering>
<clus scale="   79.863">  5  6 -1 -1</clus>
<clus scale="   88.502">  1  5  2 -1</clus>
<clus scale="   90.980">  7  8 -1 -1</clus>
<clus scale="  127.266">  2  9  1 -1</clus>
<clus scale="  127.266">  2  5  1 -1</clus>
</clustering>
</event>
<event>
 9    2  0.1665830E-004  0.1598221E+03  0.7546771E-02  0.1190707E+00
         21   -1    0    0  501  502  0.00000000000E+00  0.00000000000E+00  0.47189018859E+02  0.47189018859E+02  0.00000000000E+00 0.  1.
          2   -1    0    0  502    0 -0.00000000000E+00 -0.00000000000E+00 -0.10651514635E+04  0.10651514635E+04  0.00000000000E+00 0. -1.
         23    2    1    2    0    0 -0.13783329379E+03 -0.81663334093E+02 -0.55624072260E+03  0.58631266744E+03  0.93230282133E+02 0.  0.
         24    2    1    2    0    0  0.91201984517E+02 -0.59157254785E+01 -0.12598664942E+03  0.17593838396E+03  0.82029758820E+02 0.  0.
        -11    1    4    4    0    0  0.79635174561E+02  0.90307900716E+01 -0.43250290635E+02  0.91070872603E+02  0.00000000000E+00 0.  1.
         12    1    4    4    0    0  0.11566809956E+02 -0.14946515550E+02 -0.82736358783E+02  0.84867511360E+02  0.00000000000E+00 0. -1.
        -11    1    3    3    0    0  0.10111385583E+02 -0.21459819326E+02 -0.10471321066E+03  0.10736675673E+03  0.00000000000E+00 0.  1.
         11    1    3    3    0    0 -0.14794467937E+03 -0.60203514767E+02 -0.45152751195E+03  0.47894591071E+03  0.00000000000E+00 0. -1.
          1    1    1    2  501    0  0.46631309273E+02  0.87579059572E+02 -0.33573507259E+03  0.35008943093E+03  0.00000000000E+00 0. -1.
<scales pt_clust_5="13000.00000" pt_clust_6="13000.00000" pt_clust_7="13000.00000" pt_clust_8="13000.00000" pt_clust_9="99.21986"></scales>
<clustering>
<clus scale="   82.030">  5  6 -1 -1</clus>
<clus scale="   93.230">  7  8 -1 -1</clus>
<clus scale="   99.220">  1  9  2 -1</clus>
<clus scale="  153.558">  1  5  2 -1</clus>
<clus scale="   99.220">  1  5  2 -1</clus>
</clustering>
</event>
<event>
 9    2  0.1665830E-004  0.2064961E+03  0.7546771E-02  0.1182854E+00
          2   -1    0    0  502    0 -0.00000000000E+00  0.00000000000E+00  0.41811984667E+03  0.41811984667E+03  0.00000000000E+00 0. -1.
         21   -1    0    0  501  502  0.00000000000E+00 -0.00000000000E+00 -0.17216012995E+03  0.17216012995E+03  0.00000000000E+00 0. -1.
         24    2    1    2    0    0 -0.26389099893E+02  0.72761669681E-01  0.17001136134E+03  0.18997145005E+03  0.80553702351E+02 0.  0.
         23    2    1    2    0    0  0.76785050191E+00 -0.18448603643E+03  0.28052762260E+02  0.20806209054E+03  0.92017328909E+02 0.  0.
        -13    1    3    3    0    0 -0.37489590362E+01  0.39129572190E+02  0.87311052694E+02  0.95751752132E+02  0.00000000000E+00 0.  1.
         14    1    3    3    0    0 -0.22640140856E+02 -0.39056810521E+02  0.82700308647E+02  0.94219697921E+02  0.00000000000E+00 0. -1.
        -11    1    4    4    0    0  0.61355878603E+00 -0.12778229333E+03 -0.25231624273E+02  0.13025101077E+03  0.00000000000E+00 0. -1.
         11    1    4    4    0    0  0.15429171588E+00 -0.56703743094E+02  0.53284386533E+02  0.77811079770E+02  0.00000000000E+00 0.  1.
          1    1    1    2  501    0  0.25621249391E+02  0.18441327476E+03  0.47895593120E+02  0.19224643603E+03  0.00000000000E+00 0. -1.
<scales pt_clust_5="13000.00000" pt_clust_6="13000.00000" pt_clust_7="13000.00000" pt_clust_8="13000.00000" pt_clust_9="184.86072"></scales>
<clustering>
<clus scale="   80.554">  5  6 -1 -1</clus>
<clus scale="   84.766">  1  5  2 -1</clus>
<clus scale="   92.017">  7  8 -1 -1</clus>
<clus scale="  184.861">  2  9  1 -1</clus>
<clus scale="  184.861">  2  5  1 -1</clus>
</clustering>
</event>
<event>
 9    2  0.1665830E-004  0.9151594E+02  0.7546771E-02  0.1306480E+00
         -1   -1    0    0    0  501 -0.00000000000E+00  0.00000000000E+00  0.27124530571E+03  0.27124530571E+03  0.00000000000E+00 0.  1.
         21   -1    0    0  501  502  0.00000000000E+00 -0.00000000000E+00 -0.17273073423E+03  0.17273073423E+03  0.00000000000E+00 0.  1.
         23    2    1    2    0    0  0.89911103136E+01  0.26103816570E+01  0.22629645014E+03  0.24397340983E+03  0.90693369110E+02 0.  0.
         24    2    1    2    0    0 -0.24413550579E+02 -0.17339714496E+02 -0.15911715727E+02  0.86117871404E+02  0.79160709491E+02 0.  0.
        -13    1    4    4    0    0  0.22729491220E+02  0.38668080815E+01  0.13425476896E+02  0.26680056329E+02  0.00000000000E+00 0.  1.
         14    1    4    4    0    0 -0.47143041799E+02 -0.21206522577E+02 -0.29337192623E+02  0.59437815074E+02  0.00000000000E+00 0. -1.
        -13    1    3    3    0    0  0.49994743092E+02 -0.19383557771E+00  0.12928810448E+03  0.13861791324E+03  0.00000000000E+00 0.  1.
         13    1    3    3    0    0 -0.41003632778E+02  0.28042172347E+01  0.97008345655E+02  0.10535549659E+03  0.00000000000E+00 0. -1.
         -2    1    1    2    0  502  0.15422440265E+02  0.14729332839E+02 -0.11187016294E+03  0.11388475871E+03  0.00000000000E+00 0.  1.
<scales pt_clust_5="13000.00000" pt_clust_6="13000.00000" pt_clust_7="13000.00000" pt_clust_8="13000.00000" pt_clust_9="21.32616"></scales>
<clustering>
<clus scale="   21.326">  2  9  1 -1</clus>
<clus scale="   79.161">  5  6 -1 -1</clus>
<clus scale="   80.102">  2  5  1 -1</clus>
<clus scale="   90.693">  7  8 -1 -1</clus>
<clus scale="   21.326">  2  5  1 -1</clus>
</clustering>
</event>
<event>
 9    2  0.1665830E-004  0.1298038E+03  0.7546771E-02  0.1228830E+00
          2   -1    0    0  502    0 -0.00000000000E+00  0.00000000000E+00  0.57066252605E+03  0.57066252605E+03  0.00000000000E+00 0. -1.
         21   -1    0    0  501  502  0.00000000000E+00 -0.00000000000E+00 -0.75209211569E+02  0.75209211569E+02  0.00000000000E+00 0.  1.
         24    2    1    2    0    0 -0.10029320921E+02  0.92053773401E+02  0.47037875116E+03  0.48826873526E+03  0.92605096063E+02 0.  0.
         23    2    1    2    0    0  0.31535801472E+02 -0.79282026522E+02  0.38983591833E+02  0.12898295173E+03  0.88525334801E+02 0.  0.
        -11    1    3    3    0    0 -0.39000207420E+02  0.12821879254E+02  0.94384329748E+02  0.10292627686E+03  0.00000000000E+00 0.  1.
         12    1    3    3    0    0  0.28970886499E+02  0.79231894147E+02  0.37599442141E+03  0.38534245840E+03  0.00000000000E+00 0. -1.
        -11    1    4    4    0    0  0.13802821583E+02 -0.57996996138E+02 -0.20760393319E+02  0.63128150419E+02  0.00000000000E+00 0.  1.
         11    1    4    4    0    0  0.17732979889E+02 -0.21285030385E+02  0.59743985152E+02  0.65854801314E+02  0.00000000000E+00 0. -1.
          1    1    1    2  501    0 -0.21506480551E+02 -0.12771746878E+02 -0.13909028507E+02  0.28620050629E+02  0.00000000000E+00 0. -1.
<scales pt_clust_5="13000.00000" pt_clust_6="13000.00000" pt_clust_7="13000.00000" pt_clust_8="13000.00000" pt_clust_9="25.01292"></scales>
<clustering>
<clus scale="   25.013">  2  9  1 -1</clus>
<clus scale="   88.525">  7  8 -1 -1</clus>
<clus scale="   92.605">  5  6 -1 -1</clus>
<clus scale="  126.925">  2  7  1 -1</clus>
<clus scale="   25.013">  2  5  1 -1</clus>
</clustering>
</event>
<event>
 9    2  0.1665830E-004  0.2827321E+03  0.7546771E-02  0.1141217E+00
         21   -1    0    0  501  502  0.00000000000E+00  0.00000000000E+00  0.12869751804E+03  0.12869751804E+03  0.00000000000E+00 0.  1.
          2   -1    0    0  502    0 -0.00000000000E+00 -0.00000000000E+00 -0.10992486942E+04  0.10992486942E+04  0.00000000000E+00 0. -1.
         24    2    1    2    0    0 -0.26958392003E+02 -0.16423763749E+02 -0.24034732634E+02  0.90043545532E+02  0.80831162333E+02 0.  0.
         23    2    1    2    0    0 -0.20576543537E+03 -0.16086039830E+03 -0.21124419718E+03  0.34656498267E+03  0.85250772640E+02 0.  0.
        -13    1    3    3    0    0 -0.42329470092E+02  0.13202380545E+02 -0.33245326482E+02  0.55419659176E+02  0.00000000000E+00 0.  1.
         14    1    3    3    0    0  0.15371078089E+02 -0.29626144294E+02  0.92105938480E+01  0.34623886356E+02  0.00000000000E+00 0. -1.
        -13    1    4    4    0    0 -0.20072550071E+03 -0.12187413690E+03 -0.18868743455E+03  0.30124239382E+03  0.00000000000E+00 0.  1.
         13    1    4    4    0    0 -0.50399346618E+01 -0.38986261399E+02 -0.22556762634E+02  0.45322588847E+02  0.00000000000E+00 0. -1.
          1    1    1    2  501    0  0.23272382737E+03  0.17728416205E+03 -0.73527224634E+03  0.79133768403E+03  0.00000000000E+00 0. -1.
<scales pt_clust_5="13000.00000" pt_clust_6="13000.00000" pt_clust_7="13000.00000" pt_clust_8="13000.00000" pt_clust_9="269.57344"></scales>
<clustering>
<clus scale="   80.831">  5  6 -1 -1</clus>
<clus scale="   85.251">  7  8 -1 -1</clus>
<clus scale="   86.777">  2  5  1 -1</clus>
<clus scale="  269.573">  1  9  2 -1</clus>
<clus scale="  269.573">  1  5  2 -1</clus>
</clustering>
</event>
<event>
 9    2  0.1665830E-004  0.1823568E+03  0.7546771E-02  0.1179657E+00
          2   -1    0    0  502    0 -0.00000000000E+00  0.00000000000E+00  0.80966157174E+03  0.80966157174E+03  0.00000000000E+00 0. -1.
         21   -1    0    0  501  502  0.00000000000E+00 -0.00000000000E+00 -0.83427274239E+02  0.83427274239E+02  0.00000000000E+00 0.  1.
         24    2    1    2    0    0 -0.32873674940E+01  0.10450246021E+03  0.12406311989E+03  0.18131868801E+03  0.80952071800E+02 0.  0.
         23    2    1    2    0    0  0.15960296248E+03 -0.57110348722E+02  0.44647741623E+03  0.48611306235E+03  0.90714544728E+02 0.  0.
        -11    1    3    3    0    0  0.13764980538E+02  0.10997959689E+03  0.89773648412E+02  0.14263342655E+03  0.00000000000E+00 0.  1.
         12    1    3    3    0    0 -0.17052348032E+02 -0.54771366768E+01  0.34289471480E+02  0.38685261456E+02  0.00000000000E+00 0. -1.
        -13    1    4    4    0    0  0.15160492317E+03 -0.19364636204E+02  0.37356861347E+03  0.40362426939E+03  0.00000000000E+00 0. -1.
         13    1    4    4    0    0  0.79980393161E+01 -0.37745712519E+02  0.72908802750E+02  0.82488792966E+02  0.00000000000E+00 0.  1.
          1    1    1    2  501    0 -0.15631559499E+03 -0.47392111488E+02  0.15569376138E+03  0.22565709562E+03  0.00000000000E+00 0. -1.
<scales pt_clust_5="13000.00000" pt_clust_6="13000.00000" pt_clust_7="13000.00000" pt_clust_8="13000.00000" pt_clust_9="158.19250"></scales>
<clustering>
<clus scale="   80.952">  5  6 -1 -1</clus>
<clus scale="   90.715">  7  8 -1 -1</clus>
<clus scale="  132.230">  1  5  2 -1</clus>
<clus scale="  158.193">  2  9  1 -1</clus>
<clus scale="  158.193">  2  5  1 -1</clus>
</clustering>
</event>
<event>
 9    2  0.1665830E-004  0.3945175E+03  0.7546771E-02  0.1045695E+00
          2   -1    0    0  502    0 -0.00000000000E+00  0.00000000000E+00  0.12929839954E+04  0.12929839954E+04  0.00000000000E+00 0. -1.
         21   -1    0    0  501  502  0.00000000000E+00 -0.00000000000E+00 -0.15412997546E+03  0.15412997546E+03  0.00000000000E+00 0. -1.
         24    2    1    2    0    0 -0.75342750816E+02  0.22732981754E+03  0.67023922751E+03  0.71625462746E+03  0.80278846654E+02 0.  0.
         23    2    1    2    0    0 -0.42694909277E+01  0.10872168837E+03  0.32955101865E+03  0.35855911935E+03  0.90122883343E+02 0.  0.
        -11    1    3    3    0    0  0.86111872151E+01  0.57862460742E+02  0.22569277526E+03  0.23315112205E+03  0.00000000000E+00 0.  1.
         12    1    3    3    0    0 -0.83953938031E+02  0.16946735680E+03  0.44454645225E+03  0.48310350541E+03  0.00000000000E+00 0. -1.
        -11    1    4    4    0    0  0.26477674096E+02  0.83567660569E+02  0.14225136860E+03  0.16709300700E+03  0.00000000000E+00 0.  1.
         11    1    4    4    0    0 -0.30747165024E+02  0.25154027802E+02  0.18729965005E+03  0.19146611236E+03  0.00000000000E+00 0. -1.
          1    1    1    2  501    0  0.79612241744E+02 -0.33605150591E+03  0.13906377379E+03  0.37230022407E+03  0.00000000000E+00 0. -1.
<scales pt_clust_5="13000.00000" pt_clust_6="13000.00000" pt_clust_7="13000.00000" pt_clust_8="13000.00000" pt_clust_9="345.35304"></scales>
<clustering>
<clus scale="   80.279">  5  6 -1 -1</clus>
<clus scale="   90.123">  7  8 -1 -1</clus>
<clus scale="   95.138">  5  7 -1 -1</clus>
<clus scale="  345.353">  2  9  1 -1</clus>
<clus scale="  345.353">  2  5  1 -1</clus>
</clustering>
</event>
<event>
 9    2  0.1665830E-004  0.2584850E+03  0.7546771E-02  0.1132591E+00
         21   -1    0    0  501  502  0.00000000000E+00  0.00000000000E+00  0.20465172438E+03  0.20465172438E+03  0.00000000000E+00 0. -1.
          2   -1    0    0  502    0 -0.00000000000E+00 -0.00000000000E+00 -0.91069578254E+03  0.91069578254E+03  0.00000000000E+00 0. -1.
         24    2    1    2    0    0 -0.51916518458E+02  0.10311448979E+03  0.20684639072E+02  0.14150469209E+03  0.79169442951E+02 0.  0.
         23    2    1    2    0    0 -0.23037432831E+03  0.12480389418E+01 -0.79916638862E+02  0.26043865278E+03  0.91475318801E+02 0.  0.
        -13    1    3    3    0    0  0.95677177546E+01  0.18275184801E+02 -0.20352916048E+02  0.28978695523E+02  0.00000000000E+00 0.  1.
         14    1    3    3    0    0 -0.61484236212E+02  0.84839304991E+02  0.41037555120E+02  0.11252599657E+03  0.00000000000E+00 0. -1.
        -13    1    4    4    0    0 -0.19335831371E+03 -0.19300613316E+02 -0.32753123632E+02  0.19706018944E+03  0.00000000000E+00 0. -1.
         13    1    4    4    0    0 -0.37016014602E+02  0.20548652257E+02 -0.47163515230E+02  0.63378463341E+02  0.00000000000E+00 0.  1.
          1    1    1    2  501    0  0.28229084677E+03 -0.10436252873E+03 -0.64681205837E+03  0.71340416205E+03  0.00000000000E+00 0. -1.
<scales pt_clust_5="13000.00000" pt_clust_6="13000.00000" pt_clust_7="13000.00000" pt_clust_8="13000.00000" pt_clust_9="241.75776"></scales>
<clustering>
<clus scale="   79.169">  5  6 -1 -1</clus>
<clus scale="   91.475">  7  8 -1 -1</clus>
<clus scale="  139.985">  2  5  1 -1</clus>
<clus scale="  241.758">  1  9  2 -1</clus>
<clus scale="  241.758">  1  5  2 -1</clus>
</clustering>
</event>
<event>
 9    2  0.1665830E-004  0.1266943E+03  0.7546771E-02  0.1234677E+00
         21   -1    0    0  501  502  0.00000000000E+00  0.00000000000E+00  0.57639592254E+03  0.57639592254E+03  0.00000000000E+00 0. -1.
          2   -1    0    0  502    0 -0.00000000000E+00 -0.00000000000E+00 -0.59300580530E+02  0.59300580530E+02  0.00000000000E+00 0. -1.
         24    2    1    2    0    0 -0.10075369698E+02 -0.63492965174E+02  0.19400306298E+03  0.21951410404E+03  0.80102332847E+02 0.  0.
         23    2    1    2    0    0  0.10328017616E+03  0.88798500329E+02  0.23367398603E+03  0.28456500968E+03  0.88440627183E+02 0.  0.
        -13    1    3    3    0    0 -0.14698600930E+02  0.15763967385E+02  0.26576314319E+02  0.34217715000E+02  0.00000000000E+00 0.  1.
         14    1    3    3    0    0  0.46232312316E+01 -0.79256932559E+02  0.16742674866E+03  0.18529638904E+03  0.00000000000E+00 0. -1.
        -13    1    4    4    0    0  0.10540692487E+03  0.49376763003E+02  0.13479813408E+03  0.17809890928E+03  0.00000000000E+00 0. -1.
         13    1    4    4    0    0 -0.21267487177E+01  0.39421737326E+02  0.98875851952E+02  0.10646610039E+03  0.00000000000E+00 0.  1.
          1    1    1    2  501    0 -0.93204806459E+02 -0.25305535155E+02  0.89418292999E+02  0.13161738935E+03  0.00000000000E+00 0. -1.
<scales pt_clust_5="13000.00000" pt_clust_6="13000.00000" pt_clust_7="13000.00000" pt_clust_8="13000.00000" pt_clust_9="96.57906"></scales>
<clustering>
<clus scale="   80.102">  5  6 -1 -1</clus>
<clus scale="   88.441">  7  8 -1 -1</clus>
<clus scale="   96.579">  1  9  2 -1</clus>
<clus scale="  121.021">  2  5  1 -1</clus>
<clus scale="   96.579">  1  5  2 -1</clus>
</clustering>
</event>
<event>
 9    2  0.1665830E-004  0.4537864E+03  0.7546771E-02  0.1026751E+00
          2   -1    0    0  502    0 -0.00000000000E+00  0.00000000000E+00  0.12682311068E+04  0.12682311068E+04  0.00000000000E+00 0. -1.
         21   -1    0    0  501  502  0.00000000000E+00 -0.00000000000E+00 -0.29231741644E+03  0.29231741644E+03  0.00000000000E+00 0.  1.
         23    2    1    2    0    0  0.22830521182E+03  0.38108009736E+03  0.96065282802E+03  0.10622820089E+04  0.90795925511E+02 0.  0.
         24    2    1    2    0    0 -0.26578852437E+03 -0.36053216383E+03  0.90730484371E+01  0.45507501832E+03  0.79899757478E+02 0.  0.
        -11    1    4    4    0    0 -0.68793333215E+02 -0.43118320568E+02  0.70397081640E+01  0.81493986002E+02  0.00000000000E+00 0.  1.
         12    1    4    4    0    0 -0.19699519116E+03 -0.31741384326E+03  0.20333402731E+01  0.37358103232E+03  0.00000000000E+00 0. -1.
        -11    1    3    3    0    0  0.20507155014E+03  0.35008521282E+03  0.79972122696E+03  0.89675416796E+03  0.00000000000E+00 0.  1.
         11    1    3    3    0    0  0.23233661686E+02  0.30994884536E+02  0.16093160107E+03  0.16552784094E+03  0.00000000000E+00 0. -1.
          1    1    1    2  501    0  0.37483312548E+02 -0.20547933526E+02  0.61878139415E+01  0.43191496074E+02  0.00000000000E+00 0. -1.
<scales pt_clust_5="13000.00000" pt_clust_6="13000.00000" pt_clust_7="13000.00000" pt_clust_8="13000.00000" pt_clust_9="42.74595"></scales>
<clustering>
<clus scale="   42.746">  2  9  1 -1</clus>
<clus scale="   79.900">  5  6 -1 -1</clus>
<clus scale="   90.796">  7  8 -1 -1</clus>
<clus scale="  451.732">  2  5  1 -1</clus>
<clus scale="   42.746">  2  5  1 -1</clus>
</clustering>
</event>
<event>
 9    2  0.1665830E-004  0.9242130E+02  0.7546771E-02  0.1305607E+00
         21   -1    0    0  501  502  0.00000000000E+00  0.00000000000E+00  0.59549984975E+02  0.59549984975E+02  0.00000000000E+00 0.  1.
          2   -1    0    0  502    0 -0.00000000000E+00 -0.00000000000E+00 -0.40238254104E+03  0.40238254104E+03  0.00000000000E+00 0. -1.
         24    2    1    2    0    0  0.22232201966E+02  0.89096220383E+01 -0.50844486840E+02  0.96842431473E+02  0.78864710248E+02 0.  0.
         23    2    1    2    0    0  0.26894299428E+02  0.24749646963E+01 -0.33649959545E+02  0.10187611150E+03  0.92287558887E+02 0.  0.
        -13    1    3    3    0    0  0.32146536725E+02  0.38975422713E+02 -0.34826043230E+02  0.61362339314E+02  0.00000000000E+00 0.  1.
         14    1    3    3    0    0 -0.99143347590E+01 -0.30065800674E+02 -0.16018443610E+02  0.35480092159E+02  0.00000000000E+00 0. -1.
        -11    1    4    4    0    0  0.37227601568E+02 -0.38642435821E+02 -0.16432009251E+02  0.56117226345E+02  0.00000000000E+00 0.  1.
         11    1    4    4    0    0 -0.10333302139E+02  0.41117400517E+02 -0.17217950294E+02  0.45758885156E+02  0.00000000000E+00 0. -1.
          1    1    1    2  501    0 -0.49126501394E+02 -0.11384586735E+02 -0.25833810968E+03  0.26321398304E+03  0.00000000000E+00 0. -1.
<scales pt_clust_5="13000.00000" pt_clust_6="13000.00000" pt_clust_7="13000.00000" pt_clust_8="13000.00000" pt_clust_9="50.42841"></scales>
<clustering>
<clus scale="   50.428">  1  9  2 -1</clus>
<clus scale="   78.865">  5  6 -1 -1</clus>
<clus scale="   79.021">  2  5  1 -1</clus>
<clus scale="   92.288">  7  8 -1 -1</clus>
<clus scale="   50.428">  1  5  2 -1</clus>
</clustering>
</event>
<event>
 9    2  0.1665830E-004  0.1944950E+03  0.7546771E-02  0.1178486E+00
          2   -1    0    0  502    0 -0.00000000000E+00  0.00000000000E+00  0.12668702132E+04  0.12668702132E+04  0.00000000000E+00 0. -1.
         21   -1    0    0  501  502  0.00000000000E+00 -0.00000000000E+00 -0.76458699277E+02  0.76458699277E+02  0.00000000000E+00 0. -1.
         24    2    1    2    0    0 -0.59433176361E+02  0.47924086414E+02  0.75913628608E+03  0.76733890367E+03  0.81805083738E+02 0.  0.
         23    2    1    2    0    0  0.68914297674E+02  0.14268496474E+03  0.16636566179E+03  0.24949532244E+03  0.97273855209E+02 0.  0.
        -13    1    3    3    0    0 -0.59529318192E+02  0.13000045736E+02  0.26262540339E+03  0.26960126746E+03  0.00000000000E+00 0.  1.
         14    1    3    3    0    0  0.96141830512E-01  0.34924040677E+02  0.49651088270E+03  0.49773763621E+03  0.00000000000E+00 0. -1.
        -11    1    4    4    0    0 -0.24859154424E+02  0.33038595088E+02  0.31232989506E+02  0.51817236105E+02  0.00000000000E+00 0.  1.
         11    1    4    4    0    0  0.93773452099E+02  0.10964636965E+03  0.13513267228E+03  0.19767808633E+03  0.00000000000E+00 0. -1.
          1    1    1    2  501    0 -0.94811213129E+01 -0.19060905116E+03  0.26490956605E+03  0.32649468637E+03  0.00000000000E+00 0. -1.
<scales pt_clust_5="13000.00000" pt_clust_6="13000.00000" pt_clust_7="13000.00000" pt_clust_8="13000.00000" pt_clust_9="168.42248"></scales>
<clustering>
<clus scale="   81.805">  5  6 -1 -1</clus>
<clus scale="   97.274">  7  8 -1 -1</clus>
<clus scale="  111.898">  1  5  2 -1</clus>
<clus scale="  168.422">  2  9  1 -1</clus>
<clus scale="  168.422">  2  5  1 -1</clus>
</clustering>
</event>
<event>
 9    2  0.1665830E-004  0.1323442E+03  0.7546771E-02  0.1244198E+00
         21   -1    0    0  501  502  0.00000000000E+00  0.00000000000E+00  0.31738726375E+02  0.31738726375E+02  0.00000000000E+00 0. -1.
          2   -1    0    0  502    0 -0.00000000000E+00 -0.00000000000E+00 -0.10567114631E+04  0.10567114631E+04  0.00000000000E+00 0. -1.
         24    2    1    2    0    0  0.19188864239E+02  0.23191746581E+02 -0.40917327399E+03  0.41842216359E+03  0.82147849741E+02 0.  0.
         23    2    1    2    0    0  0.19345988449E+02 -0.10180420327E+03 -0.18286456350E+03  0.22832962177E+03  0.89199801134E+02 0.  0.
        -11    1    3    3    0    0 -0.17187933731E+02 -0.11969318406E+02 -0.34584933316E+02  0.40432749863E+02  0.00000000000E+00 0.  1.
         12    1    3    3    0    0  0.36376797971E+02  0.35161064988E+02 -0.37458834068E+03  0.37798941373E+03  0.00000000000E+00 0. -1.
        -13    1    4    4    0    0  0.35595403517E+02 -0.22568973401E+02 -0.11588941607E+03  0.12331564406E+03  0.00000000000E+00 0.  1.
         13    1    4    4    0    0 -0.16249415068E+02 -0.79235229869E+02 -0.66975147428E+02  0.10501397771E+03  0.00000000000E+00 0. -1.
          1    1    1    2  501    0 -0.38534852688E+02  0.78612456689E+02 -0.43293489928E+03  0.44169840416E+03  0.00000000000E+00 0. -1.
<scales pt_clust_5="13000.00000" pt_clust_6="13000.00000" pt_clust_7="13000.00000" pt_clust_8="13000.00000" pt_clust_9="97.76709"></scales>
<clustering>
<clus scale="   82.148">  5  6 -1 -1</clus>
<clus scale="   87.489">  2  5  1 -1</clus>
<clus scale="   89.200">  7  8 -1 -1</clus>
<clus scale="   97.767">  1  9  2 -1</clus>
<clus scale="   97.767">  1  5  2 -1</clus>
</clustering>
</event>
<event>
 9    2  0.1665830E-004  0.1107515E+03  0.7546771E-02  0.1263936E+00
         21   -1    0    0  501  502  0.00000000000E+00  0.00000000000E+00  0.14939850747E+03  0.14939850747E+03  0.00000000000E+00 0.  1.
         -3   -1    0    0    0  501 -0.00000000000E+00 -0.00000000000E+00 -0.45815401919E+03  0.45815401919E+03  0.00000000000E+00 0.  1.
         24    2    1    2    0    0  0.87566667118E+01 -0.66907885232E+02 -0.32959744645E+03  0.34590831375E+03  0.80403609982E+02 0.  0.
         23    2    1    2    0    0 -0.18369017448E+01  0.43532232511E+02 -0.97234447751E+02  0.14107748289E+03  0.92465609141E+02 0.  0.
        -11    1    3    3    0    0  0.30645350722E+02 -0.74253098224E+02 -0.27816390912E+03  0.28953034462E+03  0.00000000000E+00 0.  1.
         12    1    3    3    0    0 -0.21888684010E+02  0.73452129916E+01 -0.51433537332E+02  0.56377969138E+02  0.00000000000E+00 0. -1.
        -11    1    4    4    0    0  0.13387570239E+02 -0.26086457449E+02 -0.40435312524E+02  0.49947420335E+02  0.00000000000E+00 0.  1.
         11    1    4    4    0    0 -0.15224471984E+02  0.69618689960E+02 -0.56799135227E+02  0.91130062556E+02  0.00000000000E+00 0. -1.
         -4    1    1    2    0  502 -0.69197649670E+01  0.23375652721E+02  0.11807638248E+03  0.12056673002E+03  0.00000000000E+00 0.  1.
<scales pt_clust_5="13000.00000" pt_clust_6="13000.00000" pt_clust_7="13000.00000" pt_clust_8="13000.00000" pt_clust_9="24.37836"></scales>
<clustering>
<clus scale="   24.378">  1  9  2 -1</clus>
<clus scale="   80.404">  5  6 -1 -1</clus>
<clus scale="   92.466">  7  8 -1 -1</clus>
<clus scale="  100.900">  2  5  1 -1</clus>
<clus scale="   24.378">  1  5  2 -1</clus>
</clustering>
</event>
<event>
 9    2  0.1665830E-004  0.9445210E+02  0.7546771E-02  0.1298479E+00
         21   -1    0    0  501  502  0.00000000000E+00  0.00000000000E+00  0.46759334508E+02  0.46759334508E+02  0.00000000000E+00 0. -1.
          2   -1    0    0  502    0 -0.00000000000E+00 -0.00000000000E+00 -0.56516484726E+03  0.56516484726E+03  0.00000000000E+00 0. -1.
         24    2    1    2    0    0 -0.13307911232E+02 -0.12071247090E+02 -0.30829499661E+03  0.31899786907E+03  0.79943855469E+02 0.  0.
         23    2    1    2    0    0  0.13133686699E+01  0.54649835741E+02 -0.22304785887E+03  0.24683748434E+03  0.90498988081E+02 0.  0.
        -13    1    3    3    0    0  0.62418882994E+00 -0.44250443177E+02 -0.13114287150E+03  0.13840861273E+03  0.00000000000E+00 0.  1.
         14    1    3    3    0    0 -0.13932100062E+02  0.32179196087E+02 -0.17715212511E+03  0.18058925634E+03  0.00000000000E+00 0. -1.
        -13    1    4    4    0    0 -0.32975455228E+02 -0.59768531056E+01 -0.99715718496E+02  0.10519661561E+03  0.00000000000E+00 0. -1.
         13    1    4    4    0    0  0.34288823897E+02  0.60626688846E+02 -0.12333214038E+03  0.14164086873E+03  0.00000000000E+00 0.  1.
          1    1    1    2  501    0  0.11994542563E+02 -0.42578588650E+02  0.12937342731E+02  0.46088828361E+02  0.00000000000E+00 0. -1.
<scales pt_clust_5="13000.00000" pt_clust_6="13000.00000" pt_clust_7="13000.00000" pt_clust_8="13000.00000" pt_clust_9="44.23579"></scales>
<clustering>
<clus scale="   44.236">  1  9  2 -1</clus>
<clus scale="   79.944">  5  6 -1 -1</clus>
<clus scale="   84.393">  2  5  1 -1</clus>
<clus scale="   90.499">  7  8 -1 -1</clus>
<clus scale="   44.236">  1  5  2 -1</clus>
</clustering>
</event>
<event>
 9    2  0.1665830E-004  0.1990336E+03  0.7546771E-02  0.1183350E+00
          2   -1    0    0  502    0 -0.00000000000E+00  0.00000000000E+00  0.17196585021E+04  0.17196585021E+04  0.00000000000E+00 0. -1.
         21   -1    0    0  501  502  0.00000000000E+00 -0.00000000000E+00 -0.33972775817E+02  0.33972775817E+02  0.00000000000E+00 0. -1.
         23    2    1    2    0    0  0.22246381772E+02  0.11577659257E+02  0.23329047967E+03  0.25137326378E+03  0.90194934136E+02 0.  0.
         24    2    1    2    0    0 -0.71026666097E+02  0.16600174053E+03  0.83051059242E+03  0.85367919665E+03  0.80118421850E+02 0.  0.
        -13    1    4    4    0    0 -0.19852358388E+02  0.70174008181E+01  0.35169570062E+02  0.40990958834E+02  0.00000000000E+00 0.  1.
         14    1    4    4    0    0 -0.51174307709E+02  0.15898433971E+03  0.79534102235E+03  0.81268823781E+03  0.00000000000E+00 0. -1.
        -13    1    3    3    0    0  0.18454553034E+01 -0.31542962522E+02  0.33842400724E+02  0.46299808603E+02  0.00000000000E+00 0. -1.
         13    1    3    3    0    0  0.20400926468E+02  0.43120621779E+02  0.19944807895E+03  0.20507345518E+03  0.00000000000E+00 0.  1.
          1    1    1    2  501    0  0.48780284325E+02 -0.17757939978E+03  0.62188465417E+03  0.64857881746E+03  0.00000000000E+00 0. -1.
<scales pt_clust_5="13000.00000" pt_clust_6="13000.00000" pt_clust_7="13000.00000" pt_clust_8="13000.00000" pt_clust_9="182.19607"></scales>
<clustering>
<clus scale="   80.118">  5  6 -1 -1</clus>
<clus scale="   90.195">  7  8 -1 -1</clus>
<clus scale="   93.617">  1  7  2 -1</clus>
<clus scale="  182.196">  2  9  1 -1</clus>
<clus scale="  182.196">  2  5  1 -1</clus>
</clustering>
</event>
<event>
 9    2  0.1665830E-004  0.1314441E+03  0.7546771E-02  0.1235825E+00
         -3   -1    0    0    0  501 -0.00000000000E+00  0.00000000000E+00  0.22794853082E+03  0.22794853082E+03  0.00000000000E+00 0.  1.
         21   -1    0    0  501  502  0.00000000000E+00 -0.00000000000E+00 -0.15394474482E+03  0.15394474482E+03  0.00000000000E+00 0.  1.
         23    2    1    2    0    0  0.47170855848E+02 -0.28501628011E+02 -0.28935476562E+02  0.10973576161E+03  0.90372800837E+02 0.  0.
         24    2    1    2    0    0  0.68743759824E+02  0.48038411723E+02  0.10312480669E+03  0.15460787145E+03  0.78965021647E+02 0.  0.
        -11    1    4    4    0    0  0.63349976754E+02  0.62961946064E+02  0.10586004018E+03  0.13850550283E+03  0.00000000000E+00 0.  1.
         12    1    4    4    0    0  0.53937830696E+01 -0.14923534341E+02 -0.27352334865E+01  0.16102368623E+02  0.00000000000E+00 0. -1.
        -11    1    3    3    0    0  0.62801516113E+02 -0.46866881621E+02 -0.98443770294E+01  0.78977508052E+02  0.00000000000E+00 0.  1.
         11    1    3    3    0    0 -0.15630660265E+02  0.18365253610E+02 -0.19091099533E+02  0.30758253556E+02  0.00000000000E+00 0. -1.
         -4    1    1    2    0  502 -0.11591461567E+03 -0.19536783712E+02 -0.18554412237E+00  0.11754964258E+03  0.00000000000E+00 0.  1.
<scales pt_clust_5="13000.00000" pt_clust_6="13000.00000" pt_clust_7="13000.00000" pt_clust_8="13000.00000" pt_clust_9="105.08124"></scales>
<clustering>
<clus scale="   78.965">  5  6 -1 -1</clus>
<clus scale="   90.373">  7  8 -1 -1</clus>
<clus scale="  105.852">  1  7  2 -1</clus>
<clus scale="  105.081">  2  9  1 -1</clus>
<clus scale="  105.081">  2  5  1 -1</clus>
</clustering>
</event>
<event>
 9    2  0.1665830E-004  0.2103277E+03  0.7546771E-02  0.1142698E+00
         -1   -1    0    0    0  501 -0.00000000000E+00  0.00000000000E+00  0.29670117354E+03  0.29670117354E+03  0.00000000000E+00 0.  1.
         21   -1    0    0  501  502  0.00000000000E+00 -0.00000000000E+00 -0.23676383436E+03  0.23676383436E+03  0.00000000000E+00 0.  1.
         23    2    1    2    0    0 -0.19470362590E+03 -0.19612778488E+02  0.10137112491E+03  0.24080732790E+03  0.97045871562E+02 0.  0.
         24    2    1    2    0    0  0.15845448041E+03  0.67222785015E+02 -0.94753523500E+02  0.21250964380E+03  0.80965383372E+02 0.  0.
        -11    1    4    4    0    0  0.71605700094E+02  0.74135739050E+02 -0.49729873888E+02  0.11444013478E+03  0.00000000000E+00 0.  1.
         12    1    4    4    0    0  0.86848780313E+02 -0.69129540347E+01 -0.45023649612E+02  0.98069509021E+02  0.00000000000E+00 0. -1.
        -11    1    3    3    0    0 -0.33867834771E+02 -0.24194346362E+01 -0.19250740714E+02  0.39031716771E+02  0.00000000000E+00 0. -1.
         11    1    3    3    0    0 -0.16083579113E+03 -0.17193343851E+02  0.12062186562E+03  0.20177561113E+03  0.00000000000E+00 0.  1.
         -2    1    1    2    0  502  0.36249145491E+02 -0.47610006527E+02  0.53319737775E+02  0.80148036200E+02  0.00000000000E+00 0.  1.
<scales pt_clust_5="13000.00000" pt_clust_6="13000.00000" pt_clust_7="13000.00000" pt_clust_8="13000.00000" pt_clust_9="59.83909"></scales>
<clustering>
<clus scale="   59.839">  2  9  1 -1</clus>
<clus scale="   80.965">  5  6 -1 -1</clus>
<clus scale="   97.046">  7  8 -1 -1</clus>
<clus scale="  203.409">  2  5  1 -1</clus>
<clus scale="   59.839">  2  5  1 -1</clus>
</clustering>
</event>
<event>
 9    2  0.1665830E-004  0.1644745E+03  0.7546771E-02  0.1184430E+00
         21   -1    0    0  501  502  0.00000000000E+00  0.00000000000E+00  0.50999891644E+03  0.50999891644E+03  0.00000000000E+00 0. -1.
          2   -1    0    0  502    0 -0.00000000000E+00 -0.00000000000E+00 -0.17111708307E+03  0.17111708307E+03  0.00000000000E+00 0. -1.
         23    2    1    2    0    0 -0.85329927459E+02  0.15030481129E+03  0.18895499428E+03  0.27184243089E+03  0.91222719467E+02 0.  0.
         24    2    1    2    0    0  0.67929364173E+02 -0.70093598733E+02  0.24870152844E+03  0.28084826939E+03  0.86578225156E+02 0.  0.
        -13    1    4    4    0    0  0.21591364317E+02 -0.92431702194E+01  0.31943840077E+01  0.23702896404E+02  0.00000000000E+00 0.  1.
         14    1    4    4    0    0  0.46337999856E+02 -0.60850428514E+02  0.24550714444E+03  0.25714537299E+03  0.00000000000E+00 0. -1.
        -11    1    3    3    0    0 -0.70785764140E+02  0.10588825086E+03  0.72960673113E+02  0.14678625922E+03  0.00000000000E+00 0. -1.
         11    1    3    3    0    0 -0.14544163319E+02  0.44416560432E+02  0.11599432117E+03  0.12505617166E+03  0.00000000000E+00 0.  1.
          1    1    1    2  501    0  0.17400563286E+02 -0.80211212559E+02 -0.98774689362E+02  0.12842529923E+03  0.00000000000E+00 0. -1.
<scales pt_clust_5="13000.00000" pt_clust_6="13000.00000" pt_clust_7="13000.00000" pt_clust_8="13000.00000" pt_clust_9="82.07695"></scales>
<clustering>
<clus scale="   82.077">  1  9  2 -1</clus>
<clus scale="   86.578">  5  6 -1 -1</clus>
<clus scale="   91.223">  7  8 -1 -1</clus>
<clus scale="  161.945">  1  5  2 -1</clus>
<clus scale="   82.077">  1  5  2 -1</clus>
</clustering>
</event>
<event>
 9    2  0.1665830E-004  0.1392507E+03  0.7546771E-02  0.1217579E+00
          2   -1    0    0  502    0 -0.00000000000E+00  0.00000000000E+00  0.15715048337E+04  0.15715048337E+04  0.00000000000E+00 0. -1.
         21   -1    0    0  501  502  0.00000000000E+00 -0.00000000000E+00 -0.57840635682E+02  0.57840635682E+02  0.00000000000E+00 0. -1.
         23    2    1    2    0    0  0.63644846591E+02  0.49489302192E+02  0.26582257888E+03  0.29592392953E+03  0.10202681556E+03 0.  0.
         24    2    1    2    0    0 -0.50862197307E+02  0.10116435652E+03  0.87398200405E+02  0.16316992201E+03  0.78516163104E+02 0.  0.
        -11    1    4    4    0    0  0.19340145586E+02  0.39529543756E+02  0.22545671137E+02  0.49446267279E+02  0.00000000000E+00 0.  1.
         12    1    4    4    0    0 -0.70202342893E+02  0.61634812762E+02  0.64852529268E+02  0.11372365473E+03  0.00000000000E+00 0. -1.
        -13    1    3    3    0    0 -0.13731246491E+02 -0.18840030091E+02  0.26544375077E+02  0.35328426406E+02  0.00000000000E+00 0.  1.
         13    1    3    3    0    0  0.77376093082E+02  0.68329332284E+02  0.23927820381E+03  0.26059550312E+03  0.00000000000E+00 0. -1.
          1    1    1    2  501    0 -0.12782649284E+02 -0.15065365871E+03  0.11604434187E+04  0.11702516178E+04  0.00000000000E+00 0. -1.
<scales pt_clust_5="13000.00000" pt_clust_6="13000.00000" pt_clust_7="13000.00000" pt_clust_8="13000.00000" pt_clust_9="115.00425"></scales>
<clustering>
<clus scale="   78.516">  5  6 -1 -1</clus>
<clus scale="  102.027">  7  8 -1 -1</clus>
<clus scale="  130.036">  1  7  2 -1</clus>
<clus scale="  115.004">  2  9  1 -1</clus>
<clus scale="  115.004">  2  5  1 -1</clus>
</clustering>
</event>
<event>
 9    2  0.1665830E-004  0.2051656E+03  0.7546771E-02  0.1145875E+00
         21   -1    0    0  501  502  0.00000000000E+00  0.00000000000E+00  0.42305487893E+03  0.42305487893E+03  0.00000000000E+00 0.  1.
         -3   -1    0    0    0  501 -0.00000000000E+00 -0.00000000000E+00 -0.17993078385E+03  0.17993078385E+03  0.00000000000E+00 0.  1.
         23    2    1    2    0    0  0.47565002381E+02 -0.17294678706E+03 -0.52296437134E+02  0.20684575117E+03  0.88753742666E+02 0.  0.
         24    2    1    2    0    0 -0.80815630961E+02  0.19211445789E+03  0.26303371198E+03  0.34592128925E+03  0.83878922150E+02 0.  0.
        -13    1    4    4    0    0 -0.92432990906E+02  0.19163169630E+03  0.25295169465E+03  0.33053157891E+03  0.00000000000E+00 0.  1.
         14    1    4    4    0    0  0.11617359945E+02  0.48276159582E+00  0.10082017329E+02  0.15389710337E+02  0.00000000000E+00 0. -1.
        -13    1    3    3    0    0  0.58287377607E+02 -0.11883225961E+03 -0.68923539667E+02  0.14922794186E+03  0.00000000000E+00 0.  1.
         13    1    3    3    0    0 -0.10722375226E+02 -0.54114527446E+02  0.16627102533E+02  0.57617809311E+02  0.00000000000E+00 0. -1.
         -4    1    1    2    0  502  0.33250628580E+02 -0.19167670834E+02  0.32386820237E+02  0.50218622355E+02  0.00000000000E+00 0.  1.
<scales pt_clust_5="13000.00000" pt_clust_6="13000.00000" pt_clust_7="13000.00000" pt_clust_8="13000.00000" pt_clust_9="38.37973"></scales>
<clustering>
<clus scale="   38.380">  1  9  2 -1</clus>
<clus scale="   83.879">  5  6 -1 -1</clus>
<clus scale="   88.754">  7  8 -1 -1</clus>
<clus scale="  203.104">  1  5  2 -1</clus>
<clus scale="   38.380">  1  5  2 -1</clus>
</clustering>
</event>
<event>
 9    2  0.1665830E-004  0.9345711E+02  0.7546771E-02  0.1301418E+00
          2   -1    0    0  502    0 -0.00000000000E+00  0.00000000000E+00  0.14388396702E+04  0.14388396702E+04  0.00000000000E+00 0. -1.
         21   -1    0    0  501  502  0.00000000000E+00 -0.00000000000E+00 -0.47501869507E+02  0.47501869507E+02  0.00000000000E+00 0. -1.
         24    2    1    2    0    0  0.31712696370E+02 -0.12246870041E+02  0.10075526791E+04  0.10112903227E+04  0.79937692017E+02 0.  0.
         23    2    1    2    0    0  0.48935044503E+02  0.20198342234E+02  0.37952711809E+03  0.39390064949E+03  0.91182655665E+02 0.  0.
        -13    1    3    3    0    0 -0.22816011354E+02 -0.85022473032E+01  0.14693327176E+03  0.14893705024E+03  0.00000000000E+00 0.  1.
         14    1    3    3    0    0  0.54528707724E+02 -0.37446227375E+01  0.86061940736E+03  0.86235327244E+03  0.00000000000E+00 0. -1.
        -11    1    4    4    0    0  0.70291047199E+01  0.45480513260E+02  0.27057636707E+03  0.27446212091E+03  0.00000000000E+00 0.  1.
         11    1    4    4    0    0  0.41905939784E+02 -0.25282171026E+02  0.10895075102E+03  0.11943852858E+03  0.00000000000E+00 0. -1.
          1    1    1    2  501    0 -0.80647740873E+02 -0.79514721934E+01  0.42580034831E+01  0.81150567538E+02  0.00000000000E+00 0. -1.
<scales pt_clust_5="13000.00000" pt_clust_6="13000.00000" pt_clust_7="13000.00000" pt_clust_8="13000.00000" pt_clust_9="81.03878"></scales>
<clustering>
<clus scale="   79.938">  5  6 -1 -1</clus>
<clus scale="   81.039">  2  9  1 -1</clus>
<clus scale="   82.523">  1  5  2 -1</clus>
<clus scale="   91.183">  7  8 -1 -1</clus>
<clus scale="   81.039">  2  5  1 -1</clus>
</clustering>
</event>
<event>
 9    2  0.2327132E-004  0.1893251E+03  0.7546771E-02  0.1160168E+00
         21   -1    0    0  501  502  0.00000000000E+00  0.00000000000E+00  0.12338495247E+03  0.12338495247E+03  0.00000000000E+00 0. -1.
          2   -1    0    0  502    0 -0.00000000000E+00 -0.00000000000E+00 -0.55043838912E+03  0.55043838912E+03  0.00000000000E+00 0. -1.
         24    2    1    2    0    0  0.39318061365E+02  0.15572411405E+03 -0.19582149916E+03  0.26576926271E+03  0.80568801759E+02 0.  0.
         23    2    1    2    0    0 -0.22472049033E+02 -0.17912176038E+03 -0.29524964289E+02  0.20429701514E+03  0.90972242201E+02 0.  0.
        -11    1    3    3    0    0  0.39628492714E+02  0.20969789161E+02 -0.52722466471E+02  0.69208438524E+02  0.00000000000E+00 0.  1.
         12    1    3    3    0    0 -0.31043134936E+00  0.13475432489E+03 -0.14309903269E+03  0.19656082418E+03  0.00000000000E+00 0. -1.
        -11    1    4    4    0    0  0.24551258844E+02 -0.21171408002E+02 -0.22279111032E+02  0.39336390480E+02  0.00000000000E+00 0.  1.
         11    1    4    4    0    0 -0.47023307877E+02 -0.15795035238E+03 -0.72458532562E+01  0.16496062466E+03  0.00000000000E+00 0. -1.
          1    1    1    2  501    0 -0.16846012332E+02  0.23397646325E+02 -0.20170697320E+03  0.20375706374E+03  0.00000000000E+00 0. -1.
<scales pt_clust_5="13000.00000" pt_clust_6="13000.00000" pt_clust_7="13000.00000" pt_clust_8="13000.00000" pt_clust_9="28.83121"></scales>
<clustering>
<clus scale="   28.831">  1  9  2 -1</clus>
<clus scale="   80.569">  5  6 -1 -1</clus>
<clus scale="   90.972">  7  8 -1 -1</clus>
<clus scale="  184.552">  2  5  1 -1</clus>
<clus scale="   28.831">  1  5  2 -1</clus>
</clustering>
</event>
<event>
 9    2  0.1665830E-004  0.1589333E+03  0.7546771E-02  0.1191641E+00
          2   -1    0    0  502    0 -0.00000000000E+00  0.00000000000E+00  0.10065301467E+04  0.10065301467E+04  0.00000000000E+00 0. -1.
         21   -1    0    0  501  502  0.00000000000E+00 -0.00000000000E+00 -0.57723459643E+02  0.57723459643E+02  0.00000000000E+00 0. -1.
         24    2    1    2    0    0  0.15503136257E+03  0.45081008349E+02  0.72068344363E+03  0.74292610655E+03  0.80545348627E+02 0.  0.
         23    2    1    2    0    0 -0.81245179404E+02  0.85301321037E+01  0.18119638645E+03  0.21875710877E+03  0.91372861653E+02 0.  0.
        -13    1    3    3    0    0  0.11668622184E+02  0.31584967367E+02  0.92156473308E+02  0.98115149084E+02  0.00000000000E+00 0.  1.
         14    1    3    3    0    0  0.14336274038E+03  0.13496040982E+02  0.62852697032E+03  0.64481095747E+03  0.00000000000E+00 0. -1.
        -11    1    4    4    0    0 -0.80000721728E+02  0.35476680388E+02  0.98444405165E+02  0.13171944138E+03  0.00000000000E+00 0. -1.
         11    1    4    4    0    0 -0.12444576758E+01 -0.26946548284E+02  0.82751981285E+02  0.87037667397E+02  0.00000000000E+00 0.  1.
          1    1    1    2  501    0 -0.73786183164E+02 -0.53611140452E+02  0.46926856974E+02  0.10257039101E+03  0.00000000000E+00 0. -1.
<scales pt_clust_5="13000.00000" pt_clust_6="13000.00000" pt_clust_7="13000.00000" pt_clust_8="13000.00000" pt_clust_9="91.20611"></scales>
<clustering>
<clus scale="   80.545">  5  6 -1 -1</clus>
<clus scale="   91.206">  2  9  1 -1</clus>
<clus scale="   91.373">  7  8 -1 -1</clus>
<clus scale="  152.965">  1  5  2 -1</clus>
<clus scale="   91.206">  2  5  1 -1</clus>
</clustering>
</event>
<event>
 9    2  0.1665830E-004  0.2629676E+03  0.7546771E-02  0.1105906E+00
         21   -1    0    0  501  502  0.00000000000E+00  0.00000000000E+00  0.57760527154E+03  0.57760527154E+03  0.00000000000E+00 0.  1.
         -1   -1    0    0    0  501 -0.00000000000E+00 -0.00000000000E+00 -0.74032852628E+03  0.74032852628E+03  0.00000000000E+00 0.  1.
         24    2    1    2    0    0  0.23720572254E+03  0.40858344362E+01 -0.26164244890E+03  0.36233175805E+03  0.80896742697E+02 0.  0.
         23    2    1    2    0    0 -0.20982014645E+03  0.24308691632E+03 -0.32379840490E+03  0.46515886566E+03  0.91714887248E+02 0.  0.
        -11    1    3    3    0    0  0.47171150677E+02  0.13779120104E+02 -0.10476986993E+03  0.11572254427E+03  0.00000000000E+00 0.  1.
         12    1    3    3    0    0  0.19003457186E+03 -0.96932856680E+01 -0.15687257896E+03  0.24660921378E+03  0.00000000000E+00 0. -1.
        -11    1    4    4    0    0 -0.86900147574E+02  0.15827810882E+03 -0.21282663393E+03  0.27910351394E+03  0.00000000000E+00 0.  1.
         11    1    4    4    0    0 -0.12291999887E+03  0.84808807494E+02 -0.11097177097E+03  0.18605535172E+03  0.00000000000E+00 0. -1.
         -2    1    1    2    0  502 -0.27385576089E+02 -0.24717275075E+03  0.42271759905E+03  0.49044317412E+03  0.00000000000E+00 0.  1.
<scales pt_clust_5="13000.00000" pt_clust_6="13000.00000" pt_clust_7="13000.00000" pt_clust_8="13000.00000" pt_clust_9="248.68522"></scales>
<clustering>
<clus scale="   80.897">  5  6 -1 -1</clus>
<clus scale="   91.715">  7  8 -1 -1</clus>
<clus scale="  248.685">  1  9  2 -1</clus>
<clus scale="  259.393">  2  5  1 -1</clus>
<clus scale="  248.685">  1  5  2 -1</clus>
</clustering>
</event>
<event>
 9    2  0.1665830E-004  0.1255012E+03  0.7546771E-02  0.1238382E+00
         21   -1    0    0  501  502  0.00000000000E+00  0.00000000000E+00  0.38790895348E+02  0.38790895348E+02  0.00000000000E+00 0. -1.
          2   -1    0    0  502    0 -0.00000000000E+00 -0.00000000000E+00 -0.89069521088E+03  0.89069521088E+03  0.00000000000E+00 0. -1.
         23    2    1    2    0    0  0.66781942752E+02 -0.58790892680E+02 -0.72715362615E+03  0.73868648348E+03  0.94811011548E+02 0.  0.
         24    2    1    2    0    0 -0.24610490705E+02  0.56197615454E+02 -0.95134090354E+02  0.13920214808E+03  0.81011694510E+02 0.  0.
        -11    1    4    4    0    0 -0.71641353710E+01  0.68798436596E+02 -0.95206408741E+02  0.11768096694E+03  0.00000000000E+00 0.  1.
         12    1    4    4    0    0 -0.17446355334E+02 -0.12600821142E+02  0.72318387464E-01  0.21521181144E+02  0.00000000000E+00 0. -1.
        -13    1    3    3    0    0 -0.26156672450E+01  0.22133803358E+02 -0.92908607967E+02  0.95544525749E+02  0.00000000000E+00 0.  1.
         13    1    3    3    0    0  0.69397609997E+02 -0.80924696038E+02 -0.63424501818E+03  0.64314195773E+03  0.00000000000E+00 0. -1.
          1    1    1    2  501    0 -0.42171452047E+02  0.25932772262E+01 -0.29616599035E+02  0.51597474676E+02  0.00000000000E+00 0. -1.
<scales pt_clust_5="13000.00000" pt_clust_6="13000.00000" pt_clust_7="13000.00000" pt_clust_8="13000.00000" pt_clust_9="42.25111"></scales>
<clustering>
<clus scale="   42.251">  1  9  2 -1</clus>
<clus scale="   81.012">  5  6 -1 -1</clus>
<clus scale="   94.811">  7  8 -1 -1</clus>
<clus scale="  115.431">  1  5  2 -1</clus>
<clus scale="   42.251">  1  5  2 -1</clus>
</clustering>
</event>
<event>
 9    2  0.1860118E-004  0.2566251E+03  0.7546771E-02  0.1140817E+00
         21   -1    0    0  501  502  0.00000000000E+00  0.00000000000E+00  0.21434692081E+03  0.21434692081E+03  0.00000000000E+00 0.  1.
          2   -1    0    0  502    0 -0.00000000000E+00 -0.00000000000E+00 -0.90554443354E+03  0.90554443354E+03  0.00000000000E+00 0. -1.
         23    2    1    2    0    0 -0.87861912239E+01  0.72035261221E+02 -0.32106046126E+03  0.34177216999E+03  0.91989784102E+02 0.  0.
         24    2    1    2    0    0 -0.22865786762E+03 -0.79634266526E+02  0.78553640097E+02  0.27041773403E+03  0.91263572559E+02 0.  0.
        -13    1    4    4    0    0 -0.11772935949E+03 -0.86529519042E+02  0.58986895276E+02  0.15756590229E+03  0.00000000000E+00 0.  1.
         14    1    4    4    0    0 -0.11092850813E+03  0.68952525161E+01  0.19566744821E+02  0.11285183174E+03  0.00000000000E+00 0. -1.
        -13    1    3    3    0    0 -0.40298680550E+02  0.13794411524E+02 -0.19253907823E+03  0.19719423442E+03  0.00000000000E+00 0.  1.
         13    1    3    3    0    0  0.31512489327E+02  0.58240849698E+02 -0.12852138303E+03  0.14457793557E+03  0.00000000000E+00 0. -1.
          1    1    1    2  501    0  0.23744405884E+03  0.75990053046E+01 -0.44869069157E+03  0.50770145033E+03  0.00000000000E+00 0. -1.
<scales pt_clust_5="13000.00000" pt_clust_6="13000.00000" pt_clust_7="13000.00000" pt_clust_8="13000.00000" pt_clust_9="239.84886"></scales>
<clustering>
<clus scale="   91.264">  5  6 -1 -1</clus>
<clus scale="   91.990">  7  8 -1 -1</clus>
<clus scale="  117.168">  2  7  1 -1</clus>
<clus scale="  239.849">  1  9  2 -1</clus>
<clus scale="  239.849">  1  5  2 -1</clus>
</clustering>
</event>
<event>
 9    2  0.1665830E-004  0.1004873E+03  0.7546771E-02  0.1284589E+00
         21   -1    0    0  501  502  0.00000000000E+00  0.00000000000E+00  0.13200236489E+03  0.13200236489E+03  0.00000000000E+00 0. -1.
         -1   -1    0    0    0  501 -0.00000000000E+00 -0.00000000000E+00 -0.26752077736E+03  0.26752077736E+03  0.00000000000E+00 0.  1.
         23    2    1    2    0    0  0.43837894479E+02  0.50743150865E+01 -0.23434652872E+03  0.25531193546E+03  0.91205148972E+02 0.  0.
         24    2    1    2    0    0 -0.23717064911E+02  0.54187364317E+00  0.82930374223E+02  0.11795996760E+03  0.80463123177E+02 0.  0.
        -13    1    4    4    0    0 -0.85256828453E+01 -0.34451008474E+02  0.12075645421E+02  0.37488404410E+02  0.00000000000E+00 0.  1.
         14    1    4    4    0    0 -0.15191382065E+02  0.34992882117E+02  0.70854728802E+02  0.80471563186E+02  0.00000000000E+00 0. -1.
        -11    1    3    3    0    0  0.40578898997E+02  0.37763108238E+02 -0.20099416991E+03  0.20849785545E+03  0.00000000000E+00 0.  1.
         11    1    3    3    0    0  0.32589954819E+01 -0.32688793152E+02 -0.33352358807E+02  0.46814080011E+02  0.00000000000E+00 0. -1.
         -2    1    1    2    0  502 -0.20120829568E+02 -0.56161887297E+01  0.15897742021E+02  0.26251239204E+02  0.00000000000E+00 0.  1.
<scales pt_clust_5="13000.00000" pt_clust_6="13000.00000" pt_clust_7="13000.00000" pt_clust_8="13000.00000" pt_clust_9="20.88993"></scales>
<clustering>
<clus scale="   20.890">  1  9  2 -1</clus>
<clus scale="   80.463">  5  6 -1 -1</clus>
<clus scale="   90.849">  1  5  2 -1</clus>
<clus scale="   91.205">  7  8 -1 -1</clus>
<clus scale="   20.890">  1  5  2 -1</clus>
</clustering>
</event>
<event>
 9    2  0.1665830E-004  0.9668133E+02  0.7546771E-02  0.1289803E+00
         21   -1    0    0  501  502  0.00000000000E+00  0.00000000000E+00  0.76663468305E+02  0.76663468305E+02  0.00000000000E+00 0. -1.
          2   -1    0    0  502    0 -0.00000000000E+00 -0.00000000000E+00 -0.27007131133E+03  0.27007131133E+03  0.00000000000E+00 0. -1.
         24    2    1    2    0    0 -0.12865294046E+01  0.62513206335E+01 -0.17849316280E+03  0.20083005218E+03  0.91826828998E+02 0.  0.
         23    2    1    2    0    0  0.25483503646E+02 -0.27161227256E+02  0.12497409711E+02  0.10378418102E+03  0.96061593558E+02 0.  0.
        -11    1    3    3    0    0 -0.23318052095E+02 -0.24439634131E+02 -0.23129801325E+02  0.40939161927E+02  0.00000000000E+00 0.  1.
         12    1    3    3    0    0  0.22031522690E+02  0.30690954764E+02 -0.15536336147E+03  0.15989089025E+03  0.00000000000E+00 0. -1.
        -13    1    4    4    0    0  0.39335772197E+02  0.96653742930E+01 -0.26485958669E+02  0.48396574684E+02  0.00000000000E+00 0.  1.
         13    1    4    4    0    0 -0.13852268552E+02 -0.36826601549E+02  0.38983368380E+02  0.55387606338E+02  0.00000000000E+00 0. -1.
          1    1    1    2  501    0 -0.24196974241E+02  0.20909906622E+02 -0.27412089940E+02  0.42120546438E+02  0.00000000000E+00 0. -1.
<scales pt_clust_5="13000.00000" pt_clust_6="13000.00000" pt_clust_7="13000.00000" pt_clust_8="13000.00000" pt_clust_9="31.97997"></scales>
<clustering>
<clus scale="   31.980">  1  9  2 -1</clus>
<clus scale="   91.827">  5  6 -1 -1</clus>
<clus scale="   92.475">  2  5  1 -1</clus>
<clus scale="   96.062">  7  8 -1 -1</clus>
<clus scale="   31.980">  1  5  2 -1</clus>
</clustering>
</event>
<event>
 9    2  0.1665830E-004  0.2161363E+03  0.7546771E-02  0.1138401E+00
          2   -1    0    0  502    0 -0.00000000000E+00  0.00000000000E+00  0.14909072728E+04  0.14909072728E+04  0.00000000000E+00 0. -1.
         21   -1    0    0  501  502  0.00000000000E+00 -0.00000000000E+00 -0.12263826850E+03  0.12263826850E+03  0.00000000000E+00 0. -1.
         23    2    1    2    0    0  0.18730029803E+03  0.83494151142E+02  0.11863260166E+04  0.12075845858E+04  0.94012973877E+02 0.  0.
         24    2    1    2    0    0 -0.18000526039E+03  0.53461146182E+02  0.17782576883E+03  0.26874972221E+03  0.73105548400E+02 0.  0.
        -13    1    4    4    0    0 -0.21915263839E+02  0.30438748126E+02  0.57904999508E+02  0.68991196139E+02  0.00000000000E+00 0.  1.
         14    1    4    4    0    0 -0.15808999655E+03  0.23022398056E+02  0.11992076932E+03  0.19975852607E+03  0.00000000000E+00 0. -1.
        -11    1    3    3    0    0  0.70343797266E+02 -0.15882415159E+02  0.38111626987E+03  0.38787899155E+03  0.00000000000E+00 0.  1.
         11    1    3    3    0    0  0.11695650076E+03  0.99376566302E+02  0.80520974678E+03  0.81970559429E+03  0.00000000000E+00 0. -1.
          1    1    1    2  501    0 -0.72950376386E+01 -0.13695529732E+03  0.41172188263E+01  0.13721123325E+03  0.00000000000E+00 0. -1.
<scales pt_clust_5="13000.00000" pt_clust_6="13000.00000" pt_clust_7="13000.00000" pt_clust_8="13000.00000" pt_clust_9="137.14945"></scales>
<clustering>
<clus scale="   73.106">  5  6 -1 -1</clus>
<clus scale="   94.013">  7  8 -1 -1</clus>
<clus scale="  137.149">  2  9  1 -1</clus>
<clus scale="  207.896">  2  5  1 -1</clus>
<clus scale="  137.149">  2  5  1 -1</clus>
</clustering>
</event>
<event>
 9    2  0.1665830E-004  0.1268783E+03  0.7546771E-02  0.1240245E+00
         -1   -1    0    0    0  501 -0.00000000000E+00  0.00000000000E+00  0.22757009840E+03  0.22757009840E+03  0.00000000000E+00 0.  1.
         21   -1    0    0  501  502  0.00000000000E+00 -0.00000000000E+00 -0.93321745177E+02  0.93321745177E+02  0.00000000000E+00 0. -1.
         23    2    1    2    0    0  0.31038743125E+02 -0.65964524287E+02  0.13940646926E+03  0.18980142056E+03  0.10618706859E+03 0.  0.
         24    2    1    2    0    0 -0.43200570566E+02  0.46283225347E+02 -0.17016156930E+02  0.10509279412E+03  0.82137199448E+02 0.  0.
        -11    1    4    4    0    0 -0.66027604052E+02  0.33824933724E+02 -0.31829598878E+00  0.74188084964E+02  0.00000000000E+00 0.  1.
         12    1    4    4    0    0  0.22827033485E+02  0.12458291623E+02 -0.16697860941E+02  0.30904709154E+02  0.00000000000E+00 0. -1.
        -11    1    3    3    0    0 -0.28228646592E+02 -0.24696723877E+02  0.58379773961E+01  0.37958749173E+02  0.00000000000E+00 0. -1.
         11    1    3    3    0    0  0.59267389717E+02 -0.41267800409E+02  0.13356849187E+03  0.15184267139E+03  0.00000000000E+00 0.  1.
         -2    1    1    2    0  502  0.12161827441E+02  0.19681298940E+02  0.11858040895E+02  0.25997628902E+02  0.00000000000E+00 0.  1.
<scales pt_clust_5="13000.00000" pt_clust_6="13000.00000" pt_clust_7="13000.00000" pt_clust_8="13000.00000" pt_clust_9="23.13578"></scales>
<clustering>
<clus scale="   23.136">  2  9  1 -1</clus>
<clus scale="   82.137">  5  6 -1 -1</clus>
<clus scale="  106.187">  7  8 -1 -1</clus>
<clus scale="  107.559">  2  5  1 -1</clus>
<clus scale="   23.136">  2  5  1 -1</clus>
</clustering>
</event>
<event>
 9    2  0.1665830E-004  0.1814391E+03  0.7546771E-02  0.1168474E+00
          2   -1    0    0  502    0 -0.00000000000E+00  0.00000000000E+00  0.17218996596E+03  0.17218996596E+03  0.00000000000E+00 0. -1.
         21   -1    0    0  501  502  0.00000000000E+00 -0.00000000000E+00 -0.43786733031E+03  0.43786733031E+03  0.00000000000E+00 0.  1.
         23    2    1    2    0    0  0.64579899729E+02  0.14623748480E+03  0.76764651816E+02  0.20437708148E+03  0.10159337704E+03 0.  0.
         24    2    1    2    0    0 -0.55395628677E+02 -0.10909095137E+03 -0.15857189055E+03  0.21787063336E+03  0.85749968282E+02 0.  0.
        -13    1    4    4    0    0 -0.69195103380E+02 -0.11500564500E+03 -0.13927723165E+03  0.19342287344E+03  0.00000000000E+00 0.  1.
         14    1    4    4    0    0  0.13799474703E+02  0.59146936360E+01 -0.19294658894E+02  0.24447759912E+02  0.00000000000E+00 0. -1.
        -11    1    3    3    0    0  0.92133559748E+02  0.11924648053E+03  0.57818648798E+02  0.16140418861E+03  0.00000000000E+00 0. -1.
         11    1    3    3    0    0 -0.27553660018E+02  0.26991004263E+02  0.18946003018E+02  0.42972892873E+02  0.00000000000E+00 0.  1.
          1    1    1    2  501    0 -0.91842710519E+01 -0.37146533431E+02 -0.18387012562E+03  0.18780958143E+03  0.00000000000E+00 0. -1.
<scales pt_clust_5="13000.00000" pt_clust_6="13000.00000" pt_clust_7="13000.00000" pt_clust_8="13000.00000" pt_clust_9="38.26507"></scales>
<clustering>
<clus scale="   38.265">  2  9  1 -1</clus>
<clus scale="   85.750">  5  6 -1 -1</clus>
<clus scale="  101.593">  7  8 -1 -1</clus>
<clus scale="  173.066">  2  5  1 -1</clus>
<clus scale="   38.265">  2  5  1 -1</clus>
</clustering>
</event>
<event>
 9    2  0.1665830E-004  0.1174842E+03  0.7546771E-02  0.1251999E+00
         21   -1    0    0  501  502  0.00000000000E+00  0.00000000000E+00  0.14270867473E+03  0.14270867473E+03  0.00000000000E+00 0. -1.
          2   -1    0    0  502    0 -0.00000000000E+00 -0.00000000000E+00 -0.39807924998E+03  0.39807924998E+03  0.00000000000E+00 0. -1.
         23    2    1    2    0    0 -0.19152536159E+02  0.65530885684E+02 -0.23453523174E+03  0.26095595550E+03  0.91815680380E+02 0.  0.
         24    2    1    2    0    0  0.29375034628E+02 -0.24757494239E+02 -0.12529546523E+03  0.16723140991E+03  0.10388245605E+03 0.  0.
        -11    1    4    4    0    0  0.32490511622E+02 -0.42693950892E+02 -0.15370476828E+02  0.55809124220E+02  0.00000000000E+00 0.  1.
         12    1    4    4    0    0 -0.31154769945E+01  0.17936456654E+02 -0.10992498840E+03  0.11142228569E+03  0.00000000000E+00 0. -1.
        -11    1    3    3    0    0 -0.45948369992E+02  0.35531026222E+02 -0.67057173552E+02  0.88715111758E+02  0.00000000000E+00 0.  1.
         11    1    3    3    0    0  0.26795833834E+02  0.29999859461E+02 -0.16747805819E+03  0.17224084375E+03  0.00000000000E+00 0. -1.
          1    1    1    2  501    0 -0.10222498469E+02 -0.40773391445E+02  0.10446012171E+03  0.11260055929E+03  0.00000000000E+00 0. -1.
<scales pt_clust_5="13000.00000" pt_clust_6="13000.00000" pt_clust_7="13000.00000" pt_clust_8="13000.00000" pt_clust_9="42.03533"></scales>
<clustering>
<clus scale="   42.035">  1  9  2 -1</clus>
<clus scale="   91.816">  7  8 -1 -1</clus>
<clus scale="  103.882">  5  6 -1 -1</clus>
<clus scale="  106.963">  2  7  1 -1</clus>
<clus scale="   42.035">  1  5  2 -1</clus>
</clustering>
</event>
<event>
 9    2  0.1665830E-004  0.2301540E+03  0.7546771E-02  0.1137402E+00
         -3   -1    0    0    0  501 -0.00000000000E+00  0.00000000000E+00  0.84065477555E+03  0.84065477555E+03  0.00000000000E+00 0.  1.
         21   -1    0    0  501  502  0.00000000000E+00 -0.00000000000E+00 -0.20700042358E+03  0.20700042358E+03  0.00000000000E+00 0.  1.
         24    2    1    2    0    0 -0.13178109145E+03 -0.84923199951E+02  0.54149796061E+03  0.56950408065E+03  0.80849555256E+02 0.  0.
         23    2    1    2    0    0  0.19509206334E+02 -0.16506143818E+03  0.71588719242E+02  0.20334150324E+03  0.92719656548E+02 0.  0.
        -11    1    3    3    0    0 -0.48492840941E+02 -0.66635351450E+02  0.35493337082E+03  0.36437552526E+03  0.00000000000E+00 0.  1.
         12    1    3    3    0    0 -0.83288250513E+02 -0.18287848500E+02  0.18656458978E+03  0.20512855539E+03  0.00000000000E+00 0. -1.
        -13    1    4    4    0    0  0.12218321387E+02 -0.55447434057E+02  0.74228476204E+02  0.93453582064E+02  0.00000000000E+00 0. -1.
         13    1    4    4    0    0  0.72908849468E+01 -0.10961400412E+03 -0.26397569615E+01  0.10988792117E+03  0.00000000000E+00 0.  1.
         -4    1    1    2    0  502  0.11227188512E+03  0.24998463813E+03  0.20567672119E+02  0.27480961524E+03  0.00000000000E+00 0.  1.
<scales pt_clust_5="13000.00000" pt_clust_6="13000.00000" pt_clust_7="13000.00000" pt_clust_8="13000.00000" pt_clust_9="210.65136"></scales>
<clustering>
<clus scale="   80.850">  5  6 -1 -1</clus>
<clus scale="   92.720">  7  8 -1 -1</clus>
<clus scale="  176.394">  1  5  2 -1</clus>
<clus scale="  210.651">  2  9  1 -1</clus>
<clus scale="  210.651">  2  5  1 -1</clus>
</clustering>
</event>
<event>
 9    2  0.1665830E-004  0.9209628E+02  0.7546771E-02  0.1307530E+00
          2   -1    0    0  502    0 -0.00000000000E+00  0.00000000000E+00  0.10418516379E+04  0.10418516379E+04  0.00000000000E+00 0. -1.
         21   -1    0    0  501  502  0.00000000000E+00 -0.00000000000E+00 -0.17144271007E+02  0.17144271007E+02  0.00000000000E+00 0. -1.
         23    2    1    2    0    0 -0.37259657793E+02 -0.30244029824E+02  0.46584541927E+03  0.47675795047E+03  0.89348784197E+02 0.  0.
         24    2    1    2    0    0 -0.86170241244E+01 -0.20810161632E+02  0.16145254792E+03  0.17894472594E+03  0.73803616311E+02 0.  0.
        -11    1    4    4    0    0 -0.24336704666E+02  0.10592068206E+02  0.12701967972E+03  0.12976311548E+03  0.00000000000E+00 0.  1.
         12    1    4    4    0    0  0.15719680542E+02 -0.31402229838E+02  0.34432868201E+02  0.49181610462E+02  0.00000000000E+00 0. -1.
        -13    1    3    3    0    0  0.18674058964E+02  0.18492504673E+02  0.15265356878E+03  0.15489933915E+03  0.00000000000E+00 0.  1.
         13    1    3    3    0    0 -0.55933716757E+02 -0.48736534497E+02  0.31319185049E+03  0.32185861132E+03  0.00000000000E+00 0. -1.
          1    1    1    2  501    0  0.45876681917E+02  0.51054191456E+02  0.39740939967E+03  0.40329323246E+03  0.00000000000E+00 0. -1.
<scales pt_clust_5="13000.00000" pt_clust_6="13000.00000" pt_clust_7="13000.00000" pt_clust_8="13000.00000" pt_clust_9="68.63822"></scales>
<clustering>
<clus scale="   68.638">  2  9  1 -1</clus>
<clus scale="   73.804">  5  6 -1 -1</clus>
<clus scale="   77.107">  2  5  1 -1</clus>
<clus scale="   89.349">  7  8 -1 -1</clus>
<clus scale="   68.638">  2  5  1 -1</clus>
</clustering>
</event>
<event>
 9    2  0.1665830E-004  0.1188545E+03  0.7546771E-02  0.1248013E+00
         21   -1    0    0  501  502  0.00000000000E+00  0.00000000000E+00  0.45178065129E+03  0.45178065129E+03  0.00000000000E+00 0.  1.
         -3   -1    0    0    0  501 -0.00000000000E+00 -0.00000000000E+00 -0.56799146690E+02  0.56799146690E+02  0.00000000000E+00 0.  1.
         23    2    1    2    0    0 -0.38382112383E+02  0.48973752129E+02  0.11074336774E+03  0.15729538269E+03  0.92769224256E+02 0.  0.
         24    2    1    2    0    0  0.10377981879E+03 -0.23813409958E+02  0.20288907620E+03  0.24391788190E+03  0.83633884193E+02 0.  0.
        -11    1    4    4    0    0  0.11554016731E+03 -0.30573253918E+02  0.19345051788E+03  0.22739251743E+03  0.00000000000E+00 0.  1.
         12    1    4    4    0    0 -0.11760348514E+02  0.67598439607E+01  0.94385583274E+01  0.16525364470E+02  0.00000000000E+00 0. -1.
        -11    1    3    3    0    0 -0.68279485083E+02  0.44390886466E+02  0.79553634772E+02  0.11384823095E+03  0.00000000000E+00 0.  1.
         11    1    3    3    0    0  0.29897372700E+02  0.45828656631E+01  0.31189732969E+02  0.43447151744E+02  0.00000000000E+00 0. -1.
         -4    1    1    2    0  502 -0.65397706410E+02 -0.25160342171E+02  0.81349060652E+02  0.10736653338E+03  0.00000000000E+00 0.  1.
<scales pt_clust_5="13000.00000" pt_clust_6="13000.00000" pt_clust_7="13000.00000" pt_clust_8="13000.00000" pt_clust_9="70.07073"></scales>
<clustering>
<clus scale="   70.071">  1  9  2 -1</clus>
<clus scale="   83.634">  5  6 -1 -1</clus>
<clus scale="   92.769">  7  8 -1 -1</clus>
<clus scale="  111.870">  1  5  2 -1</clus>
<clus scale="   70.071">  1  5  2 -1</clus>
</clustering>
</event>
<event>
 9    2  0.1665830E-004  0.9497818E+02  0.7546771E-02  0.1296977E+00
          4   -1    0    0  502    0 -0.00000000000E+00  0.00000000000E+00  0.51626363699E+02  0.51626363699E+02  0.00000000000E+00 0. -1.
         21   -1    0    0  501  502  0.00000000000E+00 -0.00000000000E+00 -0.50920824413E+03  0.50920824413E+03  0.00000000000E+00 0. -1.
         24    2    1    2    0    0 -0.22051976791E+01  0.61493179906E+01 -0.46178955977E+02  0.93405696062E+02  0.80928678929E+02 0.  0.
         23    2    1    2    0    0 -0.11624875533E+02 -0.63807813749E+02 -0.98584977392E+02  0.14904103344E+03  0.91036569885E+02 0.  0.
        -11    1    3    3    0    0 -0.41324422901E+02  0.46280212618E+01 -0.28741810781E+02  0.50549166125E+02  0.00000000000E+00 0.  1.
         12    1    3    3    0    0  0.39119225222E+02  0.15212967288E+01 -0.17437145196E+02  0.42856529938E+02  0.00000000000E+00 0. -1.
        -11    1    4    4    0    0 -0.26926469265E+02 -0.71426216279E+01  0.65628482717E+01  0.28620320897E+02  0.00000000000E+00 0.  1.
         11    1    4    4    0    0  0.15301593732E+02 -0.56665192121E+02 -0.10514782566E+03  0.12042071255E+03  0.00000000000E+00 0. -1.
          3    1    1    2  501    0  0.13830073212E+02  0.57658495759E+02 -0.31281794706E+03  0.31838787832E+03  0.00000000000E+00 0. -1.
<scales pt_clust_5="13000.00000" pt_clust_6="13000.00000" pt_clust_7="13000.00000" pt_clust_8="13000.00000" pt_clust_9="59.29395"></scales>
<clustering>
<clus scale="   59.294">  2  9  1 -1</clus>
<clus scale="   80.929">  5  6 -1 -1</clus>
<clus scale="   85.338">  1  5  2 -1</clus>
<clus scale="   91.037">  7  8 -1 -1</clus>
<clus scale="   59.294">  2  5  1 -1</clus>
</clustering>
</event>
<event>
 9    2  0.9958046E-004  0.3893809E+03  0.7546771E-02  0.1047876E+00
         21   -1    0    0  501  502  0.00000000000E+00  0.00000000000E+00  0.64795350898E+02  0.64795350898E+02  0.00000000000E+00 0. -1.
          2   -1    0    0  502    0 -0.00000000000E+00 -0.00000000000E+00 -0.38777965006E+04  0.38777965006E+04  0.00000000000E+00 0. -1.
         24    2    1    2    0    0 -0.17191686797E+03 -0.34619592230E+03 -0.26935588560E+04  0.27223296007E+04  0.80075703391E+02 0.  0.
         23    2    1    2    0    0  0.20912581605E+03  0.28075548751E+03 -0.64864680824E+03  0.74348625989E+03  0.97323615335E+02 0.  0.
        -13    1    3    3    0    0  0.31782323639E+01 -0.21943576105E+02 -0.83879281276E+02  0.86760333797E+02  0.00000000000E+00 0.  1.
         14    1    3    3    0    0 -0.17509510033E+03 -0.32425234620E+03 -0.26096795747E+04  0.26355692669E+04  0.00000000000E+00 0. -1.
        -13    1    4    4    0    0  0.40713903201E+02  0.77174574420E+02 -0.25392783717E+03  0.26850117940E+03  0.00000000000E+00 0.  1.
         13    1    4    4    0    0  0.16841191285E+03  0.20358091309E+03 -0.39471897107E+03  0.47498508049E+03  0.00000000000E+00 0. -1.
          1    1    1    2  501    0 -0.37208948086E+02  0.65440434788E+02 -0.47079548546E+03  0.47677599085E+03  0.00000000000E+00 0. -1.
<scales pt_clust_5="13000.00000" pt_clust_6="13000.00000" pt_clust_7="13000.00000" pt_clust_8="13000.00000" pt_clust_9="75.27923"></scales>
<clustering>
<clus scale="   75.279">  1  9  2 -1</clus>
<clus scale="   80.076">  5  6 -1 -1</clus>
<clus scale="   97.324">  7  8 -1 -1</clus>
<clus scale="  385.432">  2  5  1 -1</clus>
<clus scale="   75.279">  1  5  2 -1</clus>
</clustering>
</event>
<event>
 9    2  0.1665830E-004  0.1092570E+03  0.7546771E-02  0.1263912E+00
         21   -1    0    0  501  502  0.00000000000E+00  0.00000000000E+00  0.18191646347E+03  0.18191646347E+03  0.00000000000E+00 0. -1.
         -1   -1    0    0    0  501 -0.00000000000E+00 -0.00000000000E+00 -0.38532467904E+03  0.38532467904E+03  0.00000000000E+00 0.  1.
         24    2    1    2    0    0  0.74161521870E+02  0.74195134611E+01 -0.16076923295E+02  0.11340601825E+03  0.83949252570E+02 0.  0.
         23    2    1    2    0    0 -0.24515773647E+02 -0.47116382412E+02  0.10919317766E+03  0.15057401071E+03  0.89041597056E+02 0.  0.
        -13    1    3    3    0    0  0.25349265541E+02 -0.20074884954E+01 -0.48003691956E+02  0.54322828672E+02  0.00000000000E+00 0.  1.
         14    1    3    3    0    0  0.48812256330E+02  0.94270019565E+01  0.31926768661E+02  0.59083189580E+02  0.00000000000E+00 0. -1.
        -11    1    4    4    0    0 -0.57113871931E+02 -0.40796983250E+02  0.79238641513E+02  0.10585438356E+03  0.00000000000E+00 0. -1.
         11    1    4    4    0    0  0.32598098284E+02 -0.63193991620E+01  0.29954536146E+02  0.44719627159E+02  0.00000000000E+00 0.  1.
         -2    1    1    2    0  502 -0.49645748223E+02  0.39696868951E+02 -0.29652446993E+03  0.30326111354E+03  0.00000000000E+00 0.  1.
<scales pt_clust_5="13000.00000" pt_clust_6="13000.00000" pt_clust_7="13000.00000" pt_clust_8="13000.00000" pt_clust_9="63.56529"></scales>
<clustering>
<clus scale="   63.565">  1  9  2 -1</clus>
<clus scale="   83.949">  5  6 -1 -1</clus>
<clus scale="   89.042">  7  8 -1 -1</clus>
<clus scale="  105.148">  2  5  1 -1</clus>
<clus scale="   63.565">  1  5  2 -1</clus>
</clustering>
</event>
<event>
 9    2  0.1665830E-004  0.4143760E+03  0.7546771E-02  0.1085228E+00
          2   -1    0    0  502    0 -0.00000000000E+00  0.00000000000E+00  0.57273212602E+03  0.57273212602E+03  0.00000000000E+00 0. -1.
         21   -1    0    0  501  502  0.00000000000E+00 -0.00000000000E+00 -0.43587114606E+03  0.43587114606E+03  0.00000000000E+00 0. -1.
         23    2    1    2    0    0  0.45737137299E+02 -0.48736013111E+02 -0.53536438076E+02  0.12583745726E+03  0.92205372651E+02 0.  0.
         24    2    1    2    0    0  0.23764516681E+03 -0.27270861437E+03  0.25310565152E+03  0.44967863957E+03  0.85458729181E+02 0.  0.
        -13    1    4    4    0    0  0.38919655715E+02 -0.65154090756E+02  0.95366784510E+02  0.12187952548E+03  0.00000000000E+00 0.  1.
         14    1    4    4    0    0  0.19872551109E+03 -0.20755452362E+03  0.15773886701E+03  0.32779911409E+03  0.00000000000E+00 0. -1.
        -11    1    3    3    0    0  0.14854542478E+02 -0.66411779269E+02 -0.58712669241E+02  0.89879693965E+02  0.00000000000E+00 0.  1.
         11    1    3    3    0    0  0.30882594821E+02  0.17675766158E+02  0.51762311650E+01  0.35957763296E+02  0.00000000000E+00 0. -1.
          1    1    1    2  501    0 -0.28338230411E+03  0.32144462748E+03 -0.62708233486E+02  0.43308717525E+03  0.00000000000E+00 0. -1.
<scales pt_clust_5="13000.00000" pt_clust_6="13000.00000" pt_clust_7="13000.00000" pt_clust_8="13000.00000" pt_clust_9="405.46798"></scales>
<clustering>
<clus scale="   85.459">  5  6 -1 -1</clus>
<clus scale="   92.205">  7  8 -1 -1</clus>
<clus scale="  113.881">  1  7  2 -1</clus>
<clus scale="  405.468">  2  9  1 -1</clus>
<clus scale="  405.468">  2  5  1 -1</clus>
</clustering>
</event>
<event>
 9    2  0.1665830E-004  0.9628659E+02  0.7546771E-02  0.1294230E+00
         21   -1    0    0  501  502  0.00000000000E+00  0.00000000000E+00  0.94019812567E+02  0.94019812567E+02  0.00000000000E+00 0. -1.
         -1   -1    0    0    0  501 -0.00000000000E+00 -0.00000000000E+00 -0.22660748816E+03  0.22660748816E+03  0.00000000000E+00 0.  1.
         24    2    1    2    0    0 -0.25267454547E+02  0.19483722900E+02 -0.17315560122E+03  0.19371781661E+03  0.80781622428E+02 0.  0.
         23    2    1    2    0    0  0.22343258621E+02  0.25475028323E+01  0.44760868008E+02  0.10429297256E+03  0.91475558723E+02 0.  0.
        -11    1    3    3    0    0  0.26530034175E+02  0.13347909277E+02 -0.96752813648E+02  0.10120828199E+03  0.00000000000E+00 0.  1.
         12    1    3    3    0    0 -0.51797488722E+02  0.61358136228E+01 -0.76402787574E+02  0.92509534621E+02  0.00000000000E+00 0. -1.
        -11    1    4    4    0    0  0.24918165936E+02  0.25686296296E+02 -0.16017614048E+02  0.39207968205E+02  0.00000000000E+00 0.  1.
         11    1    4    4    0    0 -0.25749073149E+01 -0.23138793464E+02  0.60778482056E+02  0.65085004353E+02  0.00000000000E+00 0. -1.
         -2    1    1    2    0  502  0.29241959260E+01 -0.22031225732E+02 -0.41929423782E+01  0.22616511553E+02  0.00000000000E+00 0.  1.
<scales pt_clust_5="13000.00000" pt_clust_6="13000.00000" pt_clust_7="13000.00000" pt_clust_8="13000.00000" pt_clust_9="22.22444"></scales>
<clustering>
<clus scale="   22.224">  1  9  2 -1</clus>
<clus scale="   80.782">  5  6 -1 -1</clus>
<clus scale="   86.192">  2  5  1 -1</clus>
<clus scale="   91.476">  7  8 -1 -1</clus>
<clus scale="   22.224">  1  5  2 -1</clus>
</clustering>
</event>
<event>
 9    2  0.1665830E-004  0.9430178E+02  0.7546771E-02  0.1299646E+00
         21   -1    0    0  501  502  0.00000000000E+00  0.00000000000E+00  0.34090238773E+03  0.34090238773E+03  0.00000000000E+00 0.  1.
         -1   -1    0    0    0  501 -0.00000000000E+00 -0.00000000000E+00 -0.46469313736E+03  0.46469313736E+03  0.00000000000E+00 0.  1.
         24    2    1    2    0    0 -0.26036627555E+01  0.16640178361E+02 -0.37225707430E+03  0.38114928906E+03  0.80098542997E+02 0.  0.
         23    2    1    2    0    0  0.13146249530E+02 -0.58434048868E+02 -0.51724190755E+02  0.12117701686E+03  0.91766636435E+02 0.  0.
        -11    1    3    3    0    0 -0.39031953212E+02 -0.51784123349E+01 -0.17563197494E+03  0.17999138853E+03  0.00000000000E+00 0.  1.
         12    1    3    3    0    0  0.36428290456E+02  0.21818590696E+02 -0.19662509936E+03  0.20115790053E+03  0.00000000000E+00 0. -1.
        -13    1    4    4    0    0 -0.34723078159E+02 -0.48191042813E+02 -0.37320339938E+02  0.70148959631E+02  0.00000000000E+00 0.  1.
         13    1    4    4    0    0  0.47869327689E+02 -0.10243006054E+02 -0.14403850817E+02  0.51028057231E+02  0.00000000000E+00 0. -1.
         -2    1    1    2    0  502 -0.10542586774E+02  0.41793870507E+02  0.30019051542E+03  0.30326921917E+03  0.00000000000E+00 0.  1.
<scales pt_clust_5="13000.00000" pt_clust_6="13000.00000" pt_clust_7="13000.00000" pt_clust_8="13000.00000" pt_clust_9="43.10306"></scales>
<clustering>
<clus scale="   43.103">  1  9  2 -1</clus>
<clus scale="   80.099">  5  6 -1 -1</clus>
<clus scale="   82.991">  2  5  1 -1</clus>
<clus scale="   91.767">  7  8 -1 -1</clus>
<clus scale="   43.103">  1  5  2 -1</clus>
</clustering>
</event>
<event>
 9    2  0.1665830E-004  0.1547204E+03  0.7546771E-02  0.1212977E+00
         21   -1    0    0  501  502  0.00000000000E+00  0.00000000000E+00  0.10596469736E+03  0.10596469736E+03  0.00000000000E+00 0.  1.
          2   -1    0    0  502    0 -0.00000000000E+00 -0.00000000000E+00 -0.66208015619E+03  0.66208015619E+03  0.00000000000E+00 0. -1.
         23    2    1    2    0    0  0.81356759588E+01  0.45696985014E+02 -0.16717242241E+03  0.19714640324E+03  0.93625220082E+02 0.  0.
         24    2    1    2    0    0  0.91987230632E+02 -0.10568800243E+03  0.62703605074E+01  0.15880968839E+03  0.74495605562E+02 0.  0.
        -13    1    4    4    0    0  0.84028261223E+02 -0.41329137579E+02  0.75694643406E+01  0.93947554985E+02  0.00000000000E+00 0.  1.
         14    1    4    4    0    0  0.79589694089E+01 -0.64358864848E+02 -0.12991038332E+01  0.64862133401E+02  0.00000000000E+00 0. -1.
        -11    1    3    3    0    0 -0.22307239159E+02  0.64538911525E+02 -0.11777579162E+03  0.13613971174E+03  0.00000000000E+00 0. -1.
         11    1    3    3    0    0  0.30442915118E+02 -0.18841926511E+02 -0.49396630783E+02  0.61006691504E+02  0.00000000000E+00 0.  1.
          1    1    1    2  501    0 -0.10012290659E+03  0.59991017413E+02 -0.39521339692E+03  0.41208876192E+03  0.00000000000E+00 0. -1.
<scales pt_clust_5="13000.00000" pt_clust_6="13000.00000" pt_clust_7="13000.00000" pt_clust_8="13000.00000" pt_clust_9="135.60546"></scales>
<clustering>
<clus scale="   74.496">  5  6 -1 -1</clus>
<clus scale="   93.625">  7  8 -1 -1</clus>
<clus scale="  104.499">  2  7  1 -1</clus>
<clus scale="  135.605">  1  9  2 -1</clus>
<clus scale="  135.605">  1  5  2 -1</clus>
</clustering>
</event>
<event>
 9    2  0.1665830E-004  0.1092878E+03  0.7546771E-02  0.1266495E+00
         21   -1    0    0  501  502  0.00000000000E+00  0.00000000000E+00  0.10414737339E+03  0.10414737339E+03  0.00000000000E+00 0. -1.
          4   -1    0    0  502    0 -0.00000000000E+00 -0.00000000000E+00 -0.39450406810E+03  0.39450406810E+03  0.00000000000E+00 0. -1.
         23    2    1    2    0    0 -0.40209019927E+02  0.48377151217E+02 -0.33745235823E+03  0.35546099173E+03  0.92310933923E+02 0.  0.
         24    2    1    2    0    0  0.10869143528E+02 -0.36857670407E+02  0.39018230066E+01  0.89718638078E+02  0.80978908655E+02 0.  0.
        -11    1    4    4    0    0 -0.13771836141E+02 -0.29052351017E+02  0.36157301600E+02  0.48384429616E+02  0.00000000000E+00 0.  1.
         12    1    4    4    0    0  0.24640979669E+02 -0.78053193900E+01 -0.32255478593E+02  0.41334208461E+02  0.00000000000E+00 0. -1.
        -11    1    3    3    0    0 -0.61078107082E+02  0.16427233346E+02 -0.13049856802E+03  0.14501815547E+03  0.00000000000E+00 0.  1.
         11    1    3    3    0    0  0.20869087155E+02  0.31949917871E+02 -0.20695379021E+03  0.21044283626E+03  0.00000000000E+00 0. -1.
          3    1    1    2  501    0  0.29339876399E+02 -0.11519480810E+02  0.43193840519E+02  0.53471811677E+02  0.00000000000E+00 0. -1.
<scales pt_clust_5="13000.00000" pt_clust_6="13000.00000" pt_clust_7="13000.00000" pt_clust_8="13000.00000" pt_clust_9="31.52026"></scales>
<clustering>
<clus scale="   31.520">  1  9  2 -1</clus>
<clus scale="   80.979">  5  6 -1 -1</clus>
<clus scale="   92.311">  7  8 -1 -1</clus>
<clus scale="   99.900">  1  5  2 -1</clus>
<clus scale="   31.520">  1  5  2 -1</clus>
</clustering>
</event>
<event>
 9    2  0.1665830E-004  0.3391824E+03  0.7546771E-02  0.1067640E+00
         -1   -1    0    0    0  501 -0.00000000000E+00  0.00000000000E+00  0.29722031588E+03  0.29722031588E+03  0.00000000000E+00 0.  1.
         21   -1    0    0  501  502  0.00000000000E+00 -0.00000000000E+00 -0.10293530769E+04  0.10293530769E+04  0.00000000000E+00 0. -1.
         23    2    1    2    0    0 -0.43313278482E+02  0.32008005494E+03  0.14701389105E+03  0.36846473189E+03  0.99125641575E+02 0.  0.
         24    2    1    2    0    0  0.14421827314E+02 -0.33600664260E+03 -0.82531548739E+03  0.89497256634E+03  0.81986509830E+02 0.  0.
        -11    1    4    4    0    0  0.11369012621E+02 -0.15020250503E+03 -0.47654060568E+03  0.49978094784E+03  0.00000000000E+00 0.  1.
         12    1    4    4    0    0  0.30528146927E+01 -0.18580413757E+03 -0.34877488171E+03  0.39519161849E+03  0.00000000000E+00 0. -1.
        -13    1    3    3    0    0 -0.21814914833E+02  0.31457352756E+03  0.14135164814E+03  0.34556140291E+03  0.00000000000E+00 0.  1.
         13    1    3    3    0    0 -0.21498363649E+02  0.55065273852E+01  0.56622429066E+01  0.22903328975E+02  0.00000000000E+00 0. -1.
         -2    1    1    2    0  502  0.28891451168E+02  0.15926587655E+02 -0.53831164730E+02  0.63136094598E+02  0.00000000000E+00 0.  1.
<scales pt_clust_5="13000.00000" pt_clust_6="13000.00000" pt_clust_7="13000.00000" pt_clust_8="13000.00000" pt_clust_9="32.99049"></scales>
<clustering>
<clus scale="   32.990">  2  9  1 -1</clus>
<clus scale="   81.987">  5  6 -1 -1</clus>
<clus scale="   99.126">  7  8 -1 -1</clus>
<clus scale="  334.575">  2  5  1 -1</clus>
<clus scale="   32.990">  2  5  1 -1</clus>
</clustering>
</event>
<event>
 9    2  0.1665830E-004  0.1255343E+03  0.7546771E-02  0.1258923E+00
          2   -1    0    0  502    0 -0.00000000000E+00  0.00000000000E+00  0.74000344195E+02  0.74000344195E+02  0.00000000000E+00 0. -1.
         21   -1    0    0  501  502  0.00000000000E+00 -0.00000000000E+00 -0.34145545011E+03  0.34145545011E+03  0.00000000000E+00 0. -1.
         24    2    1    2    0    0  0.17894610660E+02 -0.41247962222E+02 -0.80710621767E+01  0.76869916838E+02  0.61824190993E+02 0.  0.
         23    2    1    2    0    0 -0.13130831095E+02 -0.63507115521E+02 -0.13280051369E+03  0.17420914558E+03  0.92234904010E+02 0.  0.
        -11    1    3    3    0    0 -0.13697769751E+02 -0.42653260034E+02 -0.56521824370E+01  0.45153921801E+02  0.00000000000E+00 0.  1.
         12    1    3    3    0    0  0.31592380412E+02  0.14052978123E+01 -0.24188797397E+01  0.31715995037E+02  0.00000000000E+00 0. -1.
        -13    1    4    4    0    0  0.27680316966E+02  0.19091691208E+01 -0.68173687527E+02  0.73603644917E+02  0.00000000000E+00 0.  1.
         13    1    4    4    0    0 -0.40811148060E+02 -0.65416284642E+02 -0.64626826166E+02  0.10060550066E+03  0.00000000000E+00 0. -1.
          1    1    1    2  501    0 -0.47637795654E+01  0.10475507774E+03 -0.12658353005E+03  0.16437673190E+03  0.00000000000E+00 0. -1.
<scales pt_clust_5="13000.00000" pt_clust_6="13000.00000" pt_clust_7="13000.00000" pt_clust_8="13000.00000" pt_clust_9="85.15631"></scales>
<clustering>
<clus scale="   61.824">  5  6 -1 -1</clus>
<clus scale="   76.445">  1  5  2 -1</clus>
<clus scale="   85.156">  2  9  1 -1</clus>
<clus scale="   92.235">  7  8 -1 -1</clus>
<clus scale="   85.156">  2  5  1 -1</clus>
</clustering>
</event>
<event>
 9    2  0.1665830E-004  0.9805240E+02  0.7546771E-02  0.1290704E+00
         21   -1    0    0  501  502  0.00000000000E+00  0.00000000000E+00  0.37311190513E+02  0.37311190513E+02  0.00000000000E+00 0. -1.
          2   -1    0    0  502    0 -0.00000000000E+00 -0.00000000000E+00 -0.94873014943E+03  0.94873014943E+03  0.00000000000E+00 0. -1.
         24    2    1    2    0    0 -0.32429000924E+02  0.15611161437E+02 -0.71571042745E+03  0.72111656928E+03  0.80450867416E+02 0.  0.
         23    2    1    2    0    0  0.35115036695E+02  0.47744582687E+02 -0.15413403729E+03  0.18909862960E+03  0.92132400869E+02 0.  0.
        -13    1    3    3    0    0 -0.32883965396E+02 -0.14527063609E+02 -0.13752817575E+03  0.14214918179E+03  0.00000000000E+00 0.  1.
         14    1    3    3    0    0  0.45496447171E+00  0.30138225046E+02 -0.57818225170E+03  0.57896738750E+03  0.00000000000E+00 0. -1.
        -11    1    4    4    0    0  0.62077481527E+02  0.40476068724E+02 -0.13853787878E+03  0.15711355673E+03  0.00000000000E+00 0.  1.
         11    1    4    4    0    0 -0.26962444832E+02  0.72685139628E+01 -0.15596158510E+02  0.31985072875E+02  0.00000000000E+00 0. -1.
          1    1    1    2  501    0 -0.26860357702E+01 -0.63355744124E+02 -0.41574494183E+02  0.75826141061E+02  0.00000000000E+00 0. -1.
<scales pt_clust_5="13000.00000" pt_clust_6="13000.00000" pt_clust_7="13000.00000" pt_clust_8="13000.00000" pt_clust_9="63.41266"></scales>
<clustering>
<clus scale="   63.413">  1  9  2 -1</clus>
<clus scale="   80.451">  5  6 -1 -1</clus>
<clus scale="   87.168">  2  5  1 -1</clus>
<clus scale="   92.132">  7  8 -1 -1</clus>
<clus scale="   63.413">  1  5  2 -1</clus>
</clustering>
</event>
<event>
 9    2  0.1665830E-004  0.3477975E+03  0.7546771E-02  0.1086439E+00
         21   -1    0    0  501  502  0.00000000000E+00  0.00000000000E+00  0.32892066147E+03  0.32892066147E+03  0.00000000000E+00 0.  1.
          2   -1    0    0  502    0 -0.00000000000E+00 -0.00000000000E+00 -0.74316500795E+03  0.74316500795E+03  0.00000000000E+00 0. -1.
         24    2    1    2    0    0  0.11185459085E+03 -0.12620590177E+03 -0.16278952083E+03  0.24754041057E+03  0.79601806759E+02 0.  0.
         23    2    1    2    0    0  0.28342370384E+03  0.15151802237E+03  0.34577246231E+02  0.33597593946E+03  0.91638086723E+02 0.  0.
        -11    1    3    3    0    0  0.34518754919E+02 -0.97205665563E+02 -0.10124802173E+03  0.14453943325E+03  0.00000000000E+00 0.  1.
         12    1    3    3    0    0  0.77335835927E+02 -0.29000236206E+02 -0.61541499092E+02  0.10300097732E+03  0.00000000000E+00 0. -1.
        -11    1    4    4    0    0  0.11649077489E+03  0.83579372927E+02 -0.26258345332E+02  0.14575703384E+03  0.00000000000E+00 0. -1.
         11    1    4    4    0    0  0.16693292895E+03  0.67938649445E+02  0.60835591563E+02  0.19021890562E+03  0.00000000000E+00 0.  1.
          1    1    1    2  501    0 -0.39527829468E+03 -0.25312120601E+02 -0.28603207188E+03  0.48856931938E+03  0.00000000000E+00 0. -1.
<scales pt_clust_5="13000.00000" pt_clust_6="13000.00000" pt_clust_7="13000.00000" pt_clust_8="13000.00000" pt_clust_9="335.50808"></scales>
<clustering>
<clus scale="   79.602">  5  6 -1 -1</clus>
<clus scale="   91.638">  7  8 -1 -1</clus>
<clus scale="  186.483">  2  5  1 -1</clus>
<clus scale="  335.508">  1  9  2 -1</clus>
<clus scale="  335.508">  1  5  2 -1</clus>
</clustering>
</event>
<event>
 9    2  0.1665830E-004  0.2844093E+03  0.7546771E-02  0.1115503E+00
          2   -1    0    0  502    0 -0.00000000000E+00  0.00000000000E+00  0.83518153871E+03  0.83518153871E+03  0.00000000000E+00 0. -1.
         21   -1    0    0  501  502  0.00000000000E+00 -0.00000000000E+00 -0.37829763350E+03  0.37829763350E+03  0.00000000000E+00 0. -1.
         23    2    1    2    0    0  0.31624008588E+02 -0.12992416190E+03  0.50715077058E+02  0.16843924273E+03  0.88990975298E+02 0.  0.
         24    2    1    2    0    0 -0.37297193053E+02 -0.25765902885E+03 -0.19107763890E+03  0.33303132196E+03  0.81363023319E+02 0.  0.
        -11    1    4    4    0    0 -0.76996500118E+01 -0.13571871777E+03 -0.51560796930E+02  0.14538696896E+03  0.00000000000E+00 0.  1.
         12    1    4    4    0    0 -0.29597543041E+02 -0.12194031108E+03 -0.13951684197E+03  0.18764435300E+03  0.00000000000E+00 0. -1.
        -11    1    3    3    0    0  0.27519772816E+02  0.27041030566E+01  0.12557384054E+02  0.30370017508E+02  0.00000000000E+00 0.  1.
         11    1    3    3    0    0  0.41042357719E+01 -0.13262826496E+03  0.38157693004E+02  0.13806922522E+03  0.00000000000E+00 0. -1.
          1    1    1    2  501    0  0.56731844652E+01  0.38758319075E+03  0.59724646705E+03  0.71200860752E+03  0.00000000000E+00 0. -1.
<scales pt_clust_5="13000.00000" pt_clust_6="13000.00000" pt_clust_7="13000.00000" pt_clust_8="13000.00000" pt_clust_9="272.52297"></scales>
<clustering>
<clus scale="   81.363">  5  6 -1 -1</clus>
<clus scale="   88.991">  7  8 -1 -1</clus>
<clus scale="  160.623">  1  7  2 -1</clus>
<clus scale="  272.523">  2  9  1 -1</clus>
<clus scale="  272.523">  2  5  1 -1</clus>
</clustering>
</event>
<event>
 9    2  0.1665830E-004  0.1066640E+03  0.7546771E-02  0.1277228E+00
          2   -1    0    0  502    0 -0.00000000000E+00  0.00000000000E+00  0.10068186717E+04  0.10068186717E+04  0.00000000000E+00 0. -1.
         21   -1    0    0  501  502  0.00000000000E+00 -0.00000000000E+00 -0.20918051369E+02  0.20918051369E+02  0.00000000000E+00 0. -1.
         24    2    1    2    0    0 -0.30170103123E+02  0.62585525499E+01  0.37153656172E+03  0.38028091924E+03  0.74998374918E+02 0.  0.
         23    2    1    2    0    0  0.87806761707E+02  0.24041418892E+02  0.33035253495E+03  0.35607526526E+03  0.96792458182E+02 0.  0.
        -13    1    3    3    0    0 -0.95414244191E+01  0.40218414884E+02  0.19272833560E+03  0.19711106265E+03  0.00000000000E+00 0.  1.
         14    1    3    3    0    0 -0.20628678704E+02 -0.33959862335E+02  0.17880822611E+03  0.18316985658E+03  0.00000000000E+00 0. -1.
        -13    1    4    4    0    0  0.27789509568E+02  0.56332278773E+02  0.18870842270E+03  0.19888803703E+03  0.00000000000E+00 0. -1.
         13    1    4    4    0    0  0.60017252138E+02 -0.32290859882E+02  0.14164411225E+03  0.15718722824E+03  0.00000000000E+00 0.  1.
          1    1    1    2  501    0 -0.57636658583E+02 -0.30299971442E+02  0.28401152364E+03  0.29138053855E+03  0.00000000000E+00 0. -1.
<scales pt_clust_5="13000.00000" pt_clust_6="13000.00000" pt_clust_7="13000.00000" pt_clust_8="13000.00000" pt_clust_9="65.11587"></scales>
<clustering>
<clus scale="   65.116">  2  9  1 -1</clus>
<clus scale="   74.998">  5  6 -1 -1</clus>
<clus scale="   87.368">  1  5  2 -1</clus>
<clus scale="   96.792">  7  8 -1 -1</clus>
<clus scale="   65.116">  2  5  1 -1</clus>
</clustering>
</event>
<event>
 9    2  0.1665830E-004  0.1366424E+03  0.7546771E-02  0.1219688E+00
         -1   -1    0    0    0  501 -0.00000000000E+00  0.00000000000E+00  0.24157179120E+03  0.24157179120E+03  0.00000000000E+00 0.  1.
         21   -1    0    0  501  502  0.00000000000E+00 -0.00000000000E+00 -0.31321687280E+03  0.31321687280E+03  0.00000000000E+00 0. -1.
         23    2    1    2    0    0 -0.62888251615E+02  0.97945976919E+02  0.18772810276E+03  0.23822401513E+03  0.89221601841E+02 0.  0.
         24    2    1    2    0    0  0.87996743919E+01 -0.51052188856E+02 -0.86938460974E+02  0.12986077806E+03  0.81374230714E+02 0.  0.
        -11    1    4    4    0    0 -0.17878720066E+02 -0.37160493392E+02 -0.37574678776E+01  0.41408567534E+02  0.00000000000E+00 0.  1.
         12    1    4    4    0    0  0.26678394458E+02 -0.13891695464E+02 -0.83180993096E+02  0.88452210522E+02  0.00000000000E+00 0. -1.
        -11    1    3    3    0    0 -0.58585336800E+01  0.71936696027E+02  0.52732991066E+02  0.89386682447E+02  0.00000000000E+00 0. -1.
         11    1    3    3    0    0 -0.57029717935E+02  0.26009280892E+02  0.13499511169E+03  0.14883733269E+03  0.00000000000E+00 0.  1.
         -2    1    1    2    0  502  0.54088577223E+02 -0.46893788063E+02 -0.17243472338E+03  0.18670387080E+03  0.00000000000E+00 0.  1.
<scales pt_clust_5="13000.00000" pt_clust_6="13000.00000" pt_clust_7="13000.00000" pt_clust_8="13000.00000" pt_clust_9="71.58632"></scales>
<clustering>
<clus scale="   71.586">  2  9  1 -1</clus>
<clus scale="   81.374">  5  6 -1 -1</clus>
<clus scale="   89.222">  7  8 -1 -1</clus>
<clus scale="  131.653">  2  5  1 -1</clus>
<clus scale="   71.586">  2  5  1 -1</clus>
</clustering>
</event>
<event>
 9    2  0.1665830E-004  0.1196452E+03  0.7546771E-02  0.1248212E+00
          2   -1    0    0  502    0 -0.00000000000E+00  0.00000000000E+00  0.13848942452E+04  0.13848942452E+04  0.00000000000E+00 0. -1.
         21   -1    0    0  501  502  0.00000000000E+00 -0.00000000000E+00 -0.39691694656E+02  0.39691694656E+02  0.00000000000E+00 0.  1.
         24    2    1    2    0    0  0.73176554626E+02  0.10822199352E+02  0.12119534142E+04  0.12167997859E+04  0.79364428572E+02 0.  0.
         23    2    1    2    0    0 -0.90370738781E+02  0.11726080239E+02  0.11675688128E+03  0.17498281025E+03  0.93179628522E+02 0.  0.
        -11    1    3    3    0    0  0.30521752928E+02 -0.19647540015E+02  0.18604448837E+03  0.18955251220E+03  0.00000000000E+00 0.  1.
         12    1    3    3    0    0  0.42654801697E+02  0.30469739367E+02  0.10259089259E+04  0.10272472737E+04  0.00000000000E+00 0. -1.
        -13    1    4    4    0    0 -0.47197371788E+02 -0.38504515590E+02  0.75266864822E+02  0.96826084113E+02  0.00000000000E+00 0. -1.
         13    1    4    4    0    0 -0.43173366994E+02  0.50230595829E+02  0.41490016454E+02  0.78156726135E+02  0.00000000000E+00 0.  1.
          1    1    1    2  501    0  0.17194184155E+02 -0.22548279591E+02  0.16492254984E+02  0.32803343667E+02  0.00000000000E+00 0. -1.
<scales pt_clust_5="13000.00000" pt_clust_6="13000.00000" pt_clust_7="13000.00000" pt_clust_8="13000.00000" pt_clust_9="28.35604"></scales>
<clustering>
<clus scale="   28.356">  2  9  1 -1</clus>
<clus scale="   79.364">  5  6 -1 -1</clus>
<clus scale="   93.180">  7  8 -1 -1</clus>
<clus scale="  109.230">  1  5  2 -1</clus>
<clus scale="   28.356">  2  5  1 -1</clus>
</clustering>
</event>
<event>
 9    2  0.1665830E-004  0.1573640E+03  0.7546771E-02  0.1205676E+00
         21   -1    0    0  501  502  0.00000000000E+00  0.00000000000E+00  0.27673897500E+02  0.27673897500E+02  0.00000000000E+00 0. -1.
          2   -1    0    0  502    0 -0.00000000000E+00 -0.00000000000E+00 -0.21119811624E+04  0.21119811624E+04  0.00000000000E+00 0. -1.
         23    2    1    2    0    0 -0.29213773139E+02  0.57790946952E+02 -0.46958976355E+03  0.48372891774E+03  0.96363279999E+02 0.  0.
         24    2    1    2    0    0 -0.62467071255E+02 -0.15210509959E+03 -0.13278184412E+04  0.13403130763E+04  0.79367710457E+02 0.  0.
        -11    1    4    4    0    0  0.16115072805E+01 -0.42513999337E+02 -0.15804579642E+03  0.16367196113E+03  0.00000000000E+00 0.  1.
         12    1    4    4    0    0 -0.64078578536E+02 -0.10959110025E+03 -0.11697726448E+04  0.11766411152E+04  0.00000000000E+00 0. -1.
        -11    1    3    3    0    0  0.35419093545E+02  0.23996011956E+02 -0.19295812071E+03  0.19764401616E+03  0.00000000000E+00 0.  1.
         11    1    3    3    0    0 -0.64632866684E+02  0.33794934996E+02 -0.27663164285E+03  0.28608490158E+03  0.00000000000E+00 0. -1.
          1    1    1    2  501    0  0.91680844395E+02  0.94314152638E+02 -0.28689906020E+03  0.31561306589E+03  0.00000000000E+00 0. -1.
<scales pt_clust_5="13000.00000" pt_clust_6="13000.00000" pt_clust_7="13000.00000" pt_clust_8="13000.00000" pt_clust_9="135.88306"></scales>
<clustering>
<clus scale="   79.368">  5  6 -1 -1</clus>
<clus scale="   96.363">  7  8 -1 -1</clus>
<clus scale="  116.100">  2  7  1 -1</clus>
<clus scale="  135.883">  1  9  2 -1</clus>
<clus scale="  135.883">  1  5  2 -1</clus>
</clustering>
</event>
<event>
 9    2  0.1665830E-004  0.9390802E+02  0.7546771E-02  0.1299389E+00
          2   -1    0    0  502    0 -0.00000000000E+00  0.00000000000E+00  0.33254267723E+03  0.33254267723E+03  0.00000000000E+00 0. -1.
         21   -1    0    0  501  502  0.00000000000E+00 -0.00000000000E+00 -0.15677951281E+03  0.15677951281E+03  0.00000000000E+00 0. -1.
         24    2    1    2    0    0  0.27266016330E+02 -0.40233278458E+01  0.24345167927E+03  0.25823896194E+03  0.81602809435E+02 0.  0.
         23    2    1    2    0    0  0.28263809585E+01  0.14402126178E+02  0.52744634155E+02  0.10651431059E+03  0.91366800646E+02 0.  0.
        -13    1    3    3    0    0  0.52200934650E+02  0.11770959683E+02  0.18740460025E+03  0.19489478511E+03  0.00000000000E+00 0.  1.
         14    1    3    3    0    0 -0.24934918320E+02 -0.15794287529E+02  0.56047079025E+02  0.63344176823E+02  0.00000000000E+00 0. -1.
        -13    1    4    4    0    0  0.34672923782E+02  0.29203563507E+02  0.55058881625E+02  0.71319984652E+02  0.00000000000E+00 0. -1.
         13    1    4    4    0    0 -0.31846542823E+02 -0.14801437329E+02 -0.23142474694E+01  0.35194325937E+02  0.00000000000E+00 0.  1.
          1    1    1    2  501    0 -0.30092397289E+02 -0.10378798332E+02 -0.12043314901E+03  0.12456891751E+03  0.00000000000E+00 0. -1.
<scales pt_clust_5="13000.00000" pt_clust_6="13000.00000" pt_clust_7="13000.00000" pt_clust_8="13000.00000" pt_clust_9="31.83193"></scales>
<clustering>
<clus scale="   31.832">  2  9  1 -1</clus>
<clus scale="   81.603">  5  6 -1 -1</clus>
<clus scale="   84.438">  1  5  2 -1</clus>
<clus scale="   91.367">  7  8 -1 -1</clus>
<clus scale="   31.832">  2  5  1 -1</clus>
</clustering>
</event>
<event>
 9    2  0.1665830E-004  0.1449225E+03  0.7546771E-02  0.1224322E+00
         -3   -1    0    0    0  501 -0.00000000000E+00  0.00000000000E+00  0.19540388294E+03  0.19540388294E+03  0.00000000000E+00 0.  1.
         21   -1    0    0  501  502  0.00000000000E+00 -0.00000000000E+00 -0.63271917187E+03  0.63271917187E+03  0.00000000000E+00 0.  1.
         23    2    1    2    0    0 -0.11627490475E+02  0.37957492410E+02  0.14987580298E+03  0.18025897150E+03  0.91948739637E+02 0.  0.
         24    2    1    2    0    0  0.93608903562E+02  0.60178299195E+02 -0.22239007524E+03  0.26130054720E+03  0.80228273595E+02 0.  0.
        -11    1    4    4    0    0  0.10120975445E+03  0.52157372223E+02 -0.15129314894E+03  0.18935000076E+03  0.00000000000E+00 0.  1.
         12    1    4    4    0    0 -0.76008508895E+01  0.80209269720E+01 -0.71096926298E+02  0.71950546439E+02  0.00000000000E+00 0. -1.
        -11    1    3    3    0    0 -0.38057402802E+02  0.86691842003E+01  0.13068281603E+03  0.13638738603E+03  0.00000000000E+00 0. -1.
         11    1    3    3    0    0  0.26429912327E+02  0.29288308209E+02  0.19192986956E+02  0.43871585470E+02  0.00000000000E+00 0.  1.
         -4    1    1    2    0  502 -0.81981413086E+02 -0.98135791605E+02 -0.36480101668E+03  0.38656353611E+03  0.00000000000E+00 0.  1.
<scales pt_clust_5="13000.00000" pt_clust_6="13000.00000" pt_clust_7="13000.00000" pt_clust_8="13000.00000" pt_clust_9="120.68956"></scales>
<clustering>
<clus scale="   80.228">  5  6 -1 -1</clus>
<clus scale="   91.949">  7  8 -1 -1</clus>
<clus scale="  100.153">  1  7  2 -1</clus>
<clus scale="  120.690">  2  9  1 -1</clus>
<clus scale="  120.690">  2  5  1 -1</clus>
</clustering>
</event>
<event>
 9    2  0.1665830E-004  0.1374745E+03  0.7546771E-02  0.1224503E+00
         -1   -1    0    0    0  501 -0.00000000000E+00  0.00000000000E+00  0.32135003078E+03  0.32135003078E+03  0.00000000000E+00 0.  1.
         21   -1    0    0  501  502  0.00000000000E+00 -0.00000000000E+00 -0.13874848280E+03  0.13874848280E+03  0.00000000000E+00 0.  1.
         23    2    1    2    0    0  0.23535729769E+02 -0.63850622274E+02  0.16713476663E+03  0.20395237810E+03  0.95035308048E+02 0.  0.
         24    2    1    2    0    0  0.95758436194E+02  0.40031201229E+02  0.17094377281E+02  0.13448631499E+03  0.83798424874E+02 0.  0.
        -11    1    4    4    0    0  0.10972828175E+03  0.29444279727E+02  0.60549176341E+01  0.11377136481E+03  0.00000000000E+00 0.  1.
         12    1    4    4    0    0 -0.13969845552E+02  0.10586921502E+02  0.11039459647E+02  0.20714950180E+02  0.00000000000E+00 0. -1.
        -13    1    3    3    0    0  0.40472044183E+00 -0.48103890056E+02  0.16918884631E+03  0.17589489405E+03  0.00000000000E+00 0.  1.
         13    1    3    3    0    0  0.23131009327E+02 -0.15746732217E+02 -0.20540796772E+01  0.28057484052E+02  0.00000000000E+00 0. -1.
         -2    1    1    2    0  502 -0.11929416596E+03  0.23819421044E+02 -0.16275959407E+01  0.12165982048E+03  0.00000000000E+00 0.  1.
<scales pt_clust_5="13000.00000" pt_clust_6="13000.00000" pt_clust_7="13000.00000" pt_clust_8="13000.00000" pt_clust_9="108.98193"></scales>
<clustering>
<clus scale="   83.798">  5  6 -1 -1</clus>
<clus scale="   95.035">  7  8 -1 -1</clus>
<clus scale="  116.887">  1  7  2 -1</clus>
<clus scale="  108.982">  2  9  1 -1</clus>
<clus scale="  108.982">  2  5  1 -1</clus>
</clustering>
</event>
<event>
 9    2  0.1797928E-004  0.2824310E+03  0.7546771E-02  0.1094800E+00
         21   -1    0    0  501  502  0.00000000000E+00  0.00000000000E+00  0.22884925001E+03  0.22884925001E+03  0.00000000000E+00 0. -1.
          2   -1    0    0  502    0 -0.00000000000E+00 -0.00000000000E+00 -0.71995227286E+03  0.71995227286E+03  0.00000000000E+00 0. -1.
         24    2    1    2    0    0 -0.16662129684E+03 -0.26935736523E+03 -0.47531277708E+03  0.57668850000E+03  0.79569738012E+02 0.  0.
         23    2    1    2    0    0  0.12454496228E+03  0.10267134271E+03  0.44146047749E+02  0.19004982694E+03  0.90095565624E+02 0.  0.
        -11    1    3    3    0    0 -0.36770626318E+02 -0.67077188096E+02 -0.61595041949E+02  0.98210881858E+02  0.00000000000E+00 0.  1.
         12    1    3    3    0    0 -0.12985067052E+03 -0.20228017713E+03 -0.41371773513E+03  0.47847761814E+03  0.00000000000E+00 0. -1.
        -11    1    4    4    0    0  0.19481663105E+02  0.68685119476E+02  0.34246677509E+02  0.79183431065E+02  0.00000000000E+00 0.  1.
         11    1    4    4    0    0  0.10506329917E+03  0.33986223232E+02  0.98993702405E+01  0.11086639587E+03  0.00000000000E+00 0. -1.
          1    1    1    2  501    0  0.42076334558E+02  0.16668602252E+03 -0.59936293519E+02  0.18206319594E+03  0.00000000000E+00 0. -1.
<scales pt_clust_5="13000.00000" pt_clust_6="13000.00000" pt_clust_7="13000.00000" pt_clust_8="13000.00000" pt_clust_9="171.91465"></scales>
<clustering>
<clus scale="   79.570">  5  6 -1 -1</clus>
<clus scale="   90.096">  7  8 -1 -1</clus>
<clus scale="  171.915">  1  9  2 -1</clus>
<clus scale="  279.252">  2  5  1 -1</clus>
<clus scale="  171.915">  1  5  2 -1</clus>
</clustering>
</event>
<event>
 9    2  0.1665830E-004  0.3056910E+03  0.7546771E-02  0.1127627E+00
          2   -1    0    0  502    0 -0.00000000000E+00  0.00000000000E+00  0.35282826122E+03  0.35282826122E+03  0.00000000000E+00 0. -1.
         21   -1    0    0  501  502  0.00000000000E+00 -0.00000000000E+00 -0.49270436239E+03  0.49270436239E+03  0.00000000000E+00 0. -1.
         24    2    1    2    0    0 -0.35143425806E+02 -0.16851158047E+02  0.61484537417E+02  0.11366949319E+03  0.87300535144E+02 0.  0.
         23    2    1    2    0    0  0.27187685046E+03  0.17245924167E+03  0.67787090964E+02  0.34109837976E+03  0.89965566316E+02 0.  0.
        -11    1    3    3    0    0  0.39544773703E+01 -0.45455268465E+02  0.39987805055E+02  0.60669958593E+02  0.00000000000E+00 0.  1.
         12    1    3    3    0    0 -0.39097903176E+02  0.28604110418E+02  0.21496732362E+02  0.52999534600E+02  0.00000000000E+00 0. -1.
        -11    1    4    4    0    0  0.26728655993E+02 -0.95910156739E+01  0.40613082313E+00  0.28400238997E+02  0.00000000000E+00 0.  1.
         11    1    4    4    0    0  0.24514819446E+03  0.18205025734E+03  0.67380960141E+02  0.31269814076E+03  0.00000000000E+00 0. -1.
          1    1    1    2  501    0 -0.23673342465E+03 -0.15560808362E+03 -0.26914772956E+03  0.39076475066E+03  0.00000000000E+00 0. -1.
<scales pt_clust_5="13000.00000" pt_clust_6="13000.00000" pt_clust_7="13000.00000" pt_clust_8="13000.00000" pt_clust_9="292.15272"></scales>
<clustering>
<clus scale="   87.301">  5  6 -1 -1</clus>
<clus scale="   89.966">  7  8 -1 -1</clus>
<clus scale="   95.605">  1  5  2 -1</clus>
<clus scale="  292.153">  2  9  1 -1</clus>
<clus scale="  292.153">  2  5  1 -1</clus>
</clustering>
</event>
<event>
 9    2  0.1665830E-004  0.1355008E+03  0.7546771E-02  0.1228038E+00
         21   -1    0    0  501  502  0.00000000000E+00  0.00000000000E+00  0.30307971856E+02  0.30307971856E+02  0.00000000000E+00 0. -1.
          2   -1    0    0  502    0 -0.00000000000E+00 -0.00000000000E+00 -0.14525491360E+04  0.14525491360E+04  0.00000000000E+00 0. -1.
         23    2    1    2    0    0  0.50323592843E+02  0.33925641336E+02 -0.16649522077E+03  0.20145893436E+03  0.95820825269E+02 0.  0.
         24    2    1    2    0    0 -0.81014757406E+02  0.76926772686E+02 -0.78063927227E+03  0.79256634741E+03  0.79262994875E+02 0.  0.
        -13    1    4    4    0    0 -0.72014210342E+02  0.15258682796E+02 -0.37352721857E+03  0.38071177669E+03  0.00000000000E+00 0.  1.
         14    1    4    4    0    0 -0.90005470644E+01  0.61668089890E+02 -0.40711205370E+03  0.41185457072E+03  0.00000000000E+00 0. -1.
        -13    1    3    3    0    0  0.53471096070E+02  0.20294045172E+01 -0.30195342902E+02  0.61441316153E+02  0.00000000000E+00 0. -1.
         13    1    3    3    0    0 -0.31475032277E+01  0.31896236819E+02 -0.13629987787E+03  0.14001761820E+03  0.00000000000E+00 0.  1.
          1    1    1    2  501    0  0.30691164564E+02 -0.11085241402E+03 -0.47510667106E+03  0.48883182606E+03  0.00000000000E+00 0. -1.
<scales pt_clust_5="13000.00000" pt_clust_6="13000.00000" pt_clust_7="13000.00000" pt_clust_8="13000.00000" pt_clust_9="109.89929"></scales>
<clustering>
<clus scale="   79.263">  5  6 -1 -1</clus>
<clus scale="   95.821">  7  8 -1 -1</clus>
<clus scale="  113.424">  2  7  1 -1</clus>
<clus scale="  109.899">  1  9  2 -1</clus>
<clus scale="  109.899">  1  5  2 -1</clus>
</clustering>
</event>
<event>
 9    2  0.1665830E-004  0.1398994E+03  0.7546771E-02  0.1232816E+00
         21   -1    0    0  501  502  0.00000000000E+00  0.00000000000E+00  0.22600896548E+02  0.22600896548E+02  0.00000000000E+00 0. -1.
          2   -1    0    0  502    0 -0.00000000000E+00 -0.00000000000E+00 -0.14226050693E+04  0.14226050693E+04  0.00000000000E+00 0. -1.
         24    2    1    2    0    0  0.29212209712E+02  0.37737641576E+02 -0.54607301107E+03  0.55399998934E+03  0.80266879756E+02 0.  0.
         23    2    1    2    0    0  0.62270869167E+02 -0.91600852589E+02 -0.57475411327E+03  0.59252517099E+03  0.92061991051E+02 0.  0.
        -13    1    3    3    0    0 -0.27656691214E+02  0.69839274025E+01 -0.15069900117E+03  0.15337488962E+03  0.00000000000E+00 0.  1.
         14    1    3    3    0    0  0.56868900926E+02  0.30753714174E+02 -0.39537400989E+03  0.40062509972E+03  0.00000000000E+00 0. -1.
        -11    1    4    4    0    0  0.30806608599E+02 -0.10522410953E+03 -0.44699049623E+03  0.46024087615E+03  0.00000000000E+00 0. -1.
         11    1    4    4    0    0  0.31464260568E+02  0.13623256939E+02 -0.12776361704E+03  0.13228429484E+03  0.00000000000E+00 0.  1.
          1    1    1    2  501    0 -0.91483078879E+02  0.53863211013E+02 -0.27917704843E+03  0.29868080553E+03  0.00000000000E+00 0. -1.
<scales pt_clust_5="13000.00000" pt_clust_6="13000.00000" pt_clust_7="13000.00000" pt_clust_8="13000.00000" pt_clust_9="105.33962"></scales>
<clustering>
<clus scale="   80.267">  5  6 -1 -1</clus>
<clus scale="   92.062">  7  8 -1 -1</clus>
<clus scale="   93.382">  2  5  1 -1</clus>
<clus scale="  105.340">  1  9  2 -1</clus>
<clus scale="  105.340">  1  5  2 -1</clus>
</clustering>
</event>
<event>
 9    2  0.1665830E-004  0.1253895E+03  0.7546771E-02  0.1252171E+00
          2   -1    0    0  502    0 -0.00000000000E+00  0.00000000000E+00  0.10249150615E+03  0.10249150615E+03  0.00000000000E+00 0. -1.
         21   -1    0    0  501  502  0.00000000000E+00 -0.00000000000E+00 -0.32425891307E+03  0.32425891307E+03  0.00000000000E+00 0. -1.
         24    2    1    2    0    0 -0.30911680937E+02  0.19258989097E+02 -0.33330014045E+02  0.93801739942E+02  0.79758610197E+02 0.  0.
         23    2    1    2    0    0 -0.31908003579E+02 -0.83153741623E+02 -0.20601711961E+03  0.24163658284E+03  0.89512675945E+02 0.  0.
        -13    1    3    3    0    0  0.24046440019E+02  0.30680942363E+01 -0.26800528259E+02  0.36137415442E+02  0.00000000000E+00 0.  1.
         14    1    3    3    0    0 -0.54958120956E+02  0.16190894861E+02 -0.65294857861E+01  0.57664324500E+02  0.00000000000E+00 0. -1.
        -11    1    4    4    0    0  0.27774000121E+02 -0.12774001941E+02 -0.29650812263E+02  0.42588036773E+02  0.00000000000E+00 0.  1.
         11    1    4    4    0    0 -0.59682003700E+02 -0.70379739682E+02 -0.17636630735E+03  0.19904854607E+03  0.00000000000E+00 0. -1.
          1    1    1    2  501    0  0.62819684517E+02  0.63894752526E+02  0.17579726744E+02  0.91312096436E+02  0.00000000000E+00 0. -1.
<scales pt_clust_5="13000.00000" pt_clust_6="13000.00000" pt_clust_7="13000.00000" pt_clust_8="13000.00000" pt_clust_9="87.80674"></scales>
<clustering>
<clus scale="   79.759">  5  6 -1 -1</clus>
<clus scale="   87.681">  1  5  2 -1</clus>
<clus scale="   87.807">  2  9  1 -1</clus>
<clus scale="   89.513">  7  8 -1 -1</clus>
<clus scale="   87.807">  2  5  1 -1</clus>
</clustering>
</event>
<event>
 9    2  0.1665830E-004  0.9439480E+02  0.7546771E-02  0.1293992E+00
          2   -1    0    0  502    0 -0.00000000000E+00  0.00000000000E+00  0.16031602357E+03  0.16031602357E+03  0.00000000000E+00 0. -1.
         21   -1    0    0  501  502  0.00000000000E+00 -0.00000000000E+00 -0.25420106476E+03  0.25420106476E+03  0.00000000000E+00 0.  1.
         24    2    1    2    0    0  0.14907641577E+02  0.21662443333E+01  0.13072713023E+03  0.15965198301E+03  0.90400457466E+02 0.  0.
         23    2    1    2    0    0 -0.35644330841E+02  0.31804726482E+00 -0.18508370795E+03  0.21015849048E+03  0.92951561022E+02 0.  0.
        -13    1    3    3    0    0  0.10551978961E+02  0.46188860166E+02  0.65542190576E+02  0.80873566812E+02  0.00000000000E+00 0.  1.
         14    1    3    3    0    0  0.43556626167E+01 -0.44022615832E+02  0.65184939651E+02  0.78778416199E+02  0.00000000000E+00 0. -1.
        -13    1    4    4    0    0  0.28866709826E+02 -0.15282656011E+02 -0.71452103949E+02  0.78563666346E+02  0.00000000000E+00 0. -1.
         13    1    4    4    0    0 -0.64511040667E+02  0.15600703276E+02 -0.11363160400E+03  0.13159482413E+03  0.00000000000E+00 0.  1.
          1    1    1    2  501    0  0.20736689263E+02 -0.24842915981E+01 -0.39528463464E+02  0.44706614837E+02  0.00000000000E+00 0. -1.
<scales pt_clust_5="13000.00000" pt_clust_6="13000.00000" pt_clust_7="13000.00000" pt_clust_8="13000.00000" pt_clust_9="20.88497"></scales>
<clustering>
<clus scale="   20.885">  2  9  1 -1</clus>
<clus scale="   90.400">  5  6 -1 -1</clus>
<clus scale="   91.884">  1  5  2 -1</clus>
<clus scale="   92.952">  7  8 -1 -1</clus>
<clus scale="   20.885">  2  5  1 -1</clus>
</clustering>
</event>
<event>
 9    2  0.1665830E-004  0.1454947E+03  0.7546771E-02  0.1207517E+00
         21   -1    0    0  501  502  0.00000000000E+00  0.00000000000E+00  0.19636821318E+03  0.19636821318E+03  0.00000000000E+00 0.  1.
         -3   -1    0    0    0  501 -0.00000000000E+00 -0.00000000000E+00 -0.17748853066E+03  0.17748853066E+03  0.00000000000E+00 0.  1.
         23    2    1    2    0    0  0.64303201494E+02 -0.96108112349E+02 -0.88857825875E+02  0.16955998479E+03  0.86505515666E+02 0.  0.
         24    2    1    2    0    0 -0.45262882480E+02  0.11499813447E+03  0.92753134404E+02  0.17357383361E+03  0.79065999708E+02 0.  0.
        -13    1    4    4    0    0 -0.45251975698E+02  0.12455025388E+03  0.95833108986E+02  0.16353743248E+03  0.00000000000E+00 0.  1.
         14    1    4    4    0    0 -0.10906781859E-01 -0.95521194067E+01 -0.30799745821E+01  0.10036401125E+02  0.00000000000E+00 0. -1.
        -11    1    3    3    0    0  0.44543138184E+02 -0.10908774525E+03 -0.85716486124E+02  0.14571047772E+03  0.00000000000E+00 0.  1.
         11    1    3    3    0    0  0.19760063310E+02  0.12979632899E+02 -0.31413397507E+01  0.23849507073E+02  0.00000000000E+00 0. -1.
         -4    1    1    2    0  502 -0.19040319014E+02 -0.18890022122E+02  0.14984373990E+02  0.30722925444E+02  0.00000000000E+00 0.  1.
<scales pt_clust_5="13000.00000" pt_clust_6="13000.00000" pt_clust_7="13000.00000" pt_clust_8="13000.00000" pt_clust_9="26.82101"></scales>
<clustering>
<clus scale="   26.821">  1  9  2 -1</clus>
<clus scale="   79.066">  5  6 -1 -1</clus>
<clus scale="   86.506">  7  8 -1 -1</clus>
<clus scale="  141.198">  1  5  2 -1</clus>
<clus scale="   26.821">  1  5  2 -1</clus>
</clustering>
</event>
<event>
 9    2  0.1665830E-004  0.1177977E+03  0.7546771E-02  0.1258040E+00
          2   -1    0    0  502    0 -0.00000000000E+00  0.00000000000E+00  0.81455302194E+03  0.81455302194E+03  0.00000000000E+00 0. -1.
         21   -1    0    0  501  502  0.00000000000E+00 -0.00000000000E+00 -0.37429622966E+02  0.37429622966E+02  0.00000000000E+00 0. -1.
         24    2    1    2    0    0  0.10274513957E+02  0.40964973635E+02  0.49612562447E+03  0.50497827361E+03  0.84135170227E+02 0.  0.
         23    2    1    2    0    0  0.46443671908E+02  0.34308686684E+02  0.13037928892E+03  0.16932768529E+03  0.91318154743E+02 0.  0.
        -13    1    3    3    0    0  0.19109199807E+02 -0.81260127045E+01  0.31788403008E+02  0.37969674287E+02  0.00000000000E+00 0.  1.
         14    1    3    3    0    0 -0.88346858493E+01  0.49090986340E+02  0.46433722146E+03  0.46700859933E+03  0.00000000000E+00 0. -1.
        -13    1    4    4    0    0  0.11173241470E+02 -0.29394184890E+02  0.61611277703E+02  0.69172313612E+02  0.00000000000E+00 0.  1.
         13    1    4    4    0    0  0.35270430437E+02  0.63702871574E+02  0.68768011217E+02  0.10015537168E+03  0.00000000000E+00 0. -1.
          1    1    1    2  501    0 -0.56718185865E+02 -0.75273660319E+02  0.15061848559E+03  0.17767668600E+03  0.00000000000E+00 0. -1.
<scales pt_clust_5="13000.00000" pt_clust_6="13000.00000" pt_clust_7="13000.00000" pt_clust_8="13000.00000" pt_clust_9="74.41299"></scales>
<clustering>
<clus scale="   84.135">  5  6 -1 -1</clus>
<clus scale="   91.318">  7  8 -1 -1</clus>
<clus scale="   94.140">  1  5  2 -1</clus>
<clus scale="   74.413">  2  9  1 -1</clus>
<clus scale="   74.413">  2  5  1 -1</clus>
</clustering>
</event>
<event>
 9    2  0.1665830E-004  0.1018233E+03  0.7546771E-02  0.1285000E+00
         21   -1    0    0  501  502  0.00000000000E+00  0.00000000000E+00  0.22179820407E+03  0.22179820407E+03  0.00000000000E+00 0.  1.
         -1   -1    0    0    0  501 -0.00000000000E+00 -0.00000000000E+00 -0.14033763628E+03  0.14033763628E+03  0.00000000000E+00 0.  1.
         23    2    1    2    0    0 -0.22360642430E+02 -0.33367306556E+02 -0.83025454875E+02  0.12912503120E+03  0.90369641187E+02 0.  0.
         24    2    1    2    0    0  0.65378230476E+02  0.46091985304E+02  0.71249033392E+02  0.12954310163E+03  0.72843711408E+02 0.  0.
        -13    1    4    4    0    0  0.77645018689E+02  0.50240720256E+02  0.51292703735E+02  0.10575358318E+03  0.00000000000E+00 0.  1.
         14    1    4    4    0    0 -0.12266788213E+02 -0.41487349518E+01  0.19956329657E+02  0.23789518452E+02  0.00000000000E+00 0. -1.
        -13    1    3    3    0    0 -0.53473384656E+02 -0.30757976054E+00 -0.43539366751E+02  0.68957769171E+02  0.00000000000E+00 0. -1.
         13    1    3    3    0    0  0.31112742226E+02 -0.33059726796E+02 -0.39486088125E+02  0.60167262029E+02  0.00000000000E+00 0.  1.
         -2    1    1    2    0  502 -0.43017588045E+02 -0.12724678748E+02  0.93236989271E+02  0.10346770752E+03  0.00000000000E+00 0.  1.
<scales pt_clust_5="13000.00000" pt_clust_6="13000.00000" pt_clust_7="13000.00000" pt_clust_8="13000.00000" pt_clust_9="44.86012"></scales>
<clustering>
<clus scale="   44.860">  1  9  2 -1</clus>
<clus scale="   72.844">  5  6 -1 -1</clus>
<clus scale="   86.646">  1  5  2 -1</clus>
<clus scale="   90.370">  7  8 -1 -1</clus>
<clus scale="   44.860">  1  5  2 -1</clus>
</clustering>
</event>
<event>
 9    2  0.1665830E-004  0.1868864E+03  0.7546771E-02  0.1184866E+00
         21   -1    0    0  501  502  0.00000000000E+00  0.00000000000E+00  0.14819396887E+04  0.14819396887E+04  0.00000000000E+00 0. -1.
          4   -1    0    0  502    0 -0.00000000000E+00 -0.00000000000E+00 -0.17419210063E+03  0.17419210063E+03  0.00000000000E+00 0. -1.
         24    2    1    2    0    0  0.72154772405E+02  0.82485086344E+01  0.26743356529E+03  0.28891498379E+03  0.81711730740E+02 0.  0.
         23    2    1    2    0    0  0.92927559732E+02 -0.91226915409E+01 -0.13033967734E+03  0.18498035449E+03  0.92252616216E+02 0.  0.
        -13    1    3    3    0    0  0.51581155938E+02  0.43785031217E+02  0.15141080525E+03  0.16584021392E+03  0.00000000000E+00 0.  1.
         14    1    3    3    0    0  0.20573616467E+02 -0.35536522583E+02  0.11602276004E+03  0.12307476987E+03  0.00000000000E+00 0. -1.
        -13    1    4    4    0    0  0.80677781545E+02 -0.32775727249E+02 -0.13217247612E+03  0.15828049840E+03  0.00000000000E+00 0. -1.
         13    1    4    4    0    0  0.12249778187E+02  0.23653035708E+02  0.18327987725E+01  0.26699856089E+02  0.00000000000E+00 0.  1.
          3    1    1    2  501    0 -0.16508233214E+03  0.87418290646E+00  0.11706537001E+04  0.11822364511E+04  0.00000000000E+00 0. -1.
<scales pt_clust_5="13000.00000" pt_clust_6="13000.00000" pt_clust_7="13000.00000" pt_clust_8="13000.00000" pt_clust_9="162.52995"></scales>
<clustering>
<clus scale="   81.712">  5  6 -1 -1</clus>
<clus scale="   92.253">  7  8 -1 -1</clus>
<clus scale="  109.321">  2  5  1 -1</clus>
<clus scale="  162.530">  1  9  2 -1</clus>
<clus scale="  162.530">  1  5  2 -1</clus>
</clustering>
</event>
<event>
 9    2  0.1665830E-004  0.2012757E+03  0.7546771E-02  0.1175512E+00
         21   -1    0    0  501  502  0.00000000000E+00  0.00000000000E+00  0.38110364793E+03  0.38110364793E+03  0.00000000000E+00 0. -1.
          2   -1    0    0  502    0 -0.00000000000E+00 -0.00000000000E+00 -0.34409539007E+03  0.34409539007E+03  0.00000000000E+00 0. -1.
         24    2    1    2    0    0 -0.70615578649E+02 -0.14952020969E+02  0.53524782747E+02  0.12052142411E+03  0.80314310194E+02 0.  0.
         23    2    1    2    0    0  0.20563158468E+03 -0.96553525561E+02 -0.22509073409E+03  0.33234324306E+03  0.90439265348E+02 0.  0.
        -11    1    3    3    0    0 -0.21086558065E+02 -0.32361755170E+02  0.55924663622E+02  0.67966860527E+02  0.00000000000E+00 0.  1.
         12    1    3    3    0    0 -0.49529020584E+02  0.17409734202E+02 -0.23998808743E+01  0.52554563581E+02  0.00000000000E+00 0. -1.
        -11    1    4    4    0    0  0.10469541921E+03 -0.78370258242E+02 -0.75614668040E+02  0.15106490725E+03  0.00000000000E+00 0.  1.
         11    1    4    4    0    0  0.10093616547E+03 -0.18183267319E+02 -0.14947606605E+03  0.18127833581E+03  0.00000000000E+00 0. -1.
          1    1    1    2  501    0 -0.13501600603E+03  0.11150554653E+03  0.20857420921E+03  0.27233437084E+03  0.00000000000E+00 0. -1.
<scales pt_clust_5="13000.00000" pt_clust_6="13000.00000" pt_clust_7="13000.00000" pt_clust_8="13000.00000" pt_clust_9="179.81284"></scales>
<clustering>
<clus scale="   80.314">  5  6 -1 -1</clus>
<clus scale="   90.439">  7  8 -1 -1</clus>
<clus scale="  107.984">  2  5  1 -1</clus>
<clus scale="  179.813">  1  9  2 -1</clus>
<clus scale="  179.813">  1  5  2 -1</clus>
</clustering>
</event>
<event>
 9    2  0.1665830E-004  0.1316576E+03  0.7546771E-02  0.1237595E+00
         21   -1    0    0  501  502  0.00000000000E+00  0.00000000000E+00  0.98266272564E+02  0.98266272564E+02  0.00000000000E+00 0.  1.
         -1   -1    0    0    0  501 -0.00000000000E+00 -0.00000000000E+00 -0.41659739053E+03  0.41659739053E+03  0.00000000000E+00 0.  1.
         23    2    1    2    0    0 -0.39234482090E+02  0.13789858471E+02 -0.16001837004E+03  0.18954698604E+03  0.92696690255E+02 0.  0.
         24    2    1    2    0    0 -0.48511150877E+02  0.89801917367E+02 -0.10623895129E+02  0.12471122008E+03  0.70868223802E+02 0.  0.
        -11    1    4    4    0    0 -0.60030098984E+02  0.52332595612E+02  0.10257452853E+02  0.80296504821E+02  0.00000000000E+00 0.  1.
         12    1    4    4    0    0  0.11518948107E+02  0.37469321755E+02 -0.20881347982E+02  0.44414715262E+02  0.00000000000E+00 0. -1.
        -13    1    3    3    0    0 -0.25707469366E+02  0.43207649227E+02 -0.37228591243E+02  0.62559914793E+02  0.00000000000E+00 0.  1.
         13    1    3    3    0    0 -0.13527012724E+02 -0.29417790756E+02 -0.12278977880E+03  0.12698707125E+03  0.00000000000E+00 0. -1.
         -2    1    1    2    0  502  0.87745632967E+02 -0.10359177584E+03 -0.14768885279E+03  0.20060545697E+03  0.00000000000E+00 0.  1.
<scales pt_clust_5="13000.00000" pt_clust_6="13000.00000" pt_clust_7="13000.00000" pt_clust_8="13000.00000" pt_clust_9="110.95692"></scales>
<clustering>
<clus scale="   70.868">  5  6 -1 -1</clus>
<clus scale="   92.697">  7  8 -1 -1</clus>
<clus scale="  101.598">  2  7  1 -1</clus>
<clus scale="  110.957">  1  9  2 -1</clus>
<clus scale="  110.957">  1  5  2 -1</clus>
</clustering>
</event>
<event>
 9    2  0.1665830E-004  0.1741832E+03  0.7546771E-02  0.1206910E+00
          2   -1    0    0  502    0 -0.00000000000E+00  0.00000000000E+00  0.54721973039E+03  0.54721973039E+03  0.00000000000E+00 0. -1.
         21   -1    0    0  501  502  0.00000000000E+00 -0.00000000000E+00 -0.12622784135E+03  0.12622784135E+03  0.00000000000E+00 0. -1.
         24    2    1    2    0    0  0.55839815402E+01 -0.21314081328E+02  0.16337548271E+03  0.18341780011E+03  0.80405659827E+02 0.  0.
         23    2    1    2    0    0  0.87147181649E+02 -0.11569413243E+03 -0.14937446012E+02  0.17119451372E+03  0.90025944514E+02 0.  0.
        -13    1    3    3    0    0 -0.17078151269E+02  0.18853839639E+02  0.10988035409E+03  0.11278662481E+03  0.00000000000E+00 0.  1.
         14    1    3    3    0    0  0.22662132809E+02 -0.40167920967E+02  0.53495128617E+02  0.70631175298E+02  0.00000000000E+00 0. -1.
        -11    1    4    4    0    0  0.49654327922E+02 -0.14757265208E+02 -0.33837181856E+02  0.61873128527E+02  0.00000000000E+00 0.  1.
         11    1    4    4    0    0  0.37492853727E+02 -0.10093686722E+03  0.18899735844E+02  0.10932138519E+03  0.00000000000E+00 0. -1.
          1    1    1    2  501    0 -0.92731163189E+02  0.13700821375E+03  0.27255385235E+03  0.31883525792E+03  0.00000000000E+00 0. -1.
<scales pt_clust_5="13000.00000" pt_clust_6="13000.00000" pt_clust_7="13000.00000" pt_clust_8="13000.00000" pt_clust_9="149.11454"></scales>
<clustering>
<clus scale="   80.406">  5  6 -1 -1</clus>
<clus scale="   83.370">  1  5  2 -1</clus>
<clus scale="   90.026">  7  8 -1 -1</clus>
<clus scale="  149.115">  2  9  1 -1</clus>
<clus scale="  149.115">  2  5  1 -1</clus>
</clustering>
</event>
<event>
 9    2  0.1665830E-004  0.1217501E+03  0.7546771E-02  0.1241874E+00
          2   -1    0    0  502    0 -0.00000000000E+00  0.00000000000E+00  0.65431431886E+03  0.65431431886E+03  0.00000000000E+00 0. -1.
         21   -1    0    0  501  502  0.00000000000E+00 -0.00000000000E+00 -0.56411188012E+02  0.56411188012E+02  0.00000000000E+00 0.  1.
         23    2    1    2    0    0  0.64790735107E+02  0.81542455704E+02  0.30330071642E+03  0.33218818403E+03  0.86664027115E+02 0.  0.
         24    2    1    2    0    0 -0.35975027138E+02 -0.17984734453E+02  0.16634170591E+02  0.91943056426E+02  0.80988744543E+02 0.  0.
        -13    1    4    4    0    0 -0.57014737969E+02 -0.41188299525E+00 -0.46956709721E+01  0.57209259033E+02  0.00000000000E+00 0.  1.
         14    1    4    4    0    0  0.21039710830E+02 -0.17572851458E+02  0.21329841564E+02  0.34733797393E+02  0.00000000000E+00 0. -1.
        -13    1    3    3    0    0  0.84146640485E+02  0.70687915154E+02  0.27554112590E+03  0.29664853028E+03  0.00000000000E+00 0.  1.
         13    1    3    3    0    0 -0.19355905378E+02  0.10854540550E+02  0.27759590518E+02  0.35539653758E+02  0.00000000000E+00 0. -1.
          1    1    1    2  501    0 -0.28815707969E+02 -0.63557721252E+02  0.27796824384E+03  0.28659426641E+03  0.00000000000E+00 0. -1.
<scales pt_clust_5="13000.00000" pt_clust_6="13000.00000" pt_clust_7="13000.00000" pt_clust_8="13000.00000" pt_clust_9="69.78491"></scales>
<clustering>
<clus scale="   69.785">  2  9  1 -1</clus>
<clus scale="   80.989">  5  6 -1 -1</clus>
<clus scale="   86.664">  7  8 -1 -1</clus>
<clus scale="  117.778">  2  5  1 -1</clus>
<clus scale="   69.785">  2  5  1 -1</clus>
</clustering>
</event>
<event>
 9    2  0.1665830E-004  0.2341567E+03  0.7546771E-02  0.1163259E+00
          2   -1    0    0  502    0 -0.00000000000E+00  0.00000000000E+00  0.15657861534E+04  0.15657861534E+04  0.00000000000E+00 0. -1.
         21   -1    0    0  501  502  0.00000000000E+00 -0.00000000000E+00 -0.60519983173E+02  0.60519983173E+02  0.00000000000E+00 0. -1.
         24    2    1    2    0    0 -0.30995110956E+02 -0.38947733214E+02  0.93259084403E+02  0.13015850643E+03  0.75936533671E+02 0.  0.
         23    2    1    2    0    0  0.23299535767E+03  0.74383721829E+02  0.10302381029E+04  0.10627801587E+04  0.91056808364E+02 0.  0.
        -13    1    3    3    0    0 -0.13270973893E+02 -0.55167959931E+02  0.89309424927E+02  0.10581018822E+03  0.00000000000E+00 0.  1.
         14    1    3    3    0    0 -0.17724137064E+02  0.16220226717E+02  0.39496594764E+01  0.24348318204E+02  0.00000000000E+00 0. -1.
        -13    1    4    4    0    0  0.17006663054E+02  0.38243110499E+02  0.15309464719E+03  0.15871273763E+03  0.00000000000E+00 0.  1.
         13    1    4    4    0    0  0.21598869461E+03  0.36140611330E+02  0.87714345571E+03  0.90406742109E+03  0.00000000000E+00 0. -1.
          1    1    1    2  501    0 -0.20200024671E+03 -0.35435988615E+02  0.38176898291E+03  0.43336747141E+03  0.00000000000E+00 0. -1.
<scales pt_clust_5="13000.00000" pt_clust_6="13000.00000" pt_clust_7="13000.00000" pt_clust_8="13000.00000" pt_clust_9="215.72668"></scales>
<clustering>
<clus scale="   75.937">  5  6 -1 -1</clus>
<clus scale="   90.796">  1  5  2 -1</clus>
<clus scale="   91.057">  7  8 -1 -1</clus>
<clus scale="  215.727">  2  9  1 -1</clus>
<clus scale="  215.727">  2  5  1 -1</clus>
</clustering>
</event>
<event>
 9    2  0.1665830E-004  0.1348904E+03  0.7546771E-02  0.1222705E+00
          4   -1    0    0  502    0 -0.00000000000E+00  0.00000000000E+00  0.41937211272E+03  0.41937211272E+03  0.00000000000E+00 0. -1.
         21   -1    0    0  501  502  0.00000000000E+00 -0.00000000000E+00 -0.80075413080E+02  0.80075413080E+02  0.00000000000E+00 0. -1.
         23    2    1    2    0    0  0.26337000234E+02  0.71959938122E+02  0.71348979269E+02  0.13931934876E+03  0.91909378302E+02 0.  0.
         24    2    1    2    0    0 -0.10667934396E+03 -0.74920569967E+02  0.13557874598E+03  0.20525660794E+03  0.82189442811E+02 0.  0.
        -11    1    4    4    0    0 -0.85546472156E+01 -0.19913772798E+02 -0.77836359500E+01  0.23028793382E+02  0.00000000000E+00 0.  1.
         12    1    4    4    0    0 -0.98124696740E+02 -0.55006797169E+02  0.14336238193E+03  0.18222781455E+03  0.00000000000E+00 0. -1.
        -13    1    3    3    0    0  0.82587381666E+01  0.90109504307E+02  0.40269462731E+02  0.99043218603E+02  0.00000000000E+00 0. -1.
         13    1    3    3    0    0  0.18078262067E+02 -0.18149566185E+02  0.31079516537E+02  0.40276130155E+02  0.00000000000E+00 0.  1.
          3    1    1    2  501    0  0.80342343721E+02  0.29606318451E+01  0.13236897440E+03  0.15487156911E+03  0.00000000000E+00 0. -1.
<scales pt_clust_5="13000.00000" pt_clust_6="13000.00000" pt_clust_7="13000.00000" pt_clust_8="13000.00000" pt_clust_9="80.39692"></scales>
<clustering>
<clus scale="   80.397">  2  9  1 -1</clus>
<clus scale="   82.189">  5  6 -1 -1</clus>
<clus scale="   91.909">  7  8 -1 -1</clus>
<clus scale="  128.465">  2  5  1 -1</clus>
<clus scale="   80.397">  2  5  1 -1</clus>
</clustering>
</event>
<event>
 9    2  0.1665830E-004  0.1787856E+03  0.7546771E-02  0.1169393E+00
         -1   -1    0    0    0  501 -0.00000000000E+00  0.00000000000E+00  0.12990018612E+03  0.12990018612E+03  0.00000000000E+00 0.  1.
         21   -1    0    0  501  502  0.00000000000E+00 -0.00000000000E+00 -0.81508539045E+03  0.81508539045E+03  0.00000000000E+00 0.  1.
         24    2    1    2    0    0 -0.13276323658E+03 -0.82654535160E+02  0.38616954778E+02  0.17990378520E+03  0.80101520353E+02 0.  0.
         23    2    1    2    0    0  0.14701780685E+03  0.12214994465E+03 -0.59217675576E+03  0.62692127982E+03  0.76302926074E+02 0.  0.
        -13    1    3    3    0    0 -0.13972679973E+03 -0.63235251871E+02  0.25549357844E+02  0.15548326382E+03  0.00000000000E+00 0.  1.
         14    1    3    3    0    0  0.69635631421E+01 -0.19419283290E+02  0.13067596934E+02  0.24420521385E+02  0.00000000000E+00 0. -1.
        -13    1    4    4    0    0  0.12200464931E+03  0.92085941021E+02 -0.54291514441E+03  0.56402287987E+03  0.00000000000E+00 0.  1.
         13    1    4    4    0    0  0.25013157541E+02  0.30064003625E+02 -0.49261611347E+02  0.62898399953E+02  0.00000000000E+00 0. -1.
         -2    1    1    2    0  502 -0.14254570265E+02 -0.39495409485E+02 -0.13162540335E+03  0.13816051154E+03  0.00000000000E+00 0.  1.
<scales pt_clust_5="13000.00000" pt_clust_6="13000.00000" pt_clust_7="13000.00000" pt_clust_8="13000.00000" pt_clust_9="41.98905"></scales>
<clustering>
<clus scale="   41.989">  2  9  1 -1</clus>
<clus scale="   76.303">  7  8 -1 -1</clus>
<clus scale="   80.102">  5  6 -1 -1</clus>
<clus scale="  177.116">  2  7  1 -1</clus>
<clus scale="   41.989">  2  5  1 -1</clus>
</clustering>
</event>
<event>
 9    2  0.1665830E-004  0.2383248E+03  0.7546771E-02  0.1165742E+00
         21   -1    0    0  501  502  0.00000000000E+00  0.00000000000E+00  0.95161334907E+03  0.95161334907E+03  0.00000000000E+00 0. -1.
          2   -1    0    0  502    0 -0.00000000000E+00 -0.00000000000E+00 -0.80541726610E+03  0.80541726610E+03  0.00000000000E+00 0. -1.
         24    2    1    2    0    0 -0.72141992121E+01  0.14587047979E+02  0.22837080074E+03  0.24241560521E+03  0.79669795913E+02 0.  0.
         23    2    1    2    0    0 -0.19820447046E+03  0.64785790770E+02 -0.76445340529E+03  0.79767632023E+03  0.91740352157E+02 0.  0.
        -11    1    3    3    0    0  0.29106512899E+02  0.27276987223E+02  0.83750257780E+02  0.92764911488E+02  0.00000000000E+00 0.  1.
         12    1    3    3    0    0 -0.36320712111E+02 -0.12689939244E+02  0.14462054296E+03  0.14965069372E+03  0.00000000000E+00 0. -1.
        -13    1    4    4    0    0 -0.81338020981E+02  0.71009587345E+01 -0.16349248682E+03  0.18274597264E+03  0.00000000000E+00 0.  1.
         13    1    4    4    0    0 -0.11686644948E+03  0.57684832035E+02 -0.60096091847E+03  0.61493034759E+03  0.00000000000E+00 0. -1.
          1    1    1    2  501    0  0.20541866967E+03 -0.79372838749E+02  0.68227868752E+03  0.71693868973E+03  0.00000000000E+00 0. -1.
<scales pt_clust_5="13000.00000" pt_clust_6="13000.00000" pt_clust_7="13000.00000" pt_clust_8="13000.00000" pt_clust_9="219.96001"></scales>
<clustering>
<clus scale="   79.670">  5  6 -1 -1</clus>
<clus scale="   81.315">  2  5  1 -1</clus>
<clus scale="   91.740">  7  8 -1 -1</clus>
<clus scale="  219.960">  1  9  2 -1</clus>
<clus scale="  219.960">  1  5  2 -1</clus>
</clustering>
</event>
<event>
 9    2  0.1665830E-004  0.1251250E+03  0.7546771E-02  0.1261573E+00
         21   -1    0    0  501  502  0.00000000000E+00  0.00000000000E+00  0.41937294185E+03  0.41937294185E+03  0.00000000000E+00 0. -1.
         -3   -1    0    0    0  501 -0.00000000000E+00 -0.00000000000E+00 -0.55504465214E+02  0.55504465214E+02  0.00000000000E+00 0.  1.
         24    2    1    2    0    0 -0.31462836235E+02  0.26054399439E+01  0.17777919617E+03  0.19228994559E+03  0.66130796165E+02 0.  0.
         23    2    1    2    0    0 -0.18263876078E+02 -0.78364261990E+02  0.10385695546E+03  0.16021793786E+03  0.91700565357E+02 0.  0.
        -13    1    3    3    0    0 -0.23418433722E+02  0.27443575980E+02  0.48760351572E+02  0.60655954250E+02  0.00000000000E+00 0.  1.
         14    1    3    3    0    0 -0.80444025128E+01 -0.24838136036E+02  0.12901884460E+03  0.13163399134E+03  0.00000000000E+00 0. -1.
        -11    1    4    4    0    0  0.76470125529E+01 -0.82912113963E+02  0.42552192785E+02  0.93507136378E+02  0.00000000000E+00 0.  1.
         11    1    4    4    0    0 -0.25910888631E+02  0.45478519728E+01  0.61304762675E+02  0.66710801478E+02  0.00000000000E+00 0. -1.
         -4    1    1    2    0  502  0.49726712313E+02  0.75758822046E+02  0.82232325002E+02  0.12236952362E+03  0.00000000000E+00 0.  1.
<scales pt_clust_5="13000.00000" pt_clust_6="13000.00000" pt_clust_7="13000.00000" pt_clust_8="13000.00000" pt_clust_9="85.13096"></scales>
<clustering>
<clus scale="   66.131">  5  6 -1 -1</clus>
<clus scale="   73.280">  2  5  1 -1</clus>
<clus scale="   85.131">  1  9  2 -1</clus>
<clus scale="   91.701">  7  8 -1 -1</clus>
<clus scale="   85.131">  1  5  2 -1</clus>
</clustering>
</event>
<event>
 9    2  0.1665830E-004  0.1087800E+03  0.7546771E-02  0.1267090E+00
         21   -1    0    0  501  502  0.00000000000E+00  0.00000000000E+00  0.46036717413E+02  0.46036717413E+02  0.00000000000E+00 0.  1.
          2   -1    0    0  502    0 -0.00000000000E+00 -0.00000000000E+00 -0.62124358727E+03  0.62124358727E+03  0.00000000000E+00 0. -1.
         24    2    1    2    0    0 -0.38902317127E+02  0.24799877442E+02 -0.24062134531E+03  0.25816526187E+03  0.81377186087E+02 0.  0.
         23    2    1    2    0    0  0.10924942105E+03  0.29609806507E+02 -0.19157990098E+03  0.24071154788E+03  0.91798770043E+02 0.  0.
        -11    1    3    3    0    0 -0.98167761292E+00  0.37843122617E+02 -0.46577440568E+02  0.60021026234E+02  0.00000000000E+00 0.  1.
         12    1    3    3    0    0 -0.37920639514E+02 -0.13043245174E+02 -0.19404390474E+03  0.19814423563E+03  0.00000000000E+00 0. -1.
        -11    1    4    4    0    0  0.71780682703E+02  0.54322084545E+02 -0.79952641199E+02  0.12039842239E+03  0.00000000000E+00 0.  1.
         11    1    4    4    0    0  0.37468738344E+02 -0.24712278038E+02 -0.11162725978E+03  0.12031312549E+03  0.00000000000E+00 0. -1.
          1    1    1    2  501    0 -0.70347103920E+02 -0.54409683950E+02 -0.14300562357E+03  0.16840349495E+03  0.00000000000E+00 0. -1.
<scales pt_clust_5="13000.00000" pt_clust_6="13000.00000" pt_clust_7="13000.00000" pt_clust_8="13000.00000" pt_clust_9="88.93328"></scales>
<clustering>
<clus scale="   81.377">  5  6 -1 -1</clus>
<clus scale="   88.933">  1  9  2 -1</clus>
<clus scale="   91.799">  7  8 -1 -1</clus>
<clus scale="  100.142">  2  5  1 -1</clus>
<clus scale="   88.933">  1  5  2 -1</clus>
</clustering>
</event>
<event>
 9    2  0.1665830E-004  0.1022372E+03  0.7546771E-02  0.1280201E+00
          2   -1    0    0  502    0 -0.00000000000E+00  0.00000000000E+00  0.86020296357E+02  0.86020296357E+02  0.00000000000E+00 0. -1.
         21   -1    0    0  501  502  0.00000000000E+00 -0.00000000000E+00 -0.19871484915E+03  0.19871484915E+03  0.00000000000E+00 0.  1.
         23    2    1    2    0    0 -0.18259569000E+02 -0.27592535073E+02 -0.19543132279E+02  0.98938349569E+02  0.91170736227E+02 0.  0.
         24    2    1    2    0    0  0.32739353601E+02  0.65522137094E+02 -0.95156124172E+02  0.14514783890E+03  0.81536442445E+02 0.  0.
        -11    1    4    4    0    0  0.37228962360E+02  0.19758983133E+02 -0.89360257260E+02  0.98801157030E+02  0.00000000000E+00 0.  1.
         12    1    4    4    0    0 -0.44896087593E+01  0.45763153960E+02 -0.57958669128E+01  0.46346681871E+02  0.00000000000E+00 0. -1.
        -11    1    3    3    0    0  0.23162474580E+02 -0.97355631571E+00 -0.39507482988E+02  0.45807087362E+02  0.00000000000E+00 0.  1.
         11    1    3    3    0    0 -0.41422043580E+02 -0.26618978757E+02  0.19964350708E+02  0.53131262206E+02  0.00000000000E+00 0. -1.
          1    1    1    2  501    0 -0.14479784601E+02 -0.37929602021E+02  0.20047036585E+01  0.40648957038E+02  0.00000000000E+00 0. -1.
<scales pt_clust_5="13000.00000" pt_clust_6="13000.00000" pt_clust_7="13000.00000" pt_clust_8="13000.00000" pt_clust_9="40.59951"></scales>
<clustering>
<clus scale="   40.600">  2  9  1 -1</clus>
<clus scale="   81.536">  5  6 -1 -1</clus>
<clus scale="   91.171">  7  8 -1 -1</clus>
<clus scale="   93.747">  2  5  1 -1</clus>
<clus scale="   40.600">  2  5  1 -1</clus>
</clustering>
</event>
<event>
 9    2  0.1739999E-004  0.9212780E+02  0.7546771E-02  0.1305567E+00
         21   -1    0    0  501  502  0.00000000000E+00  0.00000000000E+00  0.12871680892E+03  0.12871680892E+03  0.00000000000E+00 0. -1.
          2   -1    0    0  502    0 -0.00000000000E+00 -0.00000000000E+00 -0.11156243947E+04  0.11156243947E+04  0.00000000000E+00 0. -1.
         24    2    1    2    0    0  0.73826629166E+01  0.81893937054E+01 -0.97346163002E+03  0.97675901693E+03  0.79429605059E+02 0.  0.
         23    2    1    2    0    0  0.91973320784E+01  0.20639590920E+02 -0.12183925856E+03  0.15420178849E+03  0.91775830242E+02 0.  0.
        -13    1    3    3    0    0  0.18680109181E+02  0.10552964513E+02 -0.69783495740E+02  0.73007176474E+02  0.00000000000E+00 0.  1.
         14    1    3    3    0    0 -0.11297446264E+02 -0.23635708076E+01 -0.90367813428E+03  0.90375184046E+03  0.00000000000E+00 0. -1.
        -11    1    4    4    0    0  0.41888145489E+02  0.20937452427E+02 -0.27382548450E+02  0.54247558528E+02  0.00000000000E+00 0. -1.
         11    1    4    4    0    0 -0.32690813410E+02 -0.29786150659E+00 -0.94456710105E+02  0.99954229959E+02  0.00000000000E+00 0.  1.
          1    1    1    2  501    0 -0.16579994995E+02 -0.28828984625E+02  0.10839330283E+03  0.11338039816E+03  0.00000000000E+00 0. -1.
<scales pt_clust_5="13000.00000" pt_clust_6="13000.00000" pt_clust_7="13000.00000" pt_clust_8="13000.00000" pt_clust_9="33.25668"></scales>
<clustering>
<clus scale="   33.257">  1  9  2 -1</clus>
<clus scale="   79.430">  5  6 -1 -1</clus>
<clus scale="   79.836">  2  5  1 -1</clus>
<clus scale="   91.776">  7  8 -1 -1</clus>
<clus scale="   33.257">  1  5  2 -1</clus>
</clustering>
</event>
<event>
 9    2  0.1665830E-004  0.1663215E+03  0.7546771E-02  0.1209652E+00
         -3   -1    0    0    0  501 -0.00000000000E+00  0.00000000000E+00  0.10926315851E+03  0.10926315851E+03  0.00000000000E+00 0.  1.
         21   -1    0    0  501  502  0.00000000000E+00 -0.00000000000E+00 -0.46348172359E+03  0.46348172359E+03  0.00000000000E+00 0.  1.
         24    2    1    2    0    0 -0.30031041146E+02 -0.27124447323E+02  0.61078301820E+01  0.90504662329E+02  0.80722916442E+02 0.  0.
         23    2    1    2    0    0 -0.49079166738E+02 -0.10228933402E+03 -0.86449493335E+02  0.16916689097E+03  0.90950808911E+02 0.  0.
        -11    1    3    3    0    0 -0.26850208434E+02 -0.88699248999E+01  0.41696788303E+02  0.50380863584E+02  0.00000000000E+00 0.  1.
         12    1    3    3    0    0 -0.31808327127E+01 -0.18254522423E+02 -0.35588958121E+02  0.40123798745E+02  0.00000000000E+00 0. -1.
        -13    1    4    4    0    0 -0.50517547599E+02 -0.83631930859E+01 -0.35444605135E+02  0.62275883351E+02  0.00000000000E+00 0.  1.
         13    1    4    4    0    0  0.14383808612E+01 -0.93926140930E+02 -0.51004888200E+02  0.10689100762E+03  0.00000000000E+00 0. -1.
         -4    1    1    2    0  502  0.79110207884E+02  0.12941378134E+03 -0.27387690193E+03  0.31307332879E+03  0.00000000000E+00 0.  1.
<scales pt_clust_5="13000.00000" pt_clust_6="13000.00000" pt_clust_7="13000.00000" pt_clust_8="13000.00000" pt_clust_9="139.25083"></scales>
<clustering>
<clus scale="   80.723">  5  6 -1 -1</clus>
<clus scale="   90.298">  1  5  2 -1</clus>
<clus scale="   90.951">  7  8 -1 -1</clus>
<clus scale="  139.251">  2  9  1 -1</clus>
<clus scale="  139.251">  2  5  1 -1</clus>
</clustering>
</event>
<event>
 9    2  0.1851451E-004  0.8713571E+02  0.7546771E-02  0.1313120E+00
          2   -1    0    0  502    0 -0.00000000000E+00  0.00000000000E+00  0.30236738355E+03  0.30236738355E+03  0.00000000000E+00 0. -1.
         21   -1    0    0  501  502  0.00000000000E+00 -0.00000000000E+00 -0.27791960749E+03  0.27791960749E+03  0.00000000000E+00 0. -1.
         24    2    1    2    0    0 -0.73344983269E+01 -0.15994721163E+02  0.28285775752E+03  0.29463138646E+03  0.80557537990E+02 0.  0.
         23    2    1    2    0    0  0.35690555102E+01 -0.10339207957E+02 -0.14104485477E+03  0.16531347835E+03  0.85529279726E+02 0.  0.
        -13    1    3    3    0    0  0.61458251858E+01  0.31872696631E+02  0.10030579670E+03  0.10542719198E+03  0.00000000000E+00 0.  1.
         14    1    3    3    0    0 -0.13480323513E+02 -0.47867417794E+02  0.18255196083E+03  0.18920419448E+03  0.00000000000E+00 0. -1.
        -11    1    4    4    0    0  0.17989526078E+02 -0.31342889168E+02 -0.13413158205E+03  0.13891465384E+03  0.00000000000E+00 0. -1.
         11    1    4    4    0    0 -0.14420470567E+02  0.21003681212E+02 -0.69132727215E+01  0.26398824511E+02  0.00000000000E+00 0.  1.
          1    1    1    2  501    0  0.37654428168E+01  0.26333929120E+02 -0.11736512669E+03  0.12034212623E+03  0.00000000000E+00 0. -1.
<scales pt_clust_5="13000.00000" pt_clust_6="13000.00000" pt_clust_7="13000.00000" pt_clust_8="13000.00000" pt_clust_9="26.60177"></scales>
<clustering>
<clus scale="   26.602">  2  9  1 -1</clus>
<clus scale="   80.558">  5  6 -1 -1</clus>
<clus scale="   82.261">  1  5  2 -1</clus>
<clus scale="   85.529">  7  8 -1 -1</clus>
<clus scale="   26.602">  2  5  1 -1</clus>
</clustering>
</event>
<event>
 9    2  0.1665830E-004  0.1024047E+03  0.7546771E-02  0.1279097E+00
         21   -1    0    0  501  502  0.00000000000E+00  0.00000000000E+00  0.35517058745E+03  0.35517058745E+03  0.00000000000E+00 0.  1.
         -3   -1    0    0    0  501 -0.00000000000E+00 -0.00000000000E+00 -0.52466393503E+02  0.52466393503E+02  0.00000000000E+00 0.  1.
         24    2    1    2    0    0  0.10760081200E+02 -0.35032417290E+02  0.77600784691E+02  0.12000180747E+03  0.83877901753E+02 0.  0.
         23    2    1    2    0    0 -0.70255119786E+02  0.26061809799E+02  0.15724254648E+03  0.19694213014E+03  0.91902037043E+02 0.  0.
        -11    1    3    3    0    0  0.10965776268E+00 -0.55869955154E+02  0.78768720188E+02  0.96571088809E+02  0.00000000000E+00 0.  1.
         12    1    3    3    0    0  0.10650423437E+02  0.20837537864E+02 -0.11679354965E+01  0.23430718660E+02  0.00000000000E+00 0. -1.
        -13    1    4    4    0    0 -0.62198444969E+02  0.59416297463E+01  0.16295974933E+03  0.17452744604E+03  0.00000000000E+00 0.  1.
         13    1    4    4    0    0 -0.80566748167E+01  0.20120180053E+02 -0.57172028512E+01  0.22414684091E+02  0.00000000000E+00 0. -1.
         -4    1    1    2    0  502  0.59495038586E+02  0.89706074907E+01  0.67860862775E+02  0.90693043348E+02  0.00000000000E+00 0.  1.
<scales pt_clust_5="13000.00000" pt_clust_6="13000.00000" pt_clust_7="13000.00000" pt_clust_8="13000.00000" pt_clust_9="60.16753"></scales>
<clustering>
<clus scale="   60.168">  1  9  2 -1</clus>
<clus scale="   83.878">  5  6 -1 -1</clus>
<clus scale="   91.902">  7  8 -1 -1</clus>
<clus scale="   95.269">  2  5  1 -1</clus>
<clus scale="   60.168">  1  5  2 -1</clus>
</clustering>
</event>
<event>
 9    2  0.1665830E-004  0.8933844E+02  0.7546771E-02  0.1307719E+00
         21   -1    0    0  501  502  0.00000000000E+00  0.00000000000E+00  0.38694726546E+03  0.38694726546E+03  0.00000000000E+00 0. -1.
          2   -1    0    0  502    0 -0.00000000000E+00 -0.00000000000E+00 -0.11134087980E+03  0.11134087980E+03  0.00000000000E+00 0. -1.
         24    2    1    2    0    0 -0.24416660764E+02  0.10030516526E+01 -0.72185192126E+02  0.11168302515E+03  0.81640778472E+02 0.  0.
         23    2    1    2    0    0 -0.25148318637E+02  0.45110786124E+02  0.20774003891E+03  0.23104932061E+03  0.86950812711E+02 0.  0.
        -13    1    3    3    0    0 -0.21327948650E+02  0.29604359660E+02 -0.28279607182E+01  0.36596405101E+02  0.00000000000E+00 0.  1.
         14    1    3    3    0    0 -0.30887121137E+01 -0.28601308007E+02 -0.69357231407E+02  0.75086620051E+02  0.00000000000E+00 0. -1.
        -13    1    4    4    0    0  0.25779744011E+02  0.25582405262E+02  0.37158367957E+02  0.51959589774E+02  0.00000000000E+00 0.  1.
         13    1    4    4    0    0 -0.50928062648E+02  0.19528380862E+02  0.17058167096E+03  0.17908973084E+03  0.00000000000E+00 0. -1.
          1    1    1    2  501    0  0.49564979401E+02 -0.46113837776E+02  0.14005153887E+03  0.15555579950E+03  0.00000000000E+00 0. -1.
<scales pt_clust_5="13000.00000" pt_clust_6="13000.00000" pt_clust_7="13000.00000" pt_clust_8="13000.00000" pt_clust_9="67.69914"></scales>
<clustering>
<clus scale="   67.699">  1  9  2 -1</clus>
<clus scale="   81.641">  5  6 -1 -1</clus>
<clus scale="   84.179">  2  5  1 -1</clus>
<clus scale="   86.951">  7  8 -1 -1</clus>
<clus scale="   67.699">  1  5  2 -1</clus>
</clustering>
</event>
<event>
 9    2  0.1994151E-004  0.3054926E+03  0.7546771E-02  0.1125020E+00
          2   -1    0    0  502    0 -0.00000000000E+00  0.00000000000E+00  0.21585620992E+04  0.21585620992E+04  0.00000000000E+00 0. -1.
         21   -1    0    0  501  502  0.00000000000E+00 -0.00000000000E+00 -0.76562143486E+02  0.76562143486E+02  0.00000000000E+00 0.  1.
         24    2    1    2    0    0 -0.58465295381E+02 -0.26314837203E+02  0.38403619890E+03  0.39739428143E+03  0.79547164794E+02 0.  0.
         23    2    1    2    0    0  0.27674354470E+03 -0.12156655928E+03  0.38100921272E+03  0.49464263247E+03  0.90210286569E+02 0.  0.
        -13    1    3    3    0    0  0.44620581644E+00  0.24210657495E+02  0.10587696518E+03  0.10861071215E+03  0.00000000000E+00 0.  1.
         14    1    3    3    0    0 -0.58911501198E+02 -0.50525494698E+02  0.27815923371E+03  0.28878356928E+03  0.00000000000E+00 0. -1.
        -11    1    4    4    0    0  0.23111316737E+03 -0.13525288625E+03  0.32552805438E+03  0.42151530643E+03  0.00000000000E+00 0.  1.
         11    1    4    4    0    0  0.45630377336E+02  0.13686326967E+02  0.55481158342E+02  0.73127326032E+02  0.00000000000E+00 0. -1.
          1    1    1    2  501    0 -0.21827824932E+03  0.14788139649E+03  0.13169545441E+04  0.13430873288E+04  0.00000000000E+00 0. -1.
<scales pt_clust_5="13000.00000" pt_clust_6="13000.00000" pt_clust_7="13000.00000" pt_clust_8="13000.00000" pt_clust_9="291.86971"></scales>
<clustering>
<clus scale="   79.547">  5  6 -1 -1</clus>
<clus scale="   90.210">  7  8 -1 -1</clus>
<clus scale="  102.169">  1  5  2 -1</clus>
<clus scale="  291.870">  2  9  1 -1</clus>
<clus scale="  291.870">  2  5  1 -1</clus>
</clustering>
</event>
<event>
 9    2  0.1665830E-004  0.1358221E+03  0.7546771E-02  0.1238355E+00
         21   -1    0    0  501  502  0.00000000000E+00  0.00000000000E+00  0.98020728791E+02  0.98020728791E+02  0.00000000000E+00 0. -1.
          2   -1    0    0  502    0 -0.00000000000E+00 -0.00000000000E+00 -0.54816604471E+03  0.54816604471E+03  0.00000000000E+00 0. -1.
         24    2    1    2    0    0  0.36672317636E+02 -0.29363971554E+02 -0.56522886874E+02  0.10722322927E+03  0.78069728116E+02 0.  0.
         23    2    1    2    0    0 -0.12656277552E+03 -0.20694677886E+01 -0.41261559036E+03  0.44186001338E+03  0.94690164089E+02 0.  0.
        -11    1    3    3    0    0  0.26884440307E+02  0.14671148582E+02 -0.53953542679E+02  0.62040313498E+02  0.00000000000E+00 0.  1.
         12    1    3    3    0    0  0.97878773291E+01 -0.44035120136E+02 -0.25693441957E+01  0.45182915772E+02  0.00000000000E+00 0. -1.
        -13    1    4    4    0    0 -0.37373167967E+02  0.37544117737E+02 -0.86285018685E+02  0.10124929091E+03  0.00000000000E+00 0.  1.
         13    1    4    4    0    0 -0.89189607554E+02 -0.39613585526E+02 -0.32633057167E+03  0.34061072247E+03  0.00000000000E+00 0. -1.
          1    1    1    2  501    0  0.89890457885E+02  0.31433439342E+02  0.18993161310E+02  0.97103530853E+02  0.00000000000E+00 0. -1.
<scales pt_clust_5="13000.00000" pt_clust_6="13000.00000" pt_clust_7="13000.00000" pt_clust_8="13000.00000" pt_clust_9="97.37263"></scales>
<clustering>
<clus scale="   78.070">  5  6 -1 -1</clus>
<clus scale="   91.115">  2  5  1 -1</clus>
<clus scale="   94.690">  7  8 -1 -1</clus>
<clus scale="   97.373">  1  9  2 -1</clus>
<clus scale="   97.373">  1  5  2 -1</clus>
</clustering>
</event>
<event>
 9    2  0.1665830E-004  0.9286455E+02  0.7546771E-02  0.1301615E+00
         -3   -1    0    0    0  501 -0.00000000000E+00  0.00000000000E+00  0.27052157380E+03  0.27052157380E+03  0.00000000000E+00 0.  1.
         21   -1    0    0  501  502  0.00000000000E+00 -0.00000000000E+00 -0.79326109011E+02  0.79326109011E+02  0.00000000000E+00 0.  1.
         24    2    1    2    0    0 -0.96804363003E+01 -0.19935667700E+02  0.19193566216E+03  0.20971603588E+03  0.81549835083E+02 0.  0.
         23    2    1    2    0    0  0.18240495903E+02 -0.58472320367E+00  0.34165270019E+02  0.98746230215E+02  0.90832233894E+02 0.  0.
        -13    1    3    3    0    0  0.23990984694E+02 -0.24599543575E+02  0.15796316629E+03  0.16165725099E+03  0.00000000000E+00 0.  1.
         14    1    3    3    0    0 -0.33671420994E+02  0.46638758757E+01  0.33972495867E+02  0.48058784893E+02  0.00000000000E+00 0. -1.
        -13    1    4    4    0    0  0.37694437714E+02 -0.35094078222E+02  0.28101121846E+02  0.58669736746E+02  0.00000000000E+00 0.  1.
         13    1    4    4    0    0 -0.19453941811E+02  0.34509355018E+02  0.60641481725E+01  0.40076493469E+02  0.00000000000E+00 0. -1.
         -4    1    1    2    0  502 -0.85600596026E+01  0.20520390903E+02 -0.34905467389E+02  0.41385416718E+02  0.00000000000E+00 0.  1.
<scales pt_clust_5="13000.00000" pt_clust_6="13000.00000" pt_clust_7="13000.00000" pt_clust_8="13000.00000" pt_clust_9="22.23423"></scales>
<clustering>
<clus scale="   22.234">  2  9  1 -1</clus>
<clus scale="   81.550">  5  6 -1 -1</clus>
<clus scale="   83.808">  1  5  2 -1</clus>
<clus scale="   90.832">  7  8 -1 -1</clus>
<clus scale="   22.234">  2  5  1 -1</clus>
</clustering>
</event>
<event>
 9    2  0.1665830E-004  0.1124628E+03  0.7546771E-02  0.1259819E+00
         21   -1    0    0  501  502  0.00000000000E+00  0.00000000000E+00  0.93962659450E+02  0.93962659450E+02  0.00000000000E+00 0.  1.
         -1   -1    0    0    0  501 -0.00000000000E+00 -0.00000000000E+00 -0.42195113232E+03  0.42195113232E+03  0.00000000000E+00 0.  1.
         24    2    1    2    0    0 -0.16783417295E+02 -0.58641249682E+02 -0.29740704962E+03  0.31421763532E+03  0.81001789630E+02 0.  0.
         23    2    1    2    0    0  0.24740502781E+02  0.83021881314E+02 -0.77891541106E+02  0.14788186783E+03  0.91089128894E+02 0.  0.
        -13    1    3    3    0    0  0.30489828593E+02 -0.38851725046E+02 -0.12675207572E+03  0.13603372702E+03  0.00000000000E+00 0.  1.
         14    1    3    3    0    0 -0.47273245888E+02 -0.19789524635E+02 -0.17065497390E+03  0.17818390830E+03  0.00000000000E+00 0. -1.
        -11    1    4    4    0    0  0.57384697216E+02  0.68594447348E+02 -0.61948511389E+02  0.10879255372E+03  0.00000000000E+00 0.  1.
         11    1    4    4    0    0 -0.32644194435E+02  0.14427433966E+02 -0.15943029718E+02  0.39089314112E+02  0.00000000000E+00 0. -1.
         -2    1    1    2    0  502 -0.79570854853E+01 -0.24380631633E+02  0.47310117854E+02  0.53814288619E+02  0.00000000000E+00 0.  1.
<scales pt_clust_5="13000.00000" pt_clust_6="13000.00000" pt_clust_7="13000.00000" pt_clust_8="13000.00000" pt_clust_9="25.64626"></scales>
<clustering>
<clus scale="   25.646">  1  9  2 -1</clus>
<clus scale="   81.002">  5  6 -1 -1</clus>
<clus scale="   91.089">  7  8 -1 -1</clus>
<clus scale="  104.460">  2  5  1 -1</clus>
<clus scale="   25.646">  1  5  2 -1</clus>
</clustering>
</event>
<event>
 9    2  0.1665830E-004  0.1284730E+03  0.7546771E-02  0.1234167E+00
         -3   -1    0    0    0  501 -0.00000000000E+00  0.00000000000E+00  0.11450323205E+03  0.11450323205E+03  0.00000000000E+00 0.  1.
         21   -1    0    0  501  502  0.00000000000E+00 -0.00000000000E+00 -0.46025131514E+03  0.46025131514E+03  0.00000000000E+00 0.  1.
         24    2    1    2    0    0 -0.28810542609E+02 -0.91729591987E+02  0.48824201058E+02  0.13502685424E+03  0.81265511412E+02 0.  0.
         23    2    1    2    0    0  0.24247154698E+02  0.37353610597E+01 -0.26380866370E+03  0.28204784764E+03  0.96716595693E+02 0.  0.
        -13    1    3    3    0    0 -0.46142488142E+02 -0.94509971336E+02  0.51776825155E+02  0.11722671844E+03  0.00000000000E+00 0.  1.
         14    1    3    3    0    0  0.17331945533E+02  0.27803793490E+01 -0.29526240969E+01  0.17800135795E+02  0.00000000000E+00 0. -1.
        -13    1    4    4    0    0 -0.23256530620E+02  0.22017331523E+02 -0.34154148244E+02  0.46820240774E+02  0.00000000000E+00 0. -1.
         13    1    4    4    0    0  0.47503685318E+02 -0.18281970464E+02 -0.22965451545E+03  0.23522760687E+03  0.00000000000E+00 0.  1.
         -4    1    1    2    0  502  0.45633879110E+01  0.87994230928E+02 -0.13076362044E+03  0.15767984531E+03  0.00000000000E+00 0.  1.
<scales pt_clust_5="13000.00000" pt_clust_6="13000.00000" pt_clust_7="13000.00000" pt_clust_8="13000.00000" pt_clust_9="88.11248"></scales>
<clustering>
<clus scale="   81.266">  5  6 -1 -1</clus>
<clus scale="   88.112">  2  9  1 -1</clus>
<clus scale="   96.717">  7  8 -1 -1</clus>
<clus scale="  117.283">  1  5  2 -1</clus>
<clus scale="   88.112">  2  5  1 -1</clus>
</clustering>
</event>
<event>
 9    2  0.1665830E-004  0.1081228E+03  0.7546771E-02  0.1266300E+00
         -1   -1    0    0    0  501 -0.00000000000E+00  0.00000000000E+00  0.17136357631E+03  0.17136357631E+03  0.00000000000E+00 0.  1.
         21   -1    0    0  501  502  0.00000000000E+00 -0.00000000000E+00 -0.15995897393E+03  0.15995897393E+03  0.00000000000E+00 0.  1.
         24    2    1    2    0    0  0.46703601485E+02  0.30039713799E+02  0.87983334960E+02  0.13362638400E+03  0.83853040936E+02 0.  0.
         23    2    1    2    0    0 -0.79687514713E+02 -0.41916877667E+02 -0.94593127986E+02  0.15828139749E+03  0.89431629154E+02 0.  0.
        -13    1    3    3    0    0  0.97506603263E+01  0.55072385159E+02  0.47967686079E+02  0.73681353758E+02  0.00000000000E+00 0.  1.
         14    1    3    3    0    0  0.36952941159E+02 -0.25032671360E+02  0.40015648882E+02  0.59945030245E+02  0.00000000000E+00 0. -1.
        -11    1    4    4    0    0 -0.42418520098E+02 -0.69064266211E+01  0.79405677149E+01  0.43704487088E+02  0.00000000000E+00 0. -1.
         11    1    4    4    0    0 -0.37268994616E+02 -0.35010451046E+02 -0.10253369570E+03  0.11457691040E+03  0.00000000000E+00 0.  1.
         -2    1    1    2    0  502  0.32983913228E+02  0.11877163868E+02  0.18014395409E+02  0.39414768747E+02  0.00000000000E+00 0.  1.
<scales pt_clust_5="13000.00000" pt_clust_6="13000.00000" pt_clust_7="13000.00000" pt_clust_8="13000.00000" pt_clust_9="35.05719"></scales>
<clustering>
<clus scale="   35.057">  2  9  1 -1</clus>
<clus scale="   83.853">  5  6 -1 -1</clus>
<clus scale="   89.432">  7  8 -1 -1</clus>
<clus scale="  103.556">  1  5  2 -1</clus>
<clus scale="   35.057">  2  5  1 -1</clus>
</clustering>
</event>
<event>
 9    2  0.1665830E-004  0.9821690E+02  0.7546771E-02  0.1294360E+00
          2   -1    0    0  502    0 -0.00000000000E+00  0.00000000000E+00  0.33813217953E+03  0.33813217953E+03  0.00000000000E+00 0. -1.
         21   -1    0    0  501  502  0.00000000000E+00 -0.00000000000E+00 -0.10289964211E+03  0.10289964211E+03  0.00000000000E+00 0. -1.
         24    2    1    2    0    0 -0.16054304875E+02  0.13910847043E+02  0.19270190600E+03  0.20960506909E+03  0.79680662908E+02 0.  0.
         23    2    1    2    0    0 -0.62739249281E+02  0.45765056156E+01 -0.33413799081E+02  0.12044133500E+03  0.97120931852E+02 0.  0.
        -13    1    3    3    0    0 -0.11905416939E+01 -0.33116589495E+02  0.76288858847E+02  0.83175211893E+02  0.00000000000E+00 0.  1.
         14    1    3    3    0    0 -0.14863763181E+02  0.47027436538E+02  0.11641304715E+03  0.12642985720E+03  0.00000000000E+00 0. -1.
        -11    1    4    4    0    0 -0.52915842200E+02 -0.42270682806E+02 -0.16860096671E+02  0.69793694847E+02  0.00000000000E+00 0. -1.
         11    1    4    4    0    0 -0.98234070815E+01  0.46847188422E+02 -0.16553702410E+02  0.50647640154E+02  0.00000000000E+00 0.  1.
          1    1    1    2  501    0  0.78793554156E+02 -0.18487352658E+02  0.75944430503E+02  0.11098541755E+03  0.00000000000E+00 0. -1.
<scales pt_clust_5="13000.00000" pt_clust_6="13000.00000" pt_clust_7="13000.00000" pt_clust_8="13000.00000" pt_clust_9="80.93339"></scales>
<clustering>
<clus scale="   79.681">  5  6 -1 -1</clus>
<clus scale="   80.933">  2  9  1 -1</clus>
<clus scale="   81.013">  1  5  2 -1</clus>
<clus scale="   97.121">  7  8 -1 -1</clus>
<clus scale="   80.933">  2  5  1 -1</clus>
</clustering>
</event>
<event>
 9    2  0.1665830E-004  0.9214847E+02  0.7546771E-02  0.1304717E+00
         21   -1    0    0  501  502  0.00000000000E+00  0.00000000000E+00  0.22227542611E+03  0.22227542611E+03  0.00000000000E+00 0.  1.
         -1   -1    0    0    0  501 -0.00000000000E+00 -0.00000000000E+00 -0.14746183374E+03  0.14746183374E+03  0.00000000000E+00 0.  1.
         23    2    1    2    0    0 -0.11653100369E+02 -0.75499189287E+01 -0.81586495339E+02  0.12384825076E+03  0.92137055356E+02 0.  0.
         24    2    1    2    0    0 -0.54073005159E+02 -0.39845110156E+02  0.62234179339E+02  0.12165766028E+03  0.80099753663E+02 0.  0.
        -13    1    4    4    0    0 -0.34522498696E+02  0.20312214446E+02  0.15237241669E+02  0.42855133947E+02  0.00000000000E+00 0.  1.
         14    1    4    4    0    0 -0.19550506463E+02 -0.60157324603E+02  0.46996937670E+02  0.78802526334E+02  0.00000000000E+00 0. -1.
        -13    1    3    3    0    0 -0.49536100629E+02 -0.19527990950E+02 -0.42689281905E+02  0.68246190265E+02  0.00000000000E+00 0.  1.
         13    1    3    3    0    0  0.37883000260E+02  0.11978072022E+02 -0.38897213434E+02  0.55602060492E+02  0.00000000000E+00 0. -1.
         -2    1    1    2    0  502  0.65726105528E+02  0.47395029085E+02  0.94165908365E+02  0.12423134881E+03  0.00000000000E+00 0.  1.
<scales pt_clust_5="13000.00000" pt_clust_6="13000.00000" pt_clust_7="13000.00000" pt_clust_8="13000.00000" pt_clust_9="81.03215"></scales>
<clustering>
<clus scale="   80.100">  5  6 -1 -1</clus>
<clus scale="   81.032">  1  9  2 -1</clus>
<clus scale="   81.032">  1  5  2 -1</clus>
<clus scale="   92.137">  7  8 -1 -1</clus>
<clus scale="   81.032">  1  5  2 -1</clus>
</clustering>
</event>
<event>
 9    2  0.1665830E-004  0.1134800E+03  0.7546771E-02  0.1258965E+00
         -1   -1    0    0    0  501 -0.00000000000E+00  0.00000000000E+00  0.22337832614E+03  0.22337832614E+03  0.00000000000E+00 0.  1.
         21   -1    0    0  501  502  0.00000000000E+00 -0.00000000000E+00 -0.10727349880E+03  0.10727349880E+03  0.00000000000E+00 0.  1.
         24    2    1    2    0    0  0.69294855066E+02 -0.42498139301E+02  0.12417726804E+03  0.16888096588E+03  0.80578644536E+02 0.  0.
         23    2    1    2    0    0 -0.94258124118E+01  0.25080972653E+02 -0.18111586763E+02  0.98616726844E+02  0.93162911663E+02 0.  0.
        -11    1    3    3    0    0  0.24486979489E+02 -0.58930552652E+02  0.89348381039E+02  0.10979779321E+03  0.00000000000E+00 0.  1.
         12    1    3    3    0    0  0.44807875578E+02  0.16432413352E+02  0.34828887004E+02  0.59083172666E+02  0.00000000000E+00 0. -1.
        -11    1    4    4    0    0 -0.33447278430E+02 -0.13781375497E+02  0.17976832969E+02  0.40395708542E+02  0.00000000000E+00 0. -1.
         11    1    4    4    0    0  0.24021466019E+02  0.38862348150E+02 -0.36088419732E+02  0.58221018303E+02  0.00000000000E+00 0.  1.
         -2    1    1    2    0  502 -0.59869042655E+02  0.17417166647E+02  0.10039146051E+02  0.63154132215E+02  0.00000000000E+00 0.  1.
<scales pt_clust_5="13000.00000" pt_clust_6="13000.00000" pt_clust_7="13000.00000" pt_clust_8="13000.00000" pt_clust_9="62.35110"></scales>
<clustering>
<clus scale="   62.351">  2  9  1 -1</clus>
<clus scale="   80.579">  5  6 -1 -1</clus>
<clus scale="   93.163">  7  8 -1 -1</clus>
<clus scale="  103.399">  1  5  2 -1</clus>
<clus scale="   62.351">  2  5  1 -1</clus>
</clustering>
</event>
<event>
 9    2  0.1665830E-004  0.8873372E+02  0.7546771E-02  0.1312754E+00
         21   -1    0    0  501  502  0.00000000000E+00  0.00000000000E+00  0.30970591281E+02  0.30970591281E+02  0.00000000000E+00 0.  1.
          2   -1    0    0  502    0 -0.00000000000E+00 -0.00000000000E+00 -0.75232744876E+03  0.75232744876E+03  0.00000000000E+00 0. -1.
         24    2    1    2    0    0 -0.79466658031E+01 -0.26842053158E+01 -0.47249455404E+03  0.47893494289E+03  0.77828153415E+02 0.  0.
         23    2    1    2    0    0 -0.12534614492E+02  0.26102016675E+02 -0.25610873623E+03  0.27241959203E+03  0.88217444490E+02 0.  0.
        -11    1    3    3    0    0 -0.14625464352E+02  0.35855484773E+02 -0.20969020744E+03  0.21323579224E+03  0.00000000000E+00 0.  1.
         12    1    3    3    0    0  0.66787985493E+01 -0.38539690089E+02 -0.26280434660E+03  0.26569915064E+03  0.00000000000E+00 0. -1.
        -13    1    4    4    0    0  0.26814635181E+02 -0.75857198537E+01 -0.16732460849E+03  0.16962927935E+03  0.00000000000E+00 0. -1.
         13    1    4    4    0    0 -0.39349249674E+02  0.33687736528E+02 -0.88784127735E+02  0.10279031268E+03  0.00000000000E+00 0.  1.
          1    1    1    2  501    0  0.20481280296E+02 -0.23417811359E+02  0.72464327932E+01  0.31943505124E+02  0.00000000000E+00 0. -1.
<scales pt_clust_5="13000.00000" pt_clust_6="13000.00000" pt_clust_7="13000.00000" pt_clust_8="13000.00000" pt_clust_9="31.11072"></scales>
<clustering>
<clus scale="   31.111">  1  9  2 -1</clus>
<clus scale="   77.828">  5  6 -1 -1</clus>
<clus scale="   78.413">  2  5  1 -1</clus>
<clus scale="   88.217">  7  8 -1 -1</clus>
<clus scale="   31.111">  1  5  2 -1</clus>
</clustering>
</event>
<event>
 9    2  0.1665830E-004  0.1425937E+03  0.7546771E-02  0.1221100E+00
          2   -1    0    0  502    0 -0.00000000000E+00  0.00000000000E+00  0.24035936871E+03  0.24035936871E+03  0.00000000000E+00 0. -1.
         21   -1    0    0  501  502  0.00000000000E+00 -0.00000000000E+00 -0.27017618790E+03  0.27017618790E+03  0.00000000000E+00 0. -1.
         24    2    1    2    0    0 -0.64226943416E+02  0.46708754501E+02  0.11466593812E+03  0.16061265650E+03  0.79632531391E+02 0.  0.
         23    2    1    2    0    0 -0.91603034557E+02 -0.18024082468E+00 -0.13435775636E+03  0.18697996450E+03  0.92294918612E+02 0.  0.
        -11    1    3    3    0    0 -0.22821430132E+01  0.40053624482E+02  0.14512410529E+02  0.42662759759E+02  0.00000000000E+00 0.  1.
         12    1    3    3    0    0 -0.61944800403E+02  0.66551300192E+01  0.10015352759E+03  0.11794989674E+03  0.00000000000E+00 0. -1.
        -11    1    4    4    0    0 -0.72330824152E+02  0.33408599524E+02 -0.49748643168E+02  0.93929814978E+02  0.00000000000E+00 0. -1.
         11    1    4    4    0    0 -0.19272210404E+02 -0.33588840349E+02 -0.84609113194E+02  0.93050149518E+02  0.00000000000E+00 0.  1.
          1    1    1    2  501    0  0.15582997797E+03 -0.46528513677E+02 -0.10125000949E+02  0.16294293561E+03  0.00000000000E+00 0. -1.
<scales pt_clust_5="13000.00000" pt_clust_6="13000.00000" pt_clust_7="13000.00000" pt_clust_8="13000.00000" pt_clust_9="108.69507"></scales>
<clustering>
<clus scale="   79.633">  5  6 -1 -1</clus>
<clus scale="   92.295">  7  8 -1 -1</clus>
<clus scale="  112.464">  1  5  2 -1</clus>
<clus scale="  108.695">  2  9  1 -1</clus>
<clus scale="  108.695">  2  5  1 -1</clus>
</clustering>
</event>
<event>
 9    2  0.1665830E-004  0.9703400E+02  0.7546771E-02  0.1291622E+00
         21   -1    0    0  501  502  0.00000000000E+00  0.00000000000E+00  0.35370423727E+03  0.35370423727E+03  0.00000000000E+00 0. -1.
          2   -1    0    0  502    0 -0.00000000000E+00 -0.00000000000E+00 -0.37821224682E+03  0.37821224682E+03  0.00000000000E+00 0. -1.
         24    2    1    2    0    0  0.44075210269E+02 -0.54668065721E+02 -0.21108129794E+03  0.23723104384E+03  0.82413786786E+02 0.  0.
         23    2    1    2    0    0  0.22863819926E+02  0.11084115480E+00 -0.13330668401E+03  0.16335400309E+03  0.91602902659E+02 0.  0.
        -11    1    3    3    0    0  0.58755916523E+01  0.20180563669E+02 -0.22587228462E+02  0.30853859027E+02  0.00000000000E+00 0.  1.
         12    1    3    3    0    0  0.38199618617E+02 -0.74848629389E+02 -0.18849406948E+03  0.20637718481E+03  0.00000000000E+00 0. -1.
        -11    1    4    4    0    0 -0.31814623672E+02 -0.59633086099E+01 -0.21832529535E+02  0.39043445991E+02  0.00000000000E+00 0.  1.
         11    1    4    4    0    0  0.54678443598E+02  0.60741497647E+01 -0.11147415448E+03  0.12431055710E+03  0.00000000000E+00 0. -1.
          1    1    1    2  501    0 -0.66939030195E+02  0.54557224566E+02  0.31987997239E+03  0.33133143717E+03  0.00000000000E+00 0. -1.
<scales pt_clust_5="13000.00000" pt_clust_6="13000.00000" pt_clust_7="13000.00000" pt_clust_8="13000.00000" pt_clust_9="86.35580"></scales>
<clustering>
<clus scale="   82.414">  5  6 -1 -1</clus>
<clus scale="   86.356">  1  9  2 -1</clus>
<clus scale="   88.411">  2  5  1 -1</clus>
<clus scale="   91.603">  7  8 -1 -1</clus>
<clus scale="   86.356">  1  5  2 -1</clus>
</clustering>
</event>
<event>
 9    2  0.1665830E-004  0.1881951E+03  0.7546771E-02  0.1161435E+00
         21   -1    0    0  501  502  0.00000000000E+00  0.00000000000E+00  0.29952833046E+02  0.29952833046E+02  0.00000000000E+00 0. -1.
          4   -1    0    0  502    0 -0.00000000000E+00 -0.00000000000E+00 -0.16579845349E+04  0.16579845349E+04  0.00000000000E+00 0. -1.
         24    2    1    2    0    0  0.12364228209E+03  0.11988241856E+03 -0.10380571590E+04  0.10551148828E+04  0.77753085258E+02 0.  0.
         23    2    1    2    0    0 -0.77034454261E+02 -0.13492253684E+03 -0.47302009302E+03  0.50602801327E+03  0.90431983955E+02 0.  0.
        -11    1    3    3    0    0  0.57082705000E+02  0.35869854691E+02 -0.22091024725E+03  0.23096843729E+03  0.00000000000E+00 0.  1.
         12    1    3    3    0    0  0.66559577091E+02  0.84012563873E+02 -0.81714691176E+03  0.82414644547E+03  0.00000000000E+00 0. -1.
        -13    1    4    4    0    0 -0.36260829592E+01 -0.82075039728E+02 -0.29664829027E+03  0.30781434136E+03  0.00000000000E+00 0.  1.
         13    1    4    4    0    0 -0.73408371302E+02 -0.52847497112E+02 -0.17637180275E+03  0.19821367191E+03  0.00000000000E+00 0. -1.
          3    1    1    2  501    0 -0.46607827831E+02  0.15040118275E+02 -0.11695444982E+03  0.12679447191E+03  0.00000000000E+00 0. -1.
<scales pt_clust_5="13000.00000" pt_clust_6="13000.00000" pt_clust_7="13000.00000" pt_clust_8="13000.00000" pt_clust_9="48.97443"></scales>
<clustering>
<clus scale="   48.974">  1  9  2 -1</clus>
<clus scale="   77.753">  5  6 -1 -1</clus>
<clus scale="   90.432">  7  8 -1 -1</clus>
<clus scale="  182.442">  2  5  1 -1</clus>
<clus scale="   48.974">  1  5  2 -1</clus>
</clustering>
</event>
<event>
 9    2  0.1665830E-004  0.2186416E+03  0.7546771E-02  0.1135605E+00
         21   -1    0    0  501  502  0.00000000000E+00  0.00000000000E+00  0.11463802434E+03  0.11463802434E+03  0.00000000000E+00 0. -1.
          2   -1    0    0  502    0 -0.00000000000E+00 -0.00000000000E+00 -0.53411610408E+03  0.53411610408E+03  0.00000000000E+00 0. -1.
         24    2    1    2    0    0  0.17367009099E+03 -0.13438502121E+03 -0.25683885328E+03  0.34778983151E+03  0.82285696905E+02 0.  0.
         23    2    1    2    0    0 -0.15434544269E+03  0.84820332788E+02 -0.14127667041E+03  0.24363664939E+03  0.91557166808E+02 0.  0.
        -13    1    3    3    0    0  0.27292472593E+02 -0.21648018983E+02 -0.98451803565E+02  0.10443310496E+03  0.00000000000E+00 0.  1.
         14    1    3    3    0    0  0.14637761840E+03 -0.11273700222E+03 -0.15838704972E+03  0.24335672655E+03  0.00000000000E+00 0. -1.
        -13    1    4    4    0    0 -0.12408780771E+03  0.22992876407E+02 -0.69020044609E+02  0.14384096407E+03  0.00000000000E+00 0. -1.
         13    1    4    4    0    0 -0.30257634979E+02  0.61827456381E+02 -0.72256625800E+02  0.99795685323E+02  0.00000000000E+00 0.  1.
          1    1    1    2  501    0 -0.19324648306E+02  0.49564688418E+02 -0.21362556048E+02  0.57327647527E+02  0.00000000000E+00 0. -1.
<scales pt_clust_5="13000.00000" pt_clust_6="13000.00000" pt_clust_7="13000.00000" pt_clust_8="13000.00000" pt_clust_9="53.19869"></scales>
<clustering>
<clus scale="   53.199">  1  9  2 -1</clus>
<clus scale="   82.286">  5  6 -1 -1</clus>
<clus scale="   91.557">  7  8 -1 -1</clus>
<clus scale="  214.924">  2  5  1 -1</clus>
<clus scale="   53.199">  1  5  2 -1</clus>
</clustering>
</event>
<event>
 9    2  0.1665830E-004  0.2060297E+03  0.7546771E-02  0.1181176E+00
         -3   -1    0    0    0  501 -0.00000000000E+00  0.00000000000E+00  0.34312397135E+03  0.34312397135E+03  0.00000000000E+00 0.  1.
         21   -1    0    0  501  502  0.00000000000E+00 -0.00000000000E+00 -0.20176060817E+03  0.20176060817E+03  0.00000000000E+00 0.  1.
         24    2    1    2    0    0  0.11185430033E+02  0.23683987756E+02  0.47412431063E+02  0.10049801026E+03  0.84651440186E+02 0.  0.
         23    2    1    2    0    0  0.35787989580E+01  0.17747001501E+03 -0.38419255426E+02  0.20313404216E+03  0.90988932660E+02 0.  0.
        -11    1    3    3    0    0 -0.33502385272E+02 -0.72285120916E+01  0.18330939094E+02  0.38867525443E+02  0.00000000000E+00 0.  1.
         12    1    3    3    0    0  0.44687815305E+02  0.30912499848E+02  0.29081491969E+02  0.61630484816E+02  0.00000000000E+00 0. -1.
        -13    1    4    4    0    0 -0.32380132963E+02  0.23481742912E+02  0.15553668426E+01  0.40028545151E+02  0.00000000000E+00 0.  1.
         13    1    4    4    0    0  0.35958931921E+02  0.15398827210E+03 -0.39974622268E+02  0.16310549701E+03  0.00000000000E+00 0. -1.
         -4    1    1    2    0  502 -0.14764228991E+02 -0.20115400277E+03  0.13237018754E+03  0.24125252711E+03  0.00000000000E+00 0.  1.
<scales pt_clust_5="13000.00000" pt_clust_6="13000.00000" pt_clust_7="13000.00000" pt_clust_8="13000.00000" pt_clust_9="184.84932"></scales>
<clustering>
<clus scale="   84.651">  5  6 -1 -1</clus>
<clus scale="   88.611">  1  5  2 -1</clus>
<clus scale="   90.989">  7  8 -1 -1</clus>
<clus scale="  184.849">  2  9  1 -1</clus>
<clus scale="  184.849">  2  5  1 -1</clus>
</clustering>
</event>
<event>
 9    2  0.1665830E-004  0.1894768E+03  0.7546771E-02  0.1160524E+00
         21   -1    0    0  501  502  0.00000000000E+00  0.00000000000E+00  0.53969991197E+02  0.53969991197E+02  0.00000000000E+00 0.  1.
          2   -1    0    0  502    0 -0.00000000000E+00 -0.00000000000E+00 -0.10005771933E+04  0.10005771933E+04  0.00000000000E+00 0. -1.
         23    2    1    2    0    0  0.30493877576E+02 -0.17567039069E+03 -0.67640461478E+03  0.70574368783E+03  0.93600145701E+02 0.  0.
         24    2    1    2    0    0  0.27630599061E+01  0.13518210023E+03 -0.14600018694E+03  0.21400156117E+03  0.78732324199E+02 0.  0.
        -13    1    4    4    0    0  0.12352464852E+02  0.13945016565E+03 -0.11468465636E+03  0.18097376189E+03  0.00000000000E+00 0.  1.
         14    1    4    4    0    0 -0.95894049456E+01 -0.42680654220E+01 -0.31315530583E+02  0.33027799281E+02  0.00000000000E+00 0. -1.
        -11    1    3    3    0    0 -0.31220377735E+01 -0.47500585806E+02 -0.67554495786E+02  0.82641773170E+02  0.00000000000E+00 0.  1.
         11    1    3    3    0    0  0.33615915349E+02 -0.12816980489E+03 -0.60885011899E+03  0.62310191466E+03  0.00000000000E+00 0. -1.
          1    1    1    2  501    0 -0.33256937482E+02  0.40488290459E+02 -0.12420240043E+03  0.13480193555E+03  0.00000000000E+00 0. -1.
<scales pt_clust_5="13000.00000" pt_clust_6="13000.00000" pt_clust_7="13000.00000" pt_clust_8="13000.00000" pt_clust_9="52.39588"></scales>
<clustering>
<clus scale="   52.396">  1  9  2 -1</clus>
<clus scale="   78.732">  5  6 -1 -1</clus>
<clus scale="   93.600">  7  8 -1 -1</clus>
<clus scale="  182.590">  1  5  2 -1</clus>
<clus scale="   52.396">  1  5  2 -1</clus>
</clustering>
</event>
<event>
 9    2  0.1665830E-004  0.8519209E+02  0.7546771E-02  0.1318484E+00
         21   -1    0    0  501  502  0.00000000000E+00  0.00000000000E+00  0.12409303240E+03  0.12409303240E+03  0.00000000000E+00 0.  1.
          2   -1    0    0  502    0 -0.00000000000E+00 -0.00000000000E+00 -0.14640172198E+03  0.14640172198E+03  0.00000000000E+00 0. -1.
         23    2    1    2    0    0 -0.52077061530E+01  0.39691298256E+01 -0.97428754600E+02  0.12958566068E+03  0.85189242494E+02 0.  0.
         24    2    1    2    0    0 -0.21967985642E+02  0.17236422331E+02  0.55785771470E+02  0.10138683954E+03  0.79922163915E+02 0.  0.
        -11    1    4    4    0    0 -0.17084687845E+02  0.48395045013E+02  0.24166908874E+02  0.56727475046E+02  0.00000000000E+00 0.  1.
         12    1    4    4    0    0 -0.48832977968E+01 -0.31158622682E+02  0.31618862596E+02  0.44659364491E+02  0.00000000000E+00 0. -1.
        -11    1    3    3    0    0  0.35926594960E+02 -0.18640637192E+01 -0.18647094204E+02  0.40520477308E+02  0.00000000000E+00 0. -1.
         11    1    3    3    0    0 -0.41134301113E+02  0.58331935447E+01 -0.78781660395E+02  0.89065183375E+02  0.00000000000E+00 0.  1.
          1    1    1    2  501    0  0.27175691795E+02 -0.21205552157E+02  0.19334293553E+02  0.39522254161E+02  0.00000000000E+00 0. -1.
<scales pt_clust_5="13000.00000" pt_clust_6="13000.00000" pt_clust_7="13000.00000" pt_clust_8="13000.00000" pt_clust_9="34.47019"></scales>
<clustering>
<clus scale="   34.470">  1  9  2 -1</clus>
<clus scale="   79.922">  5  6 -1 -1</clus>
<clus scale="   79.925">  1  5  2 -1</clus>
<clus scale="   85.189">  7  8 -1 -1</clus>
<clus scale="   34.470">  1  5  2 -1</clus>
</clustering>
</event>
<event>
 9    2  0.1665830E-004  0.1824598E+03  0.7546771E-02  0.1190116E+00
         21   -1    0    0  501  502  0.00000000000E+00  0.00000000000E+00  0.28350192386E+03  0.28350192386E+03  0.00000000000E+00 0. -1.
         -1   -1    0    0    0  501 -0.00000000000E+00 -0.00000000000E+00 -0.18468334578E+03  0.18468334578E+03  0.00000000000E+00 0.  1.
         24    2    1    2    0    0 -0.54003862145E+02 -0.42356175369E+02  0.50718636431E+02  0.11620769568E+03  0.78875761400E+02 0.  0.
         23    2    1    2    0    0  0.16055411667E+03 -0.62114646239E+02  0.54736339776E+02  0.20260839680E+03  0.91750977661E+02 0.  0.
        -11    1    3    3    0    0 -0.75726913106E+01 -0.55434131051E+02  0.22361106457E+02  0.60252034165E+02  0.00000000000E+00 0.  1.
         12    1    3    3    0    0 -0.46431170834E+02  0.13077955682E+02  0.28357529975E+02  0.55955661520E+02  0.00000000000E+00 0. -1.
        -13    1    4    4    0    0  0.14585844359E+02  0.22120273606E+02  0.89964736089E+01  0.27981956642E+02  0.00000000000E+00 0.  1.
         13    1    4    4    0    0  0.14596827231E+03 -0.84234919845E+02  0.45739866167E+02  0.17462644015E+03  0.00000000000E+00 0. -1.
         -2    1    1    2    0  502 -0.10655025453E+03  0.10447082161E+03 -0.66363981253E+01  0.14936917717E+03  0.00000000000E+00 0.  1.
<scales pt_clust_5="13000.00000" pt_clust_6="13000.00000" pt_clust_7="13000.00000" pt_clust_8="13000.00000" pt_clust_9="157.71287"></scales>
<clustering>
<clus scale="   78.876">  5  6 -1 -1</clus>
<clus scale="   91.751">  7  8 -1 -1</clus>
<clus scale="  104.556">  2  5  1 -1</clus>
<clus scale="  157.713">  1  9  2 -1</clus>
<clus scale="  157.713">  1  5  2 -1</clus>
</clustering>
</event>
<event>
 9    2  0.1665830E-004  0.1751063E+03  0.7546771E-02  0.1174725E+00
         21   -1    0    0  501  502  0.00000000000E+00  0.00000000000E+00  0.34058905161E+03  0.34058905161E+03  0.00000000000E+00 0.  1.
          2   -1    0    0  502    0 -0.00000000000E+00 -0.00000000000E+00 -0.31236975512E+03  0.31236975512E+03  0.00000000000E+00 0. -1.
         23    2    1    2    0    0  0.11327456271E+03  0.42464804069E+02  0.12248143615E+03  0.19747910507E+03  0.96756956317E+02 0.  0.
         24    2    1    2    0    0 -0.17504890646E+03 -0.17355482230E+02  0.12217842326E+03  0.22899997880E+03  0.81056096397E+02 0.  0.
        -11    1    4    4    0    0 -0.16868119942E+03  0.72057168227E+00  0.12455960181E+03  0.20968776947E+03  0.00000000000E+00 0.  1.
         12    1    4    4    0    0 -0.63677070475E+01 -0.18076053912E+02 -0.23811785535E+01  0.19312209335E+02  0.00000000000E+00 0. -1.
        -11    1    3    3    0    0  0.36244867654E+02 -0.48563372794E+00  0.10014002826E+03  0.10649859873E+03  0.00000000000E+00 0.  1.
         11    1    3    3    0    0  0.77029695060E+02  0.42950437797E+02  0.22341407891E+02  0.90980506343E+02  0.00000000000E+00 0. -1.
          1    1    1    2  501    0  0.61774343750E+02 -0.25109321839E+02 -0.21644056291E+03  0.22647972285E+03  0.00000000000E+00 0. -1.
<scales pt_clust_5="13000.00000" pt_clust_6="13000.00000" pt_clust_7="13000.00000" pt_clust_8="13000.00000" pt_clust_9="66.68247"></scales>
<clustering>
<clus scale="   66.682">  1  9  2 -1</clus>
<clus scale="   81.056">  5  6 -1 -1</clus>
<clus scale="   96.757">  7  8 -1 -1</clus>
<clus scale="  166.944">  1  5  2 -1</clus>
<clus scale="   66.682">  1  5  2 -1</clus>
</clustering>
</event>
<event>
 9    2  0.1665830E-004  0.1770230E+03  0.7546771E-02  0.1189137E+00
          4   -1    0    0  502    0 -0.00000000000E+00  0.00000000000E+00  0.27505059517E+03  0.27505059517E+03  0.00000000000E+00 0. -1.
         21   -1    0    0  501  502  0.00000000000E+00 -0.00000000000E+00 -0.69420842182E+03  0.69420842182E+03  0.00000000000E+00 0. -1.
         24    2    1    2    0    0  0.91984487088E+02 -0.19545345864E+02  0.14402214679E+03  0.18555243052E+03  0.69599994932E+02 0.  0.
         23    2    1    2    0    0  0.37301903391E+02 -0.74177698447E+02  0.62434942678E+02  0.13803406649E+03  0.90892895775E+02 0.  0.
        -11    1    3    3    0    0  0.31694038742E+02  0.11459795018E+02  0.96667905671E+01  0.35061172734E+02  0.00000000000E+00 0.  1.
         12    1    3    3    0    0  0.60290448346E+02 -0.31005140882E+02  0.13435535622E+03  0.15049125778E+03  0.00000000000E+00 0. -1.
        -13    1    4    4    0    0  0.59634089922E+00 -0.62396476368E+02  0.74929839843E+02  0.97509777892E+02  0.00000000000E+00 0.  1.
         13    1    4    4    0    0  0.36705562492E+02 -0.11781222079E+02 -0.12494897166E+02  0.40524288602E+02  0.00000000000E+00 0. -1.
          3    1    1    2  501    0 -0.12928639048E+03  0.93723044311E+02 -0.62561491611E+03  0.64567251998E+03  0.00000000000E+00 0. -1.
<scales pt_clust_5="13000.00000" pt_clust_6="13000.00000" pt_clust_7="13000.00000" pt_clust_8="13000.00000" pt_clust_9="151.90660"></scales>
<clustering>
<clus scale="   69.600">  5  6 -1 -1</clus>
<clus scale="   90.893">  7  8 -1 -1</clus>
<clus scale="  116.993">  1  5  2 -1</clus>
<clus scale="  151.907">  2  9  1 -1</clus>
<clus scale="  151.907">  2  5  1 -1</clus>
</clustering>
</event>
<event>
 9    2  0.1665830E-004  0.1202321E+03  0.7546771E-02  0.1246726E+00
          4   -1    0    0  502    0 -0.00000000000E+00  0.00000000000E+00  0.16513922334E+03  0.16513922334E+03  0.00000000000E+00 0. -1.
         21   -1    0    0  501  502  0.00000000000E+00 -0.00000000000E+00 -0.11199111935E+03  0.11199111935E+03  0.00000000000E+00 0. -1.
         23    2    1    2    0    0  0.52397346598E+02 -0.39020219877E+02  0.20437078944E+02  0.11430931216E+03  0.91547174517E+02 0.  0.
         24    2    1    2    0    0 -0.82208375499E+02  0.45419603407E+02  0.68589537931E+01  0.12284629923E+03  0.78886060945E+02 0.  0.
        -11    1    4    4    0    0 -0.58961881661E+02 -0.86650391379E+01  0.19367246761E+02  0.62663200041E+02  0.00000000000E+00 0.  1.
         12    1    4    4    0    0 -0.23246493838E+02  0.54084642545E+02 -0.12508292968E+02  0.60183099189E+02  0.00000000000E+00 0. -1.
        -13    1    3    3    0    0  0.38050834757E+02 -0.16789178363E+02  0.56142455110E+02  0.69869290833E+02  0.00000000000E+00 0.  1.
         13    1    3    3    0    0  0.14346511841E+02 -0.22231041514E+02 -0.35705376166E+02  0.44440021332E+02  0.00000000000E+00 0. -1.
          3    1    1    2  501    0  0.29811028901E+02 -0.63993835304E+01  0.25852071250E+02  0.39974731289E+02  0.00000000000E+00 0. -1.
<scales pt_clust_5="13000.00000" pt_clust_6="13000.00000" pt_clust_7="13000.00000" pt_clust_8="13000.00000" pt_clust_9="30.49017"></scales>
<clustering>
<clus scale="   30.490">  2  9  1 -1</clus>
<clus scale="   78.886">  5  6 -1 -1</clus>
<clus scale="   91.547">  7  8 -1 -1</clus>
<clus scale="  110.896">  2  5  1 -1</clus>
<clus scale="   30.490">  2  5  1 -1</clus>
</clustering>
</event>
<event>
 9    2  0.1665830E-004  0.1369690E+03  0.7546771E-02  0.1221206E+00
          2   -1    0    0  502    0 -0.00000000000E+00  0.00000000000E+00  0.86611321229E+03  0.86611321229E+03  0.00000000000E+00 0. -1.
         21   -1    0    0  501  502  0.00000000000E+00 -0.00000000000E+00 -0.36501048410E+02  0.36501048410E+02  0.00000000000E+00 0.  1.
         24    2    1    2    0    0 -0.63306504100E+02  0.61749488107E+02  0.38422351715E+03  0.40266033407E+03  0.81773594488E+02 0.  0.
         23    2    1    2    0    0  0.62419894900E+02 -0.10482941277E+03  0.21498472228E+03  0.26555547445E+03  0.97035200500E+02 0.  0.
        -11    1    3    3    0    0 -0.71078522146E+02  0.73928892943E+02  0.36121629552E+03  0.37549280908E+03  0.00000000000E+00 0.  1.
         12    1    3    3    0    0  0.77720180463E+01 -0.12179404836E+02  0.23007221636E+02  0.27167524990E+02  0.00000000000E+00 0. -1.
        -11    1    4    4    0    0  0.18535002628E+02 -0.99899841000E+02  0.10077497187E+03  0.14310527422E+03  0.00000000000E+00 0.  1.
         11    1    4    4    0    0  0.43884892272E+02 -0.49295717670E+01  0.11420975041E+03  0.12245020023E+03  0.00000000000E+00 0. -1.
          1    1    1    2  501    0  0.88660919969E+00  0.43079924660E+02  0.23040392445E+03  0.23439845218E+03  0.00000000000E+00 0. -1.
<scales pt_clust_5="13000.00000" pt_clust_6="13000.00000" pt_clust_7="13000.00000" pt_clust_8="13000.00000" pt_clust_9="43.08907"></scales>
<clustering>
<clus scale="   43.089">  2  9  1 -1</clus>
<clus scale="   81.774">  5  6 -1 -1</clus>
<clus scale="   97.035">  7  8 -1 -1</clus>
<clus scale="  126.616">  1  5  2 -1</clus>
<clus scale="   43.089">  2  5  1 -1</clus>
</clustering>
</event>
<event>
 9    2  0.1665830E-004  0.1678599E+03  0.7546771E-02  0.1181669E+00
         21   -1    0    0  501  502  0.00000000000E+00  0.00000000000E+00  0.10973935569E+03  0.10973935569E+03  0.00000000000E+00 0. -1.
          2   -1    0    0  502    0 -0.00000000000E+00 -0.00000000000E+00 -0.39126225573E+03  0.39126225573E+03  0.00000000000E+00 0. -1.
         23    2    1    2    0    0 -0.50735253694E+02 -0.14441773513E+03 -0.94039552568E+02  0.20098694201E+03  0.90120836785E+02 0.  0.
         24    2    1    2    0    0  0.35303859275E+02  0.12505237924E+03 -0.49471180685E+02  0.15979875333E+03  0.78764102320E+02 0.  0.
        -11    1    4    4    0    0  0.37092794381E+02  0.20500342813E+02  0.36020517867E+01  0.42533683446E+02  0.00000000000E+00 0.  1.
         12    1    4    4    0    0 -0.17889351054E+01  0.10455203643E+03 -0.53073232472E+02  0.11726506989E+03  0.00000000000E+00 0. -1.
        -11    1    3    3    0    0 -0.49334659724E+02 -0.55106846490E+02 -0.82696590832E+02  0.11094773236E+03  0.00000000000E+00 0.  1.
         11    1    3    3    0    0 -0.14005939695E+01 -0.89310888642E+02 -0.11342961735E+02  0.90039209650E+02  0.00000000000E+00 0. -1.
          1    1    1    2  501    0  0.15431394418E+02  0.19365355888E+02 -0.13801216679E+03  0.14021591609E+03  0.00000000000E+00 0. -1.
<scales pt_clust_5="13000.00000" pt_clust_6="13000.00000" pt_clust_7="13000.00000" pt_clust_8="13000.00000" pt_clust_9="24.76178"></scales>
<clustering>
<clus scale="   24.762">  1  9  2 -1</clus>
<clus scale="   78.764">  5  6 -1 -1</clus>
<clus scale="   90.121">  7  8 -1 -1</clus>
<clus scale="  162.046">  1  5  2 -1</clus>
<clus scale="   24.762">  1  5  2 -1</clus>
</clustering>
</event>
<event>
 9    2  0.1665830E-004  0.1163682E+03  0.7546771E-02  0.1252214E+00
         21   -1    0    0  501  502  0.00000000000E+00  0.00000000000E+00  0.26748118698E+03  0.26748118698E+03  0.00000000000E+00 0. -1.
          2   -1    0    0  502    0 -0.00000000000E+00 -0.00000000000E+00 -0.13952866638E+03  0.13952866638E+03  0.00000000000E+00 0. -1.
         24    2    1    2    0    0 -0.61274674880E+02  0.75272284560E+02  0.43171832267E+02  0.13336868167E+03  0.80640532889E+02 0.  0.
         23    2    1    2    0    0  0.55773052551E+02 -0.27945944099E+02  0.15938629350E+03  0.18511972417E+03  0.70524552727E+02 0.  0.
        -13    1    3    3    0    0 -0.70608367878E+02  0.30463812492E+02  0.41915099583E+02  0.87581168404E+02  0.00000000000E+00 0.  1.
         14    1    3    3    0    0  0.93336929980E+01  0.44808472069E+02  0.12567326842E+01  0.45787513267E+02  0.00000000000E+00 0. -1.
        -13    1    4    4    0    0  0.26087758981E+02 -0.33039711513E+02  0.14637848806E+03  0.15231170498E+03  0.00000000000E+00 0. -1.
         13    1    4    4    0    0  0.29685293571E+02  0.50937674142E+01  0.13007805438E+02  0.32808019190E+02  0.00000000000E+00 0.  1.
          1    1    1    2  501    0  0.55016223288E+01 -0.47326340461E+02 -0.74605605161E+02  0.88521447520E+02  0.00000000000E+00 0. -1.
<scales pt_clust_5="13000.00000" pt_clust_6="13000.00000" pt_clust_7="13000.00000" pt_clust_8="13000.00000" pt_clust_9="47.64507"></scales>
<clustering>
<clus scale="   47.645">  1  9  2 -1</clus>
<clus scale="   70.525">  7  8 -1 -1</clus>
<clus scale="   80.641">  5  6 -1 -1</clus>
<clus scale="  109.601">  1  7  2 -1</clus>
<clus scale="   47.645">  1  5  2 -1</clus>
</clustering>
</event>
<event>
 9    2  0.1665830E-004  0.1166918E+03  0.7546771E-02  0.1252687E+00
          2   -1    0    0  502    0 -0.00000000000E+00  0.00000000000E+00  0.47992589652E+03  0.47992589652E+03  0.00000000000E+00 0. -1.
         21   -1    0    0  501  502  0.00000000000E+00 -0.00000000000E+00 -0.39736888968E+03  0.39736888968E+03  0.00000000000E+00 0. -1.
         24    2    1    2    0    0 -0.80597645751E+02 -0.33700329857E+02  0.36398355539E+03  0.38289578227E+03  0.80582000174E+02 0.  0.
         23    2    1    2    0    0  0.35741090572E+02 -0.53229386072E+01  0.80461969836E+02  0.12765900644E+03  0.92287236948E+02 0.  0.
        -13    1    3    3    0    0 -0.23027718297E+02  0.14176254177E+02  0.29022728832E+02  0.39668133070E+02  0.00000000000E+00 0.  1.
         14    1    3    3    0    0 -0.57569927455E+02 -0.47876584035E+02  0.33496082656E+03  0.34322764920E+03  0.00000000000E+00 0. -1.
        -13    1    4    4    0    0  0.25733669674E+02 -0.45940370638E+02  0.63567125553E+02  0.82544041943E+02  0.00000000000E+00 0. -1.
         13    1    4    4    0    0  0.10007420898E+02  0.40617432031E+02  0.16894844283E+02  0.45114964493E+02  0.00000000000E+00 0.  1.
          1    1    1    2  501    0  0.44856555180E+02  0.39023268464E+02 -0.36188851839E+03  0.36673999750E+03  0.00000000000E+00 0. -1.
<scales pt_clust_5="13000.00000" pt_clust_6="13000.00000" pt_clust_7="13000.00000" pt_clust_8="13000.00000" pt_clust_9="59.45524"></scales>
<clustering>
<clus scale="   59.455">  2  9  1 -1</clus>
<clus scale="   80.582">  5  6 -1 -1</clus>
<clus scale="   92.287">  7  8 -1 -1</clus>
<clus scale="  107.673">  1  5  2 -1</clus>
<clus scale="   59.455">  2  5  1 -1</clus>
</clustering>
</event>
<event>
 9    2  0.1665830E-004  0.1479099E+03  0.7546771E-02  0.1210400E+00
         21   -1    0    0  501  502  0.00000000000E+00  0.00000000000E+00  0.17455783814E+03  0.17455783814E+03  0.00000000000E+00 0.  1.
          2   -1    0    0  502    0 -0.00000000000E+00 -0.00000000000E+00 -0.28489682811E+03  0.28489682811E+03  0.00000000000E+00 0. -1.
         24    2    1    2    0    0  0.57543025647E+02 -0.98091333610E+02 -0.20528081912E+03  0.24258562704E+03  0.61436652089E+02 0.  0.
         23    2    1    2    0    0 -0.69821421188E+02  0.69153307161E+02  0.26539455316E+02  0.14158920713E+03  0.98417224809E+02 0.  0.
        -13    1    3    3    0    0 -0.97185037558E+01 -0.35525524608E+02 -0.69384050497E+02  0.78553540196E+02  0.00000000000E+00 0.  1.
         14    1    3    3    0    0  0.67261529402E+02 -0.62565809001E+02 -0.13589676862E+03  0.16403208685E+03  0.00000000000E+00 0. -1.
        -13    1    4    4    0    0 -0.26809925479E+02 -0.10860461856E+02  0.40408771238E+02  0.49694974886E+02  0.00000000000E+00 0.  1.
         13    1    4    4    0    0 -0.43011495709E+02  0.80013769018E+02 -0.13869315922E+02  0.91894232244E+02  0.00000000000E+00 0. -1.
          1    1    1    2  501    0  0.12278395541E+02  0.28938026448E+02  0.68402373829E+02  0.75279832075E+02  0.00000000000E+00 0. -1.
<scales pt_clust_5="13000.00000" pt_clust_6="13000.00000" pt_clust_7="13000.00000" pt_clust_8="13000.00000" pt_clust_9="31.43515"></scales>
<clustering>
<clus scale="   31.435">  1  9  2 -1</clus>
<clus scale="   61.437">  5  6 -1 -1</clus>
<clus scale="   98.417">  7  8 -1 -1</clus>
<clus scale="  126.356">  2  5  1 -1</clus>
<clus scale="   31.435">  1  5  2 -1</clus>
</clustering>
</event>
<event>
 9    2  0.1665830E-004  0.1416297E+03  0.7546771E-02  0.1213936E+00
         21   -1    0    0  501  502  0.00000000000E+00  0.00000000000E+00  0.95412959895E+02  0.95412959895E+02  0.00000000000E+00 0.  1.
          2   -1    0    0  502    0 -0.00000000000E+00 -0.00000000000E+00 -0.56297287472E+03  0.56297287472E+03  0.00000000000E+00 0. -1.
         24    2    1    2    0    0 -0.44009471516E+01  0.10113684751E+03 -0.38126900496E+03  0.40242264895E+03  0.79560693752E+02 0.  0.
         23    2    1    2    0    0 -0.28924671874E+02 -0.13084200987E+03 -0.11807262600E+03  0.20116290249E+03  0.92569434152E+02 0.  0.
        -11    1    3    3    0    0 -0.57765343995E+01  0.22167843150E+02 -0.14198817475E+02  0.26951586916E+02  0.00000000000E+00 0.  1.
         12    1    3    3    0    0  0.13755872479E+01  0.78969004355E+02 -0.36707018748E+03  0.37547106204E+03  0.00000000000E+00 0. -1.
        -11    1    4    4    0    0 -0.13692756170E+02 -0.10413543693E+03 -0.13091766136E+03  0.16784252993E+03  0.00000000000E+00 0. -1.
         11    1    4    4    0    0 -0.15231915704E+02 -0.26706572935E+02  0.12845035366E+02  0.33320372560E+02  0.00000000000E+00 0.  1.
          1    1    1    2  501    0  0.33325619026E+02  0.29705162362E+02  0.31781716136E+02  0.54800283165E+02  0.00000000000E+00 0. -1.
<scales pt_clust_5="13000.00000" pt_clust_6="13000.00000" pt_clust_7="13000.00000" pt_clust_8="13000.00000" pt_clust_9="44.64296"></scales>
<clustering>
<clus scale="   44.643">  1  9  2 -1</clus>
<clus scale="   79.561">  5  6 -1 -1</clus>
<clus scale="   92.569">  7  8 -1 -1</clus>
<clus scale="  133.491">  2  5  1 -1</clus>
<clus scale="   44.643">  1  5  2 -1</clus>
</clustering>
</event>
<event>
 9    2  0.1665830E-004  0.1479333E+03  0.7546771E-02  0.1220307E+00
         21   -1    0    0  501  502  0.00000000000E+00  0.00000000000E+00  0.34013346976E+02  0.34013346976E+02  0.00000000000E+00 0. -1.
          2   -1    0    0  502    0 -0.00000000000E+00 -0.00000000000E+00 -0.15854125258E+04  0.15854125258E+04  0.00000000000E+00 0. -1.
         24    2    1    2    0    0 -0.55628612223E+02 -0.25886842404E+02 -0.88395547517E+03  0.88986794818E+03  0.81993975497E+02 0.  0.
         23    2    1    2    0    0 -0.64380941305E+02 -0.28004158442E+02 -0.51692785014E+03  0.52965406003E+03  0.91596302115E+02 0.  0.
        -13    1    3    3    0    0 -0.28824359051E+02 -0.17061022255E+02 -0.10110260525E+03  0.10650661455E+03  0.00000000000E+00 0.  1.
         14    1    3    3    0    0 -0.26804253172E+02 -0.88258201485E+01 -0.78285286992E+03  0.78336133363E+03  0.00000000000E+00 0. -1.
        -11    1    4    4    0    0 -0.18363257068E+02  0.29241299395E+02 -0.88900622331E+02  0.95370768327E+02  0.00000000000E+00 0.  1.
         11    1    4    4    0    0 -0.46017684236E+02 -0.57245457836E+02 -0.42802722781E+03  0.43428329170E+03  0.00000000000E+00 0. -1.
          1    1    1    2  501    0  0.12000955353E+03  0.53891000845E+02 -0.15051585354E+03  0.19990386459E+03  0.00000000000E+00 0. -1.
<scales pt_clust_5="13000.00000" pt_clust_6="13000.00000" pt_clust_7="13000.00000" pt_clust_8="13000.00000" pt_clust_9="116.16529"></scales>
<clustering>
<clus scale="   81.994">  5  6 -1 -1</clus>
<clus scale="   91.596">  7  8 -1 -1</clus>
<clus scale="  102.409">  2  5  1 -1</clus>
<clus scale="  116.165">  1  9  2 -1</clus>
<clus scale="  116.165">  1  5  2 -1</clus>
</clustering>
</event>
<event>
 9    2  0.1665830E-004  0.1642078E+03  0.7546771E-02  0.1207721E+00
         21   -1    0    0  501  502  0.00000000000E+00  0.00000000000E+00  0.71794503056E+02  0.71794503056E+02  0.00000000000E+00 0.  1.
          2   -1    0    0  502    0 -0.00000000000E+00 -0.00000000000E+00 -0.66993640573E+03  0.66993640573E+03  0.00000000000E+00 0. -1.
         23    2    1    2    0    0  0.38618425629E+02 -0.12112787494E+02 -0.21490342878E+03  0.23610685123E+03  0.89021677561E+02 0.  0.
         24    2    1    2    0    0 -0.69109178076E+01 -0.14253427263E+03 -0.12593912307E+03  0.20375647866E+03  0.72747922413E+02 0.  0.
        -13    1    4    4    0    0 -0.40878343414E+01 -0.98120214128E+02 -0.38194979514E+02  0.10537145377E+03  0.00000000000E+00 0.  1.
         14    1    4    4    0    0 -0.28230834662E+01 -0.44414058504E+02 -0.87744143557E+02  0.98385024885E+02  0.00000000000E+00 0. -1.
        -11    1    3    3    0    0 -0.46128414219E+01  0.34155614509E+02 -0.76543010958E+02  0.83944724879E+02  0.00000000000E+00 0.  1.
         11    1    3    3    0    0  0.43231267051E+02 -0.46268402003E+02 -0.13836041782E+03  0.15216212635E+03  0.00000000000E+00 0. -1.
          1    1    1    2  501    0 -0.31707507821E+02  0.15464706013E+03 -0.25729935082E+03  0.30186757890E+03  0.00000000000E+00 0. -1.
<scales pt_clust_5="13000.00000" pt_clust_6="13000.00000" pt_clust_7="13000.00000" pt_clust_8="13000.00000" pt_clust_9="147.21398"></scales>
<clustering>
<clus scale="   72.748">  5  6 -1 -1</clus>
<clus scale="   89.022">  7  8 -1 -1</clus>
<clus scale="   97.790">  2  7  1 -1</clus>
<clus scale="  147.214">  1  9  2 -1</clus>
<clus scale="  147.214">  1  5  2 -1</clus>
</clustering>
</event>
<event>
 9    2  0.1665830E-004  0.1671457E+03  0.7546771E-02  0.1201267E+00
         -1   -1    0    0    0  501 -0.00000000000E+00  0.00000000000E+00  0.58554586654E+03  0.58554586654E+03  0.00000000000E+00 0.  1.
         21   -1    0    0  501  502  0.00000000000E+00 -0.00000000000E+00 -0.86113637586E+02  0.86113637586E+02  0.00000000000E+00 0. -1.
         23    2    1    2    0    0 -0.44479037070E+02  0.24102590523E+02  0.22632257702E+03  0.25015419192E+03  0.93786412976E+02 0.  0.
         24    2    1    2    0    0 -0.56268274904E+02 -0.13498925803E+03  0.17765999929E+03  0.24386379090E+03  0.80735708452E+02 0.  0.
        -13    1    4    4    0    0  0.18411343930E+02 -0.88280145628E+01  0.20314446535E+02  0.28802572185E+02  0.00000000000E+00 0.  1.
         14    1    4    4    0    0 -0.74679618834E+02 -0.12616124347E+03  0.15734555275E+03  0.21506121871E+03  0.00000000000E+00 0. -1.
        -11    1    3    3    0    0 -0.12637397393E+01  0.48058809767E+02  0.61360623180E+02  0.77951089225E+02  0.00000000000E+00 0.  1.
         11    1    3    3    0    0 -0.43215297331E+02 -0.23956219245E+02  0.16496195384E+03  0.17220310270E+03  0.00000000000E+00 0. -1.
         -2    1    1    2    0  502  0.10074731197E+03  0.11088666751E+03  0.95449652646E+02  0.17764152131E+03  0.00000000000E+00 0.  1.
<scales pt_clust_5="13000.00000" pt_clust_6="13000.00000" pt_clust_7="13000.00000" pt_clust_8="13000.00000" pt_clust_9="146.35381"></scales>
<clustering>
<clus scale="   80.736">  5  6 -1 -1</clus>
<clus scale="   93.786">  7  8 -1 -1</clus>
<clus scale="  106.561">  1  7  2 -1</clus>
<clus scale="  146.354">  2  9  1 -1</clus>
<clus scale="  146.354">  2  5  1 -1</clus>
</clustering>
</event>
<event>
 9    2  0.1665830E-004  0.1330893E+03  0.7546771E-02  0.1226592E+00
         21   -1    0    0  501  502  0.00000000000E+00  0.00000000000E+00  0.11016506964E+03  0.11016506964E+03  0.00000000000E+00 0.  1.
          2   -1    0    0  502    0 -0.00000000000E+00 -0.00000000000E+00 -0.26672273427E+03  0.26672273427E+03  0.00000000000E+00 0. -1.
         23    2    1    2    0    0 -0.12641930750E+02 -0.88361235314E+02 -0.93002155929E+02  0.15838427906E+03  0.92025282000E+02 0.  0.
         24    2    1    2    0    0  0.25149243180E+02  0.10946841379E+03  0.14106070919E+02  0.13705865517E+03  0.77267558964E+02 0.  0.
        -11    1    4    4    0    0  0.27675666963E+02  0.43949704291E+01 -0.90244141652E+01  0.29439741133E+02  0.00000000000E+00 0.  1.
         12    1    4    4    0    0 -0.25264237831E+01  0.10507344337E+03  0.23130485084E+02  0.10761891403E+03  0.00000000000E+00 0. -1.
        -11    1    3    3    0    0  0.13129724859E+02 -0.99178615837E+02 -0.76353262250E+02  0.12585153225E+03  0.00000000000E+00 0. -1.
         11    1    3    3    0    0 -0.25771655609E+02  0.10817380522E+02 -0.16648893679E+02  0.32532746809E+02  0.00000000000E+00 0.  1.
          1    1    1    2  501    0 -0.12507312431E+02 -0.21107178480E+02 -0.77661579624E+02  0.81444869681E+02  0.00000000000E+00 0. -1.
<scales pt_clust_5="13000.00000" pt_clust_6="13000.00000" pt_clust_7="13000.00000" pt_clust_8="13000.00000" pt_clust_9="24.53460"></scales>
<clustering>
<clus scale="   24.535">  1  9  2 -1</clus>
<clus scale="   77.268">  5  6 -1 -1</clus>
<clus scale="   92.025">  7  8 -1 -1</clus>
<clus scale="  123.347">  1  5  2 -1</clus>
<clus scale="   24.535">  1  5  2 -1</clus>
</clustering>
</event>
<event>
 9    2  0.1665830E-004  0.2183821E+03  0.7546771E-02  0.1163304E+00
          2   -1    0    0  502    0 -0.00000000000E+00  0.00000000000E+00  0.42281152722E+03  0.42281152722E+03  0.00000000000E+00 0. -1.
         21   -1    0    0  501  502  0.00000000000E+00 -0.00000000000E+00 -0.18673426744E+03  0.18673426744E+03  0.00000000000E+00 0. -1.
         24    2    1    2    0    0  0.44237581180E+02 -0.62043384201E+02  0.49031947416E+02  0.12208756897E+03  0.81822353415E+02 0.  0.
         23    2    1    2    0    0 -0.85380639637E+02 -0.14763671248E+03  0.19352966495E+03  0.27368137700E+03  0.91440212183E+02 0.  0.
        -11    1    3    3    0    0  0.16083795661E+02  0.14963388696E+02 -0.66773351713E+01  0.22960363436E+02  0.00000000000E+00 0.  1.
         12    1    3    3    0    0  0.28153785519E+02 -0.77006772897E+02  0.55709282588E+02  0.99127205536E+02  0.00000000000E+00 0. -1.
        -11    1    4    4    0    0 -0.23494390891E+01 -0.95284341778E+02  0.98232469358E+02  0.13687309337E+03  0.00000000000E+00 0.  1.
         11    1    4    4    0    0 -0.83031200548E+02 -0.52352370704E+02  0.95297195596E+02  0.13680828363E+03  0.00000000000E+00 0. -1.
          1    1    1    2  501    0  0.41143058457E+02  0.20968009668E+03 -0.64843525944E+01  0.21377684868E+03  0.00000000000E+00 0. -1.
<scales pt_clust_5="13000.00000" pt_clust_6="13000.00000" pt_clust_7="13000.00000" pt_clust_8="13000.00000" pt_clust_9="198.31651"></scales>
<clustering>
<clus scale="   81.822">  5  6 -1 -1</clus>
<clus scale="   91.440">  7  8 -1 -1</clus>
<clus scale="  111.809">  1  5  2 -1</clus>
<clus scale="  198.317">  2  9  1 -1</clus>
<clus scale="  198.317">  2  5  1 -1</clus>
</clustering>
</event>
<event>
 9    2  0.1665830E-004  0.1398100E+03  0.7546771E-02  0.1219757E+00
         21   -1    0    0  501  502  0.00000000000E+00  0.00000000000E+00  0.85594001692E+02  0.85594001692E+02  0.00000000000E+00 0.  1.
          2   -1    0    0  502    0 -0.00000000000E+00 -0.00000000000E+00 -0.50742572017E+03  0.50742572017E+03  0.00000000000E+00 0. -1.
         24    2    1    2    0    0 -0.49594807954E+02 -0.78494759619E+02 -0.51392168723E+02  0.13305296751E+03  0.80254999180E+02 0.  0.
         23    2    1    2    0    0 -0.84440827996E+02  0.50064033137E+02 -0.15225584375E+03  0.20232749594E+03  0.90099460643E+02 0.  0.
        -11    1    3    3    0    0  0.72494997202E+00 -0.64274439248E+02 -0.73709966787E+01  0.64699773456E+02  0.00000000000E+00 0.  1.
         12    1    3    3    0    0 -0.50319757926E+02 -0.14220320371E+02 -0.44021172044E+02  0.68353194054E+02  0.00000000000E+00 0. -1.
        -11    1    4    4    0    0 -0.15493114536E+02  0.53601689743E+02 -0.33839710979E+02  0.65255680063E+02  0.00000000000E+00 0. -1.
         11    1    4    4    0    0 -0.68947713460E+02 -0.35376566059E+01 -0.11841613278E+03  0.13707181587E+03  0.00000000000E+00 0.  1.
          1    1    1    2  501    0  0.13403563595E+03  0.28430726483E+02 -0.21818370600E+03  0.25763925841E+03  0.00000000000E+00 0. -1.
<scales pt_clust_5="13000.00000" pt_clust_6="13000.00000" pt_clust_7="13000.00000" pt_clust_8="13000.00000" pt_clust_9="106.90616"></scales>
<clustering>
<clus scale="   80.255">  5  6 -1 -1</clus>
<clus scale="   90.099">  7  8 -1 -1</clus>
<clus scale="  122.727">  2  5  1 -1</clus>
<clus scale="  106.906">  1  9  2 -1</clus>
<clus scale="  106.906">  1  5  2 -1</clus>
</clustering>
</event>
<event>
 9    2  0.2110016E-004  0.1047009E+03  0.7546771E-02  0.1275998E+00
         21   -1    0    0  501  502  0.00000000000E+00  0.00000000000E+00  0.10780683503E+03  0.10780683503E+03  0.00000000000E+00 0.  1.
          2   -1    0    0  502    0 -0.00000000000E+00 -0.00000000000E+00 -0.33683171594E+03  0.33683171594E+03  0.00000000000E+00 0. -1.
         23    2    1    2    0    0 -0.27880987368E+02 -0.23627122325E+02 -0.97168344768E+01  0.99540112268E+02  0.92077286624E+02 0.  0.
         24    2    1    2    0    0  0.62631676243E+02  0.29196788124E+02  0.15976642233E+02  0.10719611362E+03  0.80377698233E+02 0.  0.
        -11    1    4    4    0    0  0.65531037114E+02  0.38072350206E+02  0.36892745075E+02  0.84290541074E+02  0.00000000000E+00 0.  1.
         12    1    4    4    0    0 -0.28993608710E+01 -0.88755620824E+01 -0.20916102841E+02  0.22905572549E+02  0.00000000000E+00 0. -1.
        -11    1    3    3    0    0 -0.53087137391E+02  0.10997309318E+02 -0.15345595979E+02  0.56344230269E+02  0.00000000000E+00 0. -1.
         11    1    3    3    0    0  0.25206150023E+02 -0.34624431643E+02  0.56287615024E+01  0.43195881999E+02  0.00000000000E+00 0.  1.
          1    1    1    2  501    0 -0.34750688875E+02 -0.55696657990E+01 -0.23528468867E+03  0.23790232507E+03  0.00000000000E+00 0. -1.
<scales pt_clust_5="13000.00000" pt_clust_6="13000.00000" pt_clust_7="13000.00000" pt_clust_8="13000.00000" pt_clust_9="35.19422"></scales>
<clustering>
<clus scale="   35.194">  1  9  2 -1</clus>
<clus scale="   80.378">  5  6 -1 -1</clus>
<clus scale="   92.077">  7  8 -1 -1</clus>
<clus scale="   94.576">  1  5  2 -1</clus>
<clus scale="   35.194">  1  5  2 -1</clus>
</clustering>
</event>
<event>
 9    2  0.1665830E-004  0.1801165E+03  0.7546771E-02  0.1203082E+00
         21   -1    0    0  501  502  0.00000000000E+00  0.00000000000E+00  0.15327946366E+03  0.15327946366E+03  0.00000000000E+00 0. -1.
          2   -1    0    0  502    0 -0.00000000000E+00 -0.00000000000E+00 -0.10080495379E+04  0.10080495379E+04  0.00000000000E+00 0. -1.
         24    2    1    2    0    0 -0.30432754869E+02  0.31272964168E+01 -0.71737678042E+03  0.72203435165E+03  0.75948846706E+02 0.  0.
         23    2    1    2    0    0  0.32869498676E+02  0.15153301158E+03 -0.20252511758E+03  0.27146168819E+03  0.92910534184E+02 0.  0.
        -11    1    3    3    0    0 -0.29819597347E+02 -0.73196264267E+01 -0.10089308610E+03  0.10546184210E+03  0.00000000000E+00 0.  1.
         12    1    3    3    0    0 -0.61315752256E+00  0.10446922844E+02 -0.61648369432E+03  0.61657250954E+03  0.00000000000E+00 0. -1.
        -13    1    4    4    0    0 -0.24129488649E+02  0.30371483749E+02 -0.16252713054E+02  0.42057222082E+02  0.00000000000E+00 0. -1.
         13    1    4    4    0    0  0.56998987326E+02  0.12116152783E+03 -0.18627240453E+03  0.22940446611E+03  0.00000000000E+00 0.  1.
          1    1    1    2  501    0 -0.24367438070E+01 -0.15466030800E+03  0.65131823732E+02  0.16783296176E+03  0.00000000000E+00 0. -1.
<scales pt_clust_5="13000.00000" pt_clust_6="13000.00000" pt_clust_7="13000.00000" pt_clust_8="13000.00000" pt_clust_9="154.30351"></scales>
<clustering>
<clus scale="   75.949">  5  6 -1 -1</clus>
<clus scale="   81.879">  2  5  1 -1</clus>
<clus scale="   92.911">  7  8 -1 -1</clus>
<clus scale="  154.304">  1  9  2 -1</clus>
<clus scale="  154.304">  1  5  2 -1</clus>
</clustering>
</event>
<event>
 9    2  0.1665830E-004  0.9322420E+02  0.7546771E-02  0.1299988E+00
         -3   -1    0    0    0  501 -0.00000000000E+00  0.00000000000E+00  0.19415497563E+03  0.19415497563E+03  0.00000000000E+00 0.  1.
         21   -1    0    0  501  502  0.00000000000E+00 -0.00000000000E+00 -0.10648878389E+03  0.10648878389E+03  0.00000000000E+00 0. -1.
         23    2    1    2    0    0  0.20201527135E+02  0.64509280555E+01  0.14862901514E+03  0.17538759432E+03  0.90667016768E+02 0.  0.
         24    2    1    2    0    0 -0.27780148437E+02  0.12531705181E+02 -0.42578706601E+02  0.97765228229E+02  0.82560967248E+02 0.  0.
        -13    1    4    4    0    0 -0.52948169935E+02  0.26399860926E+02 -0.30887361251E+02  0.66741969116E+02  0.00000000000E+00 0.  1.
         14    1    4    4    0    0  0.25168021498E+02 -0.13868155746E+02 -0.11691345349E+02  0.31023259113E+02  0.00000000000E+00 0. -1.
        -11    1    3    3    0    0 -0.71579553266E+01 -0.21131097017E+02  0.13071709611E+03  0.13260738592E+03  0.00000000000E+00 0. -1.
         11    1    3    3    0    0  0.27359482461E+02  0.27582025073E+02  0.17911919033E+02  0.42780208404E+02  0.00000000000E+00 0.  1.
         -4    1    1    2    0  502  0.75786213023E+01 -0.18982633236E+02 -0.18384116795E+02  0.27490936974E+02  0.00000000000E+00 0.  1.
<scales pt_clust_5="13000.00000" pt_clust_6="13000.00000" pt_clust_7="13000.00000" pt_clust_8="13000.00000" pt_clust_9="20.43957"></scales>
<clustering>
<clus scale="   20.440">  2  9  1 -1</clus>
<clus scale="   82.561">  5  6 -1 -1</clus>
<clus scale="   85.361">  2  5  1 -1</clus>
<clus scale="   90.667">  7  8 -1 -1</clus>
<clus scale="   20.440">  2  5  1 -1</clus>
</clustering>
</event>
<event>
 9    2  0.1665830E-004  0.1064853E+03  0.7546771E-02  0.1270802E+00
         21   -1    0    0  501  502  0.00000000000E+00  0.00000000000E+00  0.34291935398E+02  0.34291935398E+02  0.00000000000E+00 0.  1.
         -3   -1    0    0    0  501 -0.00000000000E+00 -0.00000000000E+00 -0.82210398785E+03  0.82210398785E+03  0.00000000000E+00 0.  1.
         24    2    1    2    0    0 -0.50070633190E+02  0.25179237021E+02 -0.35441691417E+03  0.36775685335E+03  0.80577241544E+02 0.  0.
         23    2    1    2    0    0  0.69939122733E+02  0.49093836479E+02 -0.36637405405E+03  0.38664361874E+03  0.89228105242E+02 0.  0.
        -13    1    3    3    0    0 -0.31981940321E+02  0.54414406954E+02 -0.20845645912E+03  0.21780235889E+03  0.00000000000E+00 0.  1.
         14    1    3    3    0    0 -0.18088692869E+02 -0.29235169933E+02 -0.14596045505E+03  0.14995449446E+03  0.00000000000E+00 0. -1.
        -11    1    4    4    0    0  0.41683914119E+02 -0.63545253204E+01 -0.56040911669E+02  0.70132107262E+02  0.00000000000E+00 0.  1.
         11    1    4    4    0    0  0.28255208614E+02  0.55448361799E+02 -0.31033314238E+03  0.31651151148E+03  0.00000000000E+00 0. -1.
         -4    1    1    2    0  502 -0.19868489543E+02 -0.74273073500E+02 -0.67021084235E+02  0.10199545115E+03  0.00000000000E+00 0.  1.
<scales pt_clust_5="13000.00000" pt_clust_6="13000.00000" pt_clust_7="13000.00000" pt_clust_8="13000.00000" pt_clust_9="76.88463"></scales>
<clustering>
<clus scale="   76.885">  1  9  2 -1</clus>
<clus scale="   80.577">  5  6 -1 -1</clus>
<clus scale="   89.228">  7  8 -1 -1</clus>
<clus scale="   99.349">  2  5  1 -1</clus>
<clus scale="   76.885">  1  5  2 -1</clus>
</clustering>
</event>
<event>
 9    2  0.1665830E-004  0.1030377E+03  0.7546771E-02  0.1282452E+00
         21   -1    0    0  501  502  0.00000000000E+00  0.00000000000E+00  0.37283885213E+03  0.37283885213E+03  0.00000000000E+00 0. -1.
          4   -1    0    0  502    0 -0.00000000000E+00 -0.00000000000E+00 -0.71690832018E+02  0.71690832018E+02  0.00000000000E+00 0. -1.
         24    2    1    2    0    0  0.50264110167E+02  0.28208776069E+00 -0.18780969208E+02  0.92013805675E+02  0.74747945028E+02 0.  0.
         23    2    1    2    0    0 -0.25644005668E+02 -0.21971064846E+02  0.14891710383E+03  0.17838481791E+03  0.92219828300E+02 0.  0.
        -11    1    3    3    0    0  0.95512649687E+01  0.25618911656E+02 -0.32177229542E+02  0.42224748643E+02  0.00000000000E+00 0.  1.
         12    1    3    3    0    0  0.40712845198E+02 -0.25336823895E+02  0.13396260333E+02  0.49789057032E+02  0.00000000000E+00 0. -1.
        -11    1    4    4    0    0  0.11352240557E+02  0.31228607481E+02  0.55692000574E+02  0.64851354795E+02  0.00000000000E+00 0.  1.
         11    1    4    4    0    0 -0.36996246225E+02 -0.53199672327E+02  0.93225103256E+02  0.11353346312E+03  0.00000000000E+00 0. -1.
          3    1    1    2  501    0 -0.24620104499E+02  0.21688977085E+02  0.17101188549E+03  0.17413106056E+03  0.00000000000E+00 0. -1.
<scales pt_clust_5="13000.00000" pt_clust_6="13000.00000" pt_clust_7="13000.00000" pt_clust_8="13000.00000" pt_clust_9="32.81099"></scales>
<clustering>
<clus scale="   32.811">  1  9  2 -1</clus>
<clus scale="   74.748">  5  6 -1 -1</clus>
<clus scale="   87.747">  2  5  1 -1</clus>
<clus scale="   92.220">  7  8 -1 -1</clus>
<clus scale="   32.811">  1  5  2 -1</clus>
</clustering>
</event>
<event>
 9    2  0.1665830E-004  0.9617959E+02  0.7546771E-02  0.1294167E+00
         21   -1    0    0  501  502  0.00000000000E+00  0.00000000000E+00  0.11732240548E+03  0.11732240548E+03  0.00000000000E+00 0. -1.
          2   -1    0    0  502    0 -0.00000000000E+00 -0.00000000000E+00 -0.46435278299E+03  0.46435278299E+03  0.00000000000E+00 0. -1.
         23    2    1    2    0    0 -0.28077684034E+02 -0.12285848189E+02 -0.37496023356E+03  0.38693288483E+03  0.90457626553E+02 0.  0.
         24    2    1    2    0    0  0.27020017339E+02  0.38039975042E+02 -0.55037314787E+02  0.10786339282E+03  0.80176582954E+02 0.  0.
        -11    1    4    4    0    0 -0.80342079695E+01  0.25971814524E+02  0.13187921473E+02  0.30215971275E+02  0.00000000000E+00 0.  1.
         12    1    4    4    0    0  0.35054225308E+02  0.12068160519E+02 -0.68225236260E+02  0.77647421548E+02  0.00000000000E+00 0. -1.
        -13    1    3    3    0    0 -0.15518186996E+02  0.38774382146E+02 -0.19639568484E+03  0.20078728013E+03  0.00000000000E+00 0.  1.
         13    1    3    3    0    0 -0.12559497038E+02 -0.51060230335E+02 -0.17856454872E+03  0.18614560470E+03  0.00000000000E+00 0. -1.
          1    1    1    2  501    0  0.10576666955E+01 -0.25754126853E+02  0.82967170841E+02  0.86878910825E+02  0.00000000000E+00 0. -1.
<scales pt_clust_5="13000.00000" pt_clust_6="13000.00000" pt_clust_7="13000.00000" pt_clust_8="13000.00000" pt_clust_9="25.77584"></scales>
<clustering>
<clus scale="   25.776">  1  9  2 -1</clus>
<clus scale="   80.177">  5  6 -1 -1</clus>
<clus scale="   86.581">  1  5  2 -1</clus>
<clus scale="   90.458">  7  8 -1 -1</clus>
<clus scale="   25.776">  1  5  2 -1</clus>
</clustering>
</event>
<event>
 9    2  0.1665830E-004  0.2376407E+03  0.7546771E-02  0.1121375E+00
         21   -1    0    0  501  502  0.00000000000E+00  0.00000000000E+00  0.51479531569E+03  0.51479531569E+03  0.00000000000E+00 0. -1.
          2   -1    0    0  502    0 -0.00000000000E+00 -0.00000000000E+00 -0.72753623158E+02  0.72753623158E+02  0.00000000000E+00 0. -1.
         24    2    1    2    0    0 -0.38559943427E+02 -0.15148262550E+02  0.12454494439E+03  0.15652160845E+03  0.85271517176E+02 0.  0.
         23    2    1    2    0    0 -0.10448661245E+03 -0.12710640095E+02  0.10918982092E+03  0.17680260396E+03  0.90872059646E+02 0.  0.
        -11    1    3    3    0    0 -0.32731505196E+02 -0.95210039832E+01  0.13726843902E+03  0.14143770820E+03  0.00000000000E+00 0.  1.
         12    1    3    3    0    0 -0.58284382300E+01 -0.56272585673E+01 -0.12723494627E+02  0.15083900248E+02  0.00000000000E+00 0. -1.
        -13    1    4    4    0    0  0.34884835120E+01 -0.29467784710E+02  0.26323978425E+02  0.39667010135E+02  0.00000000000E+00 0.  1.
         13    1    4    4    0    0 -0.10797509596E+03  0.16757144615E+02  0.82865842491E+02  0.13713559383E+03  0.00000000000E+00 0. -1.
          1    1    1    2  501    0  0.14304655587E+03  0.27858902645E+02  0.20830692723E+03  0.25422472644E+03  0.00000000000E+00 0. -1.
<scales pt_clust_5="13000.00000" pt_clust_6="13000.00000" pt_clust_7="13000.00000" pt_clust_8="13000.00000" pt_clust_9="145.73413"></scales>
<clustering>
<clus scale="   85.272">  5  6 -1 -1</clus>
<clus scale="   90.872">  7  8 -1 -1</clus>
<clus scale="   94.700">  5  7 -1 -1</clus>
<clus scale="  145.734">  1  9  2 -1</clus>
<clus scale="  145.734">  1  5  2 -1</clus>
</clustering>
</event>
<event>
 9    2  0.1665830E-004  0.1750309E+03  0.7546771E-02  0.1174834E+00
          2   -1    0    0  502    0 -0.00000000000E+00  0.00000000000E+00  0.76821992573E+03  0.76821992573E+03  0.00000000000E+00 0. -1.
         21   -1    0    0  501  502  0.00000000000E+00 -0.00000000000E+00 -0.12990902111E+03  0.12990902111E+03  0.00000000000E+00 0. -1.
         24    2    1    2    0    0 -0.14204252360E+03 -0.33875696810E+02  0.64488807469E+03  0.66594880894E+03  0.79268820568E+02 0.  0.
         23    2    1    2    0    0  0.15361178230E+03  0.77797845708E+01  0.32360774479E+02  0.18389962518E+03  0.95471187821E+02 0.  0.
        -11    1    3    3    0    0 -0.69475667136E+02  0.10073438370E+02  0.17667217590E+03  0.19010891673E+03  0.00000000000E+00 0.  1.
         12    1    3    3    0    0 -0.72566856463E+02 -0.43949135181E+02  0.46821589879E+03  0.47583989221E+03  0.00000000000E+00 0. -1.
        -13    1    4    4    0    0  0.11732590698E+03  0.39730568241E+02 -0.31522162276E+01  0.12391054422E+03  0.00000000000E+00 0.  1.
         13    1    4    4    0    0  0.36285875327E+02 -0.31950783670E+02  0.35512990707E+02  0.59989080959E+02  0.00000000000E+00 0. -1.
          1    1    1    2  501    0 -0.11569258705E+02  0.26095912240E+02 -0.38937944552E+02  0.48280512720E+02  0.00000000000E+00 0. -1.
<scales pt_clust_5="13000.00000" pt_clust_6="13000.00000" pt_clust_7="13000.00000" pt_clust_8="13000.00000" pt_clust_9="28.54548"></scales>
<clustering>
<clus scale="   28.545">  2  9  1 -1</clus>
<clus scale="   79.269">  5  6 -1 -1</clus>
<clus scale="   95.471">  7  8 -1 -1</clus>
<clus scale="  166.747">  1  5  2 -1</clus>
<clus scale="   28.545">  2  5  1 -1</clus>
</clustering>
</event>
<event>
 9    2  0.1665830E-004  0.1774015E+03  0.7546771E-02  0.1170952E+00
         21   -1    0    0  501  502  0.00000000000E+00  0.00000000000E+00  0.40458747011E+03  0.40458747011E+03  0.00000000000E+00 0. -1.
          2   -1    0    0  502    0 -0.00000000000E+00 -0.00000000000E+00 -0.10837812303E+03  0.10837812303E+03  0.00000000000E+00 0. -1.
         23    2    1    2    0    0 -0.15433277558E+03 -0.17111626174E+02  0.93603599592E+02  0.20021226580E+03  0.84922930644E+02 0.  0.
         24    2    1    2    0    0  0.14478041858E+03  0.73392242632E+02  0.16110901496E+03  0.24217901103E+03  0.79666604031E+02 0.  0.
        -11    1    4    4    0    0 -0.59385090754E+01  0.19357239630E+02  0.12952762276E+02  0.24036278138E+02  0.00000000000E+00 0.  1.
         12    1    4    4    0    0  0.15071892766E+03  0.54035003002E+02  0.14815625269E+03  0.21814273289E+03  0.00000000000E+00 0. -1.
        -11    1    3    3    0    0 -0.48922876384E+02  0.64231628928E+01 -0.10228325190E+02  0.50391700620E+02  0.00000000000E+00 0.  1.
         11    1    3    3    0    0 -0.10540989920E+03 -0.23534789067E+02  0.10383192478E+03  0.14982056518E+03  0.00000000000E+00 0. -1.
          1    1    1    2  501    0  0.95523570031E+01 -0.56280616459E+02  0.41496732528E+02  0.70574316318E+02  0.00000000000E+00 0. -1.
<scales pt_clust_5="13000.00000" pt_clust_6="13000.00000" pt_clust_7="13000.00000" pt_clust_8="13000.00000" pt_clust_9="57.08551"></scales>
<clustering>
<clus scale="   57.086">  1  9  2 -1</clus>
<clus scale="   79.667">  5  6 -1 -1</clus>
<clus scale="   84.923">  7  8 -1 -1</clus>
<clus scale="  174.946">  1  5  2 -1</clus>
<clus scale="   57.086">  1  5  2 -1</clus>
</clustering>
</event>
<event>
 9    2  0.1665830E-004  0.9840104E+02  0.7546771E-02  0.1288990E+00
          2   -1    0    0  502    0 -0.00000000000E+00  0.00000000000E+00  0.38067726217E+02  0.38067726217E+02  0.00000000000E+00 0. -1.
         21   -1    0    0  501  502  0.00000000000E+00 -0.00000000000E+00 -0.38866336994E+03  0.38866336994E+03  0.00000000000E+00 0.  1.
         23    2    1    2    0    0 -0.37182955907E+01  0.30436630260E+02 -0.62487719029E+02  0.11641722907E+03  0.93316890274E+02 0.  0.
         24    2    1    2    0    0  0.24938408211E+02 -0.27537978573E+02 -0.20364016961E+03  0.22317319340E+03  0.83406780948E+02 0.  0.
        -11    1    4    4    0    0  0.42261442834E+02  0.74813796629E+01 -0.15474135824E+03  0.16058296467E+03  0.00000000000E+00 0.  1.
         12    1    4    4    0    0 -0.17323034623E+02 -0.35019358236E+02 -0.48898811369E+02  0.62590228735E+02  0.00000000000E+00 0. -1.
        -13    1    3    3    0    0 -0.32605203194E+02 -0.11288001134E+02  0.17547436797E+01  0.34548478552E+02  0.00000000000E+00 0.  1.
         13    1    3    3    0    0  0.28886907603E+02  0.41724631394E+02 -0.64242462709E+02  0.81868750514E+02  0.00000000000E+00 0. -1.
          1    1    1    2  501    0 -0.21220112620E+02 -0.28986516867E+01 -0.84467755084E+02  0.87140673684E+02  0.00000000000E+00 0. -1.
<scales pt_clust_5="13000.00000" pt_clust_6="13000.00000" pt_clust_7="13000.00000" pt_clust_8="13000.00000" pt_clust_9="21.41717"></scales>
<clustering>
<clus scale="   21.417">  2  9  1 -1</clus>
<clus scale="   83.407">  5  6 -1 -1</clus>
<clus scale="   89.058">  2  5  1 -1</clus>
<clus scale="   93.317">  7  8 -1 -1</clus>
<clus scale="   21.417">  2  5  1 -1</clus>
</clustering>
</event>
<event>
 9    2  0.1665830E-004  0.1226099E+03  0.7546771E-02  0.1246601E+00
         21   -1    0    0  501  502  0.00000000000E+00  0.00000000000E+00  0.24757022500E+02  0.24757022500E+02  0.00000000000E+00 0. -1.
          2   -1    0    0  502    0 -0.00000000000E+00 -0.00000000000E+00 -0.12073266946E+04  0.12073266946E+04  0.00000000000E+00 0. -1.
         24    2    1    2    0    0 -0.17315666992E+02  0.52871906993E+02 -0.46435841457E+03  0.47604421639E+03  0.88848679835E+02 0.  0.
         23    2    1    2    0    0  0.99720920152E+01  0.61718854741E+02 -0.24758535387E+03  0.27160817227E+03  0.92540975499E+02 0.  0.
        -11    1    3    3    0    0  0.32596722259E+02  0.38583223396E+02 -0.17846306317E+03  0.18547311489E+03  0.00000000000E+00 0.  1.
         12    1    3    3    0    0 -0.49912389251E+02  0.14288683596E+02 -0.28589535139E+03  0.29057110150E+03  0.00000000000E+00 0. -1.
        -13    1    4    4    0    0 -0.13398445451E+02 -0.20827660768E+02 -0.72925770061E+02  0.77016087492E+02  0.00000000000E+00 0.  1.
         13    1    4    4    0    0  0.23370537467E+02  0.82546515509E+02 -0.17465958381E+03  0.19459208478E+03  0.00000000000E+00 0. -1.
          1    1    1    2  501    0  0.73435749765E+01 -0.11459076173E+03 -0.47062590369E+03  0.48443132846E+03  0.00000000000E+00 0. -1.
<scales pt_clust_5="13000.00000" pt_clust_6="13000.00000" pt_clust_7="13000.00000" pt_clust_8="13000.00000" pt_clust_9="80.43238"></scales>
<clustering>
<clus scale="   88.849">  5  6 -1 -1</clus>
<clus scale="   92.541">  7  8 -1 -1</clus>
<clus scale="  104.830">  2  5  1 -1</clus>
<clus scale="   80.432">  1  9  2 -1</clus>
<clus scale="   80.432">  1  5  2 -1</clus>
</clustering>
</event>
<event>
 9    2  0.1665830E-004  0.1117477E+03  0.7546771E-02  0.1258401E+00
         21   -1    0    0  501  502  0.00000000000E+00  0.00000000000E+00  0.23233633511E+03  0.23233633511E+03  0.00000000000E+00 0. -1.
         -3   -1    0    0    0  501 -0.00000000000E+00 -0.00000000000E+00 -0.15623092516E+03  0.15623092516E+03  0.00000000000E+00 0.  1.
         23    2    1    2    0    0  0.59503665116E+02  0.30411695291E+02 -0.58396907721E+02  0.12573698935E+03  0.89073196233E+02 0.  0.
         24    2    1    2    0    0 -0.77086630491E+02 -0.31821766116E+01  0.17572155076E+03  0.21039333226E+03  0.86225379154E+02 0.  0.
        -13    1    4    4    0    0 -0.48432342784E+02 -0.41457404704E+02  0.12714793524E+03  0.14223573977E+03  0.00000000000E+00 0.  1.
         14    1    4    4    0    0 -0.28654287707E+02  0.38275228092E+02  0.48573615523E+02  0.68157592494E+02  0.00000000000E+00 0. -1.
        -13    1    3    3    0    0  0.65705099883E+02  0.52401948757E+02 -0.29880129968E+02  0.89196112869E+02  0.00000000000E+00 0.  1.
         13    1    3    3    0    0 -0.62014347663E+01 -0.21990253466E+02 -0.28516777754E+02  0.36540876482E+02  0.00000000000E+00 0. -1.
         -4    1    1    2    0  502  0.17582965375E+02 -0.27229518680E+02 -0.41219233086E+02  0.52436938651E+02  0.00000000000E+00 0.  1.
<scales pt_clust_5="13000.00000" pt_clust_6="13000.00000" pt_clust_7="13000.00000" pt_clust_8="13000.00000" pt_clust_9="32.41309"></scales>
<clustering>
<clus scale="   32.413">  1  9  2 -1</clus>
<clus scale="   86.225">  5  6 -1 -1</clus>
<clus scale="   89.073">  7  8 -1 -1</clus>
<clus scale="  109.491">  1  5  2 -1</clus>
<clus scale="   32.413">  1  5  2 -1</clus>
</clustering>
</event>
<event>
 9    2  0.1665830E-004  0.1296182E+03  0.7546771E-02  0.1230976E+00
          2   -1    0    0  502    0 -0.00000000000E+00  0.00000000000E+00  0.94248807819E+03  0.94248807819E+03  0.00000000000E+00 0. -1.
         21   -1    0    0  501  502  0.00000000000E+00 -0.00000000000E+00 -0.40628432102E+02  0.40628432102E+02  0.00000000000E+00 0.  1.
         24    2    1    2    0    0 -0.68038312858E+02 -0.35062352960E+02  0.21415887233E+03  0.24105551802E+03  0.79907193402E+02 0.  0.
         23    2    1    2    0    0  0.12994278854E+03 -0.38205889416E+02  0.28851908566E+03  0.33151693914E+03  0.91188814389E+02 0.  0.
        -11    1    3    3    0    0 -0.79613408993E+02 -0.34534145700E+02  0.13127678464E+03  0.15736739273E+03  0.00000000000E+00 0.  1.
         12    1    3    3    0    0  0.11575096135E+02 -0.52820726052E+00  0.82882087694E+02  0.83688125287E+02  0.00000000000E+00 0. -1.
        -11    1    4    4    0    0  0.80227411624E+02 -0.33756475951E+02  0.83882845552E+02  0.12088121865E+03  0.00000000000E+00 0.  1.
         11    1    4    4    0    0  0.49715376913E+02 -0.44494134650E+01  0.20463624011E+03  0.21063572049E+03  0.00000000000E+00 0. -1.
          1    1    1    2  501    0 -0.61904475678E+02  0.73268242377E+02  0.39918168809E+03  0.41054405312E+03  0.00000000000E+00 0. -1.
<scales pt_clust_5="13000.00000" pt_clust_6="13000.00000" pt_clust_7="13000.00000" pt_clust_8="13000.00000" pt_clust_9="95.91876"></scales>
<clustering>
<clus scale="   79.907">  5  6 -1 -1</clus>
<clus scale="   91.189">  7  8 -1 -1</clus>
<clus scale="   95.919">  2  9  1 -1</clus>
<clus scale="  121.945">  1  5  2 -1</clus>
<clus scale="   95.919">  2  5  1 -1</clus>
</clustering>
</event>
<event>
 9    2  0.1665830E-004  0.9739906E+02  0.7546771E-02  0.1292244E+00
         21   -1    0    0  501  502  0.00000000000E+00  0.00000000000E+00  0.55559253183E+03  0.55559253183E+03  0.00000000000E+00 0.  1.
          2   -1    0    0  502    0 -0.00000000000E+00 -0.00000000000E+00 -0.54447577624E+02  0.54447577624E+02  0.00000000000E+00 0. -1.
         23    2    1    2    0    0  0.13829825857E+02  0.29593785394E+02  0.28499246709E+00  0.97594872297E+02  0.91965328580E+02 0.  0.
         24    2    1    2    0    0 -0.29741487554E+02 -0.15439900901E+02  0.39325417325E+03  0.40275239719E+03  0.80235291734E+02 0.  0.
        -13    1    4    4    0    0 -0.37718510988E+02  0.23860483190E+02  0.25174491723E+03  0.25567071025E+03  0.00000000000E+00 0.  1.
         14    1    4    4    0    0  0.79770234338E+01 -0.39300384092E+02  0.14150925602E+03  0.14708168694E+03  0.00000000000E+00 0. -1.
        -13    1    3    3    0    0 -0.23113894580E+02  0.44785741806E+02  0.18507564793E+02  0.53689335499E+02  0.00000000000E+00 0.  1.
         13    1    3    3    0    0  0.36943720437E+02 -0.15191956412E+02 -0.18222572326E+02  0.43905536798E+02  0.00000000000E+00 0. -1.
          1    1    1    2  501    0  0.15911661697E+02 -0.14153884493E+02  0.10760578849E+03  0.10969283997E+03  0.00000000000E+00 0. -1.
<scales pt_clust_5="13000.00000" pt_clust_6="13000.00000" pt_clust_7="13000.00000" pt_clust_8="13000.00000" pt_clust_9="21.29585"></scales>
<clustering>
<clus scale="   21.296">  1  9  2 -1</clus>
<clus scale="   80.235">  5  6 -1 -1</clus>
<clus scale="   86.410">  1  5  2 -1</clus>
<clus scale="   91.965">  7  8 -1 -1</clus>
<clus scale="   21.296">  1  5  2 -1</clus>
</clustering>
</event>
<event>
 9    2  0.1738928E-004  0.2437729E+03  0.7546771E-02  0.1127848E+00
         21   -1    0    0  501  502  0.00000000000E+00  0.00000000000E+00  0.10956413391E+03  0.10956413391E+03  0.00000000000E+00 0. -1.
          2   -1    0    0  502    0 -0.00000000000E+00 -0.00000000000E+00 -0.18227843375E+04  0.18227843375E+04  0.00000000000E+00 0. -1.
         23    2    1    2    0    0  0.80453482076E+02  0.14232195471E+03 -0.76273927625E+02  0.20242243896E+03  0.91808660756E+02 0.  0.
         24    2    1    2    0    0 -0.14480183374E+03 -0.31937272000E+03 -0.12275801009E+04  0.12792949758E+04  0.81708175088E+02 0.  0.
        -13    1    4    4    0    0  0.51228992227E+01 -0.44082658098E+02 -0.11085534373E+03  0.11940867672E+03  0.00000000000E+00 0.  1.
         14    1    4    4    0    0 -0.14992473296E+03 -0.27529006190E+03 -0.11167247571E+04  0.11598862991E+04  0.00000000000E+00 0. -1.
        -11    1    3    3    0    0 -0.12915027393E+02  0.33020280962E+02 -0.41387247124E+02  0.54498083562E+02  0.00000000000E+00 0.  1.
         11    1    3    3    0    0  0.93368509469E+02  0.10930167375E+03 -0.34886680501E+02  0.14792435540E+03  0.00000000000E+00 0. -1.
          1    1    1    2  501    0  0.64348351665E+02  0.17705076529E+03 -0.40936617509E+03  0.45063105658E+03  0.00000000000E+00 0. -1.
<scales pt_clust_5="13000.00000" pt_clust_6="13000.00000" pt_clust_7="13000.00000" pt_clust_8="13000.00000" pt_clust_9="229.67150"></scales>
<clustering>
<clus scale="   81.708">  5  6 -1 -1</clus>
<clus scale="   91.809">  7  8 -1 -1</clus>
<clus scale="  187.502">  2  7  1 -1</clus>
<clus scale="  229.672">  1  9  2 -1</clus>
<clus scale="  229.672">  1  5  2 -1</clus>
</clustering>
</event>
<event>
 9    2  0.1665830E-004  0.1500950E+03  0.7546771E-02  0.1202331E+00
         21   -1    0    0  501  502  0.00000000000E+00  0.00000000000E+00  0.71601392847E+02  0.71601392847E+02  0.00000000000E+00 0.  1.
         -1   -1    0    0    0  501 -0.00000000000E+00 -0.00000000000E+00 -0.72665552633E+03  0.72665552633E+03  0.00000000000E+00 0.  1.
         23    2    1    2    0    0  0.13274524834E+03  0.15244546975E+02 -0.57978391053E+03  0.60191801969E+03  0.91116531729E+02 0.  0.
         24    2    1    2    0    0 -0.70317945914E+02 -0.37888173122E+02 -0.60009622205E+02  0.12820089373E+03  0.80337956254E+02 0.  0.
        -13    1    4    4    0    0 -0.50482176524E+01 -0.44360283381E+02 -0.10083140223E+02  0.45771049364E+02  0.00000000000E+00 0.  1.
         14    1    4    4    0    0 -0.65269728261E+02  0.64721102594E+01 -0.49926481983E+02  0.82429844363E+02  0.00000000000E+00 0. -1.
        -11    1    3    3    0    0  0.34774541039E+02  0.46820882661E+02 -0.18806971659E+03  0.19690526162E+03  0.00000000000E+00 0. -1.
         11    1    3    3    0    0  0.97970707305E+02 -0.31576335686E+02 -0.39171419394E+03  0.40501275807E+03  0.00000000000E+00 0.  1.
         -2    1    1    2    0  502 -0.62427302430E+02  0.22643626147E+02 -0.15260600755E+02  0.68138005761E+02  0.00000000000E+00 0.  1.
<scales pt_clust_5="13000.00000" pt_clust_6="13000.00000" pt_clust_7="13000.00000" pt_clust_8="13000.00000" pt_clust_9="66.40709"></scales>
<clustering>
<clus scale="   66.407">  1  9  2 -1</clus>
<clus scale="   80.338">  5  6 -1 -1</clus>
<clus scale="   91.117">  7  8 -1 -1</clus>
<clus scale="  143.807">  1  5  2 -1</clus>
<clus scale="   66.407">  1  5  2 -1</clus>
</clustering>
</event>
<event>
 9    2  0.1665830E-004  0.1054540E+03  0.7546771E-02  0.1270267E+00
         21   -1    0    0  501  502  0.00000000000E+00  0.00000000000E+00  0.11939008645E+03  0.11939008645E+03  0.00000000000E+00 0.  1.
          4   -1    0    0  502    0 -0.00000000000E+00 -0.00000000000E+00 -0.29457576735E+03  0.29457576735E+03  0.00000000000E+00 0. -1.
         23    2    1    2    0    0 -0.77435557183E+02  0.20837995340E+02 -0.10209602625E+03  0.15472727747E+03  0.84181020725E+02 0.  0.
         24    2    1    2    0    0  0.63108384028E+01 -0.14278163880E+02  0.63889315089E+02  0.10475558321E+03  0.81536464155E+02 0.  0.
        -13    1    4    4    0    0  0.31381522721E+02  0.16622809526E+02  0.84324494069E+01  0.36499643393E+02  0.00000000000E+00 0.  1.
         14    1    4    4    0    0 -0.25070684318E+02 -0.30900973407E+02  0.55456865682E+02  0.68255939821E+02  0.00000000000E+00 0. -1.
        -13    1    3    3    0    0 -0.93355114947E+02  0.50987167727E+01 -0.87121911760E+02  0.12779437354E+03  0.00000000000E+00 0.  1.
         13    1    3    3    0    0  0.15919557765E+02  0.15739278568E+02 -0.14974114494E+02  0.26932903930E+02  0.00000000000E+00 0. -1.
          3    1    1    2  501    0  0.71124718780E+02 -0.65598314601E+01 -0.13697896973E+03  0.15448299311E+03  0.00000000000E+00 0. -1.
<scales pt_clust_5="13000.00000" pt_clust_6="13000.00000" pt_clust_7="13000.00000" pt_clust_8="13000.00000" pt_clust_9="71.42662"></scales>
<clustering>
<clus scale="   71.427">  1  9  2 -1</clus>
<clus scale="   81.536">  5  6 -1 -1</clus>
<clus scale="   84.181">  7  8 -1 -1</clus>
<clus scale="  103.355">  1  5  2 -1</clus>
<clus scale="   71.427">  1  5  2 -1</clus>
</clustering>
</event>
<event>
 9    2  0.1665830E-004  0.1614503E+03  0.7546771E-02  0.1188722E+00
          2   -1    0    0  502    0 -0.00000000000E+00  0.00000000000E+00  0.14458986410E+04  0.14458986410E+04  0.00000000000E+00 0. -1.
         21   -1    0    0  501  502  0.00000000000E+00 -0.00000000000E+00 -0.32689586867E+02  0.32689586867E+02  0.00000000000E+00 0.  1.
         23    2    1    2    0    0  0.11718427331E+03 -0.54997334898E+02  0.91311744361E+03  0.92694202846E+03  0.93172944304E+02 0.  0.
         24    2    1    2    0    0 -0.13989358967E+03  0.17909227127E+02  0.47288235912E+03  0.50034723110E+03  0.82696246952E+02 0.  0.
        -13    1    4    4    0    0 -0.11820213641E+03 -0.11309386128E+02  0.28122442293E+03  0.30526516886E+03  0.00000000000E+00 0.  1.
         14    1    4    4    0    0 -0.21691453258E+02  0.29218613255E+02  0.19165793618E+03  0.19508206224E+03  0.00000000000E+00 0. -1.
        -13    1    3    3    0    0  0.91144213426E+02  0.78327715334E+01  0.52478500367E+03  0.53269871412E+03  0.00000000000E+00 0. -1.
         13    1    3    3    0    0  0.26040059887E+02 -0.62830106431E+02  0.38833243994E+03  0.39424331434E+03  0.00000000000E+00 0.  1.
          1    1    1    2  501    0  0.22709316357E+02  0.37088107771E+02  0.27209251420E+02  0.51298968315E+02  0.00000000000E+00 0. -1.
<scales pt_clust_5="13000.00000" pt_clust_6="13000.00000" pt_clust_7="13000.00000" pt_clust_8="13000.00000" pt_clust_9="43.48840"></scales>
<clustering>
<clus scale="   43.488">  2  9  1 -1</clus>
<clus scale="   82.696">  5  6 -1 -1</clus>
<clus scale="   93.173">  7  8 -1 -1</clus>
<clus scale="  155.640">  2  5  1 -1</clus>
<clus scale="   43.488">  2  5  1 -1</clus>
</clustering>
</event>
<event>
 9    2  0.1665830E-004  0.1859568E+03  0.7546771E-02  0.1196240E+00
          2   -1    0    0  502    0 -0.00000000000E+00  0.00000000000E+00  0.13139981593E+04  0.13139981593E+04  0.00000000000E+00 0. -1.
         21   -1    0    0  501  502  0.00000000000E+00 -0.00000000000E+00 -0.99517479510E+02  0.99517479510E+02  0.00000000000E+00 0.  1.
         24    2    1    2    0    0  0.29213199279E+02  0.10082008419E+02  0.76839146896E+02  0.11557404484E+03  0.80610467308E+02 0.  0.
         23    2    1    2    0    0 -0.87247701145E+02 -0.14030525510E+03  0.41407612918E+02  0.19247567197E+03  0.89635751408E+02 0.  0.
        -13    1    3    3    0    0  0.38722353017E+01 -0.28919620565E+02  0.44276158044E+01  0.29511733964E+02  0.00000000000E+00 0.  1.
         14    1    3    3    0    0  0.25340963977E+02  0.39001628984E+02  0.72411531091E+02  0.86062310878E+02  0.00000000000E+00 0. -1.
        -11    1    4    4    0    0 -0.98959035833E+02 -0.11351075070E+03  0.54880245784E+02  0.16027920226E+03  0.00000000000E+00 0.  1.
         11    1    4    4    0    0  0.11711334688E+02 -0.26794504397E+02 -0.13472632865E+02  0.32196469719E+02  0.00000000000E+00 0. -1.
          1    1    1    2  501    0  0.58034501866E+02  0.13022324668E+03  0.10962339200E+04  0.11054659220E+04  0.00000000000E+00 0. -1.
<scales pt_clust_5="13000.00000" pt_clust_6="13000.00000" pt_clust_7="13000.00000" pt_clust_8="13000.00000" pt_clust_9="162.92753"></scales>
<clustering>
<clus scale="   80.610">  5  6 -1 -1</clus>
<clus scale="   86.331">  1  5  2 -1</clus>
<clus scale="   89.636">  7  8 -1 -1</clus>
<clus scale="  162.928">  2  9  1 -1</clus>
<clus scale="  162.928">  2  5  1 -1</clus>
</clustering>
</event>
<event>
 9    2  0.1948876E-004  0.9801283E+02  0.7546771E-02  0.1285746E+00
          2   -1    0    0  502    0 -0.00000000000E+00  0.00000000000E+00  0.41557227958E+03  0.41557227958E+03  0.00000000000E+00 0. -1.
         21   -1    0    0  501  502  0.00000000000E+00 -0.00000000000E+00 -0.12849242641E+03  0.12849242641E+03  0.00000000000E+00 0.  1.
         23    2    1    2    0    0 -0.52393071761E+02  0.16980081292E+02  0.37709220884E+03  0.38991904874E+03  0.82492263081E+02 0.  0.
         24    2    1    2    0    0  0.32731825319E+02  0.13157981213E+02 -0.51093476055E+02  0.10114050078E+03  0.79839543735E+02 0.  0.
        -11    1    4    4    0    0  0.44638452739E+02 -0.15688321911E+02 -0.51493883776E+02  0.69930930021E+02  0.00000000000E+00 0.  1.
         12    1    4    4    0    0 -0.11906627420E+02  0.28846303123E+02  0.40040772166E+00  0.31209570756E+02  0.00000000000E+00 0. -1.
        -13    1    3    3    0    0 -0.34753225261E+02  0.45520707498E+02  0.30592241105E+03  0.31123695645E+03  0.00000000000E+00 0. -1.
         13    1    3    3    0    0 -0.17639846501E+02 -0.28540626205E+02  0.71169797789E+02  0.78682092283E+02  0.00000000000E+00 0.  1.
          1    1    1    2  501    0  0.19661246442E+02 -0.30138062505E+02 -0.38918879620E+02  0.53005156485E+02  0.00000000000E+00 0. -1.
<scales pt_clust_5="13000.00000" pt_clust_6="13000.00000" pt_clust_7="13000.00000" pt_clust_8="13000.00000" pt_clust_9="35.98427"></scales>
<clustering>
<clus scale="   35.984">  2  9  1 -1</clus>
<clus scale="   79.840">  5  6 -1 -1</clus>
<clus scale="   82.492">  7  8 -1 -1</clus>
<clus scale="   95.791">  2  5  1 -1</clus>
<clus scale="   35.984">  2  5  1 -1</clus>
</clustering>
</event>
<event>
 9    2  0.1665830E-004  0.1067246E+03  0.7546771E-02  0.1272428E+00
         21   -1    0    0  501  502  0.00000000000E+00  0.00000000000E+00  0.22315581286E+03  0.22315581286E+03  0.00000000000E+00 0. -1.
         -1   -1    0    0    0  501 -0.00000000000E+00 -0.00000000000E+00 -0.10304011466E+03  0.10304011466E+03  0.00000000000E+00 0.  1.
         23    2    1    2    0    0 -0.42730020693E+02 -0.29125956602E+02 -0.22875584143E+02  0.10841582699E+03  0.92501476615E+02 0.  0.
         24    2    1    2    0    0  0.13772905872E+02  0.72305820777E+02  0.11775281411E+03  0.15998740681E+03  0.79450742317E+02 0.  0.
        -11    1    4    4    0    0  0.25641596319E+02  0.11094808154E+02  0.85171506011E+02  0.89636887864E+02  0.00000000000E+00 0.  1.
         12    1    4    4    0    0 -0.11868690447E+02  0.61211012623E+02  0.32581308095E+02  0.70350518949E+02  0.00000000000E+00 0. -1.
        -11    1    3    3    0    0 -0.57804333458E+02 -0.47478838534E+02 -0.34025735640E+02  0.82178657575E+02  0.00000000000E+00 0.  1.
         11    1    3    3    0    0  0.15074312765E+02  0.18352881932E+02  0.11150151497E+02  0.26237169416E+02  0.00000000000E+00 0. -1.
         -2    1    1    2    0  502  0.28957114822E+02 -0.43179864175E+02  0.25238468235E+02  0.57792693723E+02  0.00000000000E+00 0.  1.
<scales pt_clust_5="13000.00000" pt_clust_6="13000.00000" pt_clust_7="13000.00000" pt_clust_8="13000.00000" pt_clust_9="51.99053"></scales>
<clustering>
<clus scale="   51.991">  1  9  2 -1</clus>
<clus scale="   79.451">  5  6 -1 -1</clus>
<clus scale="   92.501">  7  8 -1 -1</clus>
<clus scale="   95.635">  1  5  2 -1</clus>
<clus scale="   51.991">  1  5  2 -1</clus>
</clustering>
</event>
<event>
 9    2  0.1665830E-004  0.1365886E+03  0.7546771E-02  0.1221607E+00
         21   -1    0    0  501  502  0.00000000000E+00  0.00000000000E+00  0.11042306161E+03  0.11042306161E+03  0.00000000000E+00 0. -1.
          2   -1    0    0  502    0 -0.00000000000E+00 -0.00000000000E+00 -0.55159810769E+03  0.55159810769E+03  0.00000000000E+00 0. -1.
         24    2    1    2    0    0  0.84494813803E+02 -0.40906296251E+02 -0.35366189108E+03  0.37462027277E+03  0.80317600398E+02 0.  0.
         23    2    1    2    0    0 -0.11470996709E+03  0.96188643269E+01 -0.14969810430E+03  0.21151396218E+03  0.95277146610E+02 0.  0.
        -11    1    3    3    0    0  0.20939711337E+02 -0.47153991417E+02 -0.22676087822E+03  0.23255637233E+03  0.00000000000E+00 0.  1.
         12    1    3    3    0    0  0.63555102466E+02  0.62476951662E+01 -0.12690101286E+03  0.14206390044E+03  0.00000000000E+00 0. -1.
        -13    1    4    4    0    0 -0.10049148833E+03  0.30602103984E+02 -0.15337659306E+03  0.18590160648E+03  0.00000000000E+00 0. -1.
         13    1    4    4    0    0 -0.14218478764E+02 -0.20983239657E+02  0.36784887610E+01  0.25612355698E+02  0.00000000000E+00 0.  1.
          1    1    1    2  501    0  0.30215153287E+02  0.31287431924E+02  0.62184949299E+02  0.75886934342E+02  0.00000000000E+00 0. -1.
<scales pt_clust_5="13000.00000" pt_clust_6="13000.00000" pt_clust_7="13000.00000" pt_clust_8="13000.00000" pt_clust_9="43.49550"></scales>
<clustering>
<clus scale="   43.496">  1  9  2 -1</clus>
<clus scale="   80.318">  5  6 -1 -1</clus>
<clus scale="   95.277">  7  8 -1 -1</clus>
<clus scale="  126.608">  2  5  1 -1</clus>
<clus scale="   43.496">  1  5  2 -1</clus>
</clustering>
</event>
<event>
 9    2  0.1665830E-004  0.9817425E+02  0.7546771E-02  0.1290993E+00
         21   -1    0    0  501  502  0.00000000000E+00  0.00000000000E+00  0.20101674774E+02  0.20101674774E+02  0.00000000000E+00 0.  1.
         -1   -1    0    0    0  501 -0.00000000000E+00 -0.00000000000E+00 -0.94509757012E+03  0.94509757012E+03  0.00000000000E+00 0.  1.
         24    2    1    2    0    0 -0.29672010437E+02 -0.17784341081E+01 -0.40819755176E+03  0.41724955001E+03  0.81168680493E+02 0.  0.
         23    2    1    2    0    0  0.82797212458E+01  0.59401039202E+02 -0.24140486032E+03  0.26578030377E+03  0.93625990213E+02 0.  0.
        -11    1    3    3    0    0 -0.19569073343E+02 -0.14964912458E+02 -0.30588842313E+02  0.39275622343E+02  0.00000000000E+00 0.  1.
         12    1    3    3    0    0 -0.10102937094E+02  0.13186478350E+02 -0.37760870945E+03  0.37797392767E+03  0.00000000000E+00 0. -1.
        -11    1    4    4    0    0  0.41820550206E+02  0.50171738916E+02 -0.94919873402E+02  0.11522128350E+03  0.00000000000E+00 0.  1.
         11    1    4    4    0    0 -0.33540828960E+02  0.92293002857E+01 -0.14648498692E+03  0.15055902027E+03  0.00000000000E+00 0. -1.
         -2    1    1    2    0  502  0.21392289191E+02 -0.57622605094E+02 -0.27539348327E+03  0.28216939111E+03  0.00000000000E+00 0.  1.
<scales pt_clust_5="13000.00000" pt_clust_6="13000.00000" pt_clust_7="13000.00000" pt_clust_8="13000.00000" pt_clust_9="61.46542"></scales>
<clustering>
<clus scale="   61.465">  1  9  2 -1</clus>
<clus scale="   81.169">  5  6 -1 -1</clus>
<clus scale="   86.375">  2  5  1 -1</clus>
<clus scale="   93.626">  7  8 -1 -1</clus>
<clus scale="   61.465">  1  5  2 -1</clus>
</clustering>
</event>
<event>
 9    2  0.1665830E-004  0.1574478E+03  0.7546771E-02  0.1192350E+00
          2   -1    0    0  502    0 -0.00000000000E+00  0.00000000000E+00  0.43930190845E+03  0.43930190845E+03  0.00000000000E+00 0. -1.
         21   -1    0    0  501  502  0.00000000000E+00 -0.00000000000E+00 -0.15432954604E+03  0.15432954604E+03  0.00000000000E+00 0. -1.
         24    2    1    2    0    0  0.15477591949E+03  0.88977094363E+02  0.30246971420E+03  0.36070284403E+03  0.82134676645E+02 0.  0.
         23    2    1    2    0    0 -0.55864258620E+02 -0.52206076029E+02  0.36254245992E+02  0.11450201416E+03  0.77136574515E+02 0.  0.
        -13    1    3    3    0    0  0.98176162563E+02  0.13510853496E+02  0.12304141450E+03  0.15798826457E+03  0.00000000000E+00 0.  1.
         14    1    3    3    0    0  0.56599756928E+02  0.75466240866E+02  0.17942829970E+03  0.20271457947E+03  0.00000000000E+00 0. -1.
        -11    1    4    4    0    0 -0.16398077166E+02  0.19574107219E+02  0.16811337695E+01  0.25590404822E+02  0.00000000000E+00 0.  1.
         11    1    4    4    0    0 -0.39466181454E+02 -0.71780183248E+02  0.34573112223E+02  0.88911609334E+02  0.00000000000E+00 0. -1.
          1    1    1    2  501    0 -0.98911660871E+02 -0.36771018334E+02 -0.53751597794E+02  0.11842659630E+03  0.00000000000E+00 0. -1.
<scales pt_clust_5="13000.00000" pt_clust_6="13000.00000" pt_clust_7="13000.00000" pt_clust_8="13000.00000" pt_clust_9="105.52547"></scales>
<clustering>
<clus scale="   77.137">  7  8 -1 -1</clus>
<clus scale="   82.135">  5  6 -1 -1</clus>
<clus scale="  105.525">  2  9  1 -1</clus>
<clus scale="  154.899">  2  7  1 -1</clus>
<clus scale="  105.525">  2  5  1 -1</clus>
</clustering>
</event>
<event>
 9    2  0.1665830E-004  0.1095799E+03  0.7546771E-02  0.1264315E+00
          2   -1    0    0  502    0 -0.00000000000E+00  0.00000000000E+00  0.86256666813E+03  0.86256666813E+03  0.00000000000E+00 0. -1.
         21   -1    0    0  501  502  0.00000000000E+00 -0.00000000000E+00 -0.47494664182E+02  0.47494664182E+02  0.00000000000E+00 0.  1.
         23    2    1    2    0    0  0.13081581846E+02  0.48511581797E+02  0.36916310136E+03  0.38337161086E+03  0.90376408726E+02 0.  0.
         24    2    1    2    0    0  0.36680656545E+02  0.56377053972E+02  0.52471717905E+02  0.11648157359E+03  0.79314771806E+02 0.  0.
        -13    1    4    4    0    0  0.35974562514E+02  0.44511211823E+02 -0.53219227184E+01  0.57478169660E+02  0.00000000000E+00 0.  1.
         14    1    4    4    0    0  0.70609403135E+00  0.11865842149E+02  0.57793640623E+02  0.59003403929E+02  0.00000000000E+00 0. -1.
        -13    1    3    3    0    0 -0.32023885630E+02  0.12833023166E+02  0.62753286496E+02  0.71611386668E+02  0.00000000000E+00 0.  1.
         13    1    3    3    0    0  0.45105467476E+02  0.35678558631E+02  0.30640981487E+03  0.31176022419E+03  0.00000000000E+00 0. -1.
          1    1    1    2  501    0 -0.49762238392E+02 -0.10488863577E+03  0.39343718468E+03  0.41020814786E+03  0.00000000000E+00 0. -1.
<scales pt_clust_5="13000.00000" pt_clust_6="13000.00000" pt_clust_7="13000.00000" pt_clust_8="13000.00000" pt_clust_9="75.61038"></scales>
<clustering>
<clus scale="   79.315">  5  6 -1 -1</clus>
<clus scale="   90.376">  7  8 -1 -1</clus>
<clus scale="  103.404">  1  7  2 -1</clus>
<clus scale="   75.610">  2  9  1 -1</clus>
<clus scale="   75.610">  2  5  1 -1</clus>
</clustering>
</event>
<event>
 9    2  0.1665830E-004  0.1140264E+03  0.7546771E-02  0.1256247E+00
         21   -1    0    0  501  502  0.00000000000E+00  0.00000000000E+00  0.59664588085E+03  0.59664588085E+03  0.00000000000E+00 0.  1.
         -3   -1    0    0    0  501 -0.00000000000E+00 -0.00000000000E+00 -0.44650816453E+02  0.44650816453E+02  0.00000000000E+00 0.  1.
         23    2    1    2    0    0  0.38401164677E+01  0.52093149254E+02  0.15251242654E+03  0.18421980038E+03  0.89154090820E+02 0.  0.
         24    2    1    2    0    0  0.76889169030E+02 -0.59564935452E+02  0.28990378288E+03  0.32076633026E+03  0.96886064264E+02 0.  0.
        -11    1    4    4    0    0  0.72174140710E+02 -0.55692086857E+02  0.11974299307E+03  0.15049617774E+03  0.00000000000E+00 0.  1.
         12    1    4    4    0    0  0.47150283204E+01 -0.38728485952E+01  0.17016078981E+03  0.17027015252E+03  0.00000000000E+00 0. -1.
        -11    1    3    3    0    0 -0.35145263122E+02  0.47292615602E+01  0.27180938348E+02  0.44680631646E+02  0.00000000000E+00 0. -1.
         11    1    3    3    0    0  0.38985379590E+02  0.47363887694E+02  0.12533148819E+03  0.13953916873E+03  0.00000000000E+00 0.  1.
         -4    1    1    2    0  502 -0.80729285498E+02  0.74717861979E+01  0.10957885497E+03  0.13631056666E+03  0.00000000000E+00 0.  1.
<scales pt_clust_5="13000.00000" pt_clust_6="13000.00000" pt_clust_7="13000.00000" pt_clust_8="13000.00000" pt_clust_9="81.07436"></scales>
<clustering>
<clus scale="   81.074">  1  9  2 -1</clus>
<clus scale="   89.154">  7  8 -1 -1</clus>
<clus scale="   96.886">  5  6 -1 -1</clus>
<clus scale="  107.534">  2  7  1 -1</clus>
<clus scale="   81.074">  1  5  2 -1</clus>
</clustering>
</event>
<event>
 9    2  0.1665830E-004  0.1176979E+03  0.7546771E-02  0.1253361E+00
          2   -1    0    0  502    0 -0.00000000000E+00  0.00000000000E+00  0.20336766341E+03  0.20336766341E+03  0.00000000000E+00 0. -1.
         21   -1    0    0  501  502  0.00000000000E+00 -0.00000000000E+00 -0.28797643372E+03  0.28797643372E+03  0.00000000000E+00 0.  1.
         23    2    1    2    0    0  0.41595158743E+02 -0.80518078219E+02 -0.10598636691E+03  0.16635241895E+03  0.90701153085E+02 0.  0.
         24    2    1    2    0    0 -0.12998863685E+02  0.57588883967E+02 -0.13536375074E+03  0.16402166232E+03  0.71374439978E+02 0.  0.
        -13    1    4    4    0    0  0.28978949093E+02  0.14290335073E+02 -0.48340661413E+02  0.58144756538E+02  0.00000000000E+00 0.  1.
         14    1    4    4    0    0 -0.41977812778E+02  0.43298548894E+02 -0.87023089324E+02  0.10587690578E+03  0.00000000000E+00 0. -1.
        -11    1    3    3    0    0  0.52618187527E+01 -0.90328343855E+02 -0.77850026380E+02  0.11936298860E+03  0.00000000000E+00 0.  1.
         11    1    3    3    0    0  0.36333339990E+02  0.98102656367E+01 -0.28136340527E+02  0.46989430354E+02  0.00000000000E+00 0. -1.
          1    1    1    2  501    0 -0.28596295058E+02  0.22929194252E+02  0.15674134734E+03  0.16097001586E+03  0.00000000000E+00 0. -1.
<scales pt_clust_5="13000.00000" pt_clust_6="13000.00000" pt_clust_7="13000.00000" pt_clust_8="13000.00000" pt_clust_9="36.65375"></scales>
<clustering>
<clus scale="   36.654">  2  9  1 -1</clus>
<clus scale="   71.374">  5  6 -1 -1</clus>
<clus scale="   90.701">  7  8 -1 -1</clus>
<clus scale="  103.539">  2  5  1 -1</clus>
<clus scale="   36.654">  2  5  1 -1</clus>
</clustering>
</event>
<event>
 9    2  0.1665830E-004  0.1346568E+03  0.7546771E-02  0.1247831E+00
         -3   -1    0    0    0  501 -0.00000000000E+00  0.00000000000E+00  0.31599322185E+03  0.31599322185E+03  0.00000000000E+00 0.  1.
         21   -1    0    0  501  502  0.00000000000E+00 -0.00000000000E+00 -0.92677002893E+02  0.92677002893E+02  0.00000000000E+00 0.  1.
         23    2    1    2    0    0 -0.20129285255E+02  0.14512920926E+02  0.12139101050E+03  0.14386396702E+03  0.73111220598E+02 0.  0.
         24    2    1    2    0    0  0.32949955388E+01  0.99392264088E+02  0.68141912611E+02  0.14481002628E+03  0.80230569607E+02 0.  0.
        -13    1    4    4    0    0  0.40148057707E+02  0.63082138515E+02  0.30154486482E+02  0.80625776227E+02  0.00000000000E+00 0.  1.
         14    1    4    4    0    0 -0.36853062168E+02  0.36310125573E+02  0.37987426129E+02  0.64184250048E+02  0.00000000000E+00 0. -1.
        -11    1    3    3    0    0 -0.18857281151E+02  0.42549447066E+02  0.92708157224E+02  0.10373454060E+03  0.00000000000E+00 0.  1.
         11    1    3    3    0    0 -0.12720041035E+01 -0.28036526140E+02  0.28682853278E+02  0.40129426418E+02  0.00000000000E+00 0. -1.
         -4    1    1    2    0  502  0.16834289716E+02 -0.11390518501E+03  0.33783295841E+02  0.11999623145E+03  0.00000000000E+00 0.  1.
<scales pt_clust_5="13000.00000" pt_clust_6="13000.00000" pt_clust_7="13000.00000" pt_clust_8="13000.00000" pt_clust_9="108.14578"></scales>
<clustering>
<clus scale="   73.111">  7  8 -1 -1</clus>
<clus scale="   77.208">  1  7  2 -1</clus>
<clus scale="   80.231">  5  6 -1 -1</clus>
<clus scale="  108.146">  2  9  1 -1</clus>
<clus scale="  108.146">  2  5  1 -1</clus>
</clustering>
</event>
<event>
 9    2  0.1665830E-004  0.9719409E+02  0.7546771E-02  0.1302139E+00
          2   -1    0    0  502    0 -0.00000000000E+00  0.00000000000E+00  0.82808183596E+02  0.82808183596E+02  0.00000000000E+00 0. -1.
         21   -1    0    0  501  502  0.00000000000E+00 -0.00000000000E+00 -0.31365007267E+03  0.31365007267E+03  0.00000000000E+00 0.  1.
         24    2    1    2    0    0 -0.12728768523E+02 -0.23476537874E+02 -0.43472235001E+02  0.81270895649E+02  0.63260998134E+02 0.  0.
         23    2    1    2    0    0  0.58481771551E+01  0.71251327485E+02 -0.22573889438E+03  0.25352723037E+03  0.90592799146E+02 0.  0.
        -11    1    3    3    0    0 -0.78902970449E+01  0.21215245698E+02 -0.79972447431E+01  0.24006235877E+02  0.00000000000E+00 0.  1.
         12    1    3    3    0    0 -0.48384714780E+01 -0.44691783572E+02 -0.35474990258E+02  0.57264659772E+02  0.00000000000E+00 0. -1.
        -13    1    4    4    0    0 -0.42008287300E+02  0.25205051391E+02 -0.95026955007E+02  0.10691170654E+03  0.00000000000E+00 0. -1.
         13    1    4    4    0    0  0.47856464455E+02  0.46046276094E+02 -0.13071193937E+03  0.14661552383E+03  0.00000000000E+00 0.  1.
          1    1    1    2  501    0  0.68805913679E+01 -0.47774789611E+02  0.38369240311E+02  0.61660130246E+02  0.00000000000E+00 0. -1.
<scales pt_clust_5="13000.00000" pt_clust_6="13000.00000" pt_clust_7="13000.00000" pt_clust_8="13000.00000" pt_clust_9="48.26775"></scales>
<clustering>
<clus scale="   48.268">  2  9  1 -1</clus>
<clus scale="   63.261">  5  6 -1 -1</clus>
<clus scale="   72.399">  1  5  2 -1</clus>
<clus scale="   90.593">  7  8 -1 -1</clus>
<clus scale="   48.268">  2  5  1 -1</clus>
</clustering>
</event>
<event>
 9    2  0.1665830E-004  0.9875557E+02  0.7546771E-02  0.1285846E+00
          2   -1    0    0  502    0 -0.00000000000E+00  0.00000000000E+00  0.14631490370E+03  0.14631490370E+03  0.00000000000E+00 0. -1.
         21   -1    0    0  501  502  0.00000000000E+00 -0.00000000000E+00 -0.15672989106E+03  0.15672989106E+03  0.00000000000E+00 0.  1.
         24    2    1    2    0    0 -0.11941307128E+01 -0.42575605450E+02  0.10090157390E+03  0.13836457210E+03  0.84554828776E+02 0.  0.
         23    2    1    2    0    0  0.18158496947E+02  0.23782155667E+02 -0.79506166465E+02  0.12402453803E+03  0.90363342054E+02 0.  0.
        -11    1    3    3    0    0 -0.38992883227E+02 -0.32794614855E+01  0.32336867505E+02  0.50762907817E+02  0.00000000000E+00 0.  1.
         12    1    3    3    0    0  0.37798752514E+02 -0.39296143964E+02  0.68564706396E+02  0.87601664284E+02  0.00000000000E+00 0. -1.
        -11    1    4    4    0    0  0.29624250314E+02 -0.25582273542E+01  0.89242663746E+01  0.31044858901E+02  0.00000000000E+00 0. -1.
         11    1    4    4    0    0 -0.11465753367E+02  0.26340383021E+02 -0.88430432840E+02  0.92979679125E+02  0.00000000000E+00 0.  1.
          1    1    1    2  501    0 -0.16964366234E+02  0.18793449783E+02 -0.31810394787E+02  0.40655684633E+02  0.00000000000E+00 0. -1.
<scales pt_clust_5="13000.00000" pt_clust_6="13000.00000" pt_clust_7="13000.00000" pt_clust_8="13000.00000" pt_clust_9="25.31765"></scales>
<clustering>
<clus scale="   25.318">  2  9  1 -1</clus>
<clus scale="   84.555">  5  6 -1 -1</clus>
<clus scale="   90.363">  7  8 -1 -1</clus>
<clus scale="   93.470">  1  5  2 -1</clus>
<clus scale="   25.318">  2  5  1 -1</clus>
</clustering>
</event>
<event>
 9    2  0.1665830E-004  0.2596478E+03  0.7546771E-02  0.1107916E+00
          2   -1    0    0  502    0 -0.00000000000E+00  0.00000000000E+00  0.18978971934E+04  0.18978971934E+04  0.00000000000E+00 0. -1.
         21   -1    0    0  501  502  0.00000000000E+00 -0.00000000000E+00 -0.75771289974E+02  0.75771289974E+02  0.00000000000E+00 0. -1.
         24    2    1    2    0    0  0.12324535177E+03  0.24797178698E+03  0.93591420910E+03  0.97938884424E+03  0.81164509165E+02 0.  0.
         23    2    1    2    0    0 -0.21817072666E+03 -0.78192799101E+02  0.41043002265E+03  0.48027192458E+03  0.92172329066E+02 0.  0.
        -13    1    3    3    0    0  0.10477115489E+02  0.95644058798E+02  0.25351804005E+03  0.27116222555E+03  0.00000000000E+00 0.  1.
         14    1    3    3    0    0  0.11276823628E+03  0.15232772818E+03  0.68239616905E+03  0.70822661869E+03  0.00000000000E+00 0. -1.
        -13    1    4    4    0    0 -0.10324496891E+03 -0.24843477535E+02  0.27510382751E+03  0.29488783951E+03  0.00000000000E+00 0.  1.
         13    1    4    4    0    0 -0.11492575775E+03 -0.53349321566E+02  0.13532619515E+03  0.18538408508E+03  0.00000000000E+00 0. -1.
          1    1    1    2  501    0  0.94925374886E+02 -0.16977898788E+03  0.47578167164E+03  0.51400771453E+03  0.00000000000E+00 0. -1.
<scales pt_clust_5="13000.00000" pt_clust_6="13000.00000" pt_clust_7="13000.00000" pt_clust_8="13000.00000" pt_clust_9="194.51419"></scales>
<clustering>
<clus scale="   81.165">  5  6 -1 -1</clus>
<clus scale="   92.172">  7  8 -1 -1</clus>
<clus scale="  194.514">  2  9  1 -1</clus>
<clus scale="  255.947">  1  5  2 -1</clus>
<clus scale="  194.514">  2  5  1 -1</clus>
</clustering>
</event>
<event>
 9    2  0.1665830E-004  0.1995909E+03  0.7546771E-02  0.1150880E+00
          2   -1    0    0  502    0 -0.00000000000E+00  0.00000000000E+00  0.39410824970E+03  0.39410824970E+03  0.00000000000E+00 0. -1.
         21   -1    0    0  501  502  0.00000000000E+00 -0.00000000000E+00 -0.24941211968E+03  0.24941211968E+03  0.00000000000E+00 0. -1.
         24    2    1    2    0    0 -0.13579515662E+03  0.87501838952E+02  0.21886716908E+03  0.29199047119E+03  0.10610702704E+03 0.  0.
         23    2    1    2    0    0  0.10614904546E+03 -0.18770720724E+03 -0.34453967006E+02  0.23973788795E+03  0.98922007531E+02 0.  0.
        -13    1    3    3    0    0  0.76330167975E+01  0.36213628943E+02  0.21926166523E+02  0.43016818165E+02  0.00000000000E+00 0.  1.
         14    1    3    3    0    0 -0.14342817341E+03  0.51288210009E+02  0.19694100255E+03  0.24897365303E+03  0.00000000000E+00 0. -1.
        -11    1    4    4    0    0  0.34708429981E+02 -0.10953223715E+01 -0.18336510321E+02  0.39269612344E+02  0.00000000000E+00 0.  1.
         11    1    4    4    0    0  0.71440615482E+02 -0.18661188487E+03 -0.16117456685E+02  0.20046827561E+03  0.00000000000E+00 0. -1.
          1    1    1    2  501    0  0.29646111153E+02  0.10020536829E+03 -0.39717072046E+02  0.11179201024E+03  0.00000000000E+00 0. -1.
<scales pt_clust_5="13000.00000" pt_clust_6="13000.00000" pt_clust_7="13000.00000" pt_clust_8="13000.00000" pt_clust_9="104.49884"></scales>
<clustering>
<clus scale="   98.922">  7  8 -1 -1</clus>
<clus scale="  104.499">  2  9  1 -1</clus>
<clus scale="  106.107">  5  6 -1 -1</clus>
<clus scale="  195.866">  2  7  1 -1</clus>
<clus scale="  104.499">  2  5  1 -1</clus>
</clustering>
</event>
<event>
 9    2  0.1665830E-004  0.9449759E+02  0.7546771E-02  0.1298121E+00
         21   -1    0    0  501  502  0.00000000000E+00  0.00000000000E+00  0.37367760020E+02  0.37367760020E+02  0.00000000000E+00 0.  1.
         -1   -1    0    0    0  501 -0.00000000000E+00 -0.00000000000E+00 -0.39467552969E+03  0.39467552969E+03  0.00000000000E+00 0.  1.
         23    2    1    2    0    0  0.16605932319E+02  0.14222500840E+02 -0.23163446603E+03  0.24967239411E+03  0.90574510811E+02 0.  0.
         24    2    1    2    0    0 -0.18501979145E+01 -0.41974636339E+02 -0.11996884026E+03  0.15042635577E+03  0.80438004387E+02 0.  0.
        -11    1    4    4    0    0 -0.30667027907E+02 -0.35452564975E+02 -0.29814534762E+02  0.55554094782E+02  0.00000000000E+00 0.  1.
         12    1    4    4    0    0  0.28816829992E+02 -0.65220713635E+01 -0.90154305500E+02  0.94872260993E+02  0.00000000000E+00 0. -1.
        -11    1    3    3    0    0  0.27031167198E+02 -0.25704356201E+02 -0.17871187922E+03  0.18256323207E+03  0.00000000000E+00 0.  1.
         11    1    3    3    0    0 -0.10425234880E+02  0.39926857041E+02 -0.52922586807E+02  0.67109162040E+02  0.00000000000E+00 0. -1.
         -2    1    1    2    0  502 -0.14755734404E+02  0.27752135499E+02 -0.57044633815E+01  0.31944539831E+02  0.00000000000E+00 0.  1.
<scales pt_clust_5="13000.00000" pt_clust_6="13000.00000" pt_clust_7="13000.00000" pt_clust_8="13000.00000" pt_clust_9="31.43108"></scales>
<clustering>
<clus scale="   31.431">  1  9  2 -1</clus>
<clus scale="   80.438">  5  6 -1 -1</clus>
<clus scale="   84.831">  1  5  2 -1</clus>
<clus scale="   90.575">  7  8 -1 -1</clus>
<clus scale="   31.431">  1  5  2 -1</clus>
</clustering>
</event>
<event>
 9    2  0.1665830E-004  0.1276357E+03  0.7546771E-02  0.1232694E+00
          2   -1    0    0  502    0 -0.00000000000E+00  0.00000000000E+00  0.31490130385E+03  0.31490130385E+03  0.00000000000E+00 0. -1.
         21   -1    0    0  501  502  0.00000000000E+00 -0.00000000000E+00 -0.16357905134E+03  0.16357905134E+03  0.00000000000E+00 0.  1.
         24    2    1    2    0    0 -0.15734591596E+02  0.87664430930E+02  0.21307068924E+03  0.24550429578E+03  0.83310328363E+02 0.  0.
         23    2    1    2    0    0  0.53156833311E+02 -0.87478439155E+02  0.25148709992E+02  0.13836330722E+03  0.89631584416E+02 0.  0.
        -11    1    3    3    0    0  0.28813337222E+02  0.88178750980E+01  0.38992008133E+02  0.49278190118E+02  0.00000000000E+00 0.  1.
         12    1    3    3    0    0 -0.44547928818E+02  0.78846555832E+02  0.17407868111E+03  0.19622610567E+03  0.00000000000E+00 0. -1.
        -13    1    4    4    0    0  0.31140944785E+02  0.58551373610E+00 -0.19965647021E+02  0.36996328593E+02  0.00000000000E+00 0. -1.
         13    1    4    4    0    0  0.22015888526E+02 -0.88063952891E+02  0.45114357013E+02  0.10136697862E+03  0.00000000000E+00 0.  1.
          1    1    1    2  501    0 -0.37422241715E+02 -0.18599177429E+00 -0.86897146722E+02  0.94612752187E+02  0.00000000000E+00 0. -1.
<scales pt_clust_5="13000.00000" pt_clust_6="13000.00000" pt_clust_7="13000.00000" pt_clust_8="13000.00000" pt_clust_9="37.42270"></scales>
<clustering>
<clus scale="   37.423">  2  9  1 -1</clus>
<clus scale="   83.310">  5  6 -1 -1</clus>
<clus scale="   89.632">  7  8 -1 -1</clus>
<clus scale="  123.279">  1  5  2 -1</clus>
<clus scale="   37.423">  2  5  1 -1</clus>
</clustering>
</event>
<event>
 9    2  0.1665830E-004  0.9577830E+02  0.7546771E-02  0.1293936E+00
         -3   -1    0    0    0  501 -0.00000000000E+00  0.00000000000E+00  0.71609711703E+02  0.71609711703E+02  0.00000000000E+00 0.  1.
         21   -1    0    0  501  502  0.00000000000E+00 -0.00000000000E+00 -0.28371395487E+03  0.28371395487E+03  0.00000000000E+00 0. -1.
         23    2    1    2    0    0  0.64643451593E+01 -0.27346907289E+02 -0.26035077609E+02  0.99826933503E+02  0.92184327788E+02 0.  0.
         24    2    1    2    0    0 -0.44101192355E+02  0.33512494992E+00 -0.18635802503E+03  0.20916907295E+03  0.84127047439E+02 0.  0.
        -11    1    4    4    0    0 -0.23027558359E+02  0.22734330985E+02 -0.16076683964E+02  0.36132783128E+02  0.00000000000E+00 0.  1.
         12    1    4    4    0    0 -0.21073633996E+02 -0.22399206035E+02 -0.17028134107E+03  0.17303628983E+03  0.00000000000E+00 0. -1.
        -13    1    3    3    0    0 -0.37770109861E+02  0.65934714757E+01 -0.11547545599E+00  0.38341471015E+02  0.00000000000E+00 0. -1.
         13    1    3    3    0    0  0.44234455020E+02 -0.33940378765E+02 -0.25919602153E+02  0.61485462488E+02  0.00000000000E+00 0.  1.
         -4    1    1    2    0  502  0.37636847195E+02  0.27011782339E+02  0.28885947631E+00  0.46327660115E+02  0.00000000000E+00 0.  1.
<scales pt_clust_5="13000.00000" pt_clust_6="13000.00000" pt_clust_7="13000.00000" pt_clust_8="13000.00000" pt_clust_9="46.32678"></scales>
<clustering>
<clus scale="   46.327">  2  9  1 -1</clus>
<clus scale="   84.127">  5  6 -1 -1</clus>
<clus scale="   88.051">  2  5  1 -1</clus>
<clus scale="   92.184">  7  8 -1 -1</clus>
<clus scale="   46.327">  2  5  1 -1</clus>
</clustering>
</event>
<event>
 9    2  0.1665830E-004  0.1374764E+03  0.7546771E-02  0.1219600E+00
         -3   -1    0    0    0  501 -0.00000000000E+00  0.00000000000E+00  0.22812374898E+03  0.22812374898E+03  0.00000000000E+00 0.  1.
         21   -1    0    0  501  502  0.00000000000E+00 -0.00000000000E+00 -0.19180100697E+03  0.19180100697E+03  0.00000000000E+00 0.  1.
         24    2    1    2    0    0  0.13295866146E+03 -0.49153958456E+02  0.10534830260E+03  0.19342352285E+03  0.78868732967E+02 0.  0.
         23    2    1    2    0    0 -0.59917415841E+02 -0.77308356346E+01  0.24222711694E+01  0.10955810153E+03  0.91363273102E+02 0.  0.
        -11    1    3    3    0    0  0.81776452170E+02 -0.61692268944E+02  0.95027544497E+02  0.13972672754E+03  0.00000000000E+00 0.  1.
         12    1    3    3    0    0  0.51182209295E+02  0.12538310488E+02  0.10320758104E+02  0.53696795305E+02  0.00000000000E+00 0. -1.
        -13    1    4    4    0    0 -0.41127364705E+02  0.36661575495E+02  0.19458652101E+02  0.58430902671E+02  0.00000000000E+00 0. -1.
         13    1    4    4    0    0 -0.18790051136E+02 -0.44392411130E+02 -0.17036380931E+02  0.51127198856E+02  0.00000000000E+00 0.  1.
         -4    1    1    2    0  502 -0.73041245624E+02  0.56884794090E+02 -0.71447831757E+02  0.11694313158E+03  0.00000000000E+00 0.  1.
<scales pt_clust_5="13000.00000" pt_clust_6="13000.00000" pt_clust_7="13000.00000" pt_clust_8="13000.00000" pt_clust_9="92.57917"></scales>
<clustering>
<clus scale="   78.869">  5  6 -1 -1</clus>
<clus scale="   91.363">  7  8 -1 -1</clus>
<clus scale="   92.579">  2  9  1 -1</clus>
<clus scale="  129.510">  1  5  2 -1</clus>
<clus scale="   92.579">  2  5  1 -1</clus>
</clustering>
</event>
<event>
 9    2  0.1665830E-004  0.1527531E+03  0.7546771E-02  0.1199406E+00
         21   -1    0    0  501  502  0.00000000000E+00  0.00000000000E+00  0.74506874906E+03  0.74506874906E+03  0.00000000000E+00 0.  1.
          2   -1    0    0  502    0 -0.00000000000E+00 -0.00000000000E+00 -0.66275001846E+02  0.66275001846E+02  0.00000000000E+00 0. -1.
         23    2    1    2    0    0  0.74133951865E+02 -0.11012292366E+03  0.10217829076E+03  0.19090067506E+03  0.91541048184E+02 0.  0.
         24    2    1    2    0    0 -0.44974668903E+01  0.97596180383E+02  0.50277829756E+03  0.51817829514E+03  0.78596993763E+02 0.  0.
        -11    1    4    4    0    0  0.22400915630E+02  0.86397371396E+02  0.29028398976E+03  0.30369573839E+03  0.00000000000E+00 0.  1.
         12    1    4    4    0    0 -0.26898382521E+02  0.11198808987E+02  0.21249430780E+03  0.21448255675E+03  0.00000000000E+00 0. -1.
        -11    1    3    3    0    0  0.58431333368E+02 -0.37709725096E+02  0.64431715639E+01  0.69840951781E+02  0.00000000000E+00 0. -1.
         11    1    3    3    0    0  0.15702618497E+02 -0.72413198569E+02  0.95735119192E+02  0.12105972328E+03  0.00000000000E+00 0.  1.
          1    1    1    2  501    0 -0.69636484974E+02  0.12526743282E+02  0.73837158901E+02  0.10226478070E+03  0.00000000000E+00 0. -1.
<scales pt_clust_5="13000.00000" pt_clust_6="13000.00000" pt_clust_7="13000.00000" pt_clust_8="13000.00000" pt_clust_9="70.75425"></scales>
<clustering>
<clus scale="   70.754">  1  9  2 -1</clus>
<clus scale="   78.597">  5  6 -1 -1</clus>
<clus scale="   91.541">  7  8 -1 -1</clus>
<clus scale="  145.366">  1  5  2 -1</clus>
<clus scale="   70.754">  1  5  2 -1</clus>
</clustering>
</event>
<event>
 9    2  0.1665830E-004  0.1063115E+03  0.7546771E-02  0.1281201E+00
          2   -1    0    0  502    0 -0.00000000000E+00  0.00000000000E+00  0.42521468676E+03  0.42521468676E+03  0.00000000000E+00 0. -1.
         21   -1    0    0  501  502  0.00000000000E+00 -0.00000000000E+00 -0.46045044274E+02  0.46045044274E+02  0.00000000000E+00 0. -1.
         23    2    1    2    0    0  0.66102838693E+01 -0.67489077398E+01  0.20789119987E+03  0.23288112317E+03  0.10452570468E+03 0.  0.
         24    2    1    2    0    0  0.43616586701E+02 -0.20787270609E+01  0.16326419302E+03  0.18675599789E+03  0.79472500172E+02 0.  0.
        -13    1    4    4    0    0  0.90603131158E+01  0.36731259487E+02  0.56203240394E+02  0.67750121240E+02  0.00000000000E+00 0.  1.
         14    1    4    4    0    0  0.34556273585E+02 -0.38809986548E+02  0.10706095263E+03  0.11900587665E+03  0.00000000000E+00 0. -1.
        -13    1    3    3    0    0  0.90721612337E+00  0.35248442735E+02  0.20562616652E+02  0.40817850995E+02  0.00000000000E+00 0.  1.
         13    1    3    3    0    0  0.57030677459E+01 -0.41997350475E+02  0.18732858322E+03  0.19206327218E+03  0.00000000000E+00 0. -1.
          1    1    1    2  501    0 -0.50226870570E+02  0.88276348007E+01  0.80142495917E+01  0.51622609968E+02  0.00000000000E+00 0. -1.
<scales pt_clust_5="13000.00000" pt_clust_6="13000.00000" pt_clust_7="13000.00000" pt_clust_8="13000.00000" pt_clust_9="50.99672"></scales>
<clustering>
<clus scale="   50.997">  2  9  1 -1</clus>
<clus scale="   79.473">  5  6 -1 -1</clus>
<clus scale="   81.807">  2  5  1 -1</clus>
<clus scale="  104.526">  7  8 -1 -1</clus>
<clus scale="   50.997">  2  5  1 -1</clus>
</clustering>
</event>
<event>
 9    2  0.1665830E-004  0.9914844E+02  0.7546771E-02  0.1287648E+00
         21   -1    0    0  501  502  0.00000000000E+00  0.00000000000E+00  0.20724941361E+03  0.20724941361E+03  0.00000000000E+00 0.  1.
          4   -1    0    0  502    0 -0.00000000000E+00 -0.00000000000E+00 -0.92738925922E+02  0.92738925922E+02  0.00000000000E+00 0. -1.
         24    2    1    2    0    0  0.18537209504E+02 -0.46497189410E+02  0.29946970428E+01  0.93974402482E+02  0.79477061799E+02 0.  0.
         23    2    1    2    0    0 -0.46411775729E+02  0.76979814342E+00  0.25665059358E+02  0.10482928497E+03  0.90420341737E+02 0.  0.
        -11    1    3    3    0    0 -0.26382268940E+02 -0.39364794698E+02 -0.54991254897E+01  0.47705885981E+02  0.00000000000E+00 0.  1.
         12    1    3    3    0    0  0.44919478444E+02 -0.71323947117E+01  0.84938225325E+01  0.46268516501E+02  0.00000000000E+00 0. -1.
        -13    1    4    4    0    0 -0.18732648539E+02 -0.28754216844E+02 -0.23168110176E+02  0.41406260840E+02  0.00000000000E+00 0. -1.
         13    1    4    4    0    0 -0.27679127189E+02  0.29524014988E+02  0.48833169534E+02  0.63423024129E+02  0.00000000000E+00 0.  1.
          3    1    1    2  501    0  0.27874566225E+02  0.45727391266E+02  0.85850731287E+02  0.10118465208E+03  0.00000000000E+00 0. -1.
<scales pt_clust_5="13000.00000" pt_clust_6="13000.00000" pt_clust_7="13000.00000" pt_clust_8="13000.00000" pt_clust_9="53.55358"></scales>
<clustering>
<clus scale="   53.554">  1  9  2 -1</clus>
<clus scale="   79.477">  5  6 -1 -1</clus>
<clus scale="   89.281">  2  5  1 -1</clus>
<clus scale="   90.420">  7  8 -1 -1</clus>
<clus scale="   53.554">  1  5  2 -1</clus>
</clustering>
</event>
<event>
 9    2  0.1665830E-004  0.1174401E+03  0.7546771E-02  0.1253167E+00
          4   -1    0    0  502    0 -0.00000000000E+00  0.00000000000E+00  0.11986535131E+03  0.11986535131E+03  0.00000000000E+00 0. -1.
         21   -1    0    0  501  502  0.00000000000E+00 -0.00000000000E+00 -0.24487183154E+03  0.24487183154E+03  0.00000000000E+00 0. -1.
         23    2    1    2    0    0  0.81264460555E+02 -0.52815991445E+02 -0.29928809860E+02  0.13941216734E+03  0.95637739635E+02 0.  0.
         24    2    1    2    0    0 -0.98988594222E+01  0.26056792434E+02 -0.11873685872E+03  0.14551987187E+03  0.79376618975E+02 0.  0.
        -11    1    4    4    0    0 -0.28611843841E+02 -0.37383599483E+01 -0.10302024074E+03  0.10698496598E+03  0.00000000000E+00 0.  1.
         12    1    4    4    0    0  0.18712984418E+02  0.29795152382E+02 -0.15716617983E+02  0.38534905892E+02  0.00000000000E+00 0. -1.
        -13    1    3    3    0    0  0.41172162251E+02  0.37011572876E+01  0.27302001449E+02  0.49540335010E+02  0.00000000000E+00 0.  1.
         13    1    3    3    0    0  0.40092298304E+02 -0.56517148732E+02 -0.57230811310E+02  0.89871832335E+02  0.00000000000E+00 0. -1.
          3    1    1    2  501    0 -0.71365601133E+02  0.26759199011E+02  0.23659188362E+02  0.79805143635E+02  0.00000000000E+00 0. -1.
<scales pt_clust_5="13000.00000" pt_clust_6="13000.00000" pt_clust_7="13000.00000" pt_clust_8="13000.00000" pt_clust_9="76.21751"></scales>
<clustering>
<clus scale="   76.218">  2  9  1 -1</clus>
<clus scale="   79.377">  5  6 -1 -1</clus>
<clus scale="   95.638">  7  8 -1 -1</clus>
<clus scale="  104.624">  2  5  1 -1</clus>
<clus scale="   76.218">  2  5  1 -1</clus>
</clustering>
</event>
<event>
 9    2  0.1871799E-004  0.1157704E+03  0.7546771E-02  0.1254191E+00
          2   -1    0    0  502    0 -0.00000000000E+00  0.00000000000E+00  0.31863027553E+03  0.31863027553E+03  0.00000000000E+00 0. -1.
         21   -1    0    0  501  502  0.00000000000E+00 -0.00000000000E+00 -0.31893962662E+03  0.31893962662E+03  0.00000000000E+00 0.  1.
         24    2    1    2    0    0 -0.65777313485E+02  0.31860668293E+02  0.28519486355E+03  0.30503628598E+03  0.79807696479E+02 0.  0.
         23    2    1    2    0    0  0.28897350109E+02 -0.47426436855E+02 -0.11311509679E+03  0.15555781893E+03  0.91207928133E+02 0.  0.
        -13    1    3    3    0    0 -0.20431935551E+02 -0.10118659275E+01  0.75609623434E+01  0.21809539531E+02  0.00000000000E+00 0.  1.
         14    1    3    3    0    0 -0.45345377934E+02  0.32872534220E+02  0.27763390121E+03  0.28322674645E+03  0.00000000000E+00 0. -1.
        -11    1    4    4    0    0  0.55648506079E+02 -0.11572485692E+02 -0.86505377566E+02  0.10350777266E+03  0.00000000000E+00 0.  1.
         11    1    4    4    0    0 -0.26751155970E+02 -0.35853951164E+02 -0.26609719222E+02  0.52050046271E+02  0.00000000000E+00 0. -1.
          1    1    1    2  501    0  0.36879963376E+02  0.15565768562E+02 -0.17238911786E+03  0.17697579723E+03  0.00000000000E+00 0. -1.
<scales pt_clust_5="13000.00000" pt_clust_6="13000.00000" pt_clust_7="13000.00000" pt_clust_8="13000.00000" pt_clust_9="40.03030"></scales>
<clustering>
<clus scale="   40.030">  2  9  1 -1</clus>
<clus scale="   79.808">  5  6 -1 -1</clus>
<clus scale="   91.208">  7  8 -1 -1</clus>
<clus scale="  107.019">  1  5  2 -1</clus>
<clus scale="   40.030">  2  5  1 -1</clus>
</clustering>
</event>
<event>
 9    2  0.1665830E-004  0.9335234E+02  0.7546771E-02  0.1301041E+00
         -1   -1    0    0    0  501 -0.00000000000E+00  0.00000000000E+00  0.21295850123E+03  0.21295850123E+03  0.00000000000E+00 0.  1.
         21   -1    0    0  501  502  0.00000000000E+00 -0.00000000000E+00 -0.69502399101E+02  0.69502399101E+02  0.00000000000E+00 0.  1.
         23    2    1    2    0    0  0.15155968399E+02 -0.33033504612E+01  0.11540898891E+03  0.14732265986E+03  0.90244755437E+02 0.  0.
         24    2    1    2    0    0 -0.36260557099E+02  0.73597167424E+01  0.52564903114E+02  0.10253486960E+03  0.79883271166E+02 0.  0.
        -11    1    4    4    0    0 -0.32303039232E+02  0.40032557990E+02  0.17235411970E+02  0.54250819981E+02  0.00000000000E+00 0.  1.
         12    1    4    4    0    0 -0.39575178674E+01 -0.32672841247E+02  0.35329491143E+02  0.48284049616E+02  0.00000000000E+00 0. -1.
        -11    1    3    3    0    0  0.38945172312E+02  0.15610038737E+02  0.18672581807E+02  0.45924558431E+02  0.00000000000E+00 0. -1.
         11    1    3    3    0    0 -0.23789203913E+02 -0.18913389198E+02  0.96736407101E+02  0.10139810142E+03  0.00000000000E+00 0.  1.
         -2    1    1    2    0  502  0.21104588700E+02 -0.40563662812E+01 -0.24517789891E+02  0.32603370880E+02  0.00000000000E+00 0.  1.
<scales pt_clust_5="13000.00000" pt_clust_6="13000.00000" pt_clust_7="13000.00000" pt_clust_8="13000.00000" pt_clust_9="21.49088"></scales>
<clustering>
<clus scale="   21.491">  2  9  1 -1</clus>
<clus scale="   79.883">  5  6 -1 -1</clus>
<clus scale="   83.378">  2  5  1 -1</clus>
<clus scale="   90.245">  7  8 -1 -1</clus>
<clus scale="   21.491">  2  5  1 -1</clus>
</clustering>
</event>
<event>
 9    2  0.1665830E-004  0.2752554E+03  0.7546771E-02  0.1098798E+00
         -1   -1    0    0    0  501 -0.00000000000E+00  0.00000000000E+00  0.72717460148E+02  0.72717460148E+02  0.00000000000E+00 0.  1.
         21   -1    0    0  501  502  0.00000000000E+00 -0.00000000000E+00 -0.11822094689E+04  0.11822094689E+04  0.00000000000E+00 0.  1.
         24    2    1    2    0    0 -0.22426609933E+03 -0.14549716664E+03 -0.46256189357E+03  0.54018290894E+03  0.79808275985E+02 0.  0.
         23    2    1    2    0    0  0.22589410966E+03  0.11053918151E+03 -0.59212997813E+03  0.64972274541E+03  0.90965243236E+02 0.  0.
        -13    1    3    3    0    0 -0.19860918546E+03 -0.12065305709E+03 -0.33496201298E+03  0.40767918621E+03  0.00000000000E+00 0.  1.
         14    1    3    3    0    0 -0.25656913874E+02 -0.24844109552E+02 -0.12759988059E+03  0.13250372272E+03  0.00000000000E+00 0. -1.
        -13    1    4    4    0    0  0.17112651912E+03  0.12338305956E+03 -0.47779409867E+03  0.52229767917E+03  0.00000000000E+00 0.  1.
         13    1    4    4    0    0  0.54767590540E+02 -0.12843878053E+02 -0.11433587945E+03  0.12742506624E+03  0.00000000000E+00 0. -1.
         -2    1    1    2    0  502 -0.16280103265E+01  0.34957985128E+02 -0.54800137037E+02  0.65021274681E+02  0.00000000000E+00 0.  1.
<scales pt_clust_5="13000.00000" pt_clust_6="13000.00000" pt_clust_7="13000.00000" pt_clust_8="13000.00000" pt_clust_9="34.99589"></scales>
<clustering>
<clus scale="   34.996">  2  9  1 -1</clus>
<clus scale="   79.808">  5  6 -1 -1</clus>
<clus scale="   90.965">  7  8 -1 -1</clus>
<clus scale="  271.772">  1  5  2 -1</clus>
<clus scale="   34.996">  2  5  1 -1</clus>
</clustering>
</event>
<event>
 9    2  0.1665830E-004  0.2358328E+03  0.7546771E-02  0.1123961E+00
          2   -1    0    0  502    0 -0.00000000000E+00  0.00000000000E+00  0.54112371092E+03  0.54112371092E+03  0.00000000000E+00 0. -1.
         21   -1    0    0  501  502  0.00000000000E+00 -0.00000000000E+00 -0.13551164006E+03  0.13551164006E+03  0.00000000000E+00 0.  1.
         24    2    1    2    0    0 -0.12714706541E+03  0.17832575477E+03  0.23337419651E+03  0.32858032409E+03  0.74398002165E+02 0.  0.
         23    2    1    2    0    0  0.17002089633E+03 -0.13315943146E+03  0.15789349504E+03  0.28414944531E+03  0.95770622417E+02 0.  0.
        -11    1    3    3    0    0 -0.81404609104E+02  0.10443460218E+03  0.18963716144E+03  0.23129104936E+03  0.00000000000E+00 0.  1.
         12    1    3    3    0    0 -0.45742456309E+02  0.73891152594E+02  0.43737035063E+02  0.97289274727E+02  0.00000000000E+00 0. -1.
        -13    1    4    4    0    0  0.98559486378E+02 -0.43395892235E+02  0.28875835631E+02  0.11149434829E+03  0.00000000000E+00 0. -1.
         13    1    4    4    0    0  0.71461409952E+02 -0.89763539224E+02  0.12901765941E+03  0.17265509701E+03  0.00000000000E+00 0.  1.
          1    1    1    2  501    0 -0.42873830917E+02 -0.45166323316E+02  0.14344379320E+02  0.63905581583E+02  0.00000000000E+00 0. -1.
<scales pt_clust_5="13000.00000" pt_clust_6="13000.00000" pt_clust_7="13000.00000" pt_clust_8="13000.00000" pt_clust_9="62.27489"></scales>
<clustering>
<clus scale="   62.275">  2  9  1 -1</clus>
<clus scale="   74.398">  5  6 -1 -1</clus>
<clus scale="   95.771">  7  8 -1 -1</clus>
<clus scale="  227.992">  1  5  2 -1</clus>
<clus scale="   62.275">  2  5  1 -1</clus>
</clustering>
</event>
<event>
 9    2  0.1665830E-004  0.1192314E+03  0.7546771E-02  0.1248967E+00
         21   -1    0    0  501  502  0.00000000000E+00  0.00000000000E+00  0.74745469890E+02  0.74745469890E+02  0.00000000000E+00 0. -1.
         -1   -1    0    0    0  501 -0.00000000000E+00 -0.00000000000E+00 -0.33698626142E+03  0.33698626142E+03  0.00000000000E+00 0.  1.
         23    2    1    2    0    0 -0.38965403498E+02 -0.56808944625E+02 -0.19537247897E+03  0.22761689876E+03  0.94305292549E+02 0.  0.
         24    2    1    2    0    0  0.74781288807E+02  0.42630158765E+02 -0.81024293434E+02  0.14307573651E+03  0.80598750975E+02 0.  0.
        -11    1    4    4    0    0  0.73680140371E+02  0.72504040190E+01 -0.78011957090E+02  0.10755090373E+03  0.00000000000E+00 0.  1.
         12    1    4    4    0    0  0.11011484354E+01  0.35379754746E+02 -0.30123363434E+01  0.35524832780E+02  0.00000000000E+00 0. -1.
        -13    1    3    3    0    0  0.22345051426E+02 -0.21183058267E+02 -0.12100711733E+03  0.12486290773E+03  0.00000000000E+00 0.  1.
         13    1    3    3    0    0 -0.61310454924E+02 -0.35625886358E+02 -0.74365361640E+02  0.10275399103E+03  0.00000000000E+00 0. -1.
         -2    1    1    2    0  502 -0.35815885309E+02  0.14178785859E+02  0.14155980880E+02  0.41039096037E+02  0.00000000000E+00 0.  1.
<scales pt_clust_5="13000.00000" pt_clust_6="13000.00000" pt_clust_7="13000.00000" pt_clust_8="13000.00000" pt_clust_9="38.52033"></scales>
<clustering>
<clus scale="   38.520">  1  9  2 -1</clus>
<clus scale="   80.599">  5  6 -1 -1</clus>
<clus scale="   94.305">  7  8 -1 -1</clus>
<clus scale="  108.714">  1  5  2 -1</clus>
<clus scale="   38.520">  1  5  2 -1</clus>
</clustering>
</event>
<event>
 9    2  0.1665830E-004  0.1083159E+03  0.7546771E-02  0.1278340E+00
         21   -1    0    0  501  502  0.00000000000E+00  0.00000000000E+00  0.16347266848E+03  0.16347266848E+03  0.00000000000E+00 0.  1.
          4   -1    0    0  502    0 -0.00000000000E+00 -0.00000000000E+00 -0.16807519184E+03  0.16807519184E+03  0.00000000000E+00 0. -1.
         24    2    1    2    0    0 -0.92634440378E+00 -0.79450019501E+01 -0.10274907175E+03  0.13072066806E+03  0.80414800531E+02 0.  0.
         23    2    1    2    0    0  0.38243212046E+01  0.59811478878E+02  0.63542343648E+02  0.13840940084E+03  0.10736616957E+03 0.  0.
        -13    1    3    3    0    0 -0.15161051561E+02  0.14127944602E+02  0.37245649784E+01  0.21055371936E+02  0.00000000000E+00 0.  1.
         14    1    3    3    0    0  0.14234707157E+02 -0.22072946552E+02 -0.10647363673E+03  0.10966529613E+03  0.00000000000E+00 0. -1.
        -13    1    4    4    0    0  0.40596009037E+02 -0.11955556479E+02  0.22293099971E+02  0.47832557811E+02  0.00000000000E+00 0. -1.
         13    1    4    4    0    0 -0.36771687832E+02  0.71767035357E+02  0.41249243677E+02  0.90576843034E+02  0.00000000000E+00 0.  1.
          3    1    1    2  501    0 -0.28979768008E+01 -0.51866476928E+02  0.34604204735E+02  0.62417791405E+02  0.00000000000E+00 0. -1.
<scales pt_clust_5="13000.00000" pt_clust_6="13000.00000" pt_clust_7="13000.00000" pt_clust_8="13000.00000" pt_clust_9="51.94737"></scales>
<clustering>
<clus scale="   51.947">  1  9  2 -1</clus>
<clus scale="   80.415">  5  6 -1 -1</clus>
<clus scale="   81.678">  2  5  1 -1</clus>
<clus scale="  107.366">  7  8 -1 -1</clus>
<clus scale="   51.947">  1  5  2 -1</clus>
</clustering>
</event>
<event>
 9    2  0.1665830E-004  0.2503760E+03  0.7546771E-02  0.1121474E+00
         -1   -1    0    0    0  501 -0.00000000000E+00  0.00000000000E+00  0.99040284915E+03  0.99040284915E+03  0.00000000000E+00 0.  1.
         21   -1    0    0  501  502  0.00000000000E+00 -0.00000000000E+00 -0.13333994977E+03  0.13333994977E+03  0.00000000000E+00 0.  1.
         24    2    1    2    0    0 -0.25291292253E+02  0.17271967550E+03  0.16226132397E+03  0.25963773382E+03  0.10301106639E+03 0.  0.
         23    2    1    2    0    0  0.23707882706E+03 -0.25683585072E+02  0.35906211915E+03  0.44079128754E+03  0.92224383854E+02 0.  0.
        -11    1    3    3    0    0 -0.28508228698E+02  0.15279154636E+03  0.17631412303E+03  0.23504179569E+03  0.00000000000E+00 0.  1.
         12    1    3    3    0    0  0.32169364452E+01  0.19928129136E+02 -0.14052799059E+02  0.24595938127E+02  0.00000000000E+00 0. -1.
        -11    1    4    4    0    0  0.24211653434E+02  0.59416041733E+01  0.10459738306E+03  0.10752729591E+03  0.00000000000E+00 0. -1.
         11    1    4    4    0    0  0.21286717363E+03 -0.31625189246E+02  0.25446473608E+03  0.33326399162E+03  0.00000000000E+00 0.  1.
         -2    1    1    2    0  502 -0.21178753481E+03 -0.14703609042E+03  0.33573945626E+03  0.42331377757E+03  0.00000000000E+00 0.  1.
<scales pt_clust_5="13000.00000" pt_clust_6="13000.00000" pt_clust_7="13000.00000" pt_clust_8="13000.00000" pt_clust_9="232.77212"></scales>
<clustering>
<clus scale="   92.224">  7  8 -1 -1</clus>
<clus scale="  103.011">  5  6 -1 -1</clus>
<clus scale="  202.690">  1  5  2 -1</clus>
<clus scale="  232.772">  2  9  1 -1</clus>
<clus scale="  232.772">  2  5  1 -1</clus>
</clustering>
</event>
<event>
 9    2  0.1665830E-004  0.1151099E+03  0.7546771E-02  0.1255189E+00
         21   -1    0    0  501  502  0.00000000000E+00  0.00000000000E+00  0.29105248170E+03  0.29105248170E+03  0.00000000000E+00 0. -1.
         -3   -1    0    0    0  501 -0.00000000000E+00 -0.00000000000E+00 -0.12077935650E+03  0.12077935650E+03  0.00000000000E+00 0.  1.
         23    2    1    2    0    0  0.59373315176E+02  0.26686635934E+02 -0.60845280247E+02  0.12791041493E+03  0.91769052662E+02 0.  0.
         24    2    1    2    0    0 -0.78665534407E+02 -0.39875232491E+02  0.11697342781E+03  0.16740874275E+03  0.81022243020E+02 0.  0.
        -13    1    4    4    0    0 -0.51663086302E+02 -0.43908544782E+02  0.12206946961E+03  0.13963520402E+03  0.00000000000E+00 0.  1.
         14    1    4    4    0    0 -0.27002448105E+02  0.40333122911E+01 -0.50960417907E+01  0.27773538731E+02  0.00000000000E+00 0. -1.
        -11    1    3    3    0    0 -0.97233180135E+01 -0.24090016729E+02 -0.20768795342E+02  0.33259805760E+02  0.00000000000E+00 0.  1.
         11    1    3    3    0    0  0.69096633189E+02  0.50776652663E+02 -0.40076484906E+02  0.94650609169E+02  0.00000000000E+00 0. -1.
         -4    1    1    2    0  502  0.19292219232E+02  0.13188596557E+02  0.11414497763E+03  0.11651268052E+03  0.00000000000E+00 0.  1.
<scales pt_clust_5="13000.00000" pt_clust_6="13000.00000" pt_clust_7="13000.00000" pt_clust_8="13000.00000" pt_clust_9="23.36940"></scales>
<clustering>
<clus scale="   23.369">  1  9  2 -1</clus>
<clus scale="   81.022">  5  6 -1 -1</clus>
<clus scale="   91.769">  7  8 -1 -1</clus>
<clus scale="  106.740">  1  5  2 -1</clus>
<clus scale="   23.369">  1  5  2 -1</clus>
</clustering>
</event>
<event>
 9    2  0.1665830E-004  0.1248060E+03  0.7546771E-02  0.1238306E+00
          2   -1    0    0  502    0 -0.00000000000E+00  0.00000000000E+00  0.43144466849E+03  0.43144466849E+03  0.00000000000E+00 0. -1.
         21   -1    0    0  501  502  0.00000000000E+00 -0.00000000000E+00 -0.57390066698E+02  0.57390066698E+02  0.00000000000E+00 0.  1.
         23    2    1    2    0    0 -0.44317669260E+02 -0.65956674904E+02  0.19000607828E+03  0.22489411913E+03  0.90336682806E+02 0.  0.
         24    2    1    2    0    0  0.88246439059E+02  0.47119146374E+02  0.17233174066E+03  0.21472809430E+03  0.80014234262E+02 0.  0.
        -13    1    4    4    0    0  0.14468600985E+02  0.22304866719E+02  0.11505486689E+03  0.11808670496E+03  0.00000000000E+00 0.  1.
         14    1    4    4    0    0  0.73777838074E+02  0.24814279655E+02  0.57276873768E+02  0.96641389344E+02  0.00000000000E+00 0. -1.
        -13    1    3    3    0    0 -0.58421077027E+02 -0.22415941191E+02  0.15537105933E+03  0.16749824697E+03  0.00000000000E+00 0. -1.
         13    1    3    3    0    0  0.14103407767E+02 -0.43540733714E+02  0.34635018956E+02  0.57395872160E+02  0.00000000000E+00 0.  1.
          1    1    1    2  501    0 -0.43928769799E+02  0.18837528530E+02  0.11716782852E+02  0.49212521756E+02  0.00000000000E+00 0. -1.
<scales pt_clust_5="13000.00000" pt_clust_6="13000.00000" pt_clust_7="13000.00000" pt_clust_8="13000.00000" pt_clust_9="47.79738"></scales>
<clustering>
<clus scale="   47.797">  2  9  1 -1</clus>
<clus scale="   80.014">  5  6 -1 -1</clus>
<clus scale="   90.337">  7  8 -1 -1</clus>
<clus scale="  117.550">  2  5  1 -1</clus>
<clus scale="   47.797">  2  5  1 -1</clus>
</clustering>
</event>
<event>
 9    2  0.1665830E-004  0.1186512E+03  0.7546771E-02  0.1246572E+00
          2   -1    0    0  502    0 -0.00000000000E+00  0.00000000000E+00  0.11690778566E+04  0.11690778566E+04  0.00000000000E+00 0. -1.
         21   -1    0    0  501  502  0.00000000000E+00 -0.00000000000E+00 -0.11640730918E+03  0.11640730918E+03  0.00000000000E+00 0.  1.
         24    2    1    2    0    0 -0.31342265172E+02 -0.78710031730E+02  0.10151030952E+04  0.10224151104E+04  0.87867841097E+02 0.  0.
         23    2    1    2    0    0  0.23060402723E+01  0.33861133272E+02  0.12617168413E+03  0.15960394517E+03  0.91663685667E+02 0.  0.
        -13    1    3    3    0    0  0.10359655111E+01 -0.77116580896E+02  0.46454793274E+03  0.47090638357E+03  0.00000000000E+00 0.  1.
         14    1    3    3    0    0 -0.32378230683E+02 -0.15934508341E+01  0.55055516241E+03  0.55150872683E+03  0.00000000000E+00 0. -1.
        -11    1    4    4    0    0  0.55456766399E+00 -0.25586679615E+02  0.71858391404E+01  0.26582362633E+02  0.00000000000E+00 0.  1.
         11    1    4    4    0    0  0.17514726084E+01  0.59447812886E+02  0.11898584499E+03  0.13302158254E+03  0.00000000000E+00 0. -1.
          1    1    1    2  501    0  0.29036224900E+02  0.44848898459E+02 -0.88604231890E+02  0.10346611019E+03  0.00000000000E+00 0. -1.
<scales pt_clust_5="13000.00000" pt_clust_6="13000.00000" pt_clust_7="13000.00000" pt_clust_8="13000.00000" pt_clust_9="53.42776"></scales>
<clustering>
<clus scale="   53.428">  2  9  1 -1</clus>
<clus scale="   87.868">  5  6 -1 -1</clus>
<clus scale="   91.664">  7  8 -1 -1</clus>
<clus scale="  115.744">  1  5  2 -1</clus>
<clus scale="   53.428">  2  5  1 -1</clus>
</clustering>
</event>
<event>
 9    2  0.1665830E-004  0.1136248E+03  0.7546771E-02  0.1254092E+00
         21   -1    0    0  501  502  0.00000000000E+00  0.00000000000E+00  0.14700955767E+03  0.14700955767E+03  0.00000000000E+00 0. -1.
          2   -1    0    0  502    0 -0.00000000000E+00 -0.00000000000E+00 -0.25491623550E+03  0.25491623550E+03  0.00000000000E+00 0. -1.
         24    2    1    2    0    0  0.75983265104E+02 -0.15856663436E+02 -0.19414119553E+03  0.22794643434E+03  0.90795830149E+02 0.  0.
         23    2    1    2    0    0 -0.19111758118E+02  0.17205549875E+02  0.56754740784E+02  0.10990717260E+03  0.90538366135E+02 0.  0.
        -11    1    3    3    0    0  0.33076883770E+02  0.17471167401E+02 -0.14249471174E+02  0.40029606031E+02  0.00000000000E+00 0.  1.
         12    1    3    3    0    0  0.42906381334E+02 -0.33327830836E+02 -0.17989172436E+03  0.18791682831E+03  0.00000000000E+00 0. -1.
        -11    1    4    4    0    0 -0.48400131341E+02 -0.13541662614E+02  0.21293312475E+02  0.54583463580E+02  0.00000000000E+00 0.  1.
         11    1    4    4    0    0  0.29288373224E+02  0.30747212488E+02  0.35461428309E+02  0.55323709019E+02  0.00000000000E+00 0. -1.
          1    1    1    2  501    0 -0.56871506986E+02 -0.13488864390E+01  0.29479776918E+02  0.64072186233E+02  0.00000000000E+00 0. -1.
<scales pt_clust_5="13000.00000" pt_clust_6="13000.00000" pt_clust_7="13000.00000" pt_clust_8="13000.00000" pt_clust_9="56.88750"></scales>
<clustering>
<clus scale="   56.888">  1  9  2 -1</clus>
<clus scale="   90.538">  7  8 -1 -1</clus>
<clus scale="   90.796">  5  6 -1 -1</clus>
<clus scale="  113.419">  1  7  2 -1</clus>
<clus scale="   56.888">  1  5  2 -1</clus>
</clustering>
</event>
<event>
 9    2  0.1665830E-004  0.1807537E+03  0.7546771E-02  0.1192872E+00
          2   -1    0    0  502    0 -0.00000000000E+00  0.00000000000E+00  0.75698839336E+03  0.75698839336E+03  0.00000000000E+00 0. -1.
         21   -1    0    0  501  502  0.00000000000E+00 -0.00000000000E+00 -0.12563881417E+03  0.12563881417E+03  0.00000000000E+00 0. -1.
         23    2    1    2    0    0  0.80198150544E+01 -0.33276665269E+02 -0.15229031243E+02  0.10234629873E+03  0.95242782326E+02 0.  0.
         24    2    1    2    0    0  0.15958819688E+03  0.13635936914E+02  0.94516267280E+02  0.20300191680E+03  0.81376422187E+02 0.  0.
        -13    1    4    4    0    0  0.50976185414E+02  0.42733082271E+02  0.43854832015E+02  0.79673923531E+02  0.00000000000E+00 0.  1.
         14    1    4    4    0    0  0.10861201146E+03 -0.29097145357E+02  0.50661435265E+02  0.12332799327E+03  0.00000000000E+00 0. -1.
        -13    1    3    3    0    0  0.24159095802E+02  0.40452682654E+01  0.31822937258E+02  0.40158752982E+02  0.00000000000E+00 0.  1.
         13    1    3    3    0    0 -0.16139280747E+02 -0.37321933535E+02 -0.47051968501E+02  0.62187545744E+02  0.00000000000E+00 0. -1.
          1    1    1    2  501    0 -0.16760801193E+03  0.19640728355E+02  0.55206234315E+03  0.57727899200E+03  0.00000000000E+00 0. -1.
<scales pt_clust_5="13000.00000" pt_clust_6="13000.00000" pt_clust_7="13000.00000" pt_clust_8="13000.00000" pt_clust_9="161.39952"></scales>
<clustering>
<clus scale="   81.376">  5  6 -1 -1</clus>
<clus scale="   95.243">  7  8 -1 -1</clus>
<clus scale="  101.207">  1  7  2 -1</clus>
<clus scale="  161.400">  2  9  1 -1</clus>
<clus scale="  161.400">  2  5  1 -1</clus>
</clustering>
</event>
<event>
 9    2  0.1665830E-004  0.1029263E+03  0.7546771E-02  0.1283832E+00
         -3   -1    0    0    0  501 -0.00000000000E+00  0.00000000000E+00  0.22674028979E+02  0.22674028979E+02  0.00000000000E+00 0.  1.
         21   -1    0    0  501  502  0.00000000000E+00 -0.00000000000E+00 -0.87361617388E+03  0.87361617388E+03  0.00000000000E+00 0. -1.
         23    2    1    2    0    0 -0.47271622717E+02 -0.23495875520E+02 -0.13149915037E+03  0.16837450152E+03  0.90946598249E+02 0.  0.
         24    2    1    2    0    0  0.18162297709E+02  0.32632996794E+02 -0.53156207644E+03  0.53757369554E+03  0.70939801896E+02 0.  0.
        -11    1    4    4    0    0  0.24938857853E+02 -0.90811884244E+01 -0.85760745416E+02  0.89773715911E+02  0.00000000000E+00 0.  1.
         12    1    4    4    0    0 -0.67765601433E+01  0.41714185218E+02 -0.44580133102E+03  0.44779997963E+03  0.00000000000E+00 0. -1.
        -13    1    3    3    0    0 -0.22984412518E+02 -0.40072597355E+02 -0.15532082316E+02  0.48737478994E+02  0.00000000000E+00 0.  1.
         13    1    3    3    0    0 -0.24287210199E+02  0.16576721835E+02 -0.11596706805E+03  0.11963702252E+03  0.00000000000E+00 0. -1.
         -4    1    1    2    0  502  0.29109325007E+02 -0.91371212731E+01 -0.18788091810E+03  0.19034200580E+03  0.00000000000E+00 0.  1.
<scales pt_clust_5="13000.00000" pt_clust_6="13000.00000" pt_clust_7="13000.00000" pt_clust_8="13000.00000" pt_clust_9="30.50967"></scales>
<clustering>
<clus scale="   30.510">  2  9  1 -1</clus>
<clus scale="   70.940">  5  6 -1 -1</clus>
<clus scale="   85.761">  2  5  1 -1</clus>
<clus scale="   90.947">  7  8 -1 -1</clus>
<clus scale="   30.510">  2  5  1 -1</clus>
</clustering>
</event>
<event>
 9    2  0.1665830E-004  0.1112567E+03  0.7546771E-02  0.1262761E+00
          2   -1    0    0  502    0 -0.00000000000E+00  0.00000000000E+00  0.51662195586E+02  0.51662195586E+02  0.00000000000E+00 0. -1.
         21   -1    0    0  501  502  0.00000000000E+00 -0.00000000000E+00 -0.37944867563E+03  0.37944867563E+03  0.00000000000E+00 0.  1.
         23    2    1    2    0    0 -0.13444522200E+02  0.35143551125E+02 -0.11286543933E+03  0.15033138003E+03  0.91897182025E+02 0.  0.
         24    2    1    2    0    0  0.47583909671E+02 -0.80504340784E+02 -0.13547961536E+03  0.18313708709E+03  0.80245181440E+02 0.  0.
        -13    1    4    4    0    0  0.17645371047E+02 -0.83273394774E+02 -0.12513167410E+03  0.15133986011E+03  0.00000000000E+00 0.  1.
         14    1    4    4    0    0  0.29938538624E+02  0.27690539898E+01 -0.10347941262E+02  0.31797226975E+02  0.00000000000E+00 0. -1.
        -11    1    3    3    0    0  0.25323575934E+02 -0.13528513454E+02 -0.10565026656E+02  0.30592874376E+02  0.00000000000E+00 0. -1.
         11    1    3    3    0    0 -0.38768098134E+02  0.48672064578E+02 -0.10230041268E+03  0.11973850566E+03  0.00000000000E+00 0.  1.
          1    1    1    2  501    0 -0.34139387471E+02  0.45360789659E+02 -0.79441425346E+02  0.97642404090E+02  0.00000000000E+00 0. -1.
<scales pt_clust_5="13000.00000" pt_clust_6="13000.00000" pt_clust_7="13000.00000" pt_clust_8="13000.00000" pt_clust_9="56.77234"></scales>
<clustering>
<clus scale="   56.772">  2  9  1 -1</clus>
<clus scale="   80.245">  5  6 -1 -1</clus>
<clus scale="   91.897">  7  8 -1 -1</clus>
<clus scale="  101.844">  2  5  1 -1</clus>
<clus scale="   56.772">  2  5  1 -1</clus>
</clustering>
</event>
<event>
 9    2  0.1665830E-004  0.1129889E+03  0.7546771E-02  0.1257556E+00
         -1   -1    0    0    0  501 -0.00000000000E+00  0.00000000000E+00  0.89364123466E+03  0.89364123466E+03  0.00000000000E+00 0.  1.
         21   -1    0    0  501  502  0.00000000000E+00 -0.00000000000E+00 -0.17346111895E+02  0.17346111895E+02  0.00000000000E+00 0.  1.
         23    2    1    2    0    0  0.72616641618E+02 -0.22115436443E+02  0.55654069990E+03  0.56889476419E+03  0.90229889181E+02 0.  0.
         24    2    1    2    0    0 -0.52767273095E+02  0.17413074456E+02  0.24871272488E+03  0.26818025260E+03  0.83516633658E+02 0.  0.
        -11    1    4    4    0    0 -0.38597487187E+02  0.50144587193E+02  0.13691475487E+03  0.15083068568E+03  0.00000000000E+00 0.  1.
         12    1    4    4    0    0 -0.14169785908E+02 -0.32731512736E+02  0.11179797001E+03  0.11734956692E+03  0.00000000000E+00 0. -1.
        -11    1    3    3    0    0  0.35411467318E+02  0.34478540308E+02  0.26724089172E+03  0.27177276531E+03  0.00000000000E+00 0. -1.
         11    1    3    3    0    0  0.37205174301E+02 -0.56593976751E+02  0.28929980819E+03  0.29712199888E+03  0.00000000000E+00 0.  1.
         -2    1    1    2    0  502 -0.19849368524E+02  0.47023619868E+01  0.71041697986E+02  0.73912329768E+02  0.00000000000E+00 0.  1.
<scales pt_clust_5="13000.00000" pt_clust_6="13000.00000" pt_clust_7="13000.00000" pt_clust_8="13000.00000" pt_clust_9="20.39877"></scales>
<clustering>
<clus scale="   20.399">  2  9  1 -1</clus>
<clus scale="   83.517">  5  6 -1 -1</clus>
<clus scale="   90.230">  7  8 -1 -1</clus>
<clus scale="  107.704">  2  5  1 -1</clus>
<clus scale="   20.399">  2  5  1 -1</clus>
</clustering>
</event>
<event>
 9    2  0.1665830E-004  0.1213493E+03  0.7546771E-02  0.1243907E+00
          2   -1    0    0  502    0 -0.00000000000E+00  0.00000000000E+00  0.44409212523E+03  0.44409212523E+03  0.00000000000E+00 0. -1.
         21   -1    0    0  501  502  0.00000000000E+00 -0.00000000000E+00 -0.71100979717E+02  0.71100979717E+02  0.00000000000E+00 0.  1.
         24    2    1    2    0    0  0.34666086197E+02  0.67700981546E+02  0.19633802590E+03  0.22552079315E+03  0.80782716571E+02 0.  0.
         23    2    1    2    0    0 -0.59562827050E+02 -0.64503256889E+02  0.21175985698E+03  0.24651496992E+03  0.90658661192E+02 0.  0.
        -13    1    3    3    0    0 -0.16760915639E+02  0.14080937020E+02  0.84291240417E+01  0.23457434056E+02  0.00000000000E+00 0.  1.
         14    1    3    3    0    0  0.51427001836E+02  0.53620044526E+02  0.18790890186E+03  0.20206335910E+03  0.00000000000E+00 0. -1.
        -13    1    4    4    0    0 -0.76743687147E+02 -0.22762373883E+02  0.11992447009E+03  0.14418598305E+03  0.00000000000E+00 0.  1.
         13    1    4    4    0    0  0.17180860097E+02 -0.41740883007E+02  0.91835386896E+02  0.10232898687E+03  0.00000000000E+00 0. -1.
          1    1    1    2  501    0  0.24896740853E+02 -0.31977246564E+01 -0.35106737374E+02  0.43157341868E+02  0.00000000000E+00 0. -1.
<scales pt_clust_5="13000.00000" pt_clust_6="13000.00000" pt_clust_7="13000.00000" pt_clust_8="13000.00000" pt_clust_9="25.10126"></scales>
<clustering>
<clus scale="   25.101">  2  9  1 -1</clus>
<clus scale="   80.783">  5  6 -1 -1</clus>
<clus scale="   90.659">  7  8 -1 -1</clus>
<clus scale="  114.160">  1  5  2 -1</clus>
<clus scale="   25.101">  2  5  1 -1</clus>
</clustering>
</event>
<event>
 9    2  0.1665830E-004  0.1391103E+03  0.7546771E-02  0.1228596E+00
          2   -1    0    0  502    0 -0.00000000000E+00  0.00000000000E+00  0.18430720891E+03  0.18430720891E+03  0.00000000000E+00 0. -1.
         21   -1    0    0  501  502  0.00000000000E+00 -0.00000000000E+00 -0.35773276909E+03  0.35773276909E+03  0.00000000000E+00 0.  1.
         24    2    1    2    0    0 -0.51181171554E+02 -0.33838476530E+02  0.11638195690E+03  0.15582499110E+03  0.83499180497E+02 0.  0.
         23    2    1    2    0    0 -0.70773759276E+02  0.15812559591E+02 -0.76026469336E+02  0.13943517571E+03  0.91668872262E+02 0.  0.
        -13    1    3    3    0    0 -0.46266541388E+02  0.17581292685E+02  0.40102474113E+02  0.63701672933E+02  0.00000000000E+00 0.  1.
         14    1    3    3    0    0 -0.49146301668E+01 -0.51419769215E+02  0.76279482785E+02  0.92123318165E+02  0.00000000000E+00 0. -1.
        -13    1    4    4    0    0  0.15004357875E+02  0.26486240436E+02 -0.19260839687E+02  0.36022654443E+02  0.00000000000E+00 0. -1.
         13    1    4    4    0    0 -0.85778117150E+02 -0.10673680845E+02 -0.56765629649E+02  0.10341252126E+03  0.00000000000E+00 0.  1.
          1    1    1    2  501    0  0.12195493083E+03  0.18025916939E+02 -0.21378104775E+03  0.24677981119E+03  0.00000000000E+00 0. -1.
<scales pt_clust_5="13000.00000" pt_clust_6="13000.00000" pt_clust_7="13000.00000" pt_clust_8="13000.00000" pt_clust_9="104.63501"></scales>
<clustering>
<clus scale="   83.499">  5  6 -1 -1</clus>
<clus scale="   91.669">  7  8 -1 -1</clus>
<clus scale="  103.618">  1  5  2 -1</clus>
<clus scale="  104.635">  2  9  1 -1</clus>
<clus scale="  104.635">  2  5  1 -1</clus>
</clustering>
</event>
<event>
 9    2  0.1665830E-004  0.1049496E+03  0.7546771E-02  0.1281504E+00
         21   -1    0    0  501  502  0.00000000000E+00  0.00000000000E+00  0.76566435350E+02  0.76566435350E+02  0.00000000000E+00 0.  1.
         -1   -1    0    0    0  501 -0.00000000000E+00 -0.00000000000E+00 -0.44081004824E+03  0.44081004824E+03  0.00000000000E+00 0.  1.
         23    2    1    2    0    0  0.36786691973E+02  0.78955632508E+01 -0.32281068404E+03  0.34047133388E+03  0.10148098759E+03 0.  0.
         24    2    1    2    0    0  0.77657088260E+00 -0.20125659004E+02 -0.84663236099E+02  0.11834378510E+03  0.80198146565E+02 0.  0.
        -13    1    4    4    0    0  0.27504441705E+02  0.16105279776E+02 -0.57551856490E+02  0.65788224901E+02  0.00000000000E+00 0.  1.
         14    1    4    4    0    0 -0.26727870823E+02 -0.36230938780E+02 -0.27111379609E+02  0.52555560199E+02  0.00000000000E+00 0. -1.
        -13    1    3    3    0    0 -0.35385119101E+02 -0.14242321808E+01 -0.11039377935E+03  0.11593498872E+03  0.00000000000E+00 0. -1.
         13    1    3    3    0    0  0.72171811074E+02  0.93197954315E+01 -0.21241690469E+03  0.22453634516E+03  0.00000000000E+00 0.  1.
         -2    1    1    2    0  502 -0.37563262856E+02  0.12230095753E+02  0.43230307253E+02  0.58561364599E+02  0.00000000000E+00 0.  1.
<scales pt_clust_5="13000.00000" pt_clust_6="13000.00000" pt_clust_7="13000.00000" pt_clust_8="13000.00000" pt_clust_9="39.50410"></scales>
<clustering>
<clus scale="   39.504">  1  9  2 -1</clus>
<clus scale="   80.198">  5  6 -1 -1</clus>
<clus scale="   84.545">  1  5  2 -1</clus>
<clus scale="  101.481">  7  8 -1 -1</clus>
<clus scale="   39.504">  1  5  2 -1</clus>
</clustering>
</event>
<event>
 9    2  0.1665830E-004  0.1051043E+03  0.7546771E-02  0.1275381E+00
         21   -1    0    0  501  502  0.00000000000E+00  0.00000000000E+00  0.44753519813E+02  0.44753519813E+02  0.00000000000E+00 0.  1.
          2   -1    0    0  502    0 -0.00000000000E+00 -0.00000000000E+00 -0.86163544626E+03  0.86163544626E+03  0.00000000000E+00 0. -1.
         24    2    1    2    0    0 -0.38569417859E+02 -0.34041735466E+02 -0.50465089352E+03  0.51342140178E+03  0.79262675512E+02 0.  0.
         23    2    1    2    0    0 -0.74169123465E+01  0.81882716318E+02 -0.69470016620E+02  0.14130029774E+03  0.91541799806E+02 0.  0.
        -11    1    3    3    0    0 -0.22836309758E+02  0.24320857071E+02 -0.15095142273E+03  0.15459409159E+03  0.00000000000E+00 0.  1.
         12    1    3    3    0    0 -0.15733108101E+02 -0.58362592537E+02 -0.35369947079E+03  0.35882731018E+03  0.00000000000E+00 0. -1.
        -11    1    4    4    0    0 -0.48081924146E+02  0.59256145227E+02 -0.47011397787E+02  0.89628308579E+02  0.00000000000E+00 0.  1.
         11    1    4    4    0    0  0.40665011799E+02  0.22626571091E+02 -0.22458618832E+02  0.51671989161E+02  0.00000000000E+00 0. -1.
          1    1    1    2  501    0  0.45986330206E+02 -0.47840980853E+02 -0.24276101631E+03  0.25166726655E+03  0.00000000000E+00 0. -1.
<scales pt_clust_5="13000.00000" pt_clust_6="13000.00000" pt_clust_7="13000.00000" pt_clust_8="13000.00000" pt_clust_9="66.35892"></scales>
<clustering>
<clus scale="   66.359">  1  9  2 -1</clus>
<clus scale="   79.263">  5  6 -1 -1</clus>
<clus scale="   91.542">  7  8 -1 -1</clus>
<clus scale="   94.602">  2  5  1 -1</clus>
<clus scale="   66.359">  1  5  2 -1</clus>
</clustering>
</event>
<event>
 9    2  0.1665830E-004  0.1217938E+03  0.7546771E-02  0.1243900E+00
         21   -1    0    0  501  502  0.00000000000E+00  0.00000000000E+00  0.32880232374E+02  0.32880232374E+02  0.00000000000E+00 0.  1.
          2   -1    0    0  502    0 -0.00000000000E+00 -0.00000000000E+00 -0.12823461865E+04  0.12823461865E+04  0.00000000000E+00 0. -1.
         24    2    1    2    0    0 -0.80873838436E+02  0.38866687036E+02 -0.10204700598E+04  0.10275650290E+04  0.80495644813E+02 0.  0.
         23    2    1    2    0    0  0.26174183505E+02 -0.39696945707E+02 -0.20073422013E+03  0.22608652639E+03  0.92520024326E+02 0.  0.
        -13    1    3    3    0    0 -0.35645694552E+02 -0.46392544974E+01 -0.12976052028E+03  0.13464743163E+03  0.00000000000E+00 0.  1.
         14    1    3    3    0    0 -0.45228143884E+02  0.43505941533E+02 -0.89070953953E+03  0.89291759740E+03  0.00000000000E+00 0. -1.
        -13    1    4    4    0    0  0.29464092780E+02  0.24938768885E+02 -0.62640966800E+02  0.73579655330E+02  0.00000000000E+00 0. -1.
         13    1    4    4    0    0 -0.32899092742E+01 -0.64635714592E+02 -0.13809325333E+03  0.15250687106E+03  0.00000000000E+00 0.  1.
          1    1    1    2  501    0  0.54699654930E+02  0.83025867116E+00 -0.28261674159E+02  0.61574863420E+02  0.00000000000E+00 0. -1.
<scales pt_clust_5="13000.00000" pt_clust_6="13000.00000" pt_clust_7="13000.00000" pt_clust_8="13000.00000" pt_clust_9="54.70596"></scales>
<clustering>
<clus scale="   54.706">  1  9  2 -1</clus>
<clus scale="   80.496">  5  6 -1 -1</clus>
<clus scale="   92.520">  7  8 -1 -1</clus>
<clus scale="  112.931">  2  5  1 -1</clus>
<clus scale="   54.706">  1  5  2 -1</clus>
</clustering>
</event>
<event>
 9    2  0.1665830E-004  0.9431385E+02  0.7546771E-02  0.1299546E+00
          2   -1    0    0  502    0 -0.00000000000E+00  0.00000000000E+00  0.13652429839E+04  0.13652429839E+04  0.00000000000E+00 0. -1.
         21   -1    0    0  501  502  0.00000000000E+00 -0.00000000000E+00 -0.14210466674E+02  0.14210466674E+02  0.00000000000E+00 0.  1.
         24    2    1    2    0    0 -0.13098644753E+02 -0.77409586230E+01  0.10764481735E+04  0.10796176485E+04  0.81253307245E+02 0.  0.
         23    2    1    2    0    0  0.34299147200E+02  0.39998610446E+01  0.22462168753E+03  0.24543245533E+03  0.92680943214E+02 0.  0.
        -11    1    3    3    0    0  0.37498442075E+01  0.19859710407E+02  0.75830590484E+02  0.78477690346E+02  0.00000000000E+00 0.  1.
         12    1    3    3    0    0 -0.16848488961E+02 -0.27600669030E+02  0.10006175830E+04  0.10011399582E+04  0.00000000000E+00 0. -1.
        -13    1    4    4    0    0  0.32176528513E+02  0.46363414089E+02  0.13221069541E+03  0.14375174132E+03  0.00000000000E+00 0.  1.
         13    1    4    4    0    0  0.21226186872E+01 -0.42363553045E+02  0.92410992121E+02  0.10168071401E+03  0.00000000000E+00 0. -1.
          1    1    1    2  501    0 -0.21200502447E+02  0.37410975785E+01  0.49962656246E+02  0.54403346719E+02  0.00000000000E+00 0. -1.
<scales pt_clust_5="13000.00000" pt_clust_6="13000.00000" pt_clust_7="13000.00000" pt_clust_8="13000.00000" pt_clust_9="21.52805"></scales>
<clustering>
<clus scale="   21.528">  2  9  1 -1</clus>
<clus scale="   81.253">  5  6 -1 -1</clus>
<clus scale="   83.111">  1  5  2 -1</clus>
<clus scale="   92.681">  7  8 -1 -1</clus>
<clus scale="   21.528">  2  5  1 -1</clus>
</clustering>
</event>
<event>
 9    2  0.1665830E-004  0.1829639E+03  0.7546771E-02  0.1166117E+00
         -1   -1    0    0    0  501 -0.00000000000E+00  0.00000000000E+00  0.12869240602E+03  0.12869240602E+03  0.00000000000E+00 0.  1.
         21   -1    0    0  501  502  0.00000000000E+00 -0.00000000000E+00 -0.85400314108E+03  0.85400314108E+03  0.00000000000E+00 0.  1.
         23    2    1    2    0    0 -0.10683322349E+03  0.11911790557E+03 -0.19475031707E+02  0.18514011721E+03  0.91077840742E+02 0.  0.
         24    2    1    2    0    0 -0.30783769476E+01 -0.19468264700E+03 -0.56737466689E+03  0.60530026436E+03  0.81015973444E+02 0.  0.
        -13    1    4    4    0    0 -0.22330198010E+02 -0.14718277322E+03 -0.49292695287E+03  0.51491590317E+03  0.00000000000E+00 0.  1.
         14    1    4    4    0    0  0.19251821062E+02 -0.47499873784E+02 -0.74447714024E+02  0.90384361187E+02  0.00000000000E+00 0. -1.
        -13    1    3    3    0    0 -0.20650734183E+02  0.88875770410E+02 -0.21661321831E+02  0.93779359412E+02  0.00000000000E+00 0. -1.
         13    1    3    3    0    0 -0.86182489303E+02  0.30242135157E+02  0.21862901235E+01  0.91360757801E+02  0.00000000000E+00 0.  1.
         -2    1    1    2    0  502  0.10991160043E+03  0.75564741434E+02 -0.13846103646E+03  0.19225516553E+03  0.00000000000E+00 0.  1.
<scales pt_clust_5="13000.00000" pt_clust_6="13000.00000" pt_clust_7="13000.00000" pt_clust_8="13000.00000" pt_clust_9="133.38144"></scales>
<clustering>
<clus scale="   81.016">  5  6 -1 -1</clus>
<clus scale="   91.078">  7  8 -1 -1</clus>
<clus scale="  133.381">  2  9  1 -1</clus>
<clus scale="  178.169">  2  5  1 -1</clus>
<clus scale="  133.381">  2  5  1 -1</clus>
</clustering>
</event>
<event>
 9    2  0.1665830E-004  0.1483663E+03  0.7546771E-02  0.1204817E+00
         21   -1    0    0  501  502  0.00000000000E+00  0.00000000000E+00  0.72137368765E+02  0.72137368765E+02  0.00000000000E+00 0. -1.
          2   -1    0    0  502    0 -0.00000000000E+00 -0.00000000000E+00 -0.10996613942E+04  0.10996613942E+04  0.00000000000E+00 0. -1.
         24    2    1    2    0    0 -0.96483136686E+02  0.57177501882E+02 -0.91767583325E+03  0.92809767369E+03  0.81597148158E+02 0.  0.
         23    2    1    2    0    0  0.12324623862E+03 -0.64316533143E+02 -0.12774906634E+03  0.21072123659E+03  0.93580787719E+02 0.  0.
        -11    1    3    3    0    0 -0.14096039512E+02  0.22950750555E+02 -0.59681477936E+02  0.65477584634E+02  0.00000000000E+00 0.  1.
         12    1    3    3    0    0 -0.82387097174E+02  0.34226751327E+02 -0.85799435531E+03  0.86262008905E+03  0.00000000000E+00 0. -1.
        -13    1    4    4    0    0  0.27039814102E+02 -0.96444598960E+01  0.13139550738E+02  0.31572376327E+02  0.00000000000E+00 0.  1.
         13    1    4    4    0    0  0.96206424514E+02 -0.54672073247E+02 -0.14088861707E+03  0.17914886026E+03  0.00000000000E+00 0. -1.
          1    1    1    2  501    0 -0.26763101930E+02  0.71390312606E+01  0.17900874111E+02  0.32979852731E+02  0.00000000000E+00 0. -1.
<scales pt_clust_5="13000.00000" pt_clust_6="13000.00000" pt_clust_7="13000.00000" pt_clust_8="13000.00000" pt_clust_9="27.69891"></scales>
<clustering>
<clus scale="   27.699">  1  9  2 -1</clus>
<clus scale="   81.597">  5  6 -1 -1</clus>
<clus scale="   93.581">  7  8 -1 -1</clus>
<clus scale="  141.115">  2  5  1 -1</clus>
<clus scale="   27.699">  1  5  2 -1</clus>
</clustering>
</event>
<event>
 9    2  0.1665830E-004  0.1171234E+03  0.7546771E-02  0.1250505E+00
         -1   -1    0    0    0  501 -0.00000000000E+00  0.00000000000E+00  0.17461423912E+03  0.17461423912E+03  0.00000000000E+00 0.  1.
         21   -1    0    0  501  502  0.00000000000E+00 -0.00000000000E+00 -0.20619039634E+03  0.20619039634E+03  0.00000000000E+00 0.  1.
         24    2    1    2    0    0 -0.75729925100E+02 -0.22148489832E+02  0.10142915968E+03  0.15341929624E+03  0.83809479585E+02 0.  0.
         23    2    1    2    0    0  0.60498513312E+02 -0.10859735985E+01 -0.20622160051E+02  0.11161915184E+03  0.91500339452E+02 0.  0.
        -11    1    3    3    0    0 -0.29237966251E+02  0.50770010065E+01  0.94558817845E+02  0.99106027274E+02  0.00000000000E+00 0.  1.
         12    1    3    3    0    0 -0.46491958849E+02 -0.27225490838E+02  0.68703418346E+01  0.54313268967E+02  0.00000000000E+00 0. -1.
        -13    1    4    4    0    0  0.24215679278E+02  0.25884394480E+02 -0.47314020712E+02  0.59118673501E+02  0.00000000000E+00 0. -1.
         13    1    4    4    0    0  0.36282834034E+02 -0.26970368079E+02  0.26691860661E+02  0.52500478335E+02  0.00000000000E+00 0.  1.
         -2    1    1    2    0  502  0.15231411788E+02  0.23234463430E+02 -0.11238315685E+03  0.11576618737E+03  0.00000000000E+00 0.  1.
<scales pt_clust_5="13000.00000" pt_clust_6="13000.00000" pt_clust_7="13000.00000" pt_clust_8="13000.00000" pt_clust_9="27.78194"></scales>
<clustering>
<clus scale="   27.782">  2  9  1 -1</clus>
<clus scale="   83.809">  5  6 -1 -1</clus>
<clus scale="   91.500">  7  8 -1 -1</clus>
<clus scale="  111.219">  1  5  2 -1</clus>
<clus scale="   27.782">  2  5  1 -1</clus>
</clustering>
</event>
<event>
 9    2  0.1665830E-004  0.9756221E+02  0.7546771E-02  0.1291440E+00
          2   -1    0    0  502    0 -0.00000000000E+00  0.00000000000E+00  0.26180591585E+03  0.26180591585E+03  0.00000000000E+00 0. -1.
         21   -1    0    0  501  502  0.00000000000E+00 -0.00000000000E+00 -0.10390056748E+03  0.10390056748E+03  0.00000000000E+00 0.  1.
         23    2    1    2    0    0  0.11963335332E+00  0.27706129775E+02  0.79764550738E+02  0.12468325519E+03  0.91738141636E+02 0.  0.
         24    2    1    2    0    0 -0.43068258170E+02 -0.45521981066E+02 -0.43302679970E+02  0.11098282219E+03  0.80715172710E+02 0.  0.
        -11    1    4    4    0    0 -0.26040437126E+02  0.47214134446E+01 -0.50921511576E+02  0.57388121174E+02  0.00000000000E+00 0.  1.
         12    1    4    4    0    0 -0.17027821044E+02 -0.50243394511E+02  0.76188316059E+01  0.53594701012E+02  0.00000000000E+00 0. -1.
        -11    1    3    3    0    0 -0.32762233738E+02  0.57057428414E+01 -0.25516674968E+01  0.33353117813E+02  0.00000000000E+00 0. -1.
         11    1    3    3    0    0  0.32881867091E+02  0.22000386934E+02  0.82316218235E+02  0.91330137376E+02  0.00000000000E+00 0.  1.
          1    1    1    2  501    0  0.42948624816E+02  0.17815851291E+02  0.12144347760E+03  0.13004040596E+03  0.00000000000E+00 0. -1.
<scales pt_clust_5="13000.00000" pt_clust_6="13000.00000" pt_clust_7="13000.00000" pt_clust_8="13000.00000" pt_clust_9="46.49722"></scales>
<clustering>
<clus scale="   46.497">  2  9  1 -1</clus>
<clus scale="   80.715">  5  6 -1 -1</clus>
<clus scale="   87.278">  2  5  1 -1</clus>
<clus scale="   91.738">  7  8 -1 -1</clus>
<clus scale="   46.497">  2  5  1 -1</clus>
</clustering>
</event>
<event>
 9    2  0.1665830E-004  0.1826308E+03  0.7546771E-02  0.1166457E+00
         -3   -1    0    0    0  501 -0.00000000000E+00  0.00000000000E+00  0.65598108128E+03  0.65598108128E+03  0.00000000000E+00 0.  1.
         21   -1    0    0  501  502  0.00000000000E+00 -0.00000000000E+00 -0.89223893644E+02  0.89223893644E+02  0.00000000000E+00 0.  1.
         23    2    1    2    0    0 -0.13466917870E+03  0.97255075745E+02  0.49868692644E+03  0.53331799577E+03  0.90250188664E+02 0.  0.
         24    2    1    2    0    0  0.11732553528E+03 -0.73192551840E+02  0.81522864003E+02  0.17931736837E+03  0.79914394027E+02 0.  0.
        -13    1    4    4    0    0  0.77748643144E+02 -0.98187700023E+01  0.16092972195E+02  0.80001521918E+02  0.00000000000E+00 0.  1.
         14    1    4    4    0    0  0.39576892132E+02 -0.63373781838E+02  0.65429891808E+02  0.99315846456E+02  0.00000000000E+00 0. -1.
        -13    1    3    3    0    0 -0.89307877686E+02  0.25312767660E+02  0.16875316551E+03  0.19259871259E+03  0.00000000000E+00 0.  1.
         13    1    3    3    0    0 -0.45361301013E+02  0.71942308085E+02  0.32993376093E+03  0.34071928317E+03  0.00000000000E+00 0. -1.
         -4    1    1    2    0  502  0.17343643422E+02 -0.24062523904E+02 -0.13452602814E+02  0.32569610779E+02  0.00000000000E+00 0.  1.
<scales pt_clust_5="13000.00000" pt_clust_6="13000.00000" pt_clust_7="13000.00000" pt_clust_8="13000.00000" pt_clust_9="29.66154"></scales>
<clustering>
<clus scale="   29.662">  2  9  1 -1</clus>
<clus scale="   79.914">  5  6 -1 -1</clus>
<clus scale="   90.250">  7  8 -1 -1</clus>
<clus scale="  177.750">  2  5  1 -1</clus>
<clus scale="   29.662">  2  5  1 -1</clus>
</clustering>
</event>
<event>
 9    2  0.1665830E-004  0.1667172E+03  0.7546771E-02  0.1183804E+00
          2   -1    0    0  502    0 -0.00000000000E+00  0.00000000000E+00  0.27567459126E+03  0.27567459126E+03  0.00000000000E+00 0. -1.
         21   -1    0    0  501  502  0.00000000000E+00 -0.00000000000E+00 -0.44277782773E+03  0.44277782773E+03  0.00000000000E+00 0. -1.
         24    2    1    2    0    0  0.11257563286E+03 -0.59505125868E+02  0.11956213067E+03  0.19210368258E+03  0.79966171934E+02 0.  0.
         23    2    1    2    0    0 -0.17389111507E+03 -0.13802647919E+02  0.24459058892E+02  0.20087673065E+03  0.96563877122E+02 0.  0.
        -11    1    3    3    0    0  0.84777977769E+02 -0.71577156938E+02  0.11768220968E+03  0.16173959746E+03  0.00000000000E+00 0.  1.
         12    1    3    3    0    0  0.27797655089E+02  0.12072031070E+02  0.18799209876E+01  0.30364085126E+02  0.00000000000E+00 0. -1.
        -11    1    4    4    0    0 -0.16912713006E+03  0.94789579750E+01  0.37891948341E+02  0.17357890574E+03  0.00000000000E+00 0. -1.
         11    1    4    4    0    0 -0.47639850090E+01 -0.23281605894E+02 -0.13432889449E+02  0.27297824915E+02  0.00000000000E+00 0.  1.
          1    1    1    2  501    0  0.61315482215E+02  0.73307773787E+02 -0.31112442603E+03  0.32547200575E+03  0.00000000000E+00 0. -1.
<scales pt_clust_5="13000.00000" pt_clust_6="13000.00000" pt_clust_7="13000.00000" pt_clust_8="13000.00000" pt_clust_9="95.56996"></scales>
<clustering>
<clus scale="   79.966">  5  6 -1 -1</clus>
<clus scale="   95.570">  2  9  1 -1</clus>
<clus scale="   96.564">  7  8 -1 -1</clus>
<clus scale="  157.685">  1  5  2 -1</clus>
<clus scale="   95.570">  2  5  1 -1</clus>
</clustering>
</event>
<event>
 9    2  0.1665830E-004  0.1043523E+03  0.7546771E-02  0.1277127E+00
          2   -1    0    0  502    0 -0.00000000000E+00  0.00000000000E+00  0.88541303239E+03  0.88541303239E+03  0.00000000000E+00 0. -1.
         21   -1    0    0  501  502  0.00000000000E+00 -0.00000000000E+00 -0.34356898958E+02  0.34356898958E+02  0.00000000000E+00 0.  1.
         24    2    1    2    0    0  0.24151390368E+02  0.43016881464E+02  0.58980069120E+03  0.59684430933E+03  0.76970984753E+02 0.  0.
         23    2    1    2    0    0  0.32561096803E+01 -0.74416335164E+02  0.25544059676E+03  0.28084345026E+03  0.89859623256E+02 0.  0.
        -13    1    3    3    0    0 -0.19940779762E+02  0.19718294150E+02  0.83286836203E+02  0.87881413884E+02  0.00000000000E+00 0.  1.
         14    1    3    3    0    0  0.44092170130E+02  0.23298587315E+02  0.50651385499E+03  0.50896289544E+03  0.00000000000E+00 0. -1.
        -13    1    4    4    0    0 -0.30168082402E+02 -0.25191299267E+02  0.35382388213E+02  0.52883155638E+02  0.00000000000E+00 0.  1.
         13    1    4    4    0    0  0.33424192083E+02 -0.49225035897E+02  0.22005820855E+03  0.22796029463E+03  0.00000000000E+00 0. -1.
          1    1    1    2  501    0 -0.27407500049E+02  0.31399453700E+02  0.58148454680E+01  0.42082171752E+02  0.00000000000E+00 0. -1.
<scales pt_clust_5="13000.00000" pt_clust_6="13000.00000" pt_clust_7="13000.00000" pt_clust_8="13000.00000" pt_clust_9="41.67849"></scales>
<clustering>
<clus scale="   41.678">  2  9  1 -1</clus>
<clus scale="   76.971">  5  6 -1 -1</clus>
<clus scale="   89.860">  7  8 -1 -1</clus>
<clus scale="   93.484">  1  5  2 -1</clus>
<clus scale="   41.678">  2  5  1 -1</clus>
</clustering>
</event>
<event>
 9    2  0.1665830E-004  0.1188008E+03  0.7546771E-02  0.1248836E+00
          2   -1    0    0  502    0 -0.00000000000E+00  0.00000000000E+00  0.12799329658E+04  0.12799329658E+04  0.00000000000E+00 0. -1.
         21   -1    0    0  501  502  0.00000000000E+00 -0.00000000000E+00 -0.41632130794E+02  0.41632130794E+02  0.00000000000E+00 0.  1.
         24    2    1    2    0    0 -0.69598038313E+02  0.40187903627E+02  0.10250205086E+04  0.10312742272E+04  0.80003337963E+02 0.  0.
         23    2    1    2    0    0  0.57787748030E+02 -0.14857883331E+02  0.23215181315E+03  0.25656808919E+03  0.91501582060E+02 0.  0.
        -13    1    3    3    0    0 -0.10738299022E+02  0.34191718151E+02  0.14866061285E+03  0.15291946400E+03  0.00000000000E+00 0.  1.
         14    1    3    3    0    0 -0.58859739291E+02  0.59961854757E+01  0.87635989578E+03  0.87835476322E+03  0.00000000000E+00 0. -1.
        -11    1    4    4    0    0  0.18689347239E+02  0.26155302276E+02  0.16768435223E+03  0.17073790885E+03  0.00000000000E+00 0. -1.
         11    1    4    4    0    0  0.39098400791E+02 -0.41013185607E+02  0.64467460924E+02  0.85830180334E+02  0.00000000000E+00 0.  1.
          1    1    1    2  501    0  0.11810290283E+02 -0.25330020296E+02 -0.18871486828E+02  0.33722780133E+02  0.00000000000E+00 0. -1.
<scales pt_clust_5="13000.00000" pt_clust_6="13000.00000" pt_clust_7="13000.00000" pt_clust_8="13000.00000" pt_clust_9="27.94804"></scales>
<clustering>
<clus scale="   27.948">  2  9  1 -1</clus>
<clus scale="   80.003">  5  6 -1 -1</clus>
<clus scale="   91.502">  7  8 -1 -1</clus>
<clus scale="  110.189">  1  5  2 -1</clus>
<clus scale="   27.948">  2  5  1 -1</clus>
</clustering>
</event>
<event>
 9    2  0.1665830E-004  0.9395651E+02  0.7546771E-02  0.1300705E+00
         21   -1    0    0  501  502  0.00000000000E+00  0.00000000000E+00  0.12188336939E+03  0.12188336939E+03  0.00000000000E+00 0.  1.
          2   -1    0    0  502    0 -0.00000000000E+00 -0.00000000000E+00 -0.11969852855E+03  0.11969852855E+03  0.00000000000E+00 0. -1.
         24    2    1    2    0    0 -0.15769146787E+02  0.10203115325E+02 -0.52922316911E+02  0.98549205070E+02  0.80983977674E+02 0.  0.
         23    2    1    2    0    0 -0.83887256731E+01 -0.72793117091E+01  0.67902814569E+02  0.11553941619E+03  0.92818130610E+02 0.  0.
        -11    1    3    3    0    0 -0.10528656592E+02  0.35778240004E+02  0.24041765733E+01  0.37372652200E+02  0.00000000000E+00 0.  1.
         12    1    3    3    0    0 -0.52404901945E+01 -0.25575124679E+02 -0.55326493484E+02  0.61176552870E+02  0.00000000000E+00 0. -1.
        -13    1    4    4    0    0 -0.11110394122E+02  0.38668793705E+02  0.54226263041E+02  0.67521878436E+02  0.00000000000E+00 0.  1.
         13    1    4    4    0    0  0.27216684488E+01 -0.45948105414E+02  0.13676551528E+02  0.48017537754E+02  0.00000000000E+00 0. -1.
          1    1    1    2  501    0  0.24157872460E+02 -0.29238036164E+01 -0.12795656809E+02  0.27493276679E+02  0.00000000000E+00 0. -1.
<scales pt_clust_5="13000.00000" pt_clust_6="13000.00000" pt_clust_7="13000.00000" pt_clust_8="13000.00000" pt_clust_9="24.33417"></scales>
<clustering>
<clus scale="   24.334">  1  9  2 -1</clus>
<clus scale="   80.984">  5  6 -1 -1</clus>
<clus scale="   82.286">  2  5  1 -1</clus>
<clus scale="   92.818">  7  8 -1 -1</clus>
<clus scale="   24.334">  1  5  2 -1</clus>
</clustering>
</event>
<event>
 9    2  0.1665830E-004  0.8798700E+02  0.7546771E-02  0.1311149E+00
         21   -1    0    0  501  502  0.00000000000E+00  0.00000000000E+00  0.19437963489E+03  0.19437963489E+03  0.00000000000E+00 0. -1.
          4   -1    0    0  502    0 -0.00000000000E+00 -0.00000000000E+00 -0.90307832768E+02  0.90307832768E+02  0.00000000000E+00 0. -1.
         23    2    1    2    0    0 -0.11607446083E+02  0.34144548130E+01  0.88770072764E+01  0.84367726350E+02  0.83022410740E+02 0.  0.
         24    2    1    2    0    0  0.58067280698E+02 -0.43048051031E+02  0.89989830799E+02  0.13903002086E+03  0.77499892055E+02 0.  0.
        -11    1    4    4    0    0  0.50029103196E+01 -0.37652301530E+02  0.74277578538E+02  0.83425916810E+02  0.00000000000E+00 0.  1.
         12    1    4    4    0    0  0.53064370378E+02 -0.53957495010E+01  0.15712252261E+02  0.55604104052E+02  0.00000000000E+00 0. -1.
        -11    1    3    3    0    0 -0.85527015379E+00  0.27945510155E+02 -0.27485047842E+02  0.39206005659E+02  0.00000000000E+00 0.  1.
         11    1    3    3    0    0 -0.10752175930E+02 -0.24531055342E+02  0.36362055118E+02  0.45161720691E+02  0.00000000000E+00 0. -1.
          3    1    1    2  501    0 -0.46459834614E+02  0.39633596218E+02  0.52049640463E+01  0.61289720445E+02  0.00000000000E+00 0. -1.
<scales pt_clust_5="13000.00000" pt_clust_6="13000.00000" pt_clust_7="13000.00000" pt_clust_8="13000.00000" pt_clust_9="61.06834"></scales>
<clustering>
<clus scale="   61.068">  1  9  2 -1</clus>
<clus scale="   77.500">  5  6 -1 -1</clus>
<clus scale="   82.796">  1  5  2 -1</clus>
<clus scale="   83.022">  7  8 -1 -1</clus>
<clus scale="   61.068">  1  5  2 -1</clus>
</clustering>
</event>
<event>
 9    2  0.1665830E-004  0.9542342E+02  0.7546771E-02  0.1295535E+00
         21   -1    0    0  501  502  0.00000000000E+00  0.00000000000E+00  0.16986304079E+02  0.16986304079E+02  0.00000000000E+00 0.  1.
          2   -1    0    0  502    0 -0.00000000000E+00 -0.00000000000E+00 -0.10561558145E+04  0.10561558145E+04  0.00000000000E+00 0. -1.
         24    2    1    2    0    0  0.25377561906E+02 -0.15369217211E+02 -0.71023229631E+03  0.71564765804E+03  0.82712890491E+02 0.  0.
         23    2    1    2    0    0  0.92195467230E+01  0.19699117857E+02 -0.16783215404E+03  0.19265954814E+03  0.92070702578E+02 0.  0.
        -11    1    3    3    0    0  0.27844904328E+02  0.12181047813E+02 -0.93924185029E+02  0.98719142805E+02  0.00000000000E+00 0.  1.
         12    1    3    3    0    0 -0.24673424218E+01 -0.27550265023E+02 -0.61630811128E+03  0.61692851524E+03  0.00000000000E+00 0. -1.
        -13    1    4    4    0    0 -0.30419067413E+02 -0.20847081702E+02 -0.80347467196E+02  0.88406085551E+02  0.00000000000E+00 0. -1.
         13    1    4    4    0    0  0.39638614136E+02  0.40546199559E+02 -0.87484686849E+02  0.10425346259E+03  0.00000000000E+00 0.  1.
          1    1    1    2  501    0 -0.34597108629E+02 -0.43299006465E+01 -0.16110506011E+03  0.16483491243E+03  0.00000000000E+00 0. -1.
<scales pt_clust_5="13000.00000" pt_clust_6="13000.00000" pt_clust_7="13000.00000" pt_clust_8="13000.00000" pt_clust_9="34.86702"></scales>
<clustering>
<clus scale="   34.867">  1  9  2 -1</clus>
<clus scale="   82.713">  5  6 -1 -1</clus>
<clus scale="   86.429">  2  5  1 -1</clus>
<clus scale="   92.071">  7  8 -1 -1</clus>
<clus scale="   34.867">  1  5  2 -1</clus>
</clustering>
</event>
<event>
 9    2  0.1665830E-004  0.9341157E+02  0.7546771E-02  0.1302383E+00
         -1   -1    0    0    0  501 -0.00000000000E+00  0.00000000000E+00  0.12605122323E+03  0.12605122323E+03  0.00000000000E+00 0.  1.
         21   -1    0    0  501  502  0.00000000000E+00 -0.00000000000E+00 -0.33680296506E+03  0.33680296506E+03  0.00000000000E+00 0. -1.
         23    2    1    2    0    0  0.18452411615E+02  0.14512559202E+02  0.94940948125E+02  0.13349060993E+03  0.90856223997E+02 0.  0.
         24    2    1    2    0    0  0.92760507064E+01 -0.44736658050E+01 -0.27773470438E+03  0.28872743730E+03  0.78236233466E+02 0.  0.
        -13    1    4    4    0    0  0.26795855685E+02  0.29563916979E+02 -0.16126113658E+03  0.16612404173E+03  0.00000000000E+00 0.  1.
         14    1    4    4    0    0 -0.17519804979E+02 -0.34037582784E+02 -0.11647356780E+03  0.12260339556E+03  0.00000000000E+00 0. -1.
        -11    1    3    3    0    0 -0.35992936947E+02 -0.35551665210E+01  0.42038106267E+02  0.55455685890E+02  0.00000000000E+00 0. -1.
         11    1    3    3    0    0  0.54445348562E+02  0.18067725723E+02  0.52902841858E+02  0.78034924037E+02  0.00000000000E+00 0.  1.
         -2    1    1    2    0  502 -0.27728462321E+02 -0.10038893397E+02 -0.27957985579E+02  0.40636141069E+02  0.00000000000E+00 0.  1.
<scales pt_clust_5="13000.00000" pt_clust_6="13000.00000" pt_clust_7="13000.00000" pt_clust_8="13000.00000" pt_clust_9="29.48978"></scales>
<clustering>
<clus scale="   29.490">  2  9  1 -1</clus>
<clus scale="   78.236">  5  6 -1 -1</clus>
<clus scale="   81.190">  2  5  1 -1</clus>
<clus scale="   90.856">  7  8 -1 -1</clus>
<clus scale="   29.490">  2  5  1 -1</clus>
</clustering>
</event>
<event>
 9    2  0.1665830E-004  0.1828778E+03  0.7546771E-02  0.1165290E+00
          4   -1    0    0  502    0 -0.00000000000E+00  0.00000000000E+00  0.13421966246E+03  0.13421966246E+03  0.00000000000E+00 0. -1.
         21   -1    0    0  501  502  0.00000000000E+00 -0.00000000000E+00 -0.64335894809E+03  0.64335894809E+03  0.00000000000E+00 0. -1.
         24    2    1    2    0    0  0.62964573248E+02 -0.14311110070E+03 -0.39174009706E+02  0.18091337171E+03  0.82156682027E+02 0.  0.
         23    2    1    2    0    0 -0.43417539018E+02  0.18772554754E+03 -0.49790132516E+03  0.54051402993E+03  0.84402150795E+02 0.  0.
        -13    1    3    3    0    0 -0.95393532380E+01 -0.21893605542E+02  0.16567914667E+02  0.29065873808E+02  0.00000000000E+00 0.  1.
         14    1    3    3    0    0  0.72503926486E+02 -0.12121749515E+03 -0.55741924373E+02  0.15184749791E+03  0.00000000000E+00 0. -1.
        -13    1    4    4    0    0 -0.10341696758E+02  0.73063915082E+02 -0.94892077546E+02  0.12020729079E+03  0.00000000000E+00 0.  1.
         13    1    4    4    0    0 -0.33075842260E+02  0.11466163246E+03 -0.40300924762E+03  0.42030673914E+03  0.00000000000E+00 0. -1.
          3    1    1    2  501    0 -0.19547034230E+02 -0.44614446849E+02  0.27936049238E+02  0.56151208909E+02  0.00000000000E+00 0. -1.
<scales pt_clust_5="13000.00000" pt_clust_6="13000.00000" pt_clust_7="13000.00000" pt_clust_8="13000.00000" pt_clust_9="48.70870"></scales>
<clustering>
<clus scale="   48.709">  2  9  1 -1</clus>
<clus scale="   82.157">  5  6 -1 -1</clus>
<clus scale="   84.402">  7  8 -1 -1</clus>
<clus scale="  181.852">  1  5  2 -1</clus>
<clus scale="   48.709">  2  5  1 -1</clus>
</clustering>
</event>
<event>
 9    2  0.1665830E-004  0.1407753E+03  0.7546771E-02  0.1226220E+00
          2   -1    0    0  502    0 -0.00000000000E+00  0.00000000000E+00  0.19845585235E+04  0.19845585235E+04  0.00000000000E+00 0. -1.
         21   -1    0    0  501  502  0.00000000000E+00 -0.00000000000E+00 -0.27960980292E+02  0.27960980292E+02  0.00000000000E+00 0.  1.
         24    2    1    2    0    0  0.46661334378E+02 -0.47334007793E+02  0.63084869441E+03  0.63953314121E+03  0.81331267330E+02 0.  0.
         23    2    1    2    0    0  0.51381800340E+02 -0.83722057875E+02  0.22956330199E+03  0.26464936435E+03  0.87695518991E+02 0.  0.
        -13    1    3    3    0    0  0.33359269057E+02  0.50318152217E+00  0.83226772959E+02  0.89664874733E+02  0.00000000000E+00 0.  1.
         14    1    3    3    0    0  0.13302065322E+02 -0.47837189315E+02  0.54762192145E+03  0.54986826648E+03  0.00000000000E+00 0. -1.
        -11    1    4    4    0    0  0.14799776327E+02 -0.27855083783E+02  0.70355277534E+01  0.32317761721E+02  0.00000000000E+00 0.  1.
         11    1    4    4    0    0  0.36582024013E+02 -0.55866974091E+02  0.22252777423E+03  0.23233160263E+03  0.00000000000E+00 0. -1.
          1    1    1    2  501    0 -0.98043134718E+02  0.13105606567E+03  0.10961855469E+04  0.11083369983E+04  0.00000000000E+00 0. -1.
<scales pt_clust_5="13000.00000" pt_clust_6="13000.00000" pt_clust_7="13000.00000" pt_clust_8="13000.00000" pt_clust_9="110.12349"></scales>
<clustering>
<clus scale="   81.331">  5  6 -1 -1</clus>
<clus scale="   87.696">  7  8 -1 -1</clus>
<clus scale="  105.036">  1  5  2 -1</clus>
<clus scale="  110.123">  2  9  1 -1</clus>
<clus scale="  110.123">  2  5  1 -1</clus>
</clustering>
</event>
<event>
 9    2  0.1665830E-004  0.1209724E+03  0.7546771E-02  0.1245341E+00
         21   -1    0    0  501  502  0.00000000000E+00  0.00000000000E+00  0.66733054993E+02  0.66733054993E+02  0.00000000000E+00 0. -1.
          2   -1    0    0  502    0 -0.00000000000E+00 -0.00000000000E+00 -0.42245030261E+03  0.42245030261E+03  0.00000000000E+00 0. -1.
         24    2    1    2    0    0  0.81252280338E+01  0.73562568139E+02 -0.29726791851E+03  0.31695184852E+03  0.81319051547E+02 0.  0.
         23    2    1    2    0    0  0.15260001976E+02 -0.91415546645E+02 -0.55096599333E+02  0.14262004811E+03  0.93355091113E+02 0.  0.
        -13    1    3    3    0    0 -0.23305926976E+02 -0.52792895320E+01 -0.47797049040E+02  0.53437767797E+02  0.00000000000E+00 0.  1.
         14    1    3    3    0    0  0.31431155010E+02  0.78841857671E+02 -0.24947086947E+03  0.26351408072E+03  0.00000000000E+00 0. -1.
        -13    1    4    4    0    0  0.49137670351E+02 -0.40592424464E+02 -0.55596520421E+01  0.63977850091E+02  0.00000000000E+00 0. -1.
         13    1    4    4    0    0 -0.33877668375E+02 -0.50823122181E+02 -0.49536947291E+02  0.78642198021E+02  0.00000000000E+00 0.  1.
          1    1    1    2  501    0 -0.23385230010E+02  0.17852978507E+02 -0.33527297832E+01  0.29611460976E+02  0.00000000000E+00 0. -1.
<scales pt_clust_5="13000.00000" pt_clust_6="13000.00000" pt_clust_7="13000.00000" pt_clust_8="13000.00000" pt_clust_9="29.42104"></scales>
<clustering>
<clus scale="   29.421">  1  9  2 -1</clus>
<clus scale="   81.319">  5  6 -1 -1</clus>
<clus scale="   93.355">  7  8 -1 -1</clus>
<clus scale="  111.946">  2  5  1 -1</clus>
<clus scale="   29.421">  1  5  2 -1</clus>
</clustering>
</event>
<event>
 9    2  0.1665830E-004  0.1639966E+03  0.7546771E-02  0.1203370E+00
         21   -1    0    0  501  502  0.00000000000E+00  0.00000000000E+00  0.45657101140E+02  0.45657101140E+02  0.00000000000E+00 0. -1.
          2   -1    0    0  502    0 -0.00000000000E+00 -0.00000000000E+00 -0.13216496039E+04  0.13216496039E+04  0.00000000000E+00 0. -1.
         23    2    1    2    0    0  0.56915246987E+02 -0.16471094073E+02 -0.52426799878E+03  0.53523668797E+03  0.90059620941E+02 0.  0.
         24    2    1    2    0    0  0.93200576064E+02  0.95616246644E+02 -0.19518799958E+03  0.25023533588E+03  0.81795807603E+02 0.  0.
        -11    1    4    4    0    0 -0.14269331245E+02  0.19285304044E+02 -0.21692965983E+02  0.32343802179E+02  0.00000000000E+00 0.  1.
         12    1    4    4    0    0  0.10746990731E+03  0.76330942600E+02 -0.17349503359E+03  0.21789153370E+03  0.00000000000E+00 0. -1.
        -11    1    3    3    0    0 -0.15737385313E+02  0.16822773421E+02 -0.62631891871E+02  0.66733985955E+02  0.00000000000E+00 0.  1.
         11    1    3    3    0    0  0.72652632300E+02 -0.33293867494E+02 -0.46163610691E+03  0.46850270202E+03  0.00000000000E+00 0. -1.
          1    1    1    2  501    0 -0.15011582305E+03 -0.79145152571E+02 -0.55653650436E+03  0.58183468115E+03  0.00000000000E+00 0. -1.
<scales pt_clust_5="13000.00000" pt_clust_6="13000.00000" pt_clust_7="13000.00000" pt_clust_8="13000.00000" pt_clust_9="142.14196"></scales>
<clustering>
<clus scale="   81.796">  5  6 -1 -1</clus>
<clus scale="   90.060">  7  8 -1 -1</clus>
<clus scale="  107.802">  2  7  1 -1</clus>
<clus scale="  142.142">  1  9  2 -1</clus>
<clus scale="  142.142">  1  5  2 -1</clus>
</clustering>
</event>
<event>
 9    2  0.1665830E-004  0.1298344E+03  0.7546771E-02  0.1230523E+00
         21   -1    0    0  501  502  0.00000000000E+00  0.00000000000E+00  0.78626512128E+02  0.78626512128E+02  0.00000000000E+00 0.  1.
          2   -1    0    0  502    0 -0.00000000000E+00 -0.00000000000E+00 -0.29575320331E+03  0.29575320331E+03  0.00000000000E+00 0. -1.
         23    2    1    2    0    0 -0.78435702738E+02  0.75539541978E+02 -0.14638945190E+03  0.20283526408E+03  0.88622180422E+02 0.  0.
         24    2    1    2    0    0  0.59833756062E+02 -0.42742949160E+02 -0.20515636387E+02  0.10874430551E+03  0.77442847166E+02 0.  0.
        -13    1    4    4    0    0  0.46122726872E+02 -0.19041441002E+02  0.24858889899E+02  0.55748065586E+02  0.00000000000E+00 0.  1.
         14    1    4    4    0    0  0.13711029191E+02 -0.23701508158E+02 -0.45374526286E+02  0.52996239925E+02  0.00000000000E+00 0. -1.
        -13    1    3    3    0    0 -0.18447239155E+02  0.73318674552E+02 -0.10707969857E+03  0.13108009199E+03  0.00000000000E+00 0. -1.
         13    1    3    3    0    0 -0.59988463583E+02  0.22208674252E+01 -0.39309753322E+02  0.71755172088E+02  0.00000000000E+00 0.  1.
          1    1    1    2  501    0  0.18601946676E+02 -0.32796592818E+02 -0.50221602901E+02  0.62800145848E+02  0.00000000000E+00 0. -1.
<scales pt_clust_5="13000.00000" pt_clust_6="13000.00000" pt_clust_7="13000.00000" pt_clust_8="13000.00000" pt_clust_9="37.70478"></scales>
<clustering>
<clus scale="   37.705">  1  9  2 -1</clus>
<clus scale="   77.443">  5  6 -1 -1</clus>
<clus scale="   88.622">  7  8 -1 -1</clus>
<clus scale="  122.476">  1  5  2 -1</clus>
<clus scale="   37.705">  1  5  2 -1</clus>
</clustering>
</event>
<event>
 9    2  0.1665830E-004  0.9800982E+02  0.7546771E-02  0.1288797E+00
          2   -1    0    0  502    0 -0.00000000000E+00  0.00000000000E+00  0.46032676935E+03  0.46032676935E+03  0.00000000000E+00 0. -1.
         21   -1    0    0  501  502  0.00000000000E+00 -0.00000000000E+00 -0.45749952718E+02  0.45749952718E+02  0.00000000000E+00 0.  1.
         23    2    1    2    0    0 -0.43746235186E+01 -0.96604187361E+01  0.90276355415E+02  0.12727533476E+03  0.89088323989E+02 0.  0.
         24    2    1    2    0    0 -0.31425951776E+02  0.71794777204E+02  0.13125781431E+03  0.17286978891E+03  0.80704830216E+02 0.  0.
        -13    1    4    4    0    0 -0.20404166812E+00  0.78922763768E+02  0.79624516022E+02  0.11211114051E+03  0.00000000000E+00 0.  1.
         14    1    4    4    0    0 -0.31221910108E+02 -0.71279865644E+01  0.51633298288E+02  0.60758648400E+02  0.00000000000E+00 0. -1.
        -11    1    3    3    0    0  0.15534196930E+02 -0.44988943148E+02  0.36803505261E+02  0.60164892415E+02  0.00000000000E+00 0.  1.
         11    1    3    3    0    0 -0.19908820448E+02  0.35328524412E+02  0.53472850154E+02  0.67110442349E+02  0.00000000000E+00 0. -1.
          1    1    1    2  501    0  0.35800575295E+02 -0.62134358468E+02  0.19304264690E+03  0.20593159839E+03  0.00000000000E+00 0. -1.
<scales pt_clust_5="13000.00000" pt_clust_6="13000.00000" pt_clust_7="13000.00000" pt_clust_8="13000.00000" pt_clust_9="71.71028"></scales>
<clustering>
<clus scale="   71.710">  2  9  1 -1</clus>
<clus scale="   80.705">  5  6 -1 -1</clus>
<clus scale="   89.088">  7  8 -1 -1</clus>
<clus scale="   90.457">  2  5  1 -1</clus>
<clus scale="   71.710">  2  5  1 -1</clus>
</clustering>
</event>
<event>
 9    2  0.1665830E-004  0.1003186E+03  0.7546771E-02  0.1285494E+00
          4   -1    0    0  502    0 -0.00000000000E+00  0.00000000000E+00  0.27151822374E+03  0.27151822374E+03  0.00000000000E+00 0. -1.
         21   -1    0    0  501  502  0.00000000000E+00 -0.00000000000E+00 -0.10045306539E+03  0.10045306539E+03  0.00000000000E+00 0.  1.
         23    2    1    2    0    0 -0.10738611360E+02 -0.40100965658E+02  0.19295851038E+03  0.21760471044E+03  0.91626513937E+02 0.  0.
         24    2    1    2    0    0 -0.33303413167E+02  0.43616682692E+02 -0.42200087278E+02  0.10574123872E+03  0.79930156152E+02 0.  0.
        -11    1    4    4    0    0 -0.43235615011E+02  0.33027093666E+02 -0.61162253650E+02  0.81859199806E+02  0.00000000000E+00 0.  1.
         12    1    4    4    0    0  0.99322018448E+01  0.10589589026E+02  0.18962166372E+02  0.23882038915E+02  0.00000000000E+00 0. -1.
        -11    1    3    3    0    0  0.19322552839E+02 -0.41867787772E+02  0.17820039163E+03  0.18406969407E+03  0.00000000000E+00 0. -1.
         11    1    3    3    0    0 -0.30061164200E+02  0.17668221134E+01  0.14758118756E+02  0.33535016366E+02  0.00000000000E+00 0.  1.
          3    1    1    2  501    0  0.44042024527E+02 -0.35157170341E+01  0.20306735252E+02  0.48625339970E+02  0.00000000000E+00 0. -1.
<scales pt_clust_5="13000.00000" pt_clust_6="13000.00000" pt_clust_7="13000.00000" pt_clust_8="13000.00000" pt_clust_9="44.18213"></scales>
<clustering>
<clus scale="   44.182">  2  9  1 -1</clus>
<clus scale="   79.930">  5  6 -1 -1</clus>
<clus scale="   89.762">  2  5  1 -1</clus>
<clus scale="   91.627">  7  8 -1 -1</clus>
<clus scale="   44.182">  2  5  1 -1</clus>
</clustering>
</event>
<event>
 9    2  0.1665830E-004  0.1178605E+03  0.7546771E-02  0.1256648E+00
         21   -1    0    0  501  502  0.00000000000E+00  0.00000000000E+00  0.23090369913E+02  0.23090369913E+02  0.00000000000E+00 0.  1.
          2   -1    0    0  502    0 -0.00000000000E+00 -0.00000000000E+00 -0.13415163514E+04  0.13415163514E+04  0.00000000000E+00 0. -1.
         23    2    1    2    0    0  0.23789242674E+02 -0.27814809288E+02 -0.31186867615E+03  0.32648937679E+03  0.89407216220E+02 0.  0.
         24    2    1    2    0    0 -0.34708528987E+02 -0.72550246194E+02 -0.25305733007E+03  0.27788409879E+03  0.81934973329E+02 0.  0.
        -11    1    4    4    0    0 -0.56159743468E+02 -0.69638108013E+02 -0.17061553858E+03  0.19264746269E+03  0.00000000000E+00 0.  1.
         12    1    4    4    0    0  0.21451214482E+02 -0.29121381816E+01 -0.82441791486E+02  0.85236636107E+02  0.00000000000E+00 0. -1.
        -11    1    3    3    0    0  0.21445608681E+01 -0.54861407244E+02 -0.24616076532E+03  0.25220922967E+03  0.00000000000E+00 0. -1.
         11    1    3    3    0    0  0.21644681806E+02  0.27046597955E+02 -0.65707910831E+02  0.74280147127E+02  0.00000000000E+00 0.  1.
          1    1    1    2  501    0  0.10919286312E+02  0.10036505548E+03 -0.75349997530E+03  0.76023324576E+03  0.00000000000E+00 0. -1.
<scales pt_clust_5="13000.00000" pt_clust_6="13000.00000" pt_clust_7="13000.00000" pt_clust_8="13000.00000" pt_clust_9="84.72163"></scales>
<clustering>
<clus scale="   81.935">  5  6 -1 -1</clus>
<clus scale="   89.407">  7  8 -1 -1</clus>
<clus scale="   96.609">  2  7  1 -1</clus>
<clus scale="   84.722">  1  9  2 -1</clus>
<clus scale="   84.722">  1  5  2 -1</clus>
</clustering>
</event>
<event>
 9    2  0.1665830E-004  0.9361828E+02  0.7546771E-02  0.1300137E+00
         -3   -1    0    0    0  501 -0.00000000000E+00  0.00000000000E+00  0.84089241811E+02  0.84089241811E+02  0.00000000000E+00 0.  1.
         21   -1    0    0  501  502  0.00000000000E+00 -0.00000000000E+00 -0.20028437815E+03  0.20028437815E+03  0.00000000000E+00 0.  1.
         23    2    1    2    0    0 -0.45559167720E+01  0.18042603406E+02  0.19192120986E+02  0.94769585876E+02  0.90921092074E+02 0.  0.
         24    2    1    2    0    0  0.29330967468E+02 -0.18911535739E+02 -0.51578936532E+02  0.10220613471E+03  0.81041689536E+02 0.  0.
        -11    1    4    4    0    0  0.33828184234E+02 -0.28744840736E+01  0.12362619485E+02  0.36130915678E+02  0.00000000000E+00 0.  1.
         12    1    4    4    0    0 -0.44972167655E+01 -0.16037051666E+02 -0.63941556017E+02  0.66075219036E+02  0.00000000000E+00 0. -1.
        -13    1    3    3    0    0  0.16669318551E+02 -0.31658982780E+02 -0.39151427929E+01  0.35992856440E+02  0.00000000000E+00 0. -1.
         13    1    3    3    0    0 -0.21225235323E+02  0.49701586186E+02  0.23107263779E+02  0.58776729436E+02  0.00000000000E+00 0.  1.
         -4    1    1    2    0  502 -0.24775050696E+02  0.86893233341E+00 -0.83808320789E+02  0.87397899368E+02  0.00000000000E+00 0.  1.
<scales pt_clust_5="13000.00000" pt_clust_6="13000.00000" pt_clust_7="13000.00000" pt_clust_8="13000.00000" pt_clust_9="24.79028"></scales>
<clustering>
<clus scale="   24.790">  2  9  1 -1</clus>
<clus scale="   81.042">  5  6 -1 -1</clus>
<clus scale="   84.056">  2  5  1 -1</clus>
<clus scale="   90.921">  7  8 -1 -1</clus>
<clus scale="   24.790">  2  5  1 -1</clus>
</clustering>
</event>
<event>
 9    2  0.1665830E-004  0.1236727E+03  0.7546771E-02  0.1260295E+00
         21   -1    0    0  501  502  0.00000000000E+00  0.00000000000E+00  0.97505613537E+02  0.97505613537E+02  0.00000000000E+00 0. -1.
         -3   -1    0    0    0  501 -0.00000000000E+00 -0.00000000000E+00 -0.37994017087E+03  0.37994017087E+03  0.00000000000E+00 0.  1.
         24    2    1    2    0    0  0.75716861893E+01 -0.86377927523E+01 -0.25615016928E+03  0.26771034697E+03  0.76967387612E+02 0.  0.
         23    2    1    2    0    0  0.64786388022E+02 -0.41426232960E+02 -0.25149901105E+02  0.12173893390E+03  0.90963957975E+02 0.  0.
        -13    1    3    3    0    0 -0.62022664661E+00  0.32704745734E+02 -0.76823512903E+02  0.83497528163E+02  0.00000000000E+00 0.  1.
         14    1    3    3    0    0  0.81919128359E+01 -0.41342538486E+02 -0.17932665638E+03  0.18421281881E+03  0.00000000000E+00 0. -1.
        -13    1    4    4    0    0  0.60968920292E+02  0.10376614376E+02  0.43585321461E+01  0.61999033621E+02  0.00000000000E+00 0. -1.
         13    1    4    4    0    0  0.38174677301E+01 -0.51802847337E+02 -0.29508433251E+02  0.59739900276E+02  0.00000000000E+00 0.  1.
         -4    1    1    2    0  502 -0.72358074211E+02  0.50064025713E+02 -0.11344869423E+01  0.87996503537E+02  0.00000000000E+00 0.  1.
<scales pt_clust_5="13000.00000" pt_clust_6="13000.00000" pt_clust_7="13000.00000" pt_clust_8="13000.00000" pt_clust_9="83.78841"></scales>
<clustering>
<clus scale="   76.967">  5  6 -1 -1</clus>
<clus scale="   77.820">  2  5  1 -1</clus>
<clus scale="   83.788">  1  9  2 -1</clus>
<clus scale="   90.964">  7  8 -1 -1</clus>
<clus scale="   83.788">  1  5  2 -1</clus>
</clustering>
</event>
<event>
 9    2  0.1665830E-004  0.9385544E+02  0.7546771E-02  0.1302456E+00
          2   -1    0    0  502    0 -0.00000000000E+00  0.00000000000E+00  0.59072334119E+03  0.59072334119E+03  0.00000000000E+00 0. -1.
         21   -1    0    0  501  502  0.00000000000E+00 -0.00000000000E+00 -0.31523617013E+02  0.31523617013E+02  0.00000000000E+00 0. -1.
         24    2    1    2    0    0 -0.15258484441E+00  0.14612383750E+02  0.24976337299E+03  0.26259418488E+03  0.79752231345E+02 0.  0.
         23    2    1    2    0    0  0.18750973298E+02  0.35492452937E+02  0.97409283990E+02  0.14099351343E+03  0.93697860204E+02 0.  0.
        -11    1    3    3    0    0  0.38399833797E+02  0.28864686394E+01  0.91324377481E+02  0.99111154060E+02  0.00000000000E+00 0.  1.
         12    1    3    3    0    0 -0.38552418641E+02  0.11725915111E+02  0.15843899551E+03  0.16348303082E+03  0.00000000000E+00 0. -1.
        -11    1    4    4    0    0  0.27867316345E+01 -0.25443512006E+02  0.65617981969E+02  0.70433356687E+02  0.00000000000E+00 0.  1.
         11    1    4    4    0    0  0.15964241663E+02  0.60935964943E+02  0.31791302021E+02  0.70560156743E+02  0.00000000000E+00 0. -1.
          1    1    1    2  501    0 -0.18598388454E+02 -0.50104836687E+02  0.21202706720E+03  0.21865925989E+03  0.00000000000E+00 0. -1.
<scales pt_clust_5="13000.00000" pt_clust_6="13000.00000" pt_clust_7="13000.00000" pt_clust_8="13000.00000" pt_clust_9="53.44528"></scales>
<clustering>
<clus scale="   53.445">  2  9  1 -1</clus>
<clus scale="   79.752">  5  6 -1 -1</clus>
<clus scale="   79.937">  1  5  2 -1</clus>
<clus scale="   93.698">  7  8 -1 -1</clus>
<clus scale="   53.445">  2  5  1 -1</clus>
</clustering>
</event>
<event>
 9    2  0.1665830E-004  0.3605321E+03  0.7546771E-02  0.1103982E+00
          4   -1    0    0  502    0 -0.00000000000E+00  0.00000000000E+00  0.17089083782E+03  0.17089083782E+03  0.00000000000E+00 0. -1.
         21   -1    0    0  501  502  0.00000000000E+00 -0.00000000000E+00 -0.11662076693E+04  0.11662076693E+04  0.00000000000E+00 0. -1.
         24    2    1    2    0    0 -0.40493073268E+02 -0.50777833367E+02 -0.26811117653E+02  0.10910443173E+03  0.83467740175E+02 0.  0.
         23    2    1    2    0    0 -0.30550987006E+03 -0.70108348698E+02 -0.21745602779E+03  0.39228650890E+03  0.91378989821E+02 0.  0.
        -13    1    3    3    0    0 -0.42856037607E+02 -0.58280923156E+02  0.85809109152E+01  0.72848733657E+02  0.00000000000E+00 0.  1.
         14    1    3    3    0    0  0.23629643391E+01  0.75030897893E+01 -0.35392028568E+02  0.36255698076E+02  0.00000000000E+00 0. -1.
        -13    1    4    4    0    0 -0.68959038250E+02  0.10254256026E+02 -0.83608443946E+02  0.10886170411E+03  0.00000000000E+00 0.  1.
         13    1    4    4    0    0 -0.23655083181E+03 -0.80362604724E+02 -0.13384758384E+03  0.28342480479E+03  0.00000000000E+00 0. -1.
          3    1    1    2  501    0  0.34600294333E+03  0.12088618206E+03 -0.75104968608E+03  0.83570756654E+03  0.00000000000E+00 0. -1.
<scales pt_clust_5="13000.00000" pt_clust_6="13000.00000" pt_clust_7="13000.00000" pt_clust_8="13000.00000" pt_clust_9="348.75957"></scales>
<clustering>
<clus scale="   83.468">  5  6 -1 -1</clus>
<clus scale="   91.379">  7  8 -1 -1</clus>
<clus scale="  105.759">  1  5  2 -1</clus>
<clus scale="  348.760">  2  9  1 -1</clus>
<clus scale="  348.760">  2  5  1 -1</clus>
</clustering>
</event>
<event>
 9    2  0.1665830E-004  0.1666684E+03  0.7546771E-02  0.1198635E+00
          2   -1    0    0  502    0 -0.00000000000E+00  0.00000000000E+00  0.10499190406E+04  0.10499190406E+04  0.00000000000E+00 0. -1.
         21   -1    0    0  501  502  0.00000000000E+00 -0.00000000000E+00 -0.67608848661E+02  0.67608848661E+02  0.00000000000E+00 0. -1.
         24    2    1    2    0    0 -0.55189140202E+02 -0.60553182093E+02  0.14885841552E+03  0.18737735724E+03  0.78986815836E+02 0.  0.
         23    2    1    2    0    0  0.13697561426E+03 -0.55106626425E+02  0.74089247421E+03  0.76093633916E+03  0.91122964913E+02 0.  0.
        -13    1    3    3    0    0 -0.24802624170E+02 -0.19641204453E+02  0.12876887451E+03  0.13259852986E+03  0.00000000000E+00 0.  1.
         14    1    3    3    0    0 -0.30386516033E+02 -0.40911977641E+02  0.20089541013E+02  0.54778827380E+02  0.00000000000E+00 0. -1.
        -13    1    4    4    0    0  0.30634728516E+02  0.20331391551E+02  0.92003872891E+02  0.99078578414E+02  0.00000000000E+00 0.  1.
         13    1    4    4    0    0  0.10634088575E+03 -0.75438017976E+02  0.64888860132E+03  0.66185776074E+03  0.00000000000E+00 0. -1.
          1    1    1    2  501    0 -0.81786474061E+02  0.11565980852E+03  0.92559302238E+02  0.16921419289E+03  0.00000000000E+00 0. -1.
<scales pt_clust_5="13000.00000" pt_clust_6="13000.00000" pt_clust_7="13000.00000" pt_clust_8="13000.00000" pt_clust_9="139.55274"></scales>
<clustering>
<clus scale="   78.987">  5  6 -1 -1</clus>
<clus scale="   91.123">  7  8 -1 -1</clus>
<clus scale="  113.804">  1  5  2 -1</clus>
<clus scale="  139.553">  2  9  1 -1</clus>
<clus scale="  139.553">  2  5  1 -1</clus>
</clustering>
</event>
<event>
 9    2  0.1665830E-004  0.9676534E+02  0.7546771E-02  0.1293339E+00
          2   -1    0    0  502    0 -0.00000000000E+00  0.00000000000E+00  0.15803718735E+03  0.15803718735E+03  0.00000000000E+00 0. -1.
         21   -1    0    0  501  502  0.00000000000E+00 -0.00000000000E+00 -0.18812443760E+03  0.18812443760E+03  0.00000000000E+00 0. -1.
         23    2    1    2    0    0  0.31807938825E+01 -0.27072922264E+02  0.10229021272E+03  0.13981834060E+03  0.91339039728E+02 0.  0.
         24    2    1    2    0    0  0.93940372260E+01  0.48065736578E+02 -0.26456995680E+02  0.97632797187E+02  0.80209896509E+02 0.  0.
        -13    1    4    4    0    0 -0.26550674652E+02  0.50147892115E+02 -0.84252393744E+01  0.57364920174E+02  0.00000000000E+00 0.  1.
         14    1    4    4    0    0  0.35944711878E+02 -0.20821555372E+01 -0.18031756306E+02  0.40267877013E+02  0.00000000000E+00 0. -1.
        -11    1    3    3    0    0  0.14459169767E+02  0.17718167944E+02  0.88802732081E+02  0.91700197877E+02  0.00000000000E+00 0. -1.
         11    1    3    3    0    0 -0.11278375885E+02 -0.44791090208E+02  0.13487480642E+02  0.48118142719E+02  0.00000000000E+00 0.  1.
          1    1    1    2  501    0 -0.12574831108E+02 -0.20992814314E+02 -0.10592046729E+03  0.10871048717E+03  0.00000000000E+00 0. -1.
<scales pt_clust_5="13000.00000" pt_clust_6="13000.00000" pt_clust_7="13000.00000" pt_clust_8="13000.00000" pt_clust_9="24.47089"></scales>
<clustering>
<clus scale="   24.471">  2  9  1 -1</clus>
<clus scale="   80.210">  5  6 -1 -1</clus>
<clus scale="   86.339">  2  5  1 -1</clus>
<clus scale="   91.339">  7  8 -1 -1</clus>
<clus scale="   24.471">  2  5  1 -1</clus>
</clustering>
</event>
<event>
 9    2  0.1665830E-004  0.2855363E+03  0.7546771E-02  0.1092977E+00
          2   -1    0    0  502    0 -0.00000000000E+00  0.00000000000E+00  0.53942493870E+03  0.53942493870E+03  0.00000000000E+00 0. -1.
         21   -1    0    0  501  502  0.00000000000E+00 -0.00000000000E+00 -0.18887405470E+03  0.18887405470E+03  0.00000000000E+00 0. -1.
         24    2    1    2    0    0 -0.14159457656E+03  0.22360244605E+03  0.22362040006E+03  0.35580964526E+03  0.80915649565E+02 0.  0.
         23    2    1    2    0    0  0.13238270921E+03 -0.25233245145E+03  0.67331273513E+02  0.30568861765E+03  0.87836113399E+02 0.  0.
        -13    1    3    3    0    0 -0.55495523786E+02  0.45453935264E+02  0.97957282615E+02  0.12141434268E+03  0.00000000000E+00 0.  1.
         14    1    3    3    0    0 -0.86099052779E+02  0.17814851079E+03  0.12566311744E+03  0.23439530258E+03  0.00000000000E+00 0. -1.
        -11    1    4    4    0    0 -0.98153374119E+01 -0.42368386515E+02  0.70004156287E+00  0.43496104223E+02  0.00000000000E+00 0.  1.
         11    1    4    4    0    0  0.14219804663E+03 -0.20996406494E+03  0.66631231951E+02  0.26219251343E+03  0.00000000000E+00 0. -1.
          1    1    1    2  501    0  0.92118673499E+01  0.28730005399E+02  0.59599210432E+02  0.66800730493E+02  0.00000000000E+00 0. -1.
<scales pt_clust_5="13000.00000" pt_clust_6="13000.00000" pt_clust_7="13000.00000" pt_clust_8="13000.00000" pt_clust_9="30.17072"></scales>
<clustering>
<clus scale="   30.171">  2  9  1 -1</clus>
<clus scale="   80.916">  5  6 -1 -1</clus>
<clus scale="   87.836">  7  8 -1 -1</clus>
<clus scale="  283.484">  1  5  2 -1</clus>
<clus scale="   30.171">  2  5  1 -1</clus>
</clustering>
</event>
<event>
 9    2  0.1665830E-004  0.3467363E+03  0.7546771E-02  0.1064146E+00
          2   -1    0    0  502    0 -0.00000000000E+00  0.00000000000E+00  0.13231396793E+04  0.13231396793E+04  0.00000000000E+00 0. -1.
         21   -1    0    0  501  502  0.00000000000E+00 -0.00000000000E+00 -0.16587452413E+03  0.16587452413E+03  0.00000000000E+00 0. -1.
         23    2    1    2    0    0  0.31960915240E+03  0.59678276853E+02  0.64179947242E+03  0.72483479447E+03  0.88132907877E+02 0.  0.
         24    2    1    2    0    0 -0.31844164881E+03 -0.20979650828E+03  0.26233897923E+03  0.46988368268E+03  0.80927601240E+02 0.  0.
        -11    1    4    4    0    0 -0.27310195860E+02 -0.21901337860E+02 -0.44018541514E+00  0.35010129408E+02  0.00000000000E+00 0.  1.
         12    1    4    4    0    0 -0.29113145295E+03 -0.18789517042E+03  0.26277916465E+03  0.43487355328E+03  0.00000000000E+00 0. -1.
        -13    1    3    3    0    0  0.26650789257E+03  0.67181290533E+02  0.58701061394E+03  0.64816760447E+03  0.00000000000E+00 0. -1.
         13    1    3    3    0    0  0.53101259828E+02 -0.75030136803E+01  0.54788858477E+02  0.76667190003E+02  0.00000000000E+00 0.  1.
          1    1    1    2  501    0 -0.11675035890E+01  0.15011823143E+03  0.25312670350E+03  0.29429572627E+03  0.00000000000E+00 0. -1.
<scales pt_clust_5="13000.00000" pt_clust_6="13000.00000" pt_clust_7="13000.00000" pt_clust_8="13000.00000" pt_clust_9="150.12285"></scales>
<clustering>
<clus scale="   80.928">  5  6 -1 -1</clus>
<clus scale="   88.133">  7  8 -1 -1</clus>
<clus scale="  150.123">  2  9  1 -1</clus>
<clus scale="  344.975">  2  5  1 -1</clus>
<clus scale="  150.123">  2  5  1 -1</clus>
</clustering>
</event>
<event>
 9    2  0.1665830E-004  0.1402603E+03  0.7546771E-02  0.1215343E+00
         21   -1    0    0  501  502  0.00000000000E+00  0.00000000000E+00  0.11394177623E+03  0.11394177623E+03  0.00000000000E+00 0.  1.
          2   -1    0    0  502    0 -0.00000000000E+00 -0.00000000000E+00 -0.44883419766E+03  0.44883419766E+03  0.00000000000E+00 0. -1.
         23    2    1    2    0    0  0.16995869642E+02  0.14103700002E+03 -0.31454151595E+03  0.35766453585E+03  0.93847003081E+02 0.  0.
         24    2    1    2    0    0 -0.24217439242E+02 -0.44582285982E+02 -0.41735501026E+02  0.10605103297E+03  0.83252056794E+02 0.  0.
        -13    1    4    4    0    0  0.19700242163E+02 -0.25089994210E+02  0.11894042244E+02  0.34045199245E+02  0.00000000000E+00 0.  1.
         14    1    4    4    0    0 -0.43917681405E+02 -0.19492291772E+02 -0.53629543270E+02  0.72005833721E+02  0.00000000000E+00 0. -1.
        -11    1    3    3    0    0  0.39263868971E+02  0.14847638291E+02 -0.84019470240E+02  0.93922176022E+02  0.00000000000E+00 0. -1.
         11    1    3    3    0    0 -0.22267999329E+02  0.12618936173E+03 -0.23052204571E+03  0.26374235982E+03  0.00000000000E+00 0.  1.
          1    1    1    2  501    0  0.72215696002E+01 -0.96454714041E+02  0.21384595535E+02  0.99060405079E+02  0.00000000000E+00 0. -1.
<scales pt_clust_5="13000.00000" pt_clust_6="13000.00000" pt_clust_7="13000.00000" pt_clust_8="13000.00000" pt_clust_9="96.72468"></scales>
<clustering>
<clus scale="   83.252">  5  6 -1 -1</clus>
<clus scale="   93.847">  7  8 -1 -1</clus>
<clus scale="   96.725">  1  9  2 -1</clus>
<clus scale="  133.404">  1  5  2 -1</clus>
<clus scale="   96.725">  1  5  2 -1</clus>
</clustering>
</event>
<event>
 9    2  0.2700978E-004  0.3212239E+03  0.7546771E-02  0.1093089E+00
          2   -1    0    0  502    0 -0.00000000000E+00  0.00000000000E+00  0.81603596546E+03  0.81603596546E+03  0.00000000000E+00 0. -1.
         21   -1    0    0  501  502  0.00000000000E+00 -0.00000000000E+00 -0.22972636612E+03  0.22972636612E+03  0.00000000000E+00 0.  1.
         23    2    1    2    0    0 -0.17246315717E+03 -0.43128782429E+02  0.15888462478E+03  0.25427772206E+03  0.88369697787E+02 0.  0.
         24    2    1    2    0    0  0.38154931199E+03 -0.13812374845E+02  0.10719215992E+03  0.40482148599E+03  0.81361029925E+02 0.  0.
        -13    1    4    4    0    0  0.32523806436E+03 -0.62826878048E+01  0.59609866725E+02  0.33071529581E+03  0.00000000000E+00 0.  1.
         14    1    4    4    0    0  0.56311247638E+02 -0.75296870402E+01  0.47582293196E+02  0.74106190181E+02  0.00000000000E+00 0. -1.
        -13    1    3    3    0    0 -0.76928221011E+02  0.24751177289E+02  0.55881711400E+02  0.98251400163E+02  0.00000000000E+00 0.  1.
         13    1    3    3    0    0 -0.95534936163E+02 -0.67879959717E+02  0.10300291338E+03  0.15602632189E+03  0.00000000000E+00 0. -1.
          1    1    1    2  501    0 -0.20908615482E+03  0.56941157274E+02  0.32023281464E+03  0.38666312354E+03  0.00000000000E+00 0. -1.
<scales pt_clust_5="13000.00000" pt_clust_6="13000.00000" pt_clust_7="13000.00000" pt_clust_8="13000.00000" pt_clust_9="310.74949"></scales>
<clustering>
<clus scale="   81.361">  5  6 -1 -1</clus>
<clus scale="   88.370">  7  8 -1 -1</clus>
<clus scale="  198.527">  1  7  2 -1</clus>
<clus scale="  310.749">  2  9  1 -1</clus>
<clus scale="  310.749">  2  5  1 -1</clus>
</clustering>
</event>
<event>
 9    2  0.1665830E-004  0.1014687E+03  0.7546771E-02  0.1283086E+00
          2   -1    0    0  502    0 -0.00000000000E+00  0.00000000000E+00  0.69637154057E+03  0.69637154057E+03  0.00000000000E+00 0. -1.
         21   -1    0    0  501  502  0.00000000000E+00 -0.00000000000E+00 -0.21330181373E+02  0.21330181373E+02  0.00000000000E+00 0.  1.
         24    2    1    2    0    0  0.29551619103E+02  0.16111412960E+02  0.28399465393E+03  0.29710365216E+03  0.80527888635E+02 0.  0.
         23    2    1    2    0    0 -0.51260426054E+02 -0.30082139157E+02  0.20334263919E+03  0.23112704321E+03  0.92406248777E+02 0.  0.
        -13    1    3    3    0    0  0.11923379911E+02 -0.30650273308E+02  0.69849122069E+02  0.77204313974E+02  0.00000000000E+00 0.  1.
         14    1    3    3    0    0  0.17628239192E+02  0.46761686267E+02  0.21414553186E+03  0.21989933819E+03  0.00000000000E+00 0. -1.
        -11    1    4    4    0    0 -0.92045889136E+01 -0.22894948007E+02  0.13882118890E+01  0.24714979943E+02  0.00000000000E+00 0.  1.
         11    1    4    4    0    0 -0.42055837140E+02 -0.71871911497E+01  0.20195442731E+03  0.20641206327E+03  0.00000000000E+00 0. -1.
          1    1    1    2  501    0  0.21708806951E+02  0.13970726197E+02  0.18770406608E+03  0.18947102658E+03  0.00000000000E+00 0. -1.
<scales pt_clust_5="13000.00000" pt_clust_6="13000.00000" pt_clust_7="13000.00000" pt_clust_8="13000.00000" pt_clust_9="25.81577"></scales>
<clustering>
<clus scale="   25.816">  2  9  1 -1</clus>
<clus scale="   80.528">  5  6 -1 -1</clus>
<clus scale="   90.784">  1  5  2 -1</clus>
<clus scale="   92.406">  7  8 -1 -1</clus>
<clus scale="   25.816">  2  5  1 -1</clus>
</clustering>
</event>
<event>
 9    2  0.1665830E-004  0.1764466E+03  0.7546771E-02  0.1203886E+00
          4   -1    0    0  502    0 -0.00000000000E+00  0.00000000000E+00  0.94259966792E+03  0.94259966792E+03  0.00000000000E+00 0. -1.
         21   -1    0    0  501  502  0.00000000000E+00 -0.00000000000E+00 -0.48517801098E+02  0.48517801098E+02  0.00000000000E+00 0. -1.
         24    2    1    2    0    0 -0.14460380954E+02 -0.24909351125E+02  0.29281707941E+03  0.30507142977E+03  0.80604943285E+02 0.  0.
         23    2    1    2    0    0 -0.39249085510E+02  0.15641967831E+03  0.37321132388E+03  0.41736769032E+03  0.94347708929E+02 0.  0.
        -13    1    3    3    0    0  0.23520095350E+02 -0.37267187036E+02  0.18254500199E+03  0.18778901956E+03  0.00000000000E+00 0.  1.
         14    1    3    3    0    0 -0.37980476303E+02  0.12357835911E+02  0.11027207742E+03  0.11728241022E+03  0.00000000000E+00 0. -1.
        -13    1    4    4    0    0  0.38427101663E+01  0.50411500648E+02  0.22230122753E+03  0.22797789713E+03  0.00000000000E+00 0.  1.
         13    1    4    4    0    0 -0.43091795677E+02  0.10600817766E+03  0.15091009635E+03  0.18938979319E+03  0.00000000000E+00 0. -1.
          3    1    1    2  501    0  0.53709466464E+02 -0.13151032719E+03  0.22805346354E+03  0.26867834891E+03  0.00000000000E+00 0. -1.
<scales pt_clust_5="13000.00000" pt_clust_6="13000.00000" pt_clust_7="13000.00000" pt_clust_8="13000.00000" pt_clust_9="149.10364"></scales>
<clustering>
<clus scale="   80.605">  5  6 -1 -1</clus>
<clus scale="   85.596">  1  5  2 -1</clus>
<clus scale="   94.348">  7  8 -1 -1</clus>
<clus scale="  149.104">  2  9  1 -1</clus>
<clus scale="  149.104">  2  5  1 -1</clus>
</clustering>
</event>
<event>
 9    2  0.1665830E-004  0.1309735E+03  0.7546771E-02  0.1228951E+00
          2   -1    0    0  502    0 -0.00000000000E+00  0.00000000000E+00  0.71753205664E+03  0.71753205664E+03  0.00000000000E+00 0. -1.
         21   -1    0    0  501  502  0.00000000000E+00 -0.00000000000E+00 -0.35032738170E+02  0.35032738170E+02  0.00000000000E+00 0. -1.
         24    2    1    2    0    0  0.99127836164E+02 -0.84703162041E+01  0.48503072035E+03  0.50154582250E+03  0.79970858633E+02 0.  0.
         23    2    1    2    0    0 -0.75119038625E+02  0.21086568148E+02  0.12395782552E+03  0.17266448385E+03  0.91432861465E+02 0.  0.
        -13    1    3    3    0    0  0.13225686451E+02 -0.34980837266E+02  0.15991007120E+03  0.16422487214E+03  0.00000000000E+00 0.  1.
         14    1    3    3    0    0  0.85902149714E+02  0.26510521062E+02  0.32512064915E+03  0.33732095037E+03  0.00000000000E+00 0. -1.
        -11    1    4    4    0    0 -0.60737157598E+02 -0.26314471214E+02  0.93349424787E+02  0.11443587207E+03  0.00000000000E+00 0.  1.
         11    1    4    4    0    0 -0.14381881027E+02  0.47401039362E+02  0.30608400733E+02  0.58228611781E+02  0.00000000000E+00 0. -1.
          1    1    1    2  501    0 -0.24008797539E+02 -0.12616251944E+02  0.73510772608E+02  0.78354488460E+02  0.00000000000E+00 0. -1.
<scales pt_clust_5="13000.00000" pt_clust_6="13000.00000" pt_clust_7="13000.00000" pt_clust_8="13000.00000" pt_clust_9="27.12182"></scales>
<clustering>
<clus scale="   27.122">  2  9  1 -1</clus>
<clus scale="   79.971">  5  6 -1 -1</clus>
<clus scale="   91.433">  7  8 -1 -1</clus>
<clus scale="  123.245">  1  5  2 -1</clus>
<clus scale="   27.122">  2  5  1 -1</clus>
</clustering>
</event>
<event>
 9    2  0.1665830E-004  0.1408021E+03  0.7546771E-02  0.1215002E+00
         21   -1    0    0  501  502  0.00000000000E+00  0.00000000000E+00  0.12990525915E+03  0.12990525915E+03  0.00000000000E+00 0. -1.
          2   -1    0    0  502    0 -0.00000000000E+00 -0.00000000000E+00 -0.33298413840E+03  0.33298413840E+03  0.00000000000E+00 0. -1.
         24    2    1    2    0    0  0.85607092332E+02 -0.58503274030E+02 -0.20650001303E+03  0.24464752196E+03  0.80367576107E+02 0.  0.
         23    2    1    2    0    0 -0.75992689511E+02  0.84512747150E+02 -0.52409771020E+02  0.15590393079E+03  0.92962133399E+02 0.  0.
        -13    1    3    3    0    0  0.20537082971E+02  0.16161400768E+02 -0.18062478914E+02  0.31768156954E+02  0.00000000000E+00 0.  1.
         14    1    3    3    0    0  0.65070009361E+02 -0.74664674798E+02 -0.18843753411E+03  0.21287936500E+03  0.00000000000E+00 0. -1.
        -11    1    4    4    0    0 -0.55453097745E+02  0.10355584315E+03 -0.33651626408E+02  0.12219366047E+03  0.00000000000E+00 0. -1.
         11    1    4    4    0    0 -0.20539591766E+02 -0.19043096001E+02 -0.18758144612E+02  0.33710270312E+02  0.00000000000E+00 0.  1.
          1    1    1    2  501    0 -0.96144028213E+01 -0.26009473120E+02  0.55830904793E+02  0.62337944814E+02  0.00000000000E+00 0. -1.
<scales pt_clust_5="13000.00000" pt_clust_6="13000.00000" pt_clust_7="13000.00000" pt_clust_8="13000.00000" pt_clust_9="27.72958"></scales>
<clustering>
<clus scale="   27.730">  1  9  2 -1</clus>
<clus scale="   80.368">  5  6 -1 -1</clus>
<clus scale="   92.962">  7  8 -1 -1</clus>
<clus scale="  132.824">  2  5  1 -1</clus>
<clus scale="   27.730">  1  5  2 -1</clus>
</clustering>
</event>
<event>
 9    2  0.1665830E-004  0.1019299E+03  0.7546771E-02  0.1281110E+00
          2   -1    0    0  502    0 -0.00000000000E+00  0.00000000000E+00  0.94469214942E+03  0.94469214942E+03  0.00000000000E+00 0. -1.
         21   -1    0    0  501  502  0.00000000000E+00 -0.00000000000E+00 -0.69619572397E+02  0.69619572397E+02  0.00000000000E+00 0. -1.
         24    2    1    2    0    0  0.94768912470E+01 -0.49646904050E+02  0.84948644032E+03  0.85481262165E+03  0.80763725059E+02 0.  0.
         23    2    1    2    0    0 -0.65343631906E+01 -0.13825308783E+02  0.26553010034E+02  0.95951361284E+02  0.90927247430E+02 0.  0.
        -13    1    3    3    0    0  0.22607945962E+02 -0.49961947427E+02  0.28811380210E+03  0.29328634195E+03  0.00000000000E+00 0.  1.
         14    1    3    3    0    0 -0.13131054715E+02  0.31504337679E+00  0.56137263822E+03  0.56152627970E+03  0.00000000000E+00 0. -1.
        -13    1    4    4    0    0  0.16788510887E+02  0.28843367550E+02  0.32958086874E+02  0.46904471427E+02  0.00000000000E+00 0.  1.
         13    1    4    4    0    0 -0.23322874078E+02 -0.42668676333E+02 -0.64050768405E+01  0.49046889857E+02  0.00000000000E+00 0. -1.
          1    1    1    2  501    0 -0.29425280564E+01  0.63472212833E+02 -0.96687333438E+00  0.63547738885E+02  0.00000000000E+00 0. -1.
<scales pt_clust_5="13000.00000" pt_clust_6="13000.00000" pt_clust_7="13000.00000" pt_clust_8="13000.00000" pt_clust_9="63.54038"></scales>
<clustering>
<clus scale="   63.540">  2  9  1 -1</clus>
<clus scale="   80.764">  5  6 -1 -1</clus>
<clus scale="   90.927">  7  8 -1 -1</clus>
<clus scale="   92.977">  1  5  2 -1</clus>
<clus scale="   63.540">  2  5  1 -1</clus>
</clustering>
</event>
<event>
 9    2  0.1665830E-004  0.2263828E+03  0.7546771E-02  0.1140437E+00
         21   -1    0    0  501  502  0.00000000000E+00  0.00000000000E+00  0.71040493338E+03  0.71040493338E+03  0.00000000000E+00 0. -1.
          2   -1    0    0  502    0 -0.00000000000E+00 -0.00000000000E+00 -0.11175296230E+04  0.11175296230E+04  0.00000000000E+00 0. -1.
         24    2    1    2    0    0 -0.10924645781E+03  0.10547381859E+03  0.19358334062E+03  0.25912118934E+03  0.81300467667E+02 0.  0.
         23    2    1    2    0    0  0.25651407930E+03 -0.24656494554E+03 -0.10300003662E+04  0.10935383223E+04  0.91277393719E+02 0.  0.
        -13    1    3    3    0    0 -0.12171511996E+03  0.89291125956E+02  0.16131677500E+03  0.22093116009E+03  0.00000000000E+00 0.  1.
         14    1    3    3    0    0  0.12468662149E+02  0.16182692636E+02  0.32266565625E+02  0.38190029248E+02  0.00000000000E+00 0. -1.
        -13    1    4    4    0    0  0.31771331480E+02 -0.81084290908E+02 -0.28335849302E+03  0.29643905833E+03  0.00000000000E+00 0.  1.
         13    1    4    4    0    0  0.22474274782E+03 -0.16548065464E+03 -0.74664187319E+03  0.79709926393E+03  0.00000000000E+00 0. -1.
          1    1    1    2  501    0 -0.14726762149E+03  0.14109112695E+03  0.42929233599E+03  0.47527504477E+03  0.00000000000E+00 0. -1.
<scales pt_clust_5="13000.00000" pt_clust_6="13000.00000" pt_clust_7="13000.00000" pt_clust_8="13000.00000" pt_clust_9="207.16569"></scales>
<clustering>
<clus scale="   81.300">  5  6 -1 -1</clus>
<clus scale="   91.277">  7  8 -1 -1</clus>
<clus scale="  172.248">  2  5  1 -1</clus>
<clus scale="  207.166">  1  9  2 -1</clus>
<clus scale="  207.166">  1  5  2 -1</clus>
</clustering>
</event>
<event>
 9    2  0.1665830E-004  0.4260767E+03  0.7546771E-02  0.1076488E+00
          4   -1    0    0  502    0 -0.00000000000E+00  0.00000000000E+00  0.65823073676E+03  0.65823073676E+03  0.00000000000E+00 0. -1.
         21   -1    0    0  501  502  0.00000000000E+00 -0.00000000000E+00 -0.75868825021E+03  0.75868825021E+03  0.00000000000E+00 0. -1.
         24    2    1    2    0    0  0.83430353689E+02 -0.66313944318E+02  0.23962305216E+03  0.27382146790E+03  0.78745323864E+02 0.  0.
         23    2    1    2    0    0  0.15403414997E+03 -0.29780397425E+03  0.23718640252E+03  0.42045763530E+03  0.90075008237E+02 0.  0.
        -13    1    3    3    0    0  0.82891297406E+02 -0.39486279500E+02  0.11929121713E+03  0.15053414210E+03  0.00000000000E+00 0.  1.
         14    1    3    3    0    0  0.53905628330E+00 -0.26827664818E+02  0.12033183503E+03  0.12328732580E+03  0.00000000000E+00 0. -1.
        -13    1    4    4    0    0  0.72006495155E+02 -0.15451659029E+03  0.17423450755E+03  0.24375802682E+03  0.00000000000E+00 0.  1.
         13    1    4    4    0    0  0.82027654813E+02 -0.14328738396E+03  0.62951894965E+02  0.17669960848E+03  0.00000000000E+00 0. -1.
          3    1    1    2  501    0 -0.23746450366E+03  0.36411791857E+03 -0.57726696813E+03  0.72263988377E+03  0.00000000000E+00 0. -1.
<scales pt_clust_5="13000.00000" pt_clust_6="13000.00000" pt_clust_7="13000.00000" pt_clust_8="13000.00000" pt_clust_9="416.44665"></scales>
<clustering>
<clus scale="   78.745">  5  6 -1 -1</clus>
<clus scale="   90.075">  7  8 -1 -1</clus>
<clus scale="  132.510">  1  5  2 -1</clus>
<clus scale="  416.447">  2  9  1 -1</clus>
<clus scale="  416.447">  2  5  1 -1</clus>
</clustering>
</event>
<event>
 9    2  0.1665830E-004  0.1454717E+03  0.7546771E-02  0.1208954E+00
          2   -1    0    0  502    0 -0.00000000000E+00  0.00000000000E+00  0.82123196696E+03  0.82123196696E+03  0.00000000000E+00 0. -1.
         21   -1    0    0  501  502  0.00000000000E+00 -0.00000000000E+00 -0.54299356025E+02  0.54299356025E+02  0.00000000000E+00 0.  1.
         24    2    1    2    0    0  0.11021517732E+03  0.38643190001E+02  0.67037060773E+03  0.68485581801E+03  0.77395466945E+02 0.  0.
         23    2    1    2    0    0 -0.95329757383E+02 -0.14033922815E+02  0.91722644777E+02  0.16151026627E+03  0.91584981929E+02 0.  0.
        -11    1    3    3    0    0  0.44359830377E+02  0.53010951294E+02  0.41612499478E+03  0.42182693939E+03  0.00000000000E+00 0.  1.
         12    1    3    3    0    0  0.65855346948E+02 -0.14367761293E+02  0.25424561295E+03  0.26302887862E+03  0.00000000000E+00 0. -1.
        -11    1    4    4    0    0 -0.49976948209E+02  0.29046306316E+02  0.10108332094E+02  0.58681868073E+02  0.00000000000E+00 0.  1.
         11    1    4    4    0    0 -0.45352809174E+02 -0.43080229130E+02  0.81614312683E+02  0.10282839820E+03  0.00000000000E+00 0. -1.
          1    1    1    2  501    0 -0.14885419942E+02 -0.24609267187E+02  0.48393584220E+01  0.29165238697E+02  0.00000000000E+00 0. -1.
<scales pt_clust_5="13000.00000" pt_clust_6="13000.00000" pt_clust_7="13000.00000" pt_clust_8="13000.00000" pt_clust_9="28.76094"></scales>
<clustering>
<clus scale="   28.761">  2  9  1 -1</clus>
<clus scale="   77.395">  5  6 -1 -1</clus>
<clus scale="   91.585">  7  8 -1 -1</clus>
<clus scale="  136.983">  1  5  2 -1</clus>
<clus scale="   28.761">  2  5  1 -1</clus>
</clustering>
</event>
<event>
 9    2  0.1665830E-004  0.1063590E+03  0.7546771E-02  0.1272783E+00
         21   -1    0    0  501  502  0.00000000000E+00  0.00000000000E+00  0.25473469113E+03  0.25473469113E+03  0.00000000000E+00 0.  1.
          4   -1    0    0  502    0 -0.00000000000E+00 -0.00000000000E+00 -0.16100622821E+03  0.16100622821E+03  0.00000000000E+00 0. -1.
         23    2    1    2    0    0 -0.52100022986E+02 -0.21781871637E+02 -0.12298980181E+03  0.16378073957E+03  0.92243032132E+02 0.  0.
         24    2    1    2    0    0  0.31880711208E+02  0.98880265299E+01  0.97624268969E+02  0.13057787487E+03  0.80037058274E+02 0.  0.
        -11    1    4    4    0    0  0.40108756655E+02 -0.22257145328E+02  0.81874026053E+02  0.93848010212E+02  0.00000000000E+00 0.  1.
         12    1    4    4    0    0 -0.82280454469E+01  0.32145171858E+02  0.15750242916E+02  0.36729864654E+02  0.00000000000E+00 0. -1.
        -11    1    3    3    0    0 -0.28535840344E+02 -0.15977252553E+02  0.53741188555E+01  0.33142841411E+02  0.00000000000E+00 0.  1.
         11    1    3    3    0    0 -0.23564182642E+02 -0.58046190839E+01 -0.12836392066E+03  0.13063789815E+03  0.00000000000E+00 0. -1.
          3    1    1    2  501    0  0.20219311778E+02  0.11893845108E+02  0.11909399576E+03  0.12138230491E+03  0.00000000000E+00 0. -1.
<scales pt_clust_5="13000.00000" pt_clust_6="13000.00000" pt_clust_7="13000.00000" pt_clust_8="13000.00000" pt_clust_9="23.45814"></scales>
<clustering>
<clus scale="   23.458">  1  9  2 -1</clus>
<clus scale="   80.037">  5  6 -1 -1</clus>
<clus scale="   92.243">  7  8 -1 -1</clus>
<clus scale="   95.966">  1  5  2 -1</clus>
<clus scale="   23.458">  1  5  2 -1</clus>
</clustering>
</event>
<event>
 9    2  0.1665830E-004  0.1738866E+03  0.7546771E-02  0.1175624E+00
         21   -1    0    0  501  502  0.00000000000E+00  0.00000000000E+00  0.14306785404E+03  0.14306785404E+03  0.00000000000E+00 0.  1.
          2   -1    0    0  502    0 -0.00000000000E+00 -0.00000000000E+00 -0.58156980681E+03  0.58156980681E+03  0.00000000000E+00 0. -1.
         23    2    1    2    0    0  0.59415217834E+01 -0.12903882970E+03 -0.24655119321E+03  0.29342958475E+03  0.92882232311E+02 0.  0.
         24    2    1    2    0    0 -0.41410845054E+02  0.22430533888E+03 -0.34727392085E+02  0.24398369749E+03  0.79336685978E+02 0.  0.
        -13    1    4    4    0    0 -0.76056423659E+01  0.14737230485E+03  0.11605750078E+02  0.14802410434E+03  0.00000000000E+00 0.  1.
         14    1    4    4    0    0 -0.33805202688E+02  0.76933034031E+02 -0.46333142163E+02  0.95959593145E+02  0.00000000000E+00 0. -1.
        -13    1    3    3    0    0  0.49036773322E+02 -0.72244302864E+02 -0.12416312853E+03  0.15179040457E+03  0.00000000000E+00 0.  1.
         13    1    3    3    0    0 -0.43095251538E+02 -0.56794526840E+02 -0.12238806469E+03  0.14163918018E+03  0.00000000000E+00 0. -1.
          1    1    1    2  501    0  0.35469323270E+02 -0.95266509176E+02 -0.15722336748E+03  0.18722437861E+03  0.00000000000E+00 0. -1.
<scales pt_clust_5="13000.00000" pt_clust_6="13000.00000" pt_clust_7="13000.00000" pt_clust_8="13000.00000" pt_clust_9="101.65526"></scales>
<clustering>
<clus scale="   79.337">  5  6 -1 -1</clus>
<clus scale="   92.882">  7  8 -1 -1</clus>
<clus scale="  101.655">  1  9  2 -1</clus>
<clus scale="  167.044">  1  5  2 -1</clus>
<clus scale="  101.655">  1  5  2 -1</clus>
</clustering>
</event>
<event>
 9    2  0.1665830E-004  0.1422343E+03  0.7546771E-02  0.1212358E+00
          4   -1    0    0  502    0 -0.00000000000E+00  0.00000000000E+00  0.10961109151E+03  0.10961109151E+03  0.00000000000E+00 0. -1.
         21   -1    0    0  501  502  0.00000000000E+00 -0.00000000000E+00 -0.41060143177E+03  0.41060143177E+03  0.00000000000E+00 0. -1.
         23    2    1    2    0    0  0.91474264817E+02  0.63859064796E+02  0.30233847579E+02  0.14655688155E+03  0.90107228957E+02 0.  0.
         24    2    1    2    0    0 -0.97579883211E+02 -0.36811351214E+02 -0.31526765026E+03  0.34166394784E+03  0.80396845498E+02 0.  0.
        -11    1    4    4    0    0 -0.63284615064E+02 -0.17760707251E+02 -0.81863943920E+02  0.10498614451E+03  0.00000000000E+00 0.  1.
         12    1    4    4    0    0 -0.34295268146E+02 -0.19050643963E+02 -0.23340370634E+03  0.23667780332E+03  0.00000000000E+00 0. -1.
        -11    1    3    3    0    0  0.18484145138E+02 -0.15762399528E+02 -0.15973888829E+02  0.29073733586E+02  0.00000000000E+00 0.  1.
         11    1    3    3    0    0  0.72990119679E+02  0.79621464324E+02  0.46207736408E+02  0.11748314797E+03  0.00000000000E+00 0. -1.
          3    1    1    2  501    0  0.61056183936E+01 -0.27047713582E+02 -0.15956537583E+02  0.31991693885E+02  0.00000000000E+00 0. -1.
<scales pt_clust_5="13000.00000" pt_clust_6="13000.00000" pt_clust_7="13000.00000" pt_clust_8="13000.00000" pt_clust_9="27.72829"></scales>
<clustering>
<clus scale="   27.728">  2  9  1 -1</clus>
<clus scale="   80.397">  5  6 -1 -1</clus>
<clus scale="   90.107">  7  8 -1 -1</clus>
<clus scale="  136.290">  2  5  1 -1</clus>
<clus scale="   27.728">  2  5  1 -1</clus>
</clustering>
</event>
<event>
 9    2  0.1665830E-004  0.1022640E+03  0.7546771E-02  0.1281638E+00
          2   -1    0    0  502    0 -0.00000000000E+00  0.00000000000E+00  0.39323197883E+03  0.39323197883E+03  0.00000000000E+00 0. -1.
         21   -1    0    0  501  502  0.00000000000E+00 -0.00000000000E+00 -0.59595740503E+02  0.59595740503E+02  0.00000000000E+00 0.  1.
         24    2    1    2    0    0  0.48315341348E+02 -0.10424006771E+02  0.17959062563E+03  0.20194064803E+03  0.78001284492E+02 0.  0.
         23    2    1    2    0    0 -0.42394154637E+02 -0.33990611100E+02  0.17533832462E+02  0.10720970749E+03  0.90740619946E+02 0.  0.
        -13    1    3    3    0    0 -0.13512205160E+02  0.18198523899E+02  0.30314579268E+02  0.37851547876E+02  0.00000000000E+00 0.  1.
         14    1    3    3    0    0  0.61827546508E+02 -0.28622530670E+02  0.14927604637E+03  0.16408910015E+03  0.00000000000E+00 0. -1.
        -13    1    4    4    0    0  0.18595311003E+01  0.20474893470E+02 -0.19085659018E+02  0.28052477585E+02  0.00000000000E+00 0.  1.
         13    1    4    4    0    0 -0.44253685737E+02 -0.54465504570E+02  0.36619491480E+02  0.79157229901E+02  0.00000000000E+00 0. -1.
          1    1    1    2  501    0 -0.59211867113E+01  0.44414617871E+02  0.13651178023E+03  0.14367736382E+03  0.00000000000E+00 0. -1.
<scales pt_clust_5="13000.00000" pt_clust_6="13000.00000" pt_clust_7="13000.00000" pt_clust_8="13000.00000" pt_clust_9="44.80760"></scales>
<clustering>
<clus scale="   44.808">  2  9  1 -1</clus>
<clus scale="   78.001">  5  6 -1 -1</clus>
<clus scale="   90.741">  7  8 -1 -1</clus>
<clus scale="   91.150">  1  5  2 -1</clus>
<clus scale="   44.808">  2  5  1 -1</clus>
</clustering>
</event>
<event>
 9    2  0.1665830E-004  0.1108843E+03  0.7546771E-02  0.1263249E+00
          2   -1    0    0  502    0 -0.00000000000E+00  0.00000000000E+00  0.37967193217E+03  0.37967193217E+03  0.00000000000E+00 0. -1.
         21   -1    0    0  501  502  0.00000000000E+00 -0.00000000000E+00 -0.70882987846E+02  0.70882987846E+02  0.00000000000E+00 0.  1.
         23    2    1    2    0    0 -0.27516273195E+02 -0.51048425310E+02  0.25057229976E+03  0.27288880769E+03  0.91207110136E+02 0.  0.
         24    2    1    2    0    0  0.78581638729E+01  0.80597190069E+02  0.77057575708E+02  0.13748463094E+03  0.80040589600E+02 0.  0.
        -13    1    4    4    0    0  0.16199440338E+02  0.72243591321E+02  0.16587388256E+02  0.75872918774E+02  0.00000000000E+00 0.  1.
         14    1    4    4    0    0 -0.83412764646E+01  0.83535987480E+01  0.60470187453E+02  0.61611712163E+02  0.00000000000E+00 0. -1.
        -13    1    3    3    0    0  0.13141140580E+02 -0.60667588575E+02  0.18500886466E+03  0.19514488433E+03  0.00000000000E+00 0. -1.
         13    1    3    3    0    0 -0.40657413776E+02  0.96191632649E+01  0.65563435099E+02  0.77743923356E+02  0.00000000000E+00 0.  1.
          1    1    1    2  501    0  0.19658109322E+02 -0.29548764759E+02 -0.18840931137E+02  0.40181481394E+02  0.00000000000E+00 0. -1.
<scales pt_clust_5="13000.00000" pt_clust_6="13000.00000" pt_clust_7="13000.00000" pt_clust_8="13000.00000" pt_clust_9="35.49043"></scales>
<clustering>
<clus scale="   35.490">  2  9  1 -1</clus>
<clus scale="   80.041">  5  6 -1 -1</clus>
<clus scale="   91.207">  7  8 -1 -1</clus>
<clus scale="  101.897">  2  5  1 -1</clus>
<clus scale="   35.490">  2  5  1 -1</clus>
</clustering>
</event>
<event>
 9    2  0.1665830E-004  0.1321326E+03  0.7546771E-02  0.1235822E+00
         -1   -1    0    0    0  501 -0.00000000000E+00  0.00000000000E+00  0.29597880406E+03  0.29597880406E+03  0.00000000000E+00 0.  1.
         21   -1    0    0  501  502  0.00000000000E+00 -0.00000000000E+00 -0.18513512184E+03  0.18513512184E+03  0.00000000000E+00 0.  1.
         24    2    1    2    0    0  0.49993833091E+02 -0.39250811166E+02  0.13760964050E+03  0.17261681421E+03  0.82584150211E+02 0.  0.
         23    2    1    2    0    0  0.59626351485E+02  0.74326934403E+02 -0.10603759955E+03  0.16874407095E+03  0.90281747835E+02 0.  0.
        -13    1    3    3    0    0  0.44489959421E+02 -0.23173322593E+02  0.14548266076E+03  0.15388815403E+03  0.00000000000E+00 0.  1.
         14    1    3    3    0    0  0.55038736699E+01 -0.16077488574E+02 -0.78730202598E+01  0.18728660182E+02  0.00000000000E+00 0. -1.
        -11    1    4    4    0    0  0.56614263636E+02  0.22886676130E+02 -0.99580246083E+02  0.11681267141E+03  0.00000000000E+00 0.  1.
         11    1    4    4    0    0  0.30120878491E+01  0.51440258273E+02 -0.64573534694E+01  0.51931399541E+02  0.00000000000E+00 0. -1.
         -2    1    1    2    0  502 -0.10962018458E+03 -0.35076123236E+02  0.79271641272E+02  0.13975304075E+03  0.00000000000E+00 0.  1.
<scales pt_clust_5="13000.00000" pt_clust_6="13000.00000" pt_clust_7="13000.00000" pt_clust_8="13000.00000" pt_clust_9="96.47921"></scales>
<clustering>
<clus scale="   82.584">  5  6 -1 -1</clus>
<clus scale="   90.282">  7  8 -1 -1</clus>
<clus scale="  104.212">  1  5  2 -1</clus>
<clus scale="   96.479">  2  9  1 -1</clus>
<clus scale="   96.479">  2  5  1 -1</clus>
</clustering>
</event>
<event>
 9    2  0.1665830E-004  0.2427385E+03  0.7546771E-02  0.1118436E+00
         21   -1    0    0  501  502  0.00000000000E+00  0.00000000000E+00  0.44906445627E+02  0.44906445627E+02  0.00000000000E+00 0. -1.
          2   -1    0    0  502    0 -0.00000000000E+00 -0.00000000000E+00 -0.15525953220E+04  0.15525953220E+04  0.00000000000E+00 0. -1.
         23    2    1    2    0    0  0.84063768594E+02  0.21630738728E+03 -0.77262597190E+03  0.81174829411E+03  0.90159844442E+02 0.  0.
         24    2    1    2    0    0 -0.10534414343E+03 -0.19117058208E+03 -0.54485096702E+03  0.59271126446E+03  0.82465063786E+02 0.  0.
        -11    1    4    4    0    0 -0.54979015974E+02 -0.89118067404E+02 -0.36632578724E+03  0.38099777497E+03  0.00000000000E+00 0.  1.
         12    1    4    4    0    0 -0.50365127456E+02 -0.10205251468E+03 -0.17852517978E+03  0.21171348949E+03  0.00000000000E+00 0. -1.
        -11    1    3    3    0    0  0.45631827779E+02  0.18763663992E+03 -0.68686440733E+03  0.71349315793E+03  0.00000000000E+00 0. -1.
         11    1    3    3    0    0  0.38431940815E+02  0.28670747358E+02 -0.85761564567E+02  0.98255136181E+02  0.00000000000E+00 0.  1.
          1    1    1    2  501    0  0.21280374837E+02 -0.25136805199E+02 -0.19021193746E+03  0.19304220907E+03  0.00000000000E+00 0. -1.
<scales pt_clust_5="13000.00000" pt_clust_6="13000.00000" pt_clust_7="13000.00000" pt_clust_8="13000.00000" pt_clust_9="32.93500"></scales>
<clustering>
<clus scale="   32.935">  1  9  2 -1</clus>
<clus scale="   82.465">  5  6 -1 -1</clus>
<clus scale="   90.160">  7  8 -1 -1</clus>
<clus scale="  239.987">  1  5  2 -1</clus>
<clus scale="   32.935">  1  5  2 -1</clus>
</clustering>
</event>
<event>
 9    2  0.1665830E-004  0.1643157E+03  0.7546771E-02  0.1213089E+00
         -1   -1    0    0    0  501 -0.00000000000E+00  0.00000000000E+00  0.49596511584E+03  0.49596511584E+03  0.00000000000E+00 0.  1.
         21   -1    0    0  501  502  0.00000000000E+00 -0.00000000000E+00 -0.30320013758E+03  0.30320013758E+03  0.00000000000E+00 0. -1.
         24    2    1    2    0    0 -0.97050204439E+01  0.26907789307E+02  0.15353890528E+02  0.88377244706E+02  0.82198411665E+02 0.  0.
         23    2    1    2    0    0  0.12922763946E+03  0.49903717012E+02 -0.22810601815E+03  0.28110232462E+03  0.88294946738E+02 0.  0.
        -11    1    3    3    0    0 -0.66991053874E+01  0.33347281953E+02  0.45836027364E+02  0.57077671914E+02  0.00000000000E+00 0.  1.
         12    1    3    3    0    0 -0.30059150565E+01 -0.64394926462E+01 -0.30482136835E+02  0.31299572791E+02  0.00000000000E+00 0. -1.
        -13    1    4    4    0    0  0.18764038301E+02  0.44329866709E+02 -0.38690923476E+02  0.61759321363E+02  0.00000000000E+00 0.  1.
         13    1    4    4    0    0  0.11046360116E+03  0.55738503029E+01 -0.18941509467E+03  0.21934300326E+03  0.00000000000E+00 0. -1.
         -2    1    1    2    0  502 -0.11952261902E+03 -0.76811506319E+02  0.40551710588E+03  0.42968568410E+03  0.00000000000E+00 0.  1.
<scales pt_clust_5="13000.00000" pt_clust_6="13000.00000" pt_clust_7="13000.00000" pt_clust_8="13000.00000" pt_clust_9="138.57732"></scales>
<clustering>
<clus scale="   82.198">  5  6 -1 -1</clus>
<clus scale="   87.033">  1  5  2 -1</clus>
<clus scale="   88.295">  7  8 -1 -1</clus>
<clus scale="  138.577">  2  9  1 -1</clus>
<clus scale="  138.577">  2  5  1 -1</clus>
</clustering>
</event>
<event>
 9    2  0.1665830E-004  0.1052920E+03  0.7546771E-02  0.1274222E+00
         21   -1    0    0  501  502  0.00000000000E+00  0.00000000000E+00  0.13821790638E+03  0.13821790638E+03  0.00000000000E+00 0.  1.
         -3   -1    0    0    0  501 -0.00000000000E+00 -0.00000000000E+00 -0.17259748913E+03  0.17259748913E+03  0.00000000000E+00 0.  1.
         24    2    1    2    0    0  0.52762171953E+02 -0.54670870492E+01 -0.10223984151E+03  0.14109251721E+03  0.81488510787E+02 0.  0.
         23    2    1    2    0    0 -0.41242502588E+02  0.29275096977E+02  0.92471105463E+01  0.10541871622E+03  0.92030545764E+02 0.  0.
        -11    1    3    3    0    0  0.37281454931E+02 -0.64753234572E+00 -0.11472281798E+03  0.12063022484E+03  0.00000000000E+00 0.  1.
         12    1    3    3    0    0  0.15480717022E+02 -0.48195547034E+01  0.12482976476E+02  0.20462292363E+02  0.00000000000E+00 0. -1.
        -11    1    4    4    0    0 -0.66947303212E+02  0.24936658021E+01  0.12519846821E+02  0.68153549731E+02  0.00000000000E+00 0. -1.
         11    1    4    4    0    0  0.25704800624E+02  0.26781431175E+02 -0.32727362742E+01  0.37265166491E+02  0.00000000000E+00 0.  1.
         -4    1    1    2    0  502 -0.11519669365E+02 -0.23808009928E+02  0.58613148206E+02  0.64304162087E+02  0.00000000000E+00 0.  1.
<scales pt_clust_5="13000.00000" pt_clust_6="13000.00000" pt_clust_7="13000.00000" pt_clust_8="13000.00000" pt_clust_9="26.44852"></scales>
<clustering>
<clus scale="   26.449">  1  9  2 -1</clus>
<clus scale="   81.489">  5  6 -1 -1</clus>
<clus scale="   92.031">  7  8 -1 -1</clus>
<clus scale="   96.214">  2  5  1 -1</clus>
<clus scale="   26.449">  1  5  2 -1</clus>
</clustering>
</event>
<event>
 9    2  0.2123733E-004  0.3116816E+03  0.7546771E-02  0.1116587E+00
         21   -1    0    0  501  502  0.00000000000E+00  0.00000000000E+00  0.40793463368E+03  0.40793463368E+03  0.00000000000E+00 0.  1.
          2   -1    0    0  502    0 -0.00000000000E+00 -0.00000000000E+00 -0.13618602083E+04  0.13618602083E+04  0.00000000000E+00 0. -1.
         23    2    1    2    0    0  0.25821838343E+02  0.70981175911E+02 -0.10966907522E+03  0.16164793204E+03  0.91638710174E+02 0.  0.
         24    2    1    2    0    0  0.26082120610E+03 -0.14980011585E+03  0.29567306560E+03  0.43009085297E+03  0.84189095627E+02 0.  0.
        -11    1    4    4    0    0  0.22428769533E+03 -0.14973439037E+03  0.22781278710E+03  0.35302127967E+03  0.00000000000E+00 0.  1.
         12    1    4    4    0    0  0.36533510766E+02 -0.65725481197E-01  0.67860278504E+02  0.77069573292E+02  0.00000000000E+00 0. -1.
        -13    1    3    3    0    0  0.71370083191E+01  0.90557686906E+02 -0.75907781074E+02  0.11837914839E+03  0.00000000000E+00 0. -1.
         13    1    3    3    0    0  0.18684830024E+02 -0.19576510996E+02 -0.33761294149E+02  0.43268783648E+02  0.00000000000E+00 0.  1.
          1    1    1    2  501    0 -0.28664304444E+03  0.78818939943E+02 -0.11399295650E+04  0.11780560570E+04  0.00000000000E+00 0. -1.
<scales pt_clust_5="13000.00000" pt_clust_6="13000.00000" pt_clust_7="13000.00000" pt_clust_8="13000.00000" pt_clust_9="300.09614"></scales>
<clustering>
<clus scale="   84.189">  5  6 -1 -1</clus>
<clus scale="   91.639">  7  8 -1 -1</clus>
<clus scale="  118.755">  2  7  1 -1</clus>
<clus scale="  300.096">  1  9  2 -1</clus>
<clus scale="  300.096">  1  5  2 -1</clus>
</clustering>
</event>
<event>
 9    2  0.1665830E-004  0.1863255E+03  0.7546771E-02  0.1162961E+00
         21   -1    0    0  501  502  0.00000000000E+00  0.00000000000E+00  0.24493943556E+03  0.24493943556E+03  0.00000000000E+00 0. -1.
         -1   -1    0    0    0  501 -0.00000000000E+00 -0.00000000000E+00 -0.23245705288E+03  0.23245705288E+03  0.00000000000E+00 0.  1.
         24    2    1    2    0    0 -0.15704077861E+03 -0.33366106420E+01 -0.11731246898E+03  0.21209654984E+03  0.80930784989E+02 0.  0.
         23    2    1    2    0    0  0.18022957283E+03  0.10892973455E+02  0.96903755863E+02  0.22435310748E+03  0.91337961123E+02 0.  0.
        -11    1    3    3    0    0 -0.12511639030E+03  0.30673443674E+02 -0.96811832773E+02  0.16114435216E+03  0.00000000000E+00 0.  1.
         12    1    3    3    0    0 -0.31924388310E+02 -0.34010054316E+02 -0.20500636212E+02  0.50952197682E+02  0.00000000000E+00 0. -1.
        -11    1    4    4    0    0  0.49437629118E+02 -0.31084725367E+02  0.40251658887E+01  0.58536666154E+02  0.00000000000E+00 0.  1.
         11    1    4    4    0    0  0.13079194371E+03  0.41977698822E+02  0.92878589974E+02  0.16581644132E+03  0.00000000000E+00 0. -1.
         -2    1    1    2    0  502 -0.23188794220E+02 -0.75563628130E+01  0.32891095793E+02  0.40946831120E+02  0.00000000000E+00 0.  1.
<scales pt_clust_5="13000.00000" pt_clust_6="13000.00000" pt_clust_7="13000.00000" pt_clust_8="13000.00000" pt_clust_9="24.38891"></scales>
<clustering>
<clus scale="   24.389">  1  9  2 -1</clus>
<clus scale="   80.931">  5  6 -1 -1</clus>
<clus scale="   91.338">  7  8 -1 -1</clus>
<clus scale="  181.451">  2  5  1 -1</clus>
<clus scale="   24.389">  1  5  2 -1</clus>
</clustering>
</event>
<event>
 9    2  0.1665830E-004  0.1667566E+03  0.7546771E-02  0.1210633E+00
         21   -1    0    0  501  502  0.00000000000E+00  0.00000000000E+00  0.47141430845E+03  0.47141430845E+03  0.00000000000E+00 0. -1.
          2   -1    0    0  502    0 -0.00000000000E+00 -0.00000000000E+00 -0.12447215733E+03  0.12447215733E+03  0.00000000000E+00 0. -1.
         24    2    1    2    0    0 -0.31037850769E+02 -0.14386737638E+02  0.14277320185E+03  0.16757652931E+03  0.80792200188E+02 0.  0.
         23    2    1    2    0    0  0.35672260278E+02  0.15038783772E+03 -0.35585778128E+01  0.17997849969E+03  0.92144370351E+02 0.  0.
        -13    1    3    3    0    0 -0.17883467875E+02 -0.27662847830E+02  0.14505522591E+03  0.14874834499E+03  0.00000000000E+00 0.  1.
         14    1    3    3    0    0 -0.13154382894E+02  0.13276110191E+02 -0.22820240638E+01  0.18828184324E+02  0.00000000000E+00 0. -1.
        -11    1    4    4    0    0 -0.11763446225E+01  0.59646006641E+02 -0.43887677917E+02  0.74061853662E+02  0.00000000000E+00 0.  1.
         11    1    4    4    0    0  0.36848604900E+02  0.90741831083E+02  0.40329100104E+02  0.10591664603E+03  0.00000000000E+00 0. -1.
          1    1    1    2  501    0 -0.46344095090E+01 -0.13600110009E+03  0.20772752709E+03  0.24833143677E+03  0.00000000000E+00 0. -1.
<scales pt_clust_5="13000.00000" pt_clust_6="13000.00000" pt_clust_7="13000.00000" pt_clust_8="13000.00000" pt_clust_9="138.98630"></scales>
<clustering>
<clus scale="   80.792">  5  6 -1 -1</clus>
<clus scale="   87.737">  2  5  1 -1</clus>
<clus scale="   92.144">  7  8 -1 -1</clus>
<clus scale="  138.986">  1  9  2 -1</clus>
<clus scale="  138.986">  1  5  2 -1</clus>
</clustering>
</event>
<event>
 9    2  0.1665830E-004  0.1243165E+03  0.7546771E-02  0.1244900E+00
         21   -1    0    0  501  502  0.00000000000E+00  0.00000000000E+00  0.49857302626E+03  0.49857302626E+03  0.00000000000E+00 0. -1.
          2   -1    0    0  502    0 -0.00000000000E+00 -0.00000000000E+00 -0.14747466961E+03  0.14747466961E+03  0.00000000000E+00 0. -1.
         23    2    1    2    0    0 -0.34594433530E+01 -0.51838607311E+02 -0.65163049278E+02  0.12279100731E+03  0.90178708844E+02 0.  0.
         24    2    1    2    0    0  0.90363654760E+02 -0.25343469417E+02  0.38335603759E+03  0.40245860003E+03  0.78760343065E+02 0.  0.
        -13    1    4    4    0    0  0.64094173623E+02 -0.33193053539E+02  0.13950981373E+03  0.15707587346E+03  0.00000000000E+00 0.  1.
         14    1    4    4    0    0  0.26269481137E+02  0.78495841219E+01  0.24384622386E+03  0.24538272658E+03  0.00000000000E+00 0. -1.
        -11    1    3    3    0    0  0.27952405979E+02 -0.27930856718E+01  0.80640951749E+01  0.29226151963E+02  0.00000000000E+00 0.  1.
         11    1    3    3    0    0 -0.31411849332E+02 -0.49045521639E+02 -0.73227144453E+02  0.93564855347E+02  0.00000000000E+00 0. -1.
          1    1    1    2  501    0 -0.86904211407E+02  0.77182076728E+02  0.32905368336E+02  0.12079808853E+03  0.00000000000E+00 0. -1.
<scales pt_clust_5="13000.00000" pt_clust_6="13000.00000" pt_clust_7="13000.00000" pt_clust_8="13000.00000" pt_clust_9="96.18429"></scales>
<clustering>
<clus scale="   78.760">  5  6 -1 -1</clus>
<clus scale="   90.179">  7  8 -1 -1</clus>
<clus scale="  104.074">  2  7  1 -1</clus>
<clus scale="   96.184">  1  9  2 -1</clus>
<clus scale="   96.184">  1  5  2 -1</clus>
</clustering>
</event>
<event>
 9    2  0.1665830E-004  0.4513531E+03  0.7546771E-02  0.1033377E+00
         21   -1    0    0  501  502  0.00000000000E+00  0.00000000000E+00  0.21556804816E+03  0.21556804816E+03  0.00000000000E+00 0. -1.
          2   -1    0    0  502    0 -0.00000000000E+00 -0.00000000000E+00 -0.28841080965E+04  0.28841080965E+04  0.00000000000E+00 0. -1.
         23    2    1    2    0    0 -0.11030043613E+03 -0.34610131352E+03 -0.49411997009E+03  0.62160205452E+03  0.10140149857E+03 0.  0.
         24    2    1    2    0    0  0.34683923034E+03 -0.23409120984E+03 -0.35834571281E+03  0.55695460761E+03  0.81796325211E+02 0.  0.
        -13    1    4    4    0    0  0.98574932901E+01 -0.19509612644E+02 -0.25897984456E+01  0.22011411028E+02  0.00000000000E+00 0.  1.
         14    1    4    4    0    0  0.33698173705E+03 -0.21458159720E+03 -0.35575591436E+03  0.53494319658E+03  0.00000000000E+00 0. -1.
        -11    1    3    3    0    0 -0.66569391446E+02 -0.16466489743E+03 -0.16079628737E+03  0.23958601452E+03  0.00000000000E+00 0. -1.
         11    1    3    3    0    0 -0.43731044686E+02 -0.18143641608E+03 -0.33332368272E+03  0.38201604000E+03  0.00000000000E+00 0.  1.
          1    1    1    2  501    0 -0.23653879421E+03  0.58019252336E+03 -0.18160743655E+04  0.19211194826E+04  0.00000000000E+00 0. -1.
<scales pt_clust_5="13000.00000" pt_clust_6="13000.00000" pt_clust_7="13000.00000" pt_clust_8="13000.00000" pt_clust_9="443.87964"></scales>
<clustering>
<clus scale="   81.796">  5  6 -1 -1</clus>
<clus scale="  101.401">  7  8 -1 -1</clus>
<clus scale="  377.140">  2  7  1 -1</clus>
<clus scale="  443.880">  1  9  2 -1</clus>
<clus scale="  443.880">  1  5  2 -1</clus>
</clustering>
</event>
<event>
 9    2  0.1665830E-004  0.1219174E+03  0.7546771E-02  0.1244260E+00
          2   -1    0    0  502    0 -0.00000000000E+00  0.00000000000E+00  0.78354782824E+03  0.78354782824E+03  0.00000000000E+00 0. -1.
         21   -1    0    0  501  502  0.00000000000E+00 -0.00000000000E+00 -0.40573624427E+02  0.40573624427E+02  0.00000000000E+00 0.  1.
         23    2    1    2    0    0  0.84673656893E+02 -0.68406514340E+02  0.50334123870E+03  0.52318514457E+03  0.92310419462E+02 0.  0.
         24    2    1    2    0    0  0.19446164642E+01  0.51047840764E+02  0.12841102436E+03  0.15889980247E+03  0.78422525256E+02 0.  0.
        -13    1    4    4    0    0  0.14600154561E+01  0.69487436603E+02  0.74343249369E+02  0.10177206993E+03  0.00000000000E+00 0.  1.
         14    1    4    4    0    0  0.48460100800E+00 -0.18439595838E+02  0.54067774987E+02  0.57127732538E+02  0.00000000000E+00 0. -1.
        -11    1    3    3    0    0  0.52659113647E+02  0.44833812854E+00  0.10273053061E+03  0.11544152275E+03  0.00000000000E+00 0.  1.
         11    1    3    3    0    0  0.32014543247E+02 -0.68854852468E+02  0.40061070810E+03  0.40774362182E+03  0.00000000000E+00 0. -1.
          1    1    1    2  501    0 -0.86618273358E+02  0.17358673576E+02  0.11122194075E+03  0.14203650564E+03  0.00000000000E+00 0. -1.
<scales pt_clust_5="13000.00000" pt_clust_6="13000.00000" pt_clust_7="13000.00000" pt_clust_8="13000.00000" pt_clust_9="88.34053"></scales>
<clustering>
<clus scale="   78.423">  5  6 -1 -1</clus>
<clus scale="   88.341">  2  9  1 -1</clus>
<clus scale="   92.310">  7  8 -1 -1</clus>
<clus scale="  111.771">  2  5  1 -1</clus>
<clus scale="   88.341">  2  5  1 -1</clus>
</clustering>
</event>
<event>
 9    2  0.1665830E-004  0.1130133E+03  0.7546771E-02  0.1258104E+00
          2   -1    0    0  502    0 -0.00000000000E+00  0.00000000000E+00  0.61691083282E+02  0.61691083282E+02  0.00000000000E+00 0. -1.
         21   -1    0    0  501  502  0.00000000000E+00 -0.00000000000E+00 -0.37639874605E+03  0.37639874605E+03  0.00000000000E+00 0. -1.
         24    2    1    2    0    0 -0.57730572383E+02  0.40489523943E+02 -0.21784991381E+02  0.11158732351E+03  0.83695426295E+02 0.  0.
         23    2    1    2    0    0  0.29045897627E+02 -0.38229514945E+02 -0.27154488949E+03  0.29065661672E+03  0.91866652558E+02 0.  0.
        -11    1    3    3    0    0 -0.72892324001E+02  0.49223730448E+02 -0.62318706237E+01  0.88176543076E+02  0.00000000000E+00 0.  1.
         12    1    3    3    0    0  0.15161751618E+02 -0.87342065044E+01 -0.15553120757E+02  0.23410780437E+02  0.00000000000E+00 0. -1.
        -11    1    4    4    0    0 -0.15462584598E+02  0.23064786672E+02 -0.66350757367E+02  0.71927038795E+02  0.00000000000E+00 0.  1.
         11    1    4    4    0    0  0.44508482225E+02 -0.61294301617E+02 -0.20519413212E+03  0.21872957792E+03  0.00000000000E+00 0. -1.
          1    1    1    2  501    0  0.28684674756E+02 -0.22600089982E+01 -0.21377781899E+02  0.35845889101E+02  0.00000000000E+00 0. -1.
<scales pt_clust_5="13000.00000" pt_clust_6="13000.00000" pt_clust_7="13000.00000" pt_clust_8="13000.00000" pt_clust_9="28.77358"></scales>
<clustering>
<clus scale="   28.774">  2  9  1 -1</clus>
<clus scale="   83.695">  5  6 -1 -1</clus>
<clus scale="   91.867">  7  8 -1 -1</clus>
<clus scale="  106.477">  1  5  2 -1</clus>
<clus scale="   28.774">  2  5  1 -1</clus>
</clustering>
</event>
<event>
 9    2  0.1783973E-004  0.1192940E+03  0.7546771E-02  0.1247231E+00
         21   -1    0    0  501  502  0.00000000000E+00  0.00000000000E+00  0.12867462151E+03  0.12867462151E+03  0.00000000000E+00 0.  1.
          4   -1    0    0  502    0 -0.00000000000E+00 -0.00000000000E+00 -0.41279216468E+03  0.41279216468E+03  0.00000000000E+00 0. -1.
         23    2    1    2    0    0 -0.62278117096E+02  0.22832271104E+02 -0.78186018549E+02  0.13555895137E+03  0.88675246414E+02 0.  0.
         24    2    1    2    0    0  0.13265420155E+03  0.61305862080E+02  0.70508542561E+01  0.16633840348E+03  0.79140406953E+02 0.  0.
        -13    1    4    4    0    0  0.93697290304E+02  0.58530579673E+02  0.37658268852E+02  0.11671827698E+03  0.00000000000E+00 0.  1.
         14    1    4    4    0    0  0.38956911244E+02  0.27752824072E+01 -0.30607414596E+02  0.49620126505E+02  0.00000000000E+00 0. -1.
        -11    1    3    3    0    0 -0.79645381757E+02  0.95250197232E+01 -0.35759061638E+02  0.87822681155E+02  0.00000000000E+00 0. -1.
         11    1    3    3    0    0  0.17367264661E+02  0.13307251380E+02 -0.42426956911E+02  0.47736270213E+02  0.00000000000E+00 0.  1.
          3    1    1    2  501    0 -0.70376084452E+02 -0.84138133184E+02 -0.21298237888E+03  0.23956943133E+03  0.00000000000E+00 0. -1.
<scales pt_clust_5="13000.00000" pt_clust_6="13000.00000" pt_clust_7="13000.00000" pt_clust_8="13000.00000" pt_clust_9="109.69061"></scales>
<clustering>
<clus scale="   79.140">  5  6 -1 -1</clus>
<clus scale="   88.675">  7  8 -1 -1</clus>
<clus scale="  109.691">  1  9  2 -1</clus>
<clus scale="  112.388">  1  5  2 -1</clus>
<clus scale="  109.691">  1  5  2 -1</clus>
</clustering>
</event>
<event>
 9    2  0.1665830E-004  0.9769352E+02  0.7546771E-02  0.1290872E+00
         21   -1    0    0  501  502  0.00000000000E+00  0.00000000000E+00  0.13487602494E+04  0.13487602494E+04  0.00000000000E+00 0. -1.
         -1   -1    0    0    0  501 -0.00000000000E+00 -0.00000000000E+00 -0.20264351941E+02  0.20264351941E+02  0.00000000000E+00 0.  1.
         23    2    1    2    0    0  0.15140585083E+01  0.33556172405E+02  0.14094218611E+03  0.17097591140E+03  0.90773087291E+02 0.  0.
         24    2    1    2    0    0  0.21512691670E+02 -0.54200143277E+02  0.11120900197E+04  0.11164939628E+04  0.80088111879E+02 0.  0.
        -13    1    4    4    0    0  0.31062167317E+02 -0.63420128323E+01  0.15759444162E+03  0.16075163264E+03  0.00000000000E+00 0.  1.
         14    1    4    4    0    0 -0.95494756470E+01 -0.47858130444E+02  0.95449557809E+03  0.95574233019E+03  0.00000000000E+00 0. -1.
        -13    1    3    3    0    0 -0.74369875292E+01  0.60244118783E+02  0.60297324580E+02  0.85559511353E+02  0.00000000000E+00 0.  1.
         13    1    3    3    0    0  0.89510460375E+01 -0.26687946378E+02  0.80644861526E+02  0.85416400050E+02  0.00000000000E+00 0. -1.
         -2    1    1    2    0  502 -0.23026750179E+02  0.20643970872E+02  0.75463691657E+02  0.81554727121E+02  0.00000000000E+00 0.  1.
<scales pt_clust_5="13000.00000" pt_clust_6="13000.00000" pt_clust_7="13000.00000" pt_clust_8="13000.00000" pt_clust_9="30.92581"></scales>
<clustering>
<clus scale="   30.926">  1  9  2 -1</clus>
<clus scale="   80.088">  5  6 -1 -1</clus>
<clus scale="   87.854">  1  5  2 -1</clus>
<clus scale="   90.773">  7  8 -1 -1</clus>
<clus scale="   30.926">  1  5  2 -1</clus>
</clustering>
</event>
<event>
 9    2  0.1785242E-004  0.2583116E+03  0.7546771E-02  0.1108521E+00
          2   -1    0    0  502    0 -0.00000000000E+00  0.00000000000E+00  0.13126536638E+04  0.13126536638E+04  0.00000000000E+00 0. -1.
         21   -1    0    0  501  502  0.00000000000E+00 -0.00000000000E+00 -0.88469583231E+02  0.88469583231E+02  0.00000000000E+00 0. -1.
         24    2    1    2    0    0 -0.23982041053E+03 -0.20317789633E+03  0.74543703943E+03  0.81322102549E+03  0.82806821429E+02 0.  0.
         23    2    1    2    0    0  0.11289829502E+03  0.12999076435E+03  0.20957537032E+03  0.28144020421E+03  0.75120761909E+02 0.  0.
        -11    1    3    3    0    0 -0.59358351657E+02 -0.42445245372E+02  0.98239829976E+02  0.12237678277E+03  0.00000000000E+00 0.  1.
         12    1    3    3    0    0 -0.18046205888E+03 -0.16073265095E+03  0.64719720946E+03  0.69084424272E+03  0.00000000000E+00 0. -1.
        -11    1    4    4    0    0  0.78999687207E+02  0.40014973114E+02  0.75013051992E+02  0.11605648031E+03  0.00000000000E+00 0. -1.
         11    1    4    4    0    0  0.33898607811E+02  0.89975791236E+02  0.13456231832E+03  0.16538372391E+03  0.00000000000E+00 0.  1.
          1    1    1    2  501    0  0.12692211552E+03  0.73187131977E+02  0.26917167084E+03  0.30646201735E+03  0.00000000000E+00 0. -1.
<scales pt_clust_5="13000.00000" pt_clust_6="13000.00000" pt_clust_7="13000.00000" pt_clust_8="13000.00000" pt_clust_9="146.51144"></scales>
<clustering>
<clus scale="   75.121">  7  8 -1 -1</clus>
<clus scale="   82.807">  5  6 -1 -1</clus>
<clus scale="  146.511">  2  9  1 -1</clus>
<clus scale="  255.951">  2  7  1 -1</clus>
<clus scale="  146.511">  2  5  1 -1</clus>
</clustering>
</event>
<event>
 9    2  0.1665830E-004  0.1046486E+03  0.7546771E-02  0.1276424E+00
          2   -1    0    0  502    0 -0.00000000000E+00  0.00000000000E+00  0.29119533640E+02  0.29119533640E+02  0.00000000000E+00 0. -1.
         21   -1    0    0  501  502  0.00000000000E+00 -0.00000000000E+00 -0.98320206244E+03  0.98320206244E+03  0.00000000000E+00 0. -1.
         24    2    1    2    0    0  0.42566225599E+02  0.67788837543E+02 -0.28133707347E+03  0.30254098083E+03  0.77287037202E+02 0.  0.
         23    2    1    2    0    0  0.45812878814E+02 -0.25539691055E+02 -0.50410690056E+03  0.51475544089E+03  0.89990560907E+02 0.  0.
        -11    1    3    3    0    0  0.98925619556E+01  0.70294152297E+02 -0.23703543571E+03  0.24743671597E+03  0.00000000000E+00 0.  1.
         12    1    3    3    0    0  0.32673663643E+02 -0.25053147543E+01 -0.44301637758E+02  0.55104264862E+02  0.00000000000E+00 0. -1.
        -11    1    4    4    0    0  0.72849323049E+02 -0.16476214777E+02 -0.39394773442E+03  0.40096546856E+03  0.00000000000E+00 0. -1.
         11    1    4    4    0    0 -0.27036444235E+02 -0.90634762775E+01 -0.11015916614E+03  0.11378997233E+03  0.00000000000E+00 0.  1.
          1    1    1    2  501    0 -0.88379104413E+02 -0.42249146488E+02 -0.16863855477E+03  0.19502517435E+03  0.00000000000E+00 0. -1.
<scales pt_clust_5="13000.00000" pt_clust_6="13000.00000" pt_clust_7="13000.00000" pt_clust_8="13000.00000" pt_clust_9="97.95849"></scales>
<clustering>
<clus scale="   77.287">  5  6 -1 -1</clus>
<clus scale="   89.991">  7  8 -1 -1</clus>
<clus scale="   97.958">  2  9  1 -1</clus>
<clus scale="   93.948">  1  5  2 -1</clus>
<clus scale="   97.958">  2  5  1 -1</clus>
</clustering>
</event>
<event>
 9    2  0.1665830E-004  0.1782944E+03  0.7546771E-02  0.1180929E+00
         21   -1    0    0  501  502  0.00000000000E+00  0.00000000000E+00  0.47690462747E+02  0.47690462747E+02  0.00000000000E+00 0. -1.
          2   -1    0    0  502    0 -0.00000000000E+00 -0.00000000000E+00 -0.15840235917E+04  0.15840235917E+04  0.00000000000E+00 0. -1.
         24    2    1    2    0    0  0.10757152956E+03  0.40592083907E+02 -0.27504075465E+03  0.30749123620E+03  0.75392919929E+02 0.  0.
         23    2    1    2    0    0 -0.33827176019E+02 -0.16389974204E+03 -0.32406971055E+03  0.37605124638E+03  0.91574883729E+02 0.  0.
        -13    1    3    3    0    0  0.34917525500E+02 -0.18351093614E+02 -0.49351484091E+02  0.63178835110E+02  0.00000000000E+00 0.  1.
         14    1    3    3    0    0  0.72654004058E+02  0.58943177522E+02 -0.22568927056E+03  0.24431240109E+03  0.00000000000E+00 0. -1.
        -13    1    4    4    0    0 -0.33055796095E+02 -0.10764292736E+02 -0.88479203543E+02  0.95063794965E+02  0.00000000000E+00 0.  1.
         13    1    4    4    0    0 -0.77137992371E+00 -0.15313544931E+03 -0.23559050700E+03  0.28098745141E+03  0.00000000000E+00 0. -1.
          1    1    1    2  501    0 -0.73744353539E+02  0.12330765814E+03 -0.93722266374E+03  0.94817157185E+03  0.00000000000E+00 0. -1.
<scales pt_clust_5="13000.00000" pt_clust_6="13000.00000" pt_clust_7="13000.00000" pt_clust_8="13000.00000" pt_clust_9="152.98022"></scales>
<clustering>
<clus scale="   75.393">  5  6 -1 -1</clus>
<clus scale="   91.575">  7  8 -1 -1</clus>
<clus scale="  137.490">  2  5  1 -1</clus>
<clus scale="  152.980">  1  9  2 -1</clus>
<clus scale="  152.980">  1  5  2 -1</clus>
</clustering>
</event>
<event>
 9    2  0.1665830E-004  0.2176197E+03  0.7546771E-02  0.1136570E+00
         21   -1    0    0  501  502  0.00000000000E+00  0.00000000000E+00  0.10337583013E+03  0.10337583013E+03  0.00000000000E+00 0. -1.
          2   -1    0    0  502    0 -0.00000000000E+00 -0.00000000000E+00 -0.21511079885E+04  0.21511079885E+04  0.00000000000E+00 0. -1.
         24    2    1    2    0    0 -0.10594976880E+03 -0.17671033110E+03 -0.15503159754E+04  0.15659167853E+04  0.78510255865E+02 0.  0.
         23    2    1    2    0    0  0.74108226993E+02  0.16485072067E+03 -0.57196947479E+03  0.60663579711E+03  0.90499286341E+02 0.  0.
        -11    1    3    3    0    0 -0.46379208247E+02 -0.50524239718E+02 -0.29492650128E+03  0.30279592288E+03  0.00000000000E+00 0.  1.
         12    1    3    3    0    0 -0.59570560548E+02 -0.12618609139E+03 -0.12553894741E+04  0.12631208624E+04  0.00000000000E+00 0. -1.
        -11    1    4    4    0    0 -0.89552030224E+01  0.75871691520E+02 -0.28172075008E+03  0.29189602645E+03  0.00000000000E+00 0. -1.
         11    1    4    4    0    0  0.83063430016E+02  0.88979029151E+02 -0.29024872471E+03  0.31473977065E+03  0.00000000000E+00 0.  1.
          1    1    1    2  501    0  0.31841541802E+02  0.11859610434E+02  0.74553291829E+02  0.81931236208E+02  0.00000000000E+00 0. -1.
<scales pt_clust_5="13000.00000" pt_clust_6="13000.00000" pt_clust_7="13000.00000" pt_clust_8="13000.00000" pt_clust_9="33.97844"></scales>
<clustering>
<clus scale="   33.978">  1  9  2 -1</clus>
<clus scale="   78.510">  5  6 -1 -1</clus>
<clus scale="   90.499">  7  8 -1 -1</clus>
<clus scale="  212.913">  2  5  1 -1</clus>
<clus scale="   33.978">  1  5  2 -1</clus>
</clustering>
</event>
<event>
 9    2  0.1665830E-004  0.2218243E+03  0.7546771E-02  0.1133257E+00
         21   -1    0    0  501  502  0.00000000000E+00  0.00000000000E+00  0.65018868749E+02  0.65018868749E+02  0.00000000000E+00 0. -1.
          2   -1    0    0  502    0 -0.00000000000E+00 -0.00000000000E+00 -0.14243010444E+04  0.14243010444E+04  0.00000000000E+00 0. -1.
         24    2    1    2    0    0  0.19370811203E+03 -0.29560770712E+02 -0.10534847928E+04  0.10746866937E+04  0.82003714844E+02 0.  0.
         23    2    1    2    0    0 -0.22448264767E+03  0.42841070994E+02 -0.27391368015E+03  0.36837298898E+03  0.91881109968E+02 0.  0.
        -11    1    3    3    0    0  0.46451033339E+02 -0.29561331135E+02 -0.16148484830E+03  0.17061338467E+03  0.00000000000E+00 0.  1.
         12    1    3    3    0    0  0.14725707869E+03  0.56042394671E-03 -0.89199994446E+03  0.90407330905E+03  0.00000000000E+00 0. -1.
        -11    1    4    4    0    0 -0.19915285917E+03  0.30988838300E+01 -0.22265407921E+03  0.29874119800E+03  0.00000000000E+00 0.  1.
         11    1    4    4    0    0 -0.25329788499E+02  0.39742187164E+02 -0.51259600944E+02  0.69631790979E+02  0.00000000000E+00 0. -1.
          1    1    1    2  501    0  0.30774535641E+02 -0.13280300283E+02 -0.31883702703E+02  0.46260230410E+02  0.00000000000E+00 0. -1.
<scales pt_clust_5="13000.00000" pt_clust_6="13000.00000" pt_clust_7="13000.00000" pt_clust_8="13000.00000" pt_clust_9="33.51773"></scales>
<clustering>
<clus scale="   33.518">  1  9  2 -1</clus>
<clus scale="   82.004">  5  6 -1 -1</clus>
<clus scale="   91.881">  7  8 -1 -1</clus>
<clus scale="  217.919">  2  5  1 -1</clus>
<clus scale="   33.518">  1  5  2 -1</clus>
</clustering>
</event>
<event>
 9    2  0.1665830E-004  0.3138452E+03  0.7546771E-02  0.1099436E+00
          2   -1    0    0  502    0 -0.00000000000E+00  0.00000000000E+00  0.58832824170E+03  0.58832824170E+03  0.00000000000E+00 0. -1.
         21   -1    0    0  501  502  0.00000000000E+00 -0.00000000000E+00 -0.35651110882E+03  0.35651110882E+03  0.00000000000E+00 0. -1.
         24    2    1    2    0    0 -0.13986589789E+03  0.81923342235E+02  0.18752703257E+03  0.26016320319E+03  0.79022787570E+02 0.  0.
         23    2    1    2    0    0 -0.94513278724E+02 -0.28783872410E+03  0.15661228976E+03  0.35308752091E+03  0.91430285868E+02 0.  0.
        -11    1    3    3    0    0 -0.68081793499E+01  0.23717703384E+02  0.22914834027E+01  0.24781679847E+02  0.00000000000E+00 0.  1.
         12    1    3    3    0    0 -0.13305771854E+03  0.58205638851E+02  0.18523554916E+03  0.23538152334E+03  0.00000000000E+00 0. -1.
        -11    1    4    4    0    0 -0.20481485437E+02 -0.20076594511E+03  0.91896162105E+02  0.22174616247E+03  0.00000000000E+00 0. -1.
         11    1    4    4    0    0 -0.74031793288E+02 -0.87072778991E+02  0.64716127657E+02  0.13134135844E+03  0.00000000000E+00 0.  1.
          1    1    1    2  501    0  0.23437917662E+03  0.20591538187E+03 -0.11232218945E+03  0.33158862641E+03  0.00000000000E+00 0. -1.
<scales pt_clust_5="13000.00000" pt_clust_6="13000.00000" pt_clust_7="13000.00000" pt_clust_8="13000.00000" pt_clust_9="300.23205"></scales>
<clustering>
<clus scale="   79.023">  5  6 -1 -1</clus>
<clus scale="   91.430">  7  8 -1 -1</clus>
<clus scale="  180.329">  1  5  2 -1</clus>
<clus scale="  300.232">  2  9  1 -1</clus>
<clus scale="  300.232">  2  5  1 -1</clus>
</clustering>
</event>
<event>
 9    2  0.1665830E-004  0.1851055E+03  0.7546771E-02  0.1182264E+00
         21   -1    0    0  501  502  0.00000000000E+00  0.00000000000E+00  0.84626136949E+03  0.84626136949E+03  0.00000000000E+00 0.  1.
          2   -1    0    0  502    0 -0.00000000000E+00 -0.00000000000E+00 -0.10799125087E+03  0.10799125087E+03  0.00000000000E+00 0. -1.
         23    2    1    2    0    0 -0.68513878701E+02 -0.31173853056E+02  0.90046409036E+02  0.14942200269E+03  0.92480367740E+02 0.  0.
         24    2    1    2    0    0 -0.40781765901E+02  0.16091170733E+03  0.61833462489E+02  0.19439555099E+03  0.80065742823E+02 0.  0.
        -11    1    4    4    0    0 -0.15038156836E+01  0.13916038180E+03  0.50903184200E+02  0.14818571957E+03  0.00000000000E+00 0.  1.
         12    1    4    4    0    0 -0.39277950217E+02  0.21751325532E+02  0.10930278289E+02  0.46209831412E+02  0.00000000000E+00 0. -1.
        -11    1    3    3    0    0 -0.33666801185E+02 -0.31390553804E+02  0.10254360755E+03  0.11240112018E+03  0.00000000000E+00 0. -1.
         11    1    3    3    0    0 -0.34847077516E+02  0.21670074727E+00 -0.12497198510E+02  0.37020882502E+02  0.00000000000E+00 0.  1.
          1    1    1    2  501    0  0.10929564460E+03 -0.12973785428E+03  0.58639024710E+03  0.61043506670E+03  0.00000000000E+00 0. -1.
<scales pt_clust_5="13000.00000" pt_clust_6="13000.00000" pt_clust_7="13000.00000" pt_clust_8="13000.00000" pt_clust_9="166.89370"></scales>
<clustering>
<clus scale="   80.066">  5  6 -1 -1</clus>
<clus scale="   92.480">  7  8 -1 -1</clus>
<clus scale="  119.242">  2  7  1 -1</clus>
<clus scale="  166.894">  1  9  2 -1</clus>
<clus scale="  166.894">  1  5  2 -1</clus>
</clustering>
</event>
<event>
 9    2  0.1665830E-004  0.1012471E+03  0.7546771E-02  0.1286100E+00
          2   -1    0    0  502    0 -0.00000000000E+00  0.00000000000E+00  0.17965975100E+03  0.17965975100E+03  0.00000000000E+00 0. -1.
         21   -1    0    0  501  502  0.00000000000E+00 -0.00000000000E+00 -0.15371416471E+03  0.15371416471E+03  0.00000000000E+00 0.  1.
         23    2    1    2    0    0  0.18362592854E+02  0.37347995179E+02  0.60836703167E+02  0.12204638917E+03  0.97273630022E+02 0.  0.
         24    2    1    2    0    0 -0.21289298328E+02  0.35749192043E+02 -0.83119015875E+02  0.12370507150E+03  0.81626802945E+02 0.  0.
        -11    1    4    4    0    0 -0.29968303280E+02  0.58875392622E+02 -0.52624977271E+02  0.84461821498E+02  0.00000000000E+00 0.  1.
         12    1    4    4    0    0  0.86790049514E+01 -0.23126200579E+02 -0.30494038604E+02  0.39243250000E+02  0.00000000000E+00 0. -1.
        -11    1    3    3    0    0 -0.69164308983E+01  0.41367717585E+02  0.79826857248E+02  0.90174565220E+02  0.00000000000E+00 0. -1.
         11    1    3    3    0    0  0.25279023752E+02 -0.40197224055E+01 -0.18990154080E+02  0.31871823953E+02  0.00000000000E+00 0.  1.
          1    1    1    2  501    0  0.29267054745E+01 -0.73097187223E+02  0.48227899005E+02  0.87622455040E+02  0.00000000000E+00 0. -1.
<scales pt_clust_5="13000.00000" pt_clust_6="13000.00000" pt_clust_7="13000.00000" pt_clust_8="13000.00000" pt_clust_9="73.15579"></scales>
<clustering>
<clus scale="   73.156">  2  9  1 -1</clus>
<clus scale="   81.627">  5  6 -1 -1</clus>
<clus scale="   86.323">  2  5  1 -1</clus>
<clus scale="   97.274">  7  8 -1 -1</clus>
<clus scale="   73.156">  2  5  1 -1</clus>
</clustering>
</event>
<event>
 9    2  0.1665830E-004  0.2211062E+03  0.7546771E-02  0.1133778E+00
         -1   -1    0    0    0  501 -0.00000000000E+00  0.00000000000E+00  0.45525784005E+03  0.45525784005E+03  0.00000000000E+00 0.  1.
         21   -1    0    0  501  502  0.00000000000E+00 -0.00000000000E+00 -0.20433966611E+03  0.20433966611E+03  0.00000000000E+00 0.  1.
         23    2    1    2    0    0  0.23395958281E+03 -0.78170146593E+02  0.22991018407E+03  0.34900580008E+03  0.89992763844E+02 0.  0.
         24    2    1    2    0    0 -0.98676307269E+02  0.10396197985E+03 -0.23455749241E+02  0.16587195138E+03  0.80113826590E+02 0.  0.
        -11    1    4    4    0    0 -0.65282073524E+02  0.49230955878E+02 -0.50701528809E+02  0.96208529580E+02  0.00000000000E+00 0.  1.
         12    1    4    4    0    0 -0.33394233745E+02  0.54731023968E+02  0.27245779569E+02  0.69663421796E+02  0.00000000000E+00 0. -1.
        -11    1    3    3    0    0  0.58046638442E+02  0.17804787337E+02  0.69759065401E+02  0.92481078563E+02  0.00000000000E+00 0. -1.
         11    1    3    3    0    0  0.17591294437E+03 -0.95974933930E+02  0.16015111866E+03  0.25652472152E+03  0.00000000000E+00 0.  1.
         -2    1    1    2    0  502 -0.13528327554E+03 -0.25791833253E+02  0.44463739119E+02  0.14471975470E+03  0.00000000000E+00 0.  1.
<scales pt_clust_5="13000.00000" pt_clust_6="13000.00000" pt_clust_7="13000.00000" pt_clust_8="13000.00000" pt_clust_9="137.71995"></scales>
<clustering>
<clus scale="   80.114">  5  6 -1 -1</clus>
<clus scale="   89.993">  7  8 -1 -1</clus>
<clus scale="  137.720">  2  9  1 -1</clus>
<clus scale="  217.273">  2  5  1 -1</clus>
<clus scale="  137.720">  2  5  1 -1</clus>
</clustering>
</event>
<event>
 9    2  0.1665830E-004  0.3214405E+03  0.7546771E-02  0.1096642E+00
         21   -1    0    0  501  502  0.00000000000E+00  0.00000000000E+00  0.24453245200E+03  0.24453245200E+03  0.00000000000E+00 0. -1.
          2   -1    0    0  502    0 -0.00000000000E+00 -0.00000000000E+00 -0.10408979243E+04  0.10408979243E+04  0.00000000000E+00 0. -1.
         24    2    1    2    0    0 -0.89297580840E+02 -0.13483092038E+03 -0.11659719473E+03  0.21489743169E+03  0.80203274827E+02 0.  0.
         23    2    1    2    0    0 -0.56044759424E+02 -0.16947126067E+03 -0.70458287489E+03  0.73239099585E+03  0.89988999146E+02 0.  0.
        -13    1    3    3    0    0 -0.86853985304E+02 -0.14436956524E+03 -0.10095206298E+03  0.19641157082E+03  0.00000000000E+00 0.  1.
         14    1    3    3    0    0 -0.24435955363E+01  0.95386448574E+01 -0.15645131742E+02  0.18485860870E+02  0.00000000000E+00 0. -1.
        -11    1    4    4    0    0 -0.36654938313E+02 -0.86970107281E+02 -0.20514630576E+03  0.22581494820E+03  0.00000000000E+00 0. -1.
         11    1    4    4    0    0 -0.19389821111E+02 -0.82501153387E+02 -0.49943656912E+03  0.50657604765E+03  0.00000000000E+00 0.  1.
          1    1    1    2  501    0  0.14534234026E+03  0.30430218105E+03  0.24814597334E+02  0.33814194875E+03  0.00000000000E+00 0. -1.
<scales pt_clust_5="13000.00000" pt_clust_6="13000.00000" pt_clust_7="13000.00000" pt_clust_8="13000.00000" pt_clust_9="308.58708"></scales>
<clustering>
<clus scale="   80.203">  5  6 -1 -1</clus>
<clus scale="   89.989">  7  8 -1 -1</clus>
<clus scale="  180.516">  2  5  1 -1</clus>
<clus scale="  308.587">  1  9  2 -1</clus>
<clus scale="  308.587">  1  5  2 -1</clus>
</clustering>
</event>
<event>
 9    2  0.1665830E-004  0.1154752E+03  0.7546771E-02  0.1255273E+00
         -3   -1    0    0    0  501 -0.00000000000E+00  0.00000000000E+00  0.41787184329E+03  0.41787184329E+03  0.00000000000E+00 0.  1.
         21   -1    0    0  501  502  0.00000000000E+00 -0.00000000000E+00 -0.44578395063E+02  0.44578395063E+02  0.00000000000E+00 0.  1.
         23    2    1    2    0    0 -0.69370190335E+02  0.75658564557E+01  0.22490490932E+03  0.25309997438E+03  0.92778840826E+02 0.  0.
         24    2    1    2    0    0  0.67228300234E+02  0.24890805118E+02  0.13856920903E+03  0.17537318621E+03  0.80094520528E+02 0.  0.
        -13    1    4    4    0    0  0.49210793446E+02  0.39644429770E+02  0.13833424179E+03  0.15208466542E+03  0.00000000000E+00 0.  1.
         14    1    4    4    0    0  0.18017506788E+02 -0.14753624651E+02  0.23496724192E+00  0.23288520795E+02  0.00000000000E+00 0. -1.
        -13    1    3    3    0    0 -0.69348322601E+01 -0.34238408212E+02  0.37793929921E+02  0.51465926925E+02  0.00000000000E+00 0. -1.
         13    1    3    3    0    0 -0.62435358075E+02  0.41804264668E+02  0.18711097940E+03  0.20163404746E+03  0.00000000000E+00 0.  1.
         -4    1    1    2    0  502  0.21418901015E+01 -0.32456661574E+02  0.98193298715E+01  0.33977077757E+02  0.00000000000E+00 0.  1.
<scales pt_clust_5="13000.00000" pt_clust_6="13000.00000" pt_clust_7="13000.00000" pt_clust_8="13000.00000" pt_clust_9="32.52726"></scales>
<clustering>
<clus scale="   32.527">  2  9  1 -1</clus>
<clus scale="   80.095">  5  6 -1 -1</clus>
<clus scale="   92.779">  7  8 -1 -1</clus>
<clus scale="  105.554">  2  5  1 -1</clus>
<clus scale="   32.527">  2  5  1 -1</clus>
</clustering>
</event>
<event>
 9    2  0.1665830E-004  0.1202013E+03  0.7546771E-02  0.1242970E+00
         21   -1    0    0  501  502  0.00000000000E+00  0.00000000000E+00  0.57608260877E+03  0.57608260877E+03  0.00000000000E+00 0.  1.
          2   -1    0    0  502    0 -0.00000000000E+00 -0.00000000000E+00 -0.80749292458E+02  0.80749292458E+02  0.00000000000E+00 0. -1.
         24    2    1    2    0    0  0.80974770204E+02  0.42489787241E+00  0.10514068875E+03  0.16059155545E+03  0.90432235973E+02 0.  0.
         23    2    1    2    0    0 -0.57391758225E+02 -0.89275307798E+02  0.37857271452E+03  0.40358196150E+03  0.91088994781E+02 0.  0.
        -13    1    3    3    0    0  0.47518563887E+02 -0.41160874492E+02  0.33442013362E+02  0.71208143920E+02  0.00000000000E+00 0.  1.
         14    1    3    3    0    0  0.33456206316E+02  0.41585772364E+02  0.71698675385E+02  0.89383411527E+02  0.00000000000E+00 0. -1.
        -11    1    4    4    0    0 -0.65116733167E+02 -0.29930442516E+02  0.13589695319E+03  0.15363594050E+03  0.00000000000E+00 0.  1.
         11    1    4    4    0    0  0.77249749416E+01 -0.59344865282E+02  0.24267576133E+03  0.24994602099E+03  0.00000000000E+00 0. -1.
          1    1    1    2  501    0 -0.23583011979E+02  0.88850409926E+02  0.11619913036E+02  0.92658384278E+02  0.00000000000E+00 0. -1.
<scales pt_clust_5="13000.00000" pt_clust_6="13000.00000" pt_clust_7="13000.00000" pt_clust_8="13000.00000" pt_clust_9="91.92694"></scales>
<clustering>
<clus scale="   90.432">  5  6 -1 -1</clus>
<clus scale="   91.089">  7  8 -1 -1</clus>
<clus scale="   91.927">  1  9  2 -1</clus>
<clus scale="  119.704">  2  5  1 -1</clus>
<clus scale="   91.927">  1  5  2 -1</clus>
</clustering>
</event>
<event>
 9    2  0.1665830E-004  0.1807520E+03  0.7546771E-02  0.1194845E+00
         -3   -1    0    0    0  501 -0.00000000000E+00  0.00000000000E+00  0.10808739696E+04  0.10808739696E+04  0.00000000000E+00 0.  1.
         21   -1    0    0  501  502  0.00000000000E+00 -0.00000000000E+00 -0.52475256824E+02  0.52475256824E+02  0.00000000000E+00 0.  1.
         24    2    1    2    0    0 -0.25809222511E+02  0.47501039373E+02  0.36229941125E+03  0.37503943381E+03  0.80444072582E+02 0.  0.
         23    2    1    2    0    0  0.97330369443E+02  0.11289237858E+03  0.23075315430E+03  0.28887652698E+03  0.89357370508E+02 0.  0.
        -13    1    3    3    0    0 -0.50141201352E+02  0.51265819189E+02  0.25057257029E+03  0.26063180403E+03  0.00000000000E+00 0.  1.
         14    1    3    3    0    0  0.24331978841E+02 -0.37647798160E+01  0.11172684096E+03  0.11440762978E+03  0.00000000000E+00 0. -1.
        -13    1    4    4    0    0  0.73137943801E+02  0.18667907485E+02  0.85445543027E+02  0.11401136091E+03  0.00000000000E+00 0.  1.
         13    1    4    4    0    0  0.24192425642E+02  0.94224471093E+02  0.14530761128E+03  0.17486516607E+03  0.00000000000E+00 0. -1.
         -4    1    1    2    0  502 -0.71521146932E+02 -0.16039341795E+03  0.43534614725E+03  0.46943326566E+03  0.00000000000E+00 0.  1.
<scales pt_clust_5="13000.00000" pt_clust_6="13000.00000" pt_clust_7="13000.00000" pt_clust_8="13000.00000" pt_clust_9="157.11962"></scales>
<clustering>
<clus scale="   80.444">  5  6 -1 -1</clus>
<clus scale="   89.357">  7  8 -1 -1</clus>
<clus scale="   96.921">  1  5  2 -1</clus>
<clus scale="  157.120">  2  9  1 -1</clus>
<clus scale="  157.120">  2  5  1 -1</clus>
</clustering>
</event>
<event>
 9    2  0.1665830E-004  0.1275848E+03  0.7546771E-02  0.1247534E+00
          2   -1    0    0  502    0 -0.00000000000E+00  0.00000000000E+00  0.36673580205E+03  0.36673580205E+03  0.00000000000E+00 0. -1.
         21   -1    0    0  501  502  0.00000000000E+00 -0.00000000000E+00 -0.78630527720E+02  0.78630527720E+02  0.00000000000E+00 0. -1.
         24    2    1    2    0    0  0.43908848331E+02 -0.28296901231E+01  0.14877812154E+03  0.17456517727E+03  0.80012983674E+02 0.  0.
         23    2    1    2    0    0  0.24833870445E+02 -0.86177585778E+02  0.77277263289E+02  0.14235643547E+03  0.79058724284E+02 0.  0.
        -13    1    3    3    0    0 -0.16737753011E+02  0.18757070185E+02  0.58627815428E+02  0.63790287659E+02  0.00000000000E+00 0.  1.
         14    1    3    3    0    0  0.60646601342E+02 -0.21586760308E+02  0.90150306117E+02  0.11077488961E+03  0.00000000000E+00 0. -1.
        -13    1    4    4    0    0  0.37941374500E+02 -0.19357151942E+02  0.57291449549E+02  0.71390177347E+02  0.00000000000E+00 0.  1.
         13    1    4    4    0    0 -0.13107504055E+02 -0.66820433836E+02  0.19985813740E+02  0.70966258119E+02  0.00000000000E+00 0. -1.
          1    1    1    2  501    0 -0.68742718776E+02  0.89007275901E+02  0.62049889496E+02  0.12844471704E+03  0.00000000000E+00 0. -1.
<scales pt_clust_5="13000.00000" pt_clust_6="13000.00000" pt_clust_7="13000.00000" pt_clust_8="13000.00000" pt_clust_9="100.13793"></scales>
<clustering>
<clus scale="   79.059">  7  8 -1 -1</clus>
<clus scale="   80.013">  5  6 -1 -1</clus>
<clus scale="   91.313">  1  5  2 -1</clus>
<clus scale="  100.138">  2  9  1 -1</clus>
<clus scale="  100.138">  2  5  1 -1</clus>
</clustering>
</event>
<event>
 9    2  0.1665830E-004  0.1221370E+03  0.7546771E-02  0.1245145E+00
         21   -1    0    0  501  502  0.00000000000E+00  0.00000000000E+00  0.83495659617E+03  0.83495659617E+03  0.00000000000E+00 0. -1.
         -3   -1    0    0    0  501 -0.00000000000E+00 -0.00000000000E+00 -0.29510575165E+02  0.29510575165E+02  0.00000000000E+00 0.  1.
         23    2    1    2    0    0 -0.34032384625E+02 -0.64176922207E+02  0.13988441928E+03  0.18550588060E+03  0.97815645141E+02 0.  0.
         24    2    1    2    0    0  0.54242690966E+02  0.55140073061E+02  0.55990171698E+03  0.57100698387E+03  0.81094671662E+02 0.  0.
        -13    1    4    4    0    0  0.33880947293E+02  0.74491945048E+02  0.36290161813E+03  0.37201418374E+03  0.00000000000E+00 0.  1.
         14    1    4    4    0    0  0.20361743673E+02 -0.19351871988E+02  0.19700009885E+03  0.19899280013E+03  0.00000000000E+00 0. -1.
        -11    1    3    3    0    0 -0.41938559769E+02 -0.82780298341E+02  0.80750092775E+02  0.12301218668E+03  0.00000000000E+00 0.  1.
         11    1    3    3    0    0  0.79061751447E+01  0.18603376134E+02  0.59134326501E+02  0.62493693919E+02  0.00000000000E+00 0. -1.
         -4    1    1    2    0  502 -0.20210306342E+02  0.90368491462E+01  0.10565988475E+03  0.10795430687E+03  0.00000000000E+00 0.  1.
<scales pt_clust_5="13000.00000" pt_clust_6="13000.00000" pt_clust_7="13000.00000" pt_clust_8="13000.00000" pt_clust_9="22.13868"></scales>
<clustering>
<clus scale="   22.139">  1  9  2 -1</clus>
<clus scale="   81.095">  5  6 -1 -1</clus>
<clus scale="   97.816">  7  8 -1 -1</clus>
<clus scale="  109.206">  1  5  2 -1</clus>
<clus scale="   22.139">  1  5  2 -1</clus>
</clustering>
</event>
<event>
 9    2  0.1665830E-004  0.1891537E+03  0.7546771E-02  0.1189382E+00
         21   -1    0    0  501  502  0.00000000000E+00  0.00000000000E+00  0.41001658031E+03  0.41001658031E+03  0.00000000000E+00 0.  1.
          2   -1    0    0  502    0 -0.00000000000E+00 -0.00000000000E+00 -0.34151545843E+03  0.34151545843E+03  0.00000000000E+00 0. -1.
         23    2    1    2    0    0 -0.21845205702E+02  0.23957107185E+02  0.12470694473E+03  0.15699899519E+03  0.89697861915E+02 0.  0.
         24    2    1    2    0    0  0.34882245001E+02  0.16579505226E+03  0.20098577629E+03  0.27465280803E+03  0.79587136630E+02 0.  0.
        -13    1    4    4    0    0  0.50859504983E+02  0.10939066911E+03  0.16968288716E+03  0.20819531678E+03  0.00000000000E+00 0.  1.
         14    1    4    4    0    0 -0.15977259982E+02  0.56404383151E+02  0.31302889137E+02  0.66457491251E+02  0.00000000000E+00 0. -1.
        -11    1    3    3    0    0 -0.49029175464E+02  0.63535528248E+01  0.11160124235E+03  0.12206172608E+03  0.00000000000E+00 0.  1.
         11    1    3    3    0    0  0.27183969762E+02  0.17603554360E+02  0.13105702375E+02  0.34937269110E+02  0.00000000000E+00 0. -1.
          1    1    1    2  501    0 -0.13037039299E+02 -0.18975215945E+03 -0.25719159913E+03  0.31988023551E+03  0.00000000000E+00 0. -1.
<scales pt_clust_5="13000.00000" pt_clust_6="13000.00000" pt_clust_7="13000.00000" pt_clust_8="13000.00000" pt_clust_9="171.59557"></scales>
<clustering>
<clus scale="   79.587">  5  6 -1 -1</clus>
<clus scale="   89.698">  7  8 -1 -1</clus>
<clus scale="   95.378">  2  7  1 -1</clus>
<clus scale="  171.596">  1  9  2 -1</clus>
<clus scale="  171.596">  1  5  2 -1</clus>
</clustering>
</event>
<event>
 9    2  0.1665830E-004  0.9322074E+02  0.7546771E-02  0.1301496E+00
         -1   -1    0    0    0  501 -0.00000000000E+00  0.00000000000E+00  0.88972757876E+02  0.88972757876E+02  0.00000000000E+00 0.  1.
         21   -1    0    0  501  502  0.00000000000E+00 -0.00000000000E+00 -0.62155181967E+03  0.62155181967E+03  0.00000000000E+00 0.  1.
         23    2    1    2    0    0 -0.34882677786E+01  0.41855320420E+01  0.44318514289E+02  0.10262280315E+03  0.92399255016E+02 0.  0.
         24    2    1    2    0    0  0.58031785333E+02 -0.48259048670E+02 -0.25286701268E+03  0.27637006219E+03  0.82110055947E+02 0.  0.
        -13    1    4    4    0    0  0.72567763213E+02 -0.52809937792E+02 -0.24065958289E+03  0.25685015987E+03  0.00000000000E+00 0.  1.
         14    1    4    4    0    0 -0.14535977880E+02  0.45508891223E+01 -0.12207429792E+02  0.19519902327E+02  0.00000000000E+00 0. -1.
        -13    1    3    3    0    0 -0.33598476257E+02  0.29084618084E+02  0.12271824654E+01  0.44455355051E+02  0.00000000000E+00 0. -1.
         13    1    3    3    0    0  0.30110208478E+02 -0.24899086042E+02  0.43091331823E+02  0.58167448102E+02  0.00000000000E+00 0.  1.
         -2    1    1    2    0  502 -0.54543517554E+02  0.44073516628E+02 -0.32403056340E+03  0.33153171220E+03  0.00000000000E+00 0.  1.
<scales pt_clust_5="13000.00000" pt_clust_6="13000.00000" pt_clust_7="13000.00000" pt_clust_8="13000.00000" pt_clust_9="70.12468"></scales>
<clustering>
<clus scale="   70.125">  2  9  1 -1</clus>
<clus scale="   82.110">  5  6 -1 -1</clus>
<clus scale="   83.033">  2  5  1 -1</clus>
<clus scale="   92.399">  7  8 -1 -1</clus>
<clus scale="   70.125">  2  5  1 -1</clus>
</clustering>
</event>
<event>
 9    2  0.1665830E-004  0.9115687E+02  0.7546771E-02  0.1300655E+00
         -1   -1    0    0    0  501 -0.00000000000E+00  0.00000000000E+00  0.53974951195E+02  0.53974951195E+02  0.00000000000E+00 0.  1.
         21   -1    0    0  501  502  0.00000000000E+00 -0.00000000000E+00 -0.27441200413E+03  0.27441200413E+03  0.00000000000E+00 0. -1.
         24    2    1    2    0    0  0.31961746181E+01 -0.39894322639E+02 -0.45190060779E+02  0.10613595111E+03  0.87297915283E+02 0.  0.
         23    2    1    2    0    0 -0.60009567528E+01 -0.78602251714E+01 -0.11373028544E+03  0.14432367368E+03  0.88300341660E+02 0.  0.
        -11    1    3    3    0    0  0.18108624242E+02 -0.16371082687E+02  0.22338034799E+02  0.33089611949E+02  0.00000000000E+00 0.  1.
         12    1    3    3    0    0 -0.14912449624E+02 -0.23523239952E+02 -0.67528095578E+02  0.73046339156E+02  0.00000000000E+00 0. -1.
        -11    1    4    4    0    0 -0.18550003038E+00  0.30147111888E+02 -0.70993518679E+01  0.30972303150E+02  0.00000000000E+00 0.  1.
         11    1    4    4    0    0 -0.58154567224E+01 -0.38007337059E+02 -0.10663093357E+03  0.11335137053E+03  0.00000000000E+00 0. -1.
         -2    1    1    2    0  502  0.28047821347E+01  0.47754547811E+02 -0.61516706716E+02  0.77927330537E+02  0.00000000000E+00 0.  1.
<scales pt_clust_5="13000.00000" pt_clust_6="13000.00000" pt_clust_7="13000.00000" pt_clust_8="13000.00000" pt_clust_9="47.83684"></scales>
<clustering>
<clus scale="   47.837">  2  9  1 -1</clus>
<clus scale="   87.298">  5  6 -1 -1</clus>
<clus scale="   88.300">  7  8 -1 -1</clus>
<clus scale="   90.186">  1  5  2 -1</clus>
<clus scale="   47.837">  2  5  1 -1</clus>
</clustering>
</event>
<event>
 9    2  0.1665830E-004  0.1709768E+03  0.7546771E-02  0.1178297E+00
          2   -1    0    0  502    0 -0.00000000000E+00  0.00000000000E+00  0.34463680604E+02  0.34463680604E+02  0.00000000000E+00 0. -1.
         21   -1    0    0  501  502  0.00000000000E+00 -0.00000000000E+00 -0.12802514243E+04  0.12802514243E+04  0.00000000000E+00 0. -1.
         24    2    1    2    0    0 -0.55744271740E+01  0.11929109905E+03 -0.41028851574E+03  0.43504332960E+03  0.81636951996E+02 0.  0.
         23    2    1    2    0    0  0.39248543679E+02 -0.16921753455E+03 -0.47432160084E+03  0.51350805043E+03  0.92382436937E+02 0.  0.
        -11    1    3    3    0    0 -0.39547443573E+00  0.12664714261E+03 -0.31761409401E+03  0.34193327981E+03  0.00000000000E+00 0.  1.
         12    1    3    3    0    0 -0.51789527383E+01 -0.73560435582E+01 -0.92674421729E+02  0.93110049786E+02  0.00000000000E+00 0. -1.
        -11    1    4    4    0    0  0.34290279299E+02 -0.12677405248E+03 -0.43851104325E+03  0.45775475824E+03  0.00000000000E+00 0.  1.
         11    1    4    4    0    0  0.49582643801E+01 -0.42443482064E+02 -0.35810557589E+02  0.55753292191E+02  0.00000000000E+00 0. -1.
          1    1    1    2  501    0 -0.33674116505E+02  0.49926435499E+02 -0.36117762712E+03  0.36616372488E+03  0.00000000000E+00 0. -1.
<scales pt_clust_5="13000.00000" pt_clust_6="13000.00000" pt_clust_7="13000.00000" pt_clust_8="13000.00000" pt_clust_9="60.22122"></scales>
<clustering>
<clus scale="   60.221">  2  9  1 -1</clus>
<clus scale="   81.637">  5  6 -1 -1</clus>
<clus scale="   92.382">  7  8 -1 -1</clus>
<clus scale="  165.418">  1  5  2 -1</clus>
<clus scale="   60.221">  2  5  1 -1</clus>
</clustering>
</event>
<event>
 9    2  0.1665830E-004  0.1286937E+03  0.7546771E-02  0.1232503E+00
         21   -1    0    0  501  502  0.00000000000E+00  0.00000000000E+00  0.65476257286E+02  0.65476257286E+02  0.00000000000E+00 0. -1.
          2   -1    0    0  502    0 -0.00000000000E+00 -0.00000000000E+00 -0.92902963168E+03  0.92902963168E+03  0.00000000000E+00 0. -1.
         24    2    1    2    0    0  0.86547225252E+02 -0.29310986235E+02 -0.80814527551E+03  0.81728826046E+03  0.80695466057E+02 0.  0.
         23    2    1    2    0    0 -0.79942174480E+02  0.74316660123E+01 -0.78061993995E+02  0.14503797169E+03  0.92175687706E+02 0.  0.
        -13    1    3    3    0    0  0.24992226203E+02  0.27835225245E+02 -0.21593708538E+03  0.21915345303E+03  0.00000000000E+00 0.  1.
         14    1    3    3    0    0  0.61554999050E+02 -0.57146211480E+02 -0.59220819013E+03  0.59813480743E+03  0.00000000000E+00 0. -1.
        -11    1    4    4    0    0 -0.42428524421E+02 -0.32133253441E+02 -0.44161165016E+01  0.53406251939E+02  0.00000000000E+00 0.  1.
         11    1    4    4    0    0 -0.37513650060E+02  0.39564919453E+02 -0.73645877493E+02  0.91631719748E+02  0.00000000000E+00 0. -1.
          1    1    1    2  501    0 -0.66050507718E+01  0.21879320223E+02  0.22653895114E+02  0.32179656818E+02  0.00000000000E+00 0. -1.
<scales pt_clust_5="13000.00000" pt_clust_6="13000.00000" pt_clust_7="13000.00000" pt_clust_8="13000.00000" pt_clust_9="22.85457"></scales>
<clustering>
<clus scale="   22.855">  1  9  2 -1</clus>
<clus scale="   80.695">  5  6 -1 -1</clus>
<clus scale="   92.176">  7  8 -1 -1</clus>
<clus scale="  120.737">  2  5  1 -1</clus>
<clus scale="   22.855">  1  5  2 -1</clus>
</clustering>
</event>
<event>
 9    2  0.1665830E-004  0.1232318E+03  0.7546771E-02  0.1241467E+00
         21   -1    0    0  501  502  0.00000000000E+00  0.00000000000E+00  0.66003344608E+03  0.66003344608E+03  0.00000000000E+00 0.  1.
          2   -1    0    0  502    0 -0.00000000000E+00 -0.00000000000E+00 -0.59990698655E+02  0.59990698655E+02  0.00000000000E+00 0. -1.
         24    2    1    2    0    0 -0.55882498306E+02 -0.56851081936E+02  0.21983498987E+02  0.11410464331E+03  0.78623763981E+02 0.  0.
         23    2    1    2    0    0  0.53490575772E+02  0.92968231946E+02  0.39367005892E+03  0.41801116465E+03  0.90845388631E+02 0.  0.
        -11    1    3    3    0    0 -0.39132693181E+02  0.10020112079E+02  0.20153162230E+02  0.45143330289E+02  0.00000000000E+00 0.  1.
         12    1    3    3    0    0 -0.16749805125E+02 -0.66871194015E+02  0.18303367570E+01  0.68961313020E+02  0.00000000000E+00 0. -1.
        -11    1    4    4    0    0  0.45551976143E+02  0.52403640590E+02  0.35391423510E+03  0.36066107343E+03  0.00000000000E+00 0.  1.
         11    1    4    4    0    0  0.79385996291E+01  0.40564591356E+02  0.39755823816E+02  0.57350091222E+02  0.00000000000E+00 0. -1.
          1    1    1    2  501    0  0.23919225344E+01 -0.36117150010E+02  0.18438918953E+03  0.18790833678E+03  0.00000000000E+00 0. -1.
<scales pt_clust_5="13000.00000" pt_clust_6="13000.00000" pt_clust_7="13000.00000" pt_clust_8="13000.00000" pt_clust_9="36.19627"></scales>
<clustering>
<clus scale="   36.196">  1  9  2 -1</clus>
<clus scale="   78.624">  5  6 -1 -1</clus>
<clus scale="   90.845">  7  8 -1 -1</clus>
<clus scale="  114.520">  2  5  1 -1</clus>
<clus scale="   36.196">  1  5  2 -1</clus>
</clustering>
</event>
<event>
 9    2  0.1665830E-004  0.1607486E+03  0.7546771E-02  0.1189590E+00
         21   -1    0    0  501  502  0.00000000000E+00  0.00000000000E+00  0.16998420650E+03  0.16998420650E+03  0.00000000000E+00 0. -1.
          2   -1    0    0  502    0 -0.00000000000E+00 -0.00000000000E+00 -0.67982923363E+03  0.67982923363E+03  0.00000000000E+00 0. -1.
         23    2    1    2    0    0 -0.55937615610E+02 -0.11989763337E+03 -0.60560861368E+03  0.62659364944E+03  0.91396658718E+02 0.  0.
         24    2    1    2    0    0  0.74772286629E+02  0.11016876701E+03  0.35683174654E+02  0.15950910425E+03  0.80260907744E+02 0.  0.
        -11    1    4    4    0    0  0.47505375152E+02  0.11779662420E+03  0.31753163103E+02  0.13092390427E+03  0.00000000000E+00 0.  1.
         12    1    4    4    0    0  0.27266911477E+02 -0.76278571951E+01  0.39300115517E+01  0.28585199977E+02  0.00000000000E+00 0. -1.
        -13    1    3    3    0    0  0.24859856692E+02 -0.36563674183E+02 -0.14547108652E+03  0.15204194079E+03  0.00000000000E+00 0.  1.
         13    1    3    3    0    0 -0.80797472302E+02 -0.83333959189E+02 -0.46013752716E+03  0.47455170865E+03  0.00000000000E+00 0. -1.
          1    1    1    2  501    0 -0.18834671019E+02  0.97288663638E+01  0.60080411897E+02  0.63710686442E+02  0.00000000000E+00 0. -1.
<scales pt_clust_5="13000.00000" pt_clust_6="13000.00000" pt_clust_7="13000.00000" pt_clust_8="13000.00000" pt_clust_9="21.19895"></scales>
<clustering>
<clus scale="   21.199">  1  9  2 -1</clus>
<clus scale="   80.261">  5  6 -1 -1</clus>
<clus scale="   91.397">  7  8 -1 -1</clus>
<clus scale="  154.689">  1  5  2 -1</clus>
<clus scale="   21.199">  1  5  2 -1</clus>
</clustering>
</event>
<event>
 9    2  0.1665830E-004  0.9714434E+02  0.7546771E-02  0.1290915E+00
          2   -1    0    0  502    0 -0.00000000000E+00  0.00000000000E+00  0.16255641876E+03  0.16255641876E+03  0.00000000000E+00 0. -1.
         21   -1    0    0  501  502  0.00000000000E+00 -0.00000000000E+00 -0.13374052220E+03  0.13374052220E+03  0.00000000000E+00 0. -1.
         23    2    1    2    0    0  0.92046192380E+00 -0.86439831879E+00  0.39739546612E+02  0.10053709751E+03  0.92341117476E+02 0.  0.
         24    2    1    2    0    0 -0.44053066596E+02  0.62967145616E+02  0.17048484488E+02  0.11513966534E+03  0.84029504382E+02 0.  0.
        -11    1    4    4    0    0 -0.52659049783E+02  0.32452359516E+02 -0.21265049052E+02  0.65408970894E+02  0.00000000000E+00 0.  1.
         12    1    4    4    0    0  0.86059831864E+01  0.30514786100E+02  0.38313533540E+02  0.49730694442E+02  0.00000000000E+00 0. -1.
        -13    1    3    3    0    0  0.27053705772E+02  0.83648466841E+01 -0.20009169775E+02  0.34673340352E+02  0.00000000000E+00 0.  1.
         13    1    3    3    0    0 -0.26133243849E+02 -0.92292450029E+01  0.59748716388E+02  0.65863757161E+02  0.00000000000E+00 0. -1.
          1    1    1    2  501    0  0.43132604672E+02 -0.62102747297E+02 -0.27972134547E+02  0.80620178112E+02  0.00000000000E+00 0. -1.
<scales pt_clust_5="13000.00000" pt_clust_6="13000.00000" pt_clust_7="13000.00000" pt_clust_8="13000.00000" pt_clust_9="75.61199"></scales>
<clustering>
<clus scale="   75.612">  2  9  1 -1</clus>
<clus scale="   84.030">  5  6 -1 -1</clus>
<clus scale="   89.281">  2  5  1 -1</clus>
<clus scale="   92.341">  7  8 -1 -1</clus>
<clus scale="   75.612">  2  5  1 -1</clus>
</clustering>
</event>
<event>
 9    2  0.1665830E-004  0.7750669E+03  0.7546771E-02  0.9954277E-01
          2   -1    0    0  502    0 -0.00000000000E+00  0.00000000000E+00  0.15048189244E+04  0.15048189244E+04  0.00000000000E+00 0. -1.
         21   -1    0    0  501  502  0.00000000000E+00 -0.00000000000E+00 -0.62104258371E+03  0.62104258371E+03  0.00000000000E+00 0. -1.
         24    2    1    2    0    0 -0.22287839169E+03 -0.30295710923E+02 -0.11577259518E+03  0.26473827991E+03  0.78041370286E+02 0.  0.
         23    2    1    2    0    0 -0.58266151099E+03 -0.28803643933E+03  0.65962244130E+03  0.93065027618E+03  0.92459422055E+02 0.  0.
        -11    1    3    3    0    0 -0.13297244106E+03  0.68310530369E+01 -0.33393566098E+02  0.13727149603E+03  0.00000000000E+00 0.  1.
         12    1    3    3    0    0 -0.89905950628E+02 -0.37126763960E+02 -0.82379029079E+02  0.12746678388E+03  0.00000000000E+00 0. -1.
        -13    1    4    4    0    0 -0.54053664776E+03 -0.28079724225E+03  0.64028393175E+03  0.88373665313E+03  0.00000000000E+00 0. -1.
         13    1    4    4    0    0 -0.42124863227E+02 -0.72391970796E+01  0.19338509542E+02  0.46913623049E+02  0.00000000000E+00 0.  1.
          1    1    1    2  501    0  0.80553990267E+03  0.31833215025E+03  0.33992649454E+03  0.93047295198E+03  0.00000000000E+00 0. -1.
<scales pt_clust_5="13000.00000" pt_clust_6="13000.00000" pt_clust_7="13000.00000" pt_clust_8="13000.00000" pt_clust_9="769.53225"></scales>
<clustering>
<clus scale="   78.041">  5  6 -1 -1</clus>
<clus scale="   92.459">  7  8 -1 -1</clus>
<clus scale="  238.082">  1  5  2 -1</clus>
<clus scale="  769.532">  2  9  1 -1</clus>
<clus scale="  769.532">  2  5  1 -1</clus>
</clustering>
</event>
<event>
 9    2  0.1665830E-004  0.1821816E+03  0.7546771E-02  0.1181804E+00
          2   -1    0    0  502    0 -0.00000000000E+00  0.00000000000E+00  0.47254194115E+03  0.47254194115E+03  0.00000000000E+00 0. -1.
         21   -1    0    0  501  502  0.00000000000E+00 -0.00000000000E+00 -0.15866264823E+03  0.15866264823E+03  0.00000000000E+00 0. -1.
         24    2    1    2    0    0 -0.97376331785E+02  0.12201465575E+02  0.15735692532E+03  0.20181903029E+03  0.79615911023E+02 0.  0.
         23    2    1    2    0    0  0.63283259956E+02 -0.17240449792E+03  0.17301916958E+03  0.26476632086E+03  0.80233968651E+02 0.  0.
        -13    1    3    3    0    0  0.59383095163E+01  0.21356276564E+02  0.21349169709E+02  0.30775657847E+02  0.00000000000E+00 0.  1.
         14    1    3    3    0    0 -0.10331464130E+03 -0.91548109889E+01  0.13600775561E+03  0.17104337245E+03  0.00000000000E+00 0. -1.
        -13    1    4    4    0    0  0.64337300559E+02 -0.12230222876E+03  0.16293795396E+03  0.21364901180E+03  0.00000000000E+00 0. -1.
         13    1    4    4    0    0 -0.10540406035E+01 -0.50102269161E+02  0.10081215614E+02  0.51117309055E+02  0.00000000000E+00 0.  1.
          1    1    1    2  501    0  0.34093071829E+02  0.16020303234E+03 -0.16496801983E+02  0.16461923823E+03  0.00000000000E+00 0. -1.
<scales pt_clust_5="13000.00000" pt_clust_6="13000.00000" pt_clust_7="13000.00000" pt_clust_8="13000.00000" pt_clust_9="163.56236"></scales>
<clustering>
<clus scale="   79.616">  5  6 -1 -1</clus>
<clus scale="   80.234">  7  8 -1 -1</clus>
<clus scale="  126.371">  1  5  2 -1</clus>
<clus scale="  163.562">  2  9  1 -1</clus>
<clus scale="  163.562">  2  5  1 -1</clus>
</clustering>
</event>
<event>
 9    2  0.1665830E-004  0.1017943E+03  0.7546771E-02  0.1281257E+00
         21   -1    0    0  501  502  0.00000000000E+00  0.00000000000E+00  0.11967995859E+03  0.11967995859E+03  0.00000000000E+00 0. -1.
         -3   -1    0    0    0  501 -0.00000000000E+00 -0.00000000000E+00 -0.53682910977E+03  0.53682910977E+03  0.00000000000E+00 0.  1.
         24    2    1    2    0    0 -0.47571368709E+02 -0.15165866811E+02 -0.49789234901E+03  0.50661635448E+03  0.79185230894E+02 0.  0.
         23    2    1    2    0    0  0.23583516109E+02  0.27750826315E+02  0.48928762460E+02  0.10810806866E+03  0.89258277600E+02 0.  0.
        -11    1    3    3    0    0 -0.37456518618E+02  0.19234613862E+02 -0.12288658415E+03  0.12990024527E+03  0.00000000000E+00 0.  1.
         12    1    3    3    0    0 -0.10114850091E+02 -0.34400480673E+02 -0.37500576486E+03  0.37671610922E+03  0.00000000000E+00 0. -1.
        -11    1    4    4    0    0  0.46459087229E+02 -0.29418751667E+00  0.54362645327E+02  0.71511051869E+02  0.00000000000E+00 0. -1.
         11    1    4    4    0    0 -0.22875571120E+02  0.28045013832E+02 -0.54338828672E+01  0.36597016790E+02  0.00000000000E+00 0.  1.
         -4    1    1    2    0  502  0.23987852600E+02 -0.12584959504E+02  0.31814435371E+02  0.41784645219E+02  0.00000000000E+00 0.  1.
<scales pt_clust_5="13000.00000" pt_clust_6="13000.00000" pt_clust_7="13000.00000" pt_clust_8="13000.00000" pt_clust_9="27.08871"></scales>
<clustering>
<clus scale="   27.089">  1  9  2 -1</clus>
<clus scale="   79.185">  5  6 -1 -1</clus>
<clus scale="   89.258">  7  8 -1 -1</clus>
<clus scale="   93.088">  2  5  1 -1</clus>
<clus scale="   27.089">  1  5  2 -1</clus>
</clustering>
</event>
<event>
 9    2  0.1665830E-004  0.1672222E+03  0.7546771E-02  0.1211542E+00
          2   -1    0    0  502    0 -0.00000000000E+00  0.00000000000E+00  0.81235112340E+03  0.81235112340E+03  0.00000000000E+00 0. -1.
         21   -1    0    0  501  502  0.00000000000E+00 -0.00000000000E+00 -0.48520263080E+02  0.48520263080E+02  0.00000000000E+00 0.  1.
         24    2    1    2    0    0 -0.22642062722E+02  0.19690905435E+02  0.18819095800E+03  0.20663556109E+03  0.79887568951E+02 0.  0.
         23    2    1    2    0    0  0.15001316321E+03  0.21162411808E+02  0.34594089209E+03  0.38842757482E+03  0.90824463939E+02 0.  0.
        -13    1    3    3    0    0  0.22531832835E+02  0.28941297914E+02  0.10890818226E+03  0.11491855542E+03  0.00000000000E+00 0.  1.
         14    1    3    3    0    0 -0.45173895556E+02 -0.92503924786E+01  0.79282775745E+02  0.91717005678E+02  0.00000000000E+00 0. -1.
        -11    1    4    4    0    0  0.10120728913E+03  0.56929552281E+02  0.22557755525E+03  0.25371070677E+03  0.00000000000E+00 0. -1.
         11    1    4    4    0    0  0.48805874082E+02 -0.35767140472E+02  0.12036333684E+03  0.13471686806E+03  0.00000000000E+00 0.  1.
          1    1    1    2  501    0 -0.12737110049E+03 -0.40853317244E+02  0.22969901023E+03  0.26580825057E+03  0.00000000000E+00 0. -1.
<scales pt_clust_5="13000.00000" pt_clust_6="13000.00000" pt_clust_7="13000.00000" pt_clust_8="13000.00000" pt_clust_9="140.40719"></scales>
<clustering>
<clus scale="   79.888">  5  6 -1 -1</clus>
<clus scale="   85.337">  1  5  2 -1</clus>
<clus scale="   90.824">  7  8 -1 -1</clus>
<clus scale="  140.407">  2  9  1 -1</clus>
<clus scale="  140.407">  2  5  1 -1</clus>
</clustering>
</event>
<event>
 9    2  0.1665830E-004  0.2565705E+03  0.7546771E-02  0.1110268E+00
         21   -1    0    0  501  502  0.00000000000E+00  0.00000000000E+00  0.36572702617E+03  0.36572702617E+03  0.00000000000E+00 0.  1.
          2   -1    0    0  502    0 -0.00000000000E+00 -0.00000000000E+00 -0.37273198944E+03  0.37273198944E+03  0.00000000000E+00 0. -1.
         23    2    1    2    0    0  0.19984960057E+03  0.11259585668E+03 -0.15961633351E+03  0.29599868244E+03  0.97571288271E+02 0.  0.
         24    2    1    2    0    0 -0.20789971302E+03 -0.17871732924E+03  0.21037936534E+03  0.35429007344E+03  0.78101244085E+02 0.  0.
        -13    1    4    4    0    0 -0.21235467298E+03 -0.16056245653E+03  0.19931372368E+03  0.33256694068E+03  0.00000000000E+00 0.  1.
         14    1    4    4    0    0  0.44549599599E+01 -0.18154872713E+02  0.11065641661E+02  0.21723132759E+02  0.00000000000E+00 0. -1.
        -13    1    3    3    0    0  0.60860151416E+02  0.75846491090E+02 -0.28280531407E+02  0.10127406725E+03  0.00000000000E+00 0.  1.
         13    1    3    3    0    0  0.13898944915E+03  0.36749365592E+02 -0.13133580210E+03  0.19472461519E+03  0.00000000000E+00 0. -1.
          1    1    1    2  501    0  0.80501124563E+01  0.66121472558E+02 -0.57767995099E+02  0.88170259734E+02  0.00000000000E+00 0. -1.
<scales pt_clust_5="13000.00000" pt_clust_6="13000.00000" pt_clust_7="13000.00000" pt_clust_8="13000.00000" pt_clust_9="66.60974"></scales>
<clustering>
<clus scale="   66.610">  1  9  2 -1</clus>
<clus scale="   78.101">  5  6 -1 -1</clus>
<clus scale="   97.571">  7  8 -1 -1</clus>
<clus scale="  249.816">  1  5  2 -1</clus>
<clus scale="   66.610">  1  5  2 -1</clus>
</clustering>
</event>
<event>
 9    2  0.1665830E-004  0.1007127E+03  0.7546771E-02  0.1284167E+00
          2   -1    0    0  502    0 -0.00000000000E+00  0.00000000000E+00  0.24293508971E+03  0.24293508971E+03  0.00000000000E+00 0. -1.
         21   -1    0    0  501  502  0.00000000000E+00 -0.00000000000E+00 -0.10111916762E+03  0.10111916762E+03  0.00000000000E+00 0. -1.
         24    2    1    2    0    0  0.40591415482E+02 -0.33353886917E+02  0.17066377995E+03  0.19592151811E+03  0.80616193726E+02 0.  0.
         23    2    1    2    0    0 -0.67316296735E+01 -0.26511868984E+01 -0.17712907564E+01  0.91776808546E+02  0.91474048155E+02 0.  0.
        -11    1    3    3    0    0 -0.23270387640E+02  0.13935364118E+01  0.36085099952E+02  0.42960299384E+02  0.00000000000E+00 0.  1.
         12    1    3    3    0    0  0.63861803122E+02 -0.34747423329E+02  0.13457868000E+03  0.15296121873E+03  0.00000000000E+00 0. -1.
        -11    1    4    4    0    0 -0.21000600058E+02  0.39217841511E+02 -0.12600634598E+02  0.46236785008E+02  0.00000000000E+00 0.  1.
         11    1    4    4    0    0  0.14268970384E+02 -0.41869028410E+02  0.10829343842E+02  0.45540023538E+02  0.00000000000E+00 0. -1.
          1    1    1    2  501    0 -0.33859785808E+02  0.36005073815E+02 -0.27076567099E+02  0.56355930667E+02  0.00000000000E+00 0. -1.
<scales pt_clust_5="13000.00000" pt_clust_6="13000.00000" pt_clust_7="13000.00000" pt_clust_8="13000.00000" pt_clust_9="49.42520"></scales>
<clustering>
<clus scale="   49.425">  2  9  1 -1</clus>
<clus scale="   80.616">  5  6 -1 -1</clus>
<clus scale="   90.964">  1  5  2 -1</clus>
<clus scale="   91.474">  7  8 -1 -1</clus>
<clus scale="   49.425">  2  5  1 -1</clus>
</clustering>
</event>
<event>
 9    2  0.1665830E-004  0.1772783E+03  0.7546771E-02  0.1171403E+00
          2   -1    0    0  502    0 -0.00000000000E+00  0.00000000000E+00  0.61758324618E+03  0.61758324618E+03  0.00000000000E+00 0. -1.
         21   -1    0    0  501  502  0.00000000000E+00 -0.00000000000E+00 -0.77703820571E+02  0.77703820571E+02  0.00000000000E+00 0. -1.
         24    2    1    2    0    0  0.92339958619E+02  0.85658744417E+02  0.17794700019E+03  0.23266541578E+03  0.81264828620E+02 0.  0.
         23    2    1    2    0    0 -0.13664563588E+03 -0.13896530316E+03  0.23512465157E+03  0.31810592951E+03  0.89019072794E+02 0.  0.
        -13    1    3    3    0    0 -0.88343099869E+01  0.25460196662E+02  0.61169810092E+02  0.66843191977E+02  0.00000000000E+00 0.  1.
         14    1    3    3    0    0  0.10117426861E+03  0.60198547756E+02  0.11677719010E+03  0.16582222380E+03  0.00000000000E+00 0. -1.
        -11    1    4    4    0    0 -0.68206630624E+01 -0.28941606809E+02  0.24433762020E+01  0.29834680099E+02  0.00000000000E+00 0.  1.
         11    1    4    4    0    0 -0.12982497282E+03 -0.11002369635E+03  0.23268127537E+03  0.28827124941E+03  0.00000000000E+00 0. -1.
          1    1    1    2  501    0  0.44305677263E+02  0.53306558743E+02  0.12680777385E+03  0.14451572147E+03  0.00000000000E+00 0. -1.
<scales pt_clust_5="13000.00000" pt_clust_6="13000.00000" pt_clust_7="13000.00000" pt_clust_8="13000.00000" pt_clust_9="69.31513"></scales>
<clustering>
<clus scale="   69.315">  2  9  1 -1</clus>
<clus scale="   81.265">  5  6 -1 -1</clus>
<clus scale="   89.019">  7  8 -1 -1</clus>
<clus scale="  173.514">  1  5  2 -1</clus>
<clus scale="   69.315">  2  5  1 -1</clus>
</clustering>
</event>
<event>
 9    2  0.1665830E-004  0.1296199E+03  0.7546771E-02  0.1230572E+00
         21   -1    0    0  501  502  0.00000000000E+00  0.00000000000E+00  0.86754045542E+02  0.86754045542E+02  0.00000000000E+00 0.  1.
         -1   -1    0    0    0  501 -0.00000000000E+00 -0.00000000000E+00 -0.43833589984E+03  0.43833589984E+03  0.00000000000E+00 0.  1.
         23    2    1    2    0    0 -0.26251843570E+02  0.92915776037E+02 -0.31941401388E+03  0.34573018013E+03  0.90451890302E+02 0.  0.
         24    2    1    2    0    0 -0.24592655951E+02 -0.87566241174E+02 -0.39304069122E+02  0.12773897085E+03  0.80621272034E+02 0.  0.
        -11    1    4    4    0    0 -0.46445784637E+02 -0.82842631376E+02 -0.44349635424E+02  0.10481890405E+03  0.00000000000E+00 0.  1.
         12    1    4    4    0    0  0.21853128686E+02 -0.47236097982E+01  0.50455663022E+01  0.22920066802E+02  0.00000000000E+00 0. -1.
        -13    1    3    3    0    0  0.26958188054E+02  0.23403335544E+01 -0.73273739483E+02  0.78110575225E+02  0.00000000000E+00 0. -1.
         13    1    3    3    0    0 -0.53210031624E+02  0.90575442482E+02 -0.24614027440E+03  0.26761960490E+03  0.00000000000E+00 0.  1.
         -2    1    1    2    0  502  0.50844499522E+02 -0.53495348632E+01  0.71362287045E+01  0.51620794405E+02  0.00000000000E+00 0.  1.
<scales pt_clust_5="13000.00000" pt_clust_6="13000.00000" pt_clust_7="13000.00000" pt_clust_8="13000.00000" pt_clust_9="51.12515"></scales>
<clustering>
<clus scale="   51.125">  1  9  2 -1</clus>
<clus scale="   80.621">  5  6 -1 -1</clus>
<clus scale="   90.452">  7  8 -1 -1</clus>
<clus scale="  122.962">  1  5  2 -1</clus>
<clus scale="   51.125">  1  5  2 -1</clus>
</clustering>
</event>
<event>
 9    2  0.1665830E-004  0.1030143E+03  0.7546771E-02  0.1278764E+00
         21   -1    0    0  501  502  0.00000000000E+00  0.00000000000E+00  0.24640144123E+03  0.24640144123E+03  0.00000000000E+00 0. -1.
         -1   -1    0    0    0  501 -0.00000000000E+00 -0.00000000000E+00 -0.10002695766E+03  0.10002695766E+03  0.00000000000E+00 0.  1.
         24    2    1    2    0    0  0.35670809534E+02 -0.40553128928E+02 -0.37009679510E+02  0.10368304172E+03  0.80395857136E+02 0.  0.
         23    2    1    2    0    0  0.60247281645E+01  0.32327267042E+02  0.17448131995E+03  0.19932366577E+03  0.90580589424E+02 0.  0.
        -11    1    3    3    0    0  0.55718489185E+02 -0.22974638918E+02 -0.45703438481E+02  0.75638537529E+02  0.00000000000E+00 0.  1.
         12    1    3    3    0    0 -0.20047679651E+02 -0.17578490010E+02  0.86937589718E+01  0.28044504193E+02  0.00000000000E+00 0. -1.
        -13    1    4    4    0    0 -0.27634616095E+02 -0.62373224220E+01  0.15474233350E+02  0.32280459964E+02  0.00000000000E+00 0.  1.
         13    1    4    4    0    0  0.33659344260E+02  0.38564589464E+02  0.15900708660E+03  0.16704320581E+03  0.00000000000E+00 0. -1.
         -2    1    1    2    0  502 -0.41695537699E+02  0.82258618862E+01  0.89028431222E+01  0.43421691393E+02  0.00000000000E+00 0.  1.
<scales pt_clust_5="13000.00000" pt_clust_6="13000.00000" pt_clust_7="13000.00000" pt_clust_8="13000.00000" pt_clust_9="42.49923"></scales>
<clustering>
<clus scale="   42.499">  1  9  2 -1</clus>
<clus scale="   80.396">  5  6 -1 -1</clus>
<clus scale="   90.581">  7  8 -1 -1</clus>
<clus scale="   94.184">  2  5  1 -1</clus>
<clus scale="   42.499">  1  5  2 -1</clus>
</clustering>
</event>
<event>
 9    2  0.1665830E-004  0.9416537E+02  0.7546771E-02  0.1300316E+00
          2   -1    0    0  502    0 -0.00000000000E+00  0.00000000000E+00  0.24065850036E+03  0.24065850036E+03  0.00000000000E+00 0. -1.
         21   -1    0    0  501  502  0.00000000000E+00 -0.00000000000E+00 -0.91384136031E+02  0.91384136031E+02  0.00000000000E+00 0.  1.
         24    2    1    2    0    0 -0.26514506206E+02  0.10885717769E+02  0.18551465653E+03  0.20351369345E+03  0.78616904952E+02 0.  0.
         23    2    1    2    0    0 -0.38629304090E+01 -0.39606275053E+01 -0.19538609729E+02  0.93177963771E+02  0.90938258510E+02 0.  0.
        -13    1    3    3    0    0  0.11522828461E+02  0.26484904250E+02  0.13658411623E+03  0.13960460786E+03  0.00000000000E+00 0.  1.
         14    1    3    3    0    0 -0.38037334667E+02 -0.15599186481E+02  0.48930540303E+02  0.63909085597E+02  0.00000000000E+00 0. -1.
        -13    1    4    4    0    0  0.33434960406E+02 -0.30519530033E+02 -0.81838443849E+01  0.46003408567E+02  0.00000000000E+00 0.  1.
         13    1    4    4    0    0 -0.37297890815E+02  0.26558902528E+02 -0.11354765344E+02  0.47174555205E+02  0.00000000000E+00 0. -1.
          1    1    1    2  501    0  0.30377436615E+02 -0.69250902640E+01 -0.16701682475E+02  0.35350979165E+02  0.00000000000E+00 0. -1.
<scales pt_clust_5="13000.00000" pt_clust_6="13000.00000" pt_clust_7="13000.00000" pt_clust_8="13000.00000" pt_clust_9="31.15679"></scales>
<clustering>
<clus scale="   31.157">  2  9  1 -1</clus>
<clus scale="   78.617">  5  6 -1 -1</clus>
<clus scale="   82.328">  1  5  2 -1</clus>
<clus scale="   90.938">  7  8 -1 -1</clus>
<clus scale="   31.157">  2  5  1 -1</clus>
</clustering>
</event>
<event>
 9    2  0.1665830E-004  0.2198862E+03  0.7546771E-02  0.1166937E+00
          2   -1    0    0  502    0 -0.00000000000E+00  0.00000000000E+00  0.70006682937E+03  0.70006682937E+03  0.00000000000E+00 0. -1.
         21   -1    0    0  501  502  0.00000000000E+00 -0.00000000000E+00 -0.28710843585E+03  0.28710843585E+03  0.00000000000E+00 0. -1.
         23    2    1    2    0    0 -0.48394051933E+00  0.29293832440E+02  0.79365375906E+01  0.10103781359E+03  0.96370578123E+02 0.  0.
         24    2    1    2    0    0  0.12750859280E+03  0.13281172989E+03  0.58122927292E+03  0.61509773236E+03  0.81365568982E+02 0.  0.
        -11    1    4    4    0    0  0.23280351129E+01  0.52520913096E+02  0.15114690953E+03  0.16002891714E+03  0.00000000000E+00 0.  1.
         12    1    4    4    0    0  0.12518055769E+03  0.80290816794E+02  0.43008236339E+03  0.45506881522E+03  0.00000000000E+00 0. -1.
        -13    1    3    3    0    0 -0.36793662191E+02 -0.17819762107E+02 -0.96780734196E+00  0.40893204204E+02  0.00000000000E+00 0.  1.
         13    1    3    3    0    0  0.36309721672E+02  0.47113594547E+02  0.89043449325E+01  0.60144609382E+02  0.00000000000E+00 0. -1.
          1    1    1    2  501    0 -0.12702465228E+03 -0.16210556233E+03 -0.17620741699E+03  0.27103971928E+03  0.00000000000E+00 0. -1.
<scales pt_clust_5="13000.00000" pt_clust_6="13000.00000" pt_clust_7="13000.00000" pt_clust_8="13000.00000" pt_clust_9="204.27819"></scales>
<clustering>
<clus scale="   81.366">  5  6 -1 -1</clus>
<clus scale="   96.371">  7  8 -1 -1</clus>
<clus scale="  100.726">  1  7  2 -1</clus>
<clus scale="  204.278">  2  9  1 -1</clus>
<clus scale="  204.278">  2  5  1 -1</clus>
</clustering>
</event>
<event>
 9    2  0.1665830E-004  0.1001877E+03  0.7546771E-02  0.1285998E+00
         21   -1    0    0  501  502  0.00000000000E+00  0.00000000000E+00  0.15929996383E+03  0.15929996383E+03  0.00000000000E+00 0. -1.
          2   -1    0    0  502    0 -0.00000000000E+00 -0.00000000000E+00 -0.18569997459E+03  0.18569997459E+03  0.00000000000E+00 0. -1.
         24    2    1    2    0    0 -0.72308700259E+00 -0.42598902189E+02 -0.13363289806E+03  0.16129906265E+03  0.79652036048E+02 0.  0.
         23    2    1    2    0    0 -0.34477301527E+02  0.19256235563E+02  0.99090129768E+02  0.14068632081E+03  0.91729494252E+02 0.  0.
        -13    1    3    3    0    0  0.36890711626E+02 -0.82924084324E+01 -0.42300249451E+02  0.56736229567E+02  0.00000000000E+00 0.  1.
         14    1    3    3    0    0 -0.37613798629E+02 -0.34306493757E+02 -0.91332648607E+02  0.10456283309E+03  0.00000000000E+00 0. -1.
        -11    1    4    4    0    0 -0.37579795005E+02 -0.23941301291E+02  0.16658812218E+02  0.47570399668E+02  0.00000000000E+00 0. -1.
         11    1    4    4    0    0  0.31024934777E+01  0.43197536855E+02  0.82431317550E+02  0.93115921137E+02  0.00000000000E+00 0.  1.
          1    1    1    2  501    0  0.35200388530E+02  0.23342666626E+02  0.81427575313E+01  0.43014554956E+02  0.00000000000E+00 0. -1.
<scales pt_clust_5="13000.00000" pt_clust_6="13000.00000" pt_clust_7="13000.00000" pt_clust_8="13000.00000" pt_clust_9="42.23680"></scales>
<clustering>
<clus scale="   42.237">  1  9  2 -1</clus>
<clus scale="   79.652">  5  6 -1 -1</clus>
<clus scale="   89.262">  2  5  1 -1</clus>
<clus scale="   91.729">  7  8 -1 -1</clus>
<clus scale="   42.237">  1  5  2 -1</clus>
</clustering>
</event>
<event>
 9    2  0.1665830E-004  0.2145581E+03  0.7546771E-02  0.1138843E+00
         21   -1    0    0  501  502  0.00000000000E+00  0.00000000000E+00  0.14858032658E+03  0.14858032658E+03  0.00000000000E+00 0. -1.
          2   -1    0    0  502    0 -0.00000000000E+00 -0.00000000000E+00 -0.66821788356E+03  0.66821788356E+03  0.00000000000E+00 0. -1.
         24    2    1    2    0    0  0.22275260862E+03  0.68074188398E+02 -0.46816594472E+03  0.52882581901E+03  0.78895977644E+02 0.  0.
         23    2    1    2    0    0 -0.11667859485E+03  0.13691727499E+02 -0.11835302423E+02  0.14829992262E+03  0.89729787527E+02 0.  0.
        -11    1    3    3    0    0  0.11837222092E+03  0.39020774588E+02 -0.33321215333E+03  0.35575966981E+03  0.00000000000E+00 0.  1.
         12    1    3    3    0    0  0.10438038770E+03  0.29053413810E+02 -0.13495379139E+03  0.17306614921E+03  0.00000000000E+00 0. -1.
        -13    1    4    4    0    0 -0.38101506163E+02  0.79554149421E+00  0.38439197661E+02  0.54128823883E+02  0.00000000000E+00 0.  1.
         13    1    4    4    0    0 -0.78577088683E+02  0.12896186005E+02 -0.50274500084E+02  0.94171098740E+02  0.00000000000E+00 0. -1.
          1    1    1    2  501    0 -0.10607401377E+03 -0.81765915897E+02 -0.39636309831E+02  0.13967246850E+03  0.00000000000E+00 0. -1.
<scales pt_clust_5="13000.00000" pt_clust_6="13000.00000" pt_clust_7="13000.00000" pt_clust_8="13000.00000" pt_clust_9="133.93043"></scales>
<clustering>
<clus scale="   78.896">  5  6 -1 -1</clus>
<clus scale="   89.730">  7  8 -1 -1</clus>
<clus scale="  133.930">  1  9  2 -1</clus>
<clus scale="  210.258">  2  5  1 -1</clus>
<clus scale="  133.930">  1  5  2 -1</clus>
</clustering>
</event>
<event>
 9    2  0.1665830E-004  0.1894391E+03  0.7546771E-02  0.1163082E+00
         21   -1    0    0  501  502  0.00000000000E+00  0.00000000000E+00  0.18786628240E+03  0.18786628240E+03  0.00000000000E+00 0.  1.
          2   -1    0    0  502    0 -0.00000000000E+00 -0.00000000000E+00 -0.59721253363E+03  0.59721253363E+03  0.00000000000E+00 0. -1.
         23    2    1    2    0    0  0.68809857643E+02 -0.12590521971E+03 -0.48155097996E+03  0.51599790909E+03  0.11736939562E+03 0.  0.
         24    2    1    2    0    0 -0.76347521746E+02  0.17488017967E+03  0.56665593667E+02  0.21714991618E+03  0.86781768083E+02 0.  0.
        -13    1    4    4    0    0 -0.65084976139E+02  0.17308482513E+03  0.28937257881E+02  0.18716777421E+03  0.00000000000E+00 0.  1.
         14    1    4    4    0    0 -0.11262545607E+02  0.17953545424E+01  0.27728335786E+02  0.29982141967E+02  0.00000000000E+00 0. -1.
        -11    1    3    3    0    0 -0.18393285881E+02 -0.50586003221E+02 -0.68173964981E+02  0.86861649700E+02  0.00000000000E+00 0.  1.
         11    1    3    3    0    0  0.87203143523E+02 -0.75319216487E+02 -0.41337701498E+03  0.42913625939E+03  0.00000000000E+00 0. -1.
          1    1    1    2  501    0  0.75376641030E+01 -0.48974959964E+02  0.15539135053E+02  0.51930990765E+02  0.00000000000E+00 0. -1.
<scales pt_clust_5="13000.00000" pt_clust_6="13000.00000" pt_clust_7="13000.00000" pt_clust_8="13000.00000" pt_clust_9="49.55162"></scales>
<clustering>
<clus scale="   49.552">  1  9  2 -1</clus>
<clus scale="   86.782">  5  6 -1 -1</clus>
<clus scale="  117.369">  7  8 -1 -1</clus>
<clus scale="  172.170">  1  5  2 -1</clus>
<clus scale="   49.552">  1  5  2 -1</clus>
</clustering>
</event>
<event>
 9    2  0.1665830E-004  0.1156044E+03  0.7546771E-02  0.1253897E+00
         21   -1    0    0  501  502  0.00000000000E+00  0.00000000000E+00  0.61173785030E+02  0.61173785030E+02  0.00000000000E+00 0.  1.
          2   -1    0    0  502    0 -0.00000000000E+00 -0.00000000000E+00 -0.89353227829E+03  0.89353227829E+03  0.00000000000E+00 0. -1.
         24    2    1    2    0    0 -0.56919186936E+02 -0.37125501110E+02 -0.66933806452E+03  0.67759646478E+03  0.80656232194E+02 0.  0.
         23    2    1    2    0    0  0.97230786305E+02  0.72494057719E+02 -0.63549351608E+02  0.16410316056E+03  0.90455033053E+02 0.  0.
        -11    1    3    3    0    0 -0.68666464309E+02 -0.13639113325E+02 -0.33545655875E+03  0.34268383613E+03  0.00000000000E+00 0.  1.
         12    1    3    3    0    0  0.11747277373E+02 -0.23486387785E+02 -0.33388150577E+03  0.33491262865E+03  0.00000000000E+00 0. -1.
        -13    1    4    4    0    0  0.57084811376E+02  0.25400998855E+02 -0.78608050973E+02  0.10041470067E+03  0.00000000000E+00 0. -1.
         13    1    4    4    0    0  0.40145974929E+02  0.47093058864E+02  0.15058699366E+02  0.63688459887E+02  0.00000000000E+00 0.  1.
          1    1    1    2  501    0 -0.40311599369E+02 -0.35368556609E+02 -0.99471077136E+02  0.11300643799E+03  0.00000000000E+00 0. -1.
<scales pt_clust_5="13000.00000" pt_clust_6="13000.00000" pt_clust_7="13000.00000" pt_clust_8="13000.00000" pt_clust_9="53.62800"></scales>
<clustering>
<clus scale="   53.628">  1  9  2 -1</clus>
<clus scale="   80.656">  5  6 -1 -1</clus>
<clus scale="   90.455">  7  8 -1 -1</clus>
<clus scale="  108.110">  2  5  1 -1</clus>
<clus scale="   53.628">  1  5  2 -1</clus>
</clustering>
</event>
<event>
 9    2  0.1665830E-004  0.1446664E+03  0.7546771E-02  0.1232345E+00
         21   -1    0    0  501  502  0.00000000000E+00  0.00000000000E+00  0.61186124237E+02  0.61186124237E+02  0.00000000000E+00 0.  1.
          2   -1    0    0  502    0 -0.00000000000E+00 -0.00000000000E+00 -0.64543227354E+03  0.64543227354E+03  0.00000000000E+00 0. -1.
         24    2    1    2    0    0 -0.23600183664E+02 -0.20352343368E+02 -0.16327246633E+03  0.18419976330E+03  0.79375487331E+02 0.  0.
         23    2    1    2    0    0  0.56734748013E+01 -0.10558643422E+03 -0.87790691018E+02  0.16577757021E+03  0.92705522747E+02 0.  0.
        -11    1    3    3    0    0 -0.13641687209E+02  0.25951700531E+02 -0.10548038101E+03  0.10947920884E+03  0.00000000000E+00 0.  1.
         12    1    3    3    0    0 -0.99584964543E+01 -0.46304043899E+02 -0.57792085313E+02  0.74720554453E+02  0.00000000000E+00 0. -1.
        -11    1    4    4    0    0  0.22796619302E+02 -0.11636933027E+03 -0.83666538925E+02  0.14512614035E+03  0.00000000000E+00 0.  1.
         11    1    4    4    0    0 -0.17123144501E+02  0.10782896044E+02 -0.41241520931E+01  0.20651429858E+02  0.00000000000E+00 0. -1.
          1    1    1    2  501    0  0.17926708862E+02  0.12593877759E+03 -0.33318299196E+03  0.35664106427E+03  0.00000000000E+00 0. -1.
<scales pt_clust_5="13000.00000" pt_clust_6="13000.00000" pt_clust_7="13000.00000" pt_clust_8="13000.00000" pt_clust_9="111.05888"></scales>
<clustering>
<clus scale="   79.375">  5  6 -1 -1</clus>
<clus scale="   85.274">  2  5  1 -1</clus>
<clus scale="   92.706">  7  8 -1 -1</clus>
<clus scale="  111.059">  1  9  2 -1</clus>
<clus scale="  111.059">  1  5  2 -1</clus>
</clustering>
</event>
<event>
 9    2  0.1844528E-004  0.9389789E+02  0.7546771E-02  0.1294705E+00
         21   -1    0    0  501  502  0.00000000000E+00  0.00000000000E+00  0.94355274932E+02  0.94355274932E+02  0.00000000000E+00 0.  1.
          2   -1    0    0  502    0 -0.00000000000E+00 -0.00000000000E+00 -0.38897092994E+03  0.38897092994E+03  0.00000000000E+00 0. -1.
         23    2    1    2    0    0  0.19885548397E+02 -0.92985135803E+01 -0.33776548717E+03  0.35049734534E+03  0.90999820738E+02 0.  0.
         24    2    1    2    0    0 -0.21368630167E+02  0.33421848071E+02  0.20532663794E+02  0.99727936537E+02  0.89165199264E+02 0.  0.
        -13    1    4    4    0    0 -0.20082679285E+02  0.63832588875E+02  0.17310496644E+02  0.69119944327E+02  0.00000000000E+00 0.  1.
         14    1    4    4    0    0 -0.12859508820E+01 -0.30410740804E+02  0.32221671502E+01  0.30607992209E+02  0.00000000000E+00 0. -1.
        -13    1    3    3    0    0 -0.31369580452E+02  0.68195647788E+01 -0.65057721882E+02  0.72546979386E+02  0.00000000000E+00 0.  1.
         13    1    3    3    0    0  0.51255128849E+02 -0.16118078359E+02 -0.27270776529E+03  0.27795036595E+03  0.00000000000E+00 0. -1.
          1    1    1    2  501    0  0.14830817693E+01 -0.24123334490E+02  0.22617168367E+02  0.33100923000E+02  0.00000000000E+00 0. -1.
<scales pt_clust_5="13000.00000" pt_clust_6="13000.00000" pt_clust_7="13000.00000" pt_clust_8="13000.00000" pt_clust_9="24.16888"></scales>
<clustering>
<clus scale="   24.169">  1  9  2 -1</clus>
<clus scale="   89.165">  5  6 -1 -1</clus>
<clus scale="   91.000">  7  8 -1 -1</clus>
<clus scale="   92.121">  1  5  2 -1</clus>
<clus scale="   24.169">  1  5  2 -1</clus>
</clustering>
</event>
<event>
 9    2  0.1665830E-004  0.2431514E+03  0.7546771E-02  0.1118552E+00
         -3   -1    0    0    0  501 -0.00000000000E+00  0.00000000000E+00  0.24123108096E+03  0.24123108096E+03  0.00000000000E+00 0.  1.
         21   -1    0    0  501  502  0.00000000000E+00 -0.00000000000E+00 -0.50835470126E+03  0.50835470126E+03  0.00000000000E+00 0.  1.
         24    2    1    2    0    0 -0.18420110625E+03  0.45143446580E+02 -0.81833343777E+02  0.22185672992E+03  0.80967488200E+02 0.  0.
         23    2    1    2    0    0  0.29431891019E+03 -0.45366611619E+02 -0.24980511568E+03  0.40010403508E+03  0.94862493782E+02 0.  0.
        -11    1    3    3    0    0 -0.17006629861E+03  0.48319790836E+02 -0.96350576194E+02  0.20134741528E+03  0.00000000000E+00 0.  1.
         12    1    3    3    0    0 -0.14134807643E+02 -0.31763442566E+01  0.14517232417E+02  0.20509314640E+02  0.00000000000E+00 0. -1.
        -11    1    4    4    0    0  0.22417188903E+03  0.46001350923E+01 -0.20094145334E+03  0.30108414894E+03  0.00000000000E+00 0.  1.
         11    1    4    4    0    0  0.70147021160E+02 -0.49966746712E+02 -0.48863662343E+02  0.99019886145E+02  0.00000000000E+00 0. -1.
         -4    1    1    2    0  502 -0.11011780394E+03  0.22316503946E+00  0.64514839165E+02  0.12762501721E+03  0.00000000000E+00 0.  1.
<scales pt_clust_5="13000.00000" pt_clust_6="13000.00000" pt_clust_7="13000.00000" pt_clust_8="13000.00000" pt_clust_9="110.11809"></scales>
<clustering>
<clus scale="   80.967">  5  6 -1 -1</clus>
<clus scale="   94.862">  7  8 -1 -1</clus>
<clus scale="  110.118">  2  9  1 -1</clus>
<clus scale="  238.074">  1  5  2 -1</clus>
<clus scale="  110.118">  2  5  1 -1</clus>
</clustering>
</event>
<event>
 9    2  0.1665830E-004  0.9142659E+02  0.7546771E-02  0.1304285E+00
         21   -1    0    0  501  502  0.00000000000E+00  0.00000000000E+00  0.13209638640E+03  0.13209638640E+03  0.00000000000E+00 0.  1.
          2   -1    0    0  502    0 -0.00000000000E+00 -0.00000000000E+00 -0.24385637256E+03  0.24385637256E+03  0.00000000000E+00 0. -1.
         23    2    1    2    0    0  0.20114069870E+02 -0.29052387137E+01 -0.19541526500E+03  0.21557671094E+03  0.88730920678E+02 0.  0.
         24    2    1    2    0    0 -0.41871480234E+02  0.24272730282E+01  0.98487992138E+02  0.13403932954E+03  0.80669354509E+02 0.  0.
        -11    1    4    4    0    0 -0.49459917945E+02  0.32509609118E+02  0.56435936028E+02  0.81781251174E+02  0.00000000000E+00 0.  1.
         12    1    4    4    0    0  0.75884377109E+01 -0.30082336090E+02  0.42052056110E+02  0.52258078367E+02  0.00000000000E+00 0. -1.
        -11    1    3    3    0    0  0.37531148590E+02 -0.17749120890E+02 -0.18642145071E+03  0.19098841769E+03  0.00000000000E+00 0. -1.
         11    1    3    3    0    0 -0.17417078720E+02  0.14843882177E+02 -0.89938142874E+01  0.24588293244E+02  0.00000000000E+00 0.  1.
          1    1    1    2  501    0  0.21757410364E+02  0.47796568543E+00 -0.14832713290E+02  0.26336718484E+02  0.00000000000E+00 0. -1.
<scales pt_clust_5="13000.00000" pt_clust_6="13000.00000" pt_clust_7="13000.00000" pt_clust_8="13000.00000" pt_clust_9="21.76267"></scales>
<clustering>
<clus scale="   21.763">  1  9  2 -1</clus>
<clus scale="   80.669">  5  6 -1 -1</clus>
<clus scale="   83.625">  1  5  2 -1</clus>
<clus scale="   88.731">  7  8 -1 -1</clus>
<clus scale="   21.763">  1  5  2 -1</clus>
</clustering>
</event>
<event>
 9    2  0.1665830E-004  0.1121267E+03  0.7546771E-02  0.1256999E+00
          2   -1    0    0  502    0 -0.00000000000E+00  0.00000000000E+00  0.22740734583E+03  0.22740734583E+03  0.00000000000E+00 0. -1.
         21   -1    0    0  501  502  0.00000000000E+00 -0.00000000000E+00 -0.14418347018E+03  0.14418347018E+03  0.00000000000E+00 0.  1.
         24    2    1    2    0    0  0.84671803199E+02  0.19486704046E+01  0.14155841141E+03  0.18772103407E+03  0.89595151753E+02 0.  0.
         23    2    1    2    0    0 -0.53560683461E+01  0.80329991626E+01 -0.49141125612E+02  0.10340153781E+03  0.90464419813E+02 0.  0.
        -11    1    3    3    0    0  0.77884487587E+02 -0.30398583136E+02  0.12593911514E+03  0.15116457252E+03  0.00000000000E+00 0.  1.
         12    1    3    3    0    0  0.67873156116E+01  0.32347253540E+02  0.15619296268E+02  0.36556461545E+02  0.00000000000E+00 0. -1.
        -13    1    4    4    0    0 -0.28637232597E+02  0.71791346685E+01  0.16449304988E+02  0.33796607818E+02  0.00000000000E+00 0. -1.
         13    1    4    4    0    0  0.23281164250E+02  0.85386449411E+00 -0.65590430600E+02  0.69604929996E+02  0.00000000000E+00 0.  1.
          1    1    1    2  501    0 -0.79315734853E+02 -0.99816695672E+01 -0.91934101462E+01  0.80468244126E+02  0.00000000000E+00 0. -1.
<scales pt_clust_5="13000.00000" pt_clust_6="13000.00000" pt_clust_7="13000.00000" pt_clust_8="13000.00000" pt_clust_9="79.94135"></scales>
<clustering>
<clus scale="   79.941">  2  9  1 -1</clus>
<clus scale="   89.595">  5  6 -1 -1</clus>
<clus scale="   90.464">  7  8 -1 -1</clus>
<clus scale="  111.427">  1  5  2 -1</clus>
<clus scale="   79.941">  2  5  1 -1</clus>
</clustering>
</event>
<event>
 9    2  0.1665830E-004  0.1496464E+03  0.7546771E-02  0.1202811E+00
          2   -1    0    0  502    0 -0.00000000000E+00  0.00000000000E+00  0.53495986141E+03  0.53495986141E+03  0.00000000000E+00 0. -1.
         21   -1    0    0  501  502  0.00000000000E+00 -0.00000000000E+00 -0.15595915838E+03  0.15595915838E+03  0.00000000000E+00 0. -1.
         24    2    1    2    0    0  0.55232224937E+01 -0.11950120304E+03  0.47467938748E+03  0.49608455127E+03  0.80425851514E+02 0.  0.
         23    2    1    2    0    0  0.15802773635E+02  0.11250075997E+03 -0.72195913339E+02  0.16234993600E+03  0.90769505717E+02 0.  0.
        -11    1    3    3    0    0  0.60997311237E+01 -0.61332480054E+02  0.10418513087E+03  0.12105131690E+03  0.00000000000E+00 0.  1.
         12    1    3    3    0    0 -0.57650863003E+00 -0.58168722984E+02  0.37049425661E+03  0.37503323437E+03  0.00000000000E+00 0. -1.
        -11    1    4    4    0    0 -0.18191108627E+02  0.50403802989E+02  0.93139410579E+01  0.54389422564E+02  0.00000000000E+00 0.  1.
         11    1    4    4    0    0  0.33993882262E+02  0.62096956977E+02 -0.81509854397E+02  0.10796051343E+03  0.00000000000E+00 0. -1.
          1    1    1    2  501    0 -0.21325996129E+02  0.70004430713E+01 -0.23482771114E+02  0.32484532523E+02  0.00000000000E+00 0. -1.
<scales pt_clust_5="13000.00000" pt_clust_6="13000.00000" pt_clust_7="13000.00000" pt_clust_8="13000.00000" pt_clust_9="22.44559"></scales>
<clustering>
<clus scale="   22.446">  2  9  1 -1</clus>
<clus scale="   80.426">  5  6 -1 -1</clus>
<clus scale="   90.770">  7  8 -1 -1</clus>
<clus scale="  143.608">  1  5  2 -1</clus>
<clus scale="   22.446">  2  5  1 -1</clus>
</clustering>
</event>
<event>
 9    2  0.1665830E-004  0.1060705E+03  0.7546771E-02  0.1273800E+00
          2   -1    0    0  502    0 -0.00000000000E+00  0.00000000000E+00  0.11785962210E+04  0.11785962210E+04  0.00000000000E+00 0. -1.
         21   -1    0    0  501  502  0.00000000000E+00 -0.00000000000E+00 -0.11766160549E+02  0.11766160549E+02  0.00000000000E+00 0.  1.
         24    2    1    2    0    0  0.46572904465E+02  0.29072598878E+02  0.62623676713E+03  0.63389958155E+03  0.81498095352E+02 0.  0.
         23    2    1    2    0    0 -0.19578916270E+02 -0.36777974307E+02  0.39810988004E+03  0.41124031114E+03  0.94292966697E+02 0.  0.
        -13    1    3    3    0    0  0.13372940070E+02 -0.28449569261E+02  0.17495428848E+03  0.17775605918E+03  0.00000000000E+00 0.  1.
         14    1    3    3    0    0  0.33199964395E+02  0.57522168139E+02  0.45128247865E+03  0.45614352237E+03  0.00000000000E+00 0. -1.
        -13    1    4    4    0    0 -0.43867680597E+02 -0.56403269940E+02  0.29323470040E+03  0.30181499594E+03  0.00000000000E+00 0. -1.
         13    1    4    4    0    0  0.24288764327E+02  0.19625295633E+02  0.10487517964E+03  0.10942531520E+03  0.00000000000E+00 0.  1.
          1    1    1    2  501    0 -0.26993988194E+02  0.77053754290E+01  0.14248341327E+03  0.14522248884E+03  0.00000000000E+00 0. -1.
<scales pt_clust_5="13000.00000" pt_clust_6="13000.00000" pt_clust_7="13000.00000" pt_clust_8="13000.00000" pt_clust_9="28.07221"></scales>
<clustering>
<clus scale="   28.072">  2  9  1 -1</clus>
<clus scale="   81.498">  5  6 -1 -1</clus>
<clus scale="   94.293">  7  8 -1 -1</clus>
<clus scale="   94.877">  1  5  2 -1</clus>
<clus scale="   28.072">  2  5  1 -1</clus>
</clustering>
</event>
<event>
 9    2  0.1665830E-004  0.1505556E+03  0.7546771E-02  0.1202459E+00
         21   -1    0    0  501  502  0.00000000000E+00  0.00000000000E+00  0.11485582180E+03  0.11485582180E+03  0.00000000000E+00 0. -1.
         -3   -1    0    0    0  501 -0.00000000000E+00 -0.00000000000E+00 -0.50494533625E+03  0.50494533625E+03  0.00000000000E+00 0.  1.
         23    2    1    2    0    0 -0.78719285148E+02 -0.96955435275E+02 -0.36913014186E+03  0.40123321577E+03  0.95571698316E+02 0.  0.
         24    2    1    2    0    0  0.30635868321E+02  0.63650334630E+02  0.56245881234E+02  0.12170775479E+03  0.81604270067E+02 0.  0.
        -13    1    4    4    0    0 -0.46298625669E+01  0.50440848131E+02 -0.38375931153E+01  0.50798050243E+02  0.00000000000E+00 0.  1.
         14    1    4    4    0    0  0.35265730888E+02  0.13209486499E+02  0.60083474349E+02  0.70909704544E+02  0.00000000000E+00 0. -1.
        -11    1    3    3    0    0 -0.50813366486E+02 -0.11231890489E+03 -0.31716684018E+03  0.34028273409E+03  0.00000000000E+00 0.  1.
         11    1    3    3    0    0 -0.27905918661E+02  0.15363469614E+02 -0.51963301679E+02  0.60950481674E+02  0.00000000000E+00 0. -1.
         -4    1    1    2    0  502  0.48083416827E+02  0.33305100645E+02 -0.77205253821E+02  0.96860187489E+02  0.00000000000E+00 0.  1.
<scales pt_clust_5="13000.00000" pt_clust_6="13000.00000" pt_clust_7="13000.00000" pt_clust_8="13000.00000" pt_clust_9="58.49144"></scales>
<clustering>
<clus scale="   58.491">  1  9  2 -1</clus>
<clus scale="   81.604">  5  6 -1 -1</clus>
<clus scale="   95.572">  7  8 -1 -1</clus>
<clus scale="  142.100">  1  5  2 -1</clus>
<clus scale="   58.491">  1  5  2 -1</clus>
</clustering>
</event>
<event>
 9    2  0.1665830E-004  0.9955471E+02  0.7546771E-02  0.1285439E+00
         -3   -1    0    0    0  501 -0.00000000000E+00  0.00000000000E+00  0.34559506753E+03  0.34559506753E+03  0.00000000000E+00 0.  1.
         21   -1    0    0  501  502  0.00000000000E+00 -0.00000000000E+00 -0.44816757776E+02  0.44816757776E+02  0.00000000000E+00 0. -1.
         24    2    1    2    0    0  0.25935304871E+02  0.36107097307E+02  0.21797337130E+03  0.23684488762E+03  0.81281902547E+02 0.  0.
         23    2    1    2    0    0 -0.11987999618E+01 -0.44725527592E+02  0.77644245129E+02  0.12686853378E+03  0.89806381293E+02 0.  0.
        -13    1    3    3    0    0  0.21865931336E+01  0.56352180651E+02  0.17409313591E+03  0.18299937001E+03  0.00000000000E+00 0.  1.
         14    1    3    3    0    0  0.23748711737E+02 -0.20245083344E+02  0.43880235392E+02  0.53845517611E+02  0.00000000000E+00 0. -1.
        -13    1    4    4    0    0  0.20564926929E+02 -0.60653632927E+02  0.27026327491E+02  0.69514040196E+02  0.00000000000E+00 0. -1.
         13    1    4    4    0    0 -0.21763726891E+02  0.15928105334E+02  0.50617917638E+02  0.57354493579E+02  0.00000000000E+00 0.  1.
         -4    1    1    2    0  502 -0.24736504909E+02  0.86184302849E+01  0.51606933244E+01  0.26698403909E+02  0.00000000000E+00 0.  1.
<scales pt_clust_5="13000.00000" pt_clust_6="13000.00000" pt_clust_7="13000.00000" pt_clust_8="13000.00000" pt_clust_9="26.19489"></scales>
<clustering>
<clus scale="   26.195">  2  9  1 -1</clus>
<clus scale="   81.282">  5  6 -1 -1</clus>
<clus scale="   89.806">  7  8 -1 -1</clus>
<clus scale="   91.939">  1  5  2 -1</clus>
<clus scale="   26.195">  2  5  1 -1</clus>
</clustering>
</event>
<event>
 9    2  0.1842697E-004  0.3549219E+03  0.7546771E-02  0.1113056E+00
          2   -1    0    0  502    0 -0.00000000000E+00  0.00000000000E+00  0.74563571098E+03  0.74563571098E+03  0.00000000000E+00 0. -1.
         21   -1    0    0  501  502  0.00000000000E+00 -0.00000000000E+00 -0.33170020986E+03  0.33170020986E+03  0.00000000000E+00 0.  1.
         24    2    1    2    0    0  0.33767074776E+02 -0.99761649489E+01  0.36648571620E+03  0.37688460907E+03  0.80563572227E+02 0.  0.
         23    2    1    2    0    0 -0.19211459105E+03  0.29982145705E+03  0.69610095964E+01  0.36769979759E+03  0.91398923902E+02 0.  0.
        -13    1    3    3    0    0  0.38944811823E+02 -0.38185119095E+02  0.17616469597E+03  0.18441475482E+03  0.00000000000E+00 0.  1.
         14    1    3    3    0    0 -0.51777370477E+01  0.28208954146E+02  0.19032102023E+03  0.19246985425E+03  0.00000000000E+00 0. -1.
        -11    1    4    4    0    0 -0.91969342695E+02  0.10138284933E+03  0.40864734763E+02  0.14285226173E+03  0.00000000000E+00 0. -1.
         11    1    4    4    0    0 -0.10014524836E+03  0.19843860772E+03 -0.33903725166E+02  0.22484753586E+03  0.00000000000E+00 0.  1.
          1    1    1    2  501    0  0.15834751628E+03 -0.28984529210E+03  0.40488775326E+02  0.33275151418E+03  0.00000000000E+00 0. -1.
<scales pt_clust_5="13000.00000" pt_clust_6="13000.00000" pt_clust_7="13000.00000" pt_clust_8="13000.00000" pt_clust_9="342.95180"></scales>
<clustering>
<clus scale="   80.564">  5  6 -1 -1</clus>
<clus scale="   87.922">  1  5  2 -1</clus>
<clus scale="   91.399">  7  8 -1 -1</clus>
<clus scale="  342.952">  2  9  1 -1</clus>
<clus scale="  342.952">  2  5  1 -1</clus>
</clustering>
</event>
<event>
 9    2  0.1665830E-004  0.1340064E+03  0.7546771E-02  0.1224535E+00
          2   -1    0    0  502    0 -0.00000000000E+00  0.00000000000E+00  0.86005090385E+03  0.86005090385E+03  0.00000000000E+00 0. -1.
         21   -1    0    0  501  502  0.00000000000E+00 -0.00000000000E+00 -0.28027522100E+02  0.28027522100E+02  0.00000000000E+00 0. -1.
         24    2    1    2    0    0  0.42284296537E+02 -0.84014658346E+02  0.39799237105E+03  0.41668844713E+03  0.79905631866E+02 0.  0.
         23    2    1    2    0    0 -0.69453441540E+02  0.80334509297E+02  0.26261685204E+03  0.29779700740E+03  0.91858765053E+02 0.  0.
        -13    1    3    3    0    0  0.62444983326E+02 -0.38648525784E+02  0.25227739140E+03  0.26274886622E+03  0.00000000000E+00 0.  1.
         14    1    3    3    0    0 -0.20160686789E+02 -0.45366132562E+02  0.14571497965E+03  0.15393958091E+03  0.00000000000E+00 0. -1.
        -11    1    4    4    0    0 -0.29275223500E+02 -0.14446718566E+02  0.10130648016E+03  0.10643659761E+03  0.00000000000E+00 0.  1.
         11    1    4    4    0    0 -0.40178218040E+02  0.94781227863E+02  0.16131037187E+03  0.19136040979E+03  0.00000000000E+00 0. -1.
          1    1    1    2  501    0  0.27169145002E+02  0.36801490487E+01  0.17141415866E+03  0.17359297142E+03  0.00000000000E+00 0. -1.
<scales pt_clust_5="13000.00000" pt_clust_6="13000.00000" pt_clust_7="13000.00000" pt_clust_8="13000.00000" pt_clust_9="27.41727"></scales>
<clustering>
<clus scale="   27.417">  2  9  1 -1</clus>
<clus scale="   79.906">  5  6 -1 -1</clus>
<clus scale="   91.859">  7  8 -1 -1</clus>
<clus scale="  126.113">  1  5  2 -1</clus>
<clus scale="   27.417">  2  5  1 -1</clus>
</clustering>
</event>
<event>
 9    2  0.1665830E-004  0.1469351E+03  0.7546771E-02  0.1207877E+00
         21   -1    0    0  501  502  0.00000000000E+00  0.00000000000E+00  0.35645841328E+03  0.35645841328E+03  0.00000000000E+00 0. -1.
          4   -1    0    0  502    0 -0.00000000000E+00 -0.00000000000E+00 -0.42103753122E+03  0.42103753122E+03  0.00000000000E+00 0. -1.
         24    2    1    2    0    0  0.21959878464E+02 -0.83934837549E+02 -0.13851208000E+03  0.18316518171E+03  0.82683700123E+02 0.  0.
         23    2    1    2    0    0 -0.32925417939E+02  0.12948645804E+03 -0.23154463253E+03  0.28528100307E+03  0.99606766317E+02 0.  0.
        -13    1    3    3    0    0  0.18528750026E+02 -0.23319015006E+02  0.22490944811E+01  0.29868871160E+02  0.00000000000E+00 0.  1.
         14    1    3    3    0    0  0.34311284373E+01 -0.60615822543E+02 -0.14076117448E+03  0.15329631055E+03  0.00000000000E+00 0. -1.
        -11    1    4    4    0    0 -0.38721748174E+02  0.56463655137E+02 -0.37924772582E+02  0.78267531637E+02  0.00000000000E+00 0.  1.
         11    1    4    4    0    0  0.57963302357E+01  0.73022802907E+02 -0.19361985995E+03  0.20701347144E+03  0.00000000000E+00 0. -1.
          3    1    1    2  501    0  0.10965539475E+02 -0.45551620495E+02  0.30547759459E+03  0.30904975972E+03  0.00000000000E+00 0. -1.
<scales pt_clust_5="13000.00000" pt_clust_6="13000.00000" pt_clust_7="13000.00000" pt_clust_8="13000.00000" pt_clust_9="46.85289"></scales>
<clustering>
<clus scale="   46.853">  1  9  2 -1</clus>
<clus scale="   82.684">  5  6 -1 -1</clus>
<clus scale="   99.607">  7  8 -1 -1</clus>
<clus scale="  136.033">  2  5  1 -1</clus>
<clus scale="   46.853">  1  5  2 -1</clus>
</clustering>
</event>
<event>
 9    2  0.1665830E-004  0.1418877E+03  0.7546771E-02  0.1235330E+00
         21   -1    0    0  501  502  0.00000000000E+00  0.00000000000E+00  0.66025622674E+02  0.66025622674E+02  0.00000000000E+00 0.  1.
         -1   -1    0    0    0  501 -0.00000000000E+00 -0.00000000000E+00 -0.45142215906E+03  0.45142215906E+03  0.00000000000E+00 0.  1.
         24    2    1    2    0    0 -0.14993538466E+01 -0.26520066414E+02 -0.15130366469E+03  0.17355178635E+03  0.80758043620E+02 0.  0.
         23    2    1    2    0    0 -0.73740720138E+02  0.93831538085E+02 -0.12722958682E+03  0.19688693239E+03  0.91296467814E+02 0.  0.
        -11    1    3    3    0    0  0.16208924407E+02 -0.44080120873E+02 -0.47515601300E+02  0.66809570075E+02  0.00000000000E+00 0.  1.
         12    1    3    3    0    0 -0.17708278254E+02  0.17560054460E+02 -0.10378806339E+03  0.10674221627E+03  0.00000000000E+00 0. -1.
        -11    1    4    4    0    0 -0.61266769786E+02  0.61748748241E+01 -0.48032785682E+02  0.78095420221E+02  0.00000000000E+00 0.  1.
         11    1    4    4    0    0 -0.12473950352E+02  0.87656663261E+02 -0.79196801143E+02  0.11879151217E+03  0.00000000000E+00 0. -1.
         -2    1    1    2    0  502  0.75240073985E+02 -0.67311471672E+02 -0.10686328487E+03  0.14700906300E+03  0.00000000000E+00 0.  1.
<scales pt_clust_5="13000.00000" pt_clust_6="13000.00000" pt_clust_7="13000.00000" pt_clust_8="13000.00000" pt_clust_9="108.61442"></scales>
<clustering>
<clus scale="   80.758">  5  6 -1 -1</clus>
<clus scale="   85.014">  2  5  1 -1</clus>
<clus scale="   91.296">  7  8 -1 -1</clus>
<clus scale="  108.614">  1  9  2 -1</clus>
<clus scale="  108.614">  1  5  2 -1</clus>
</clustering>
</event>
<event>
 9    2  0.1665830E-004  0.1133141E+03  0.7546771E-02  0.1258524E+00
         21   -1    0    0  501  502  0.00000000000E+00  0.00000000000E+00  0.43488957987E+02  0.43488957987E+02  0.00000000000E+00 0.  1.
          2   -1    0    0  502    0 -0.00000000000E+00 -0.00000000000E+00 -0.99047038298E+03  0.99047038298E+03  0.00000000000E+00 0. -1.
         24    2    1    2    0    0  0.63563268763E+02  0.52519757985E+02 -0.57706013653E+03  0.58804543254E+03  0.77462348603E+02 0.  0.
         23    2    1    2    0    0 -0.74176576644E+02  0.43611494797E+02 -0.30593283494E+03  0.32994674820E+03  0.88689515455E+02 0.  0.
        -11    1    3    3    0    0  0.64121437314E+01 -0.19881912782E+02 -0.10511987074E+03  0.10717552551E+03  0.00000000000E+00 0.  1.
         12    1    3    3    0    0  0.57151125032E+02  0.72401670767E+02 -0.47194026579E+03  0.48086990704E+03  0.00000000000E+00 0. -1.
        -11    1    4    4    0    0 -0.20910368174E+02  0.10454414818E+02 -0.68608041692E+01  0.24364090794E+02  0.00000000000E+00 0. -1.
         11    1    4    4    0    0 -0.53266208470E+02  0.33157079979E+02 -0.29907203077E+03  0.30558265741E+03  0.00000000000E+00 0.  1.
          1    1    1    2  501    0  0.10613307881E+02 -0.96131252782E+02 -0.63988453521E+02  0.11596716022E+03  0.00000000000E+00 0. -1.
<scales pt_clust_5="13000.00000" pt_clust_6="13000.00000" pt_clust_7="13000.00000" pt_clust_8="13000.00000" pt_clust_9="96.71536"></scales>
<clustering>
<clus scale="   77.462">  5  6 -1 -1</clus>
<clus scale="   88.690">  7  8 -1 -1</clus>
<clus scale="   96.715">  1  9  2 -1</clus>
<clus scale="  104.760">  2  5  1 -1</clus>
<clus scale="   96.715">  1  5  2 -1</clus>
</clustering>
</event>
<event>
 9    2  0.1665830E-004  0.9863933E+02  0.7546771E-02  0.1290419E+00
         21   -1    0    0  501  502  0.00000000000E+00  0.00000000000E+00  0.75693308201E+02  0.75693308201E+02  0.00000000000E+00 0. -1.
         -3   -1    0    0    0  501 -0.00000000000E+00 -0.00000000000E+00 -0.26534656570E+03  0.26534656570E+03  0.00000000000E+00 0.  1.
         23    2    1    2    0    0  0.82372521488E+01  0.35708613056E+02 -0.20510639574E+03  0.22800398976E+03  0.92597129559E+02 0.  0.
         24    2    1    2    0    0  0.11128965321E+02 -0.26911857055E+02 -0.37813775245E+01  0.84358368702E+02  0.79081816082E+02 0.  0.
        -13    1    4    4    0    0  0.42166572915E+02  0.10126845905E+01 -0.57086958263E+01  0.42563301205E+02  0.00000000000E+00 0.  1.
         14    1    4    4    0    0 -0.31037607594E+02 -0.27924541646E+02  0.19273183018E+01  0.41795067497E+02  0.00000000000E+00 0. -1.
        -11    1    3    3    0    0  0.52765639045E+01 -0.29395901122E+02 -0.36010538132E+02  0.46783757716E+02  0.00000000000E+00 0. -1.
         11    1    3    3    0    0  0.29606882443E+01  0.65104514178E+02 -0.16909585761E+03  0.18122023204E+03  0.00000000000E+00 0.  1.
         -4    1    1    2    0  502 -0.19366217470E+02 -0.87967560012E+01  0.19234515764E+02  0.28677515442E+02  0.00000000000E+00 0.  1.
<scales pt_clust_5="13000.00000" pt_clust_6="13000.00000" pt_clust_7="13000.00000" pt_clust_8="13000.00000" pt_clust_9="21.27048"></scales>
<clustering>
<clus scale="   21.270">  1  9  2 -1</clus>
<clus scale="   79.082">  5  6 -1 -1</clus>
<clus scale="   86.078">  1  5  2 -1</clus>
<clus scale="   92.597">  7  8 -1 -1</clus>
<clus scale="   21.270">  1  5  2 -1</clus>
</clustering>
</event>
<event>
 9    2  0.1665830E-004  0.1471689E+03  0.7546771E-02  0.1220917E+00
         -1   -1    0    0    0  501 -0.00000000000E+00  0.00000000000E+00  0.57310558844E+03  0.57310558844E+03  0.00000000000E+00 0.  1.
         21   -1    0    0  501  502  0.00000000000E+00 -0.00000000000E+00 -0.13862586928E+03  0.13862586928E+03  0.00000000000E+00 0. -1.
         24    2    1    2    0    0  0.40796654457E+02  0.48264272001E+02 -0.78412536458E+02  0.12920543809E+03  0.80942648779E+02 0.  0.
         23    2    1    2    0    0 -0.13202181542E+03  0.14686373848E+02  0.34959707987E+03  0.38516815122E+03  0.92146281181E+02 0.  0.
        -11    1    3    3    0    0  0.57597168033E+02  0.20683446762E+02 -0.23609328679E+02  0.65594505380E+02  0.00000000000E+00 0.  1.
         12    1    3    3    0    0 -0.16800513576E+02  0.27580825239E+02 -0.54803207779E+02  0.63610932709E+02  0.00000000000E+00 0. -1.
        -13    1    4    4    0    0 -0.12090024403E+03  0.45205491058E+02  0.27347172477E+03  0.30240236387E+03  0.00000000000E+00 0.  1.
         13    1    4    4    0    0 -0.11121571390E+02 -0.30519117210E+02  0.76125355101E+02  0.82765787344E+02  0.00000000000E+00 0. -1.
         -2    1    1    2    0  502  0.91225160959E+02 -0.62950645850E+02  0.16329517575E+03  0.19735786842E+03  0.00000000000E+00 0.  1.
<scales pt_clust_5="13000.00000" pt_clust_6="13000.00000" pt_clust_7="13000.00000" pt_clust_8="13000.00000" pt_clust_9="114.75079"></scales>
<clustering>
<clus scale="   80.943">  5  6 -1 -1</clus>
<clus scale="   92.146">  7  8 -1 -1</clus>
<clus scale="  102.691">  1  5  2 -1</clus>
<clus scale="  114.751">  2  9  1 -1</clus>
<clus scale="  114.751">  2  5  1 -1</clus>
</clustering>
</event>
<event>
 9    2  0.1665830E-004  0.1308362E+03  0.7546771E-02  0.1227470E+00
         -1   -1    0    0    0  501 -0.00000000000E+00  0.00000000000E+00  0.24197131965E+03  0.24197131965E+03  0.00000000000E+00 0.  1.
         21   -1    0    0  501  502  0.00000000000E+00 -0.00000000000E+00 -0.23409978254E+03  0.23409978254E+03  0.00000000000E+00 0.  1.
         23    2    1    2    0    0 -0.95644153543E+02  0.48807981888E+02  0.15217951864E+03  0.20511131360E+03  0.85918693372E+02 0.  0.
         24    2    1    2    0    0  0.90965615817E+01 -0.76502742768E+02 -0.14128737404E+03  0.18003889153E+03  0.80724614064E+02 0.  0.
        -11    1    4    4    0    0 -0.32278969226E+02 -0.44018838990E+02 -0.46827270924E+02  0.71919283524E+02  0.00000000000E+00 0.  1.
         12    1    4    4    0    0  0.41375530808E+02 -0.32483903778E+02 -0.94460103114E+02  0.10811960800E+03  0.00000000000E+00 0. -1.
        -13    1    3    3    0    0 -0.22185926391E+02 -0.15067083723E+02  0.78707794859E+02  0.83151363869E+02  0.00000000000E+00 0.  1.
         13    1    3    3    0    0 -0.73458227152E+02  0.63875065611E+02  0.73471723776E+02  0.12195994973E+03  0.00000000000E+00 0. -1.
         -2    1    1    2    0  502  0.86547591961E+02  0.27694760881E+02 -0.30206074892E+01  0.90920897071E+02  0.00000000000E+00 0.  1.
<scales pt_clust_5="13000.00000" pt_clust_6="13000.00000" pt_clust_7="13000.00000" pt_clust_8="13000.00000" pt_clust_9="90.87071"></scales>
<clustering>
<clus scale="   80.725">  5  6 -1 -1</clus>
<clus scale="   85.919">  7  8 -1 -1</clus>
<clus scale="   90.871">  2  9  1 -1</clus>
<clus scale="  127.485">  2  5  1 -1</clus>
<clus scale="   90.871">  2  5  1 -1</clus>
</clustering>
</event>
<event>
 9    2  0.1665830E-004  0.1496040E+03  0.7546771E-02  0.1215661E+00
          2   -1    0    0  502    0 -0.00000000000E+00  0.00000000000E+00  0.31708839665E+03  0.31708839665E+03  0.00000000000E+00 0. -1.
         21   -1    0    0  501  502  0.00000000000E+00 -0.00000000000E+00 -0.92607165033E+03  0.92607165033E+03  0.00000000000E+00 0. -1.
         24    2    1    2    0    0  0.75126907415E+02 -0.11330929341E+02 -0.15434225212E+03  0.18906641017E+03  0.78435543537E+02 0.  0.
         23    2    1    2    0    0 -0.67236364859E+02 -0.10666084937E+03  0.27431964018E+03  0.31560332697E+03  0.91961565136E+02 0.  0.
        -13    1    3    3    0    0  0.22043523119E+02 -0.37238754591E+02 -0.99335281852E+02  0.10835192650E+03  0.00000000000E+00 0.  1.
         14    1    3    3    0    0  0.53083384296E+02  0.25907825249E+02 -0.55006970264E+02  0.80714483676E+02  0.00000000000E+00 0. -1.
        -11    1    4    4    0    0 -0.32909084269E+02 -0.57954727127E+02  0.23486476966E+03  0.24413770346E+03  0.00000000000E+00 0. -1.
         11    1    4    4    0    0 -0.34327280590E+02 -0.48706122245E+02  0.39454870521E+02  0.71465623517E+02  0.00000000000E+00 0.  1.
          1    1    1    2  501    0 -0.78905425555E+01  0.11799177871E+03 -0.72896064174E+03  0.73849030983E+03  0.00000000000E+00 0. -1.
<scales pt_clust_5="13000.00000" pt_clust_6="13000.00000" pt_clust_7="13000.00000" pt_clust_8="13000.00000" pt_clust_9="118.00180"></scales>
<clustering>
<clus scale="   78.436">  5  6 -1 -1</clus>
<clus scale="   91.962">  7  8 -1 -1</clus>
<clus scale="  109.200">  1  5  2 -1</clus>
<clus scale="  118.002">  2  9  1 -1</clus>
<clus scale="  118.002">  2  5  1 -1</clus>
</clustering>
</event>
<event>
 9    2  0.1665830E-004  0.1649525E+03  0.7546771E-02  0.1183861E+00
          2   -1    0    0  502    0 -0.00000000000E+00  0.00000000000E+00  0.12958715289E+04  0.12958715289E+04  0.00000000000E+00 0. -1.
         21   -1    0    0  501  502  0.00000000000E+00 -0.00000000000E+00 -0.43927785919E+02  0.43927785919E+02  0.00000000000E+00 0.  1.
         24    2    1    2    0    0 -0.13009465411E+03  0.49998901052E+02  0.10182525757E+04  0.10315486420E+04  0.88486066203E+02 0.  0.
         23    2    1    2    0    0  0.10075064740E+03 -0.79966894246E+02  0.19326412100E+03  0.24999693967E+03  0.92747249298E+02 0.  0.
        -11    1    3    3    0    0 -0.48017256363E+02 -0.20824201394E+02  0.23023844457E+03  0.23611235806E+03  0.00000000000E+00 0.  1.
         12    1    3    3    0    0 -0.82077397746E+02  0.70823102446E+02  0.78801413108E+03  0.79543628397E+03  0.00000000000E+00 0. -1.
        -11    1    4    4    0    0  0.55709444621E+02 -0.48990058410E+02  0.33988136567E+02  0.81601234490E+02  0.00000000000E+00 0.  1.
         11    1    4    4    0    0  0.45041202776E+02 -0.30976835837E+02  0.15927598444E+03  0.16839570518E+03  0.00000000000E+00 0. -1.
          1    1    1    2  501    0  0.29344006712E+02  0.29967993195E+02  0.40427046280E+02  0.58253733073E+02  0.00000000000E+00 0. -1.
<scales pt_clust_5="13000.00000" pt_clust_6="13000.00000" pt_clust_7="13000.00000" pt_clust_8="13000.00000" pt_clust_9="41.94224"></scales>
<clustering>
<clus scale="   41.942">  2  9  1 -1</clus>
<clus scale="   88.486">  5  6 -1 -1</clus>
<clus scale="   92.747">  7  8 -1 -1</clus>
<clus scale="  162.595">  1  5  2 -1</clus>
<clus scale="   41.942">  2  5  1 -1</clus>
</clustering>
</event>
<event>
 9    2  0.1665830E-004  0.1360214E+03  0.7546771E-02  0.1219962E+00
         21   -1    0    0  501  502  0.00000000000E+00  0.00000000000E+00  0.28594039689E+03  0.28594039689E+03  0.00000000000E+00 0. -1.
          2   -1    0    0  502    0 -0.00000000000E+00 -0.00000000000E+00 -0.11903295543E+03  0.11903295543E+03  0.00000000000E+00 0. -1.
         24    2    1    2    0    0  0.88126621891E+02  0.32799025671E+02  0.19318747662E+02  0.12579959223E+03  0.81303418278E+02 0.  0.
         23    2    1    2    0    0 -0.86669841199E+02 -0.10702060359E+03  0.98793412854E+02  0.19033714442E+03  0.86619969732E+02 0.  0.
        -11    1    3    3    0    0  0.84226126561E+02  0.39234340265E+02  0.41952293221E+02  0.10194787275E+03  0.00000000000E+00 0.  1.
         12    1    3    3    0    0  0.39004953299E+01 -0.64353145941E+01 -0.22633545559E+02  0.23851719483E+02  0.00000000000E+00 0. -1.
        -11    1    4    4    0    0 -0.23384441660E+02  0.54299419861E+01 -0.52580251064E+01  0.24575662956E+02  0.00000000000E+00 0.  1.
         11    1    4    4    0    0 -0.63285399539E+02 -0.11245054558E+03  0.10405143796E+03  0.16576148147E+03  0.00000000000E+00 0. -1.
          1    1    1    2  501    0 -0.14567806923E+01  0.74221577924E+02  0.48795280941E+02  0.88836615658E+02  0.00000000000E+00 0. -1.
<scales pt_clust_5="13000.00000" pt_clust_6="13000.00000" pt_clust_7="13000.00000" pt_clust_8="13000.00000" pt_clust_9="74.23587"></scales>
<clustering>
<clus scale="   74.236">  1  9  2 -1</clus>
<clus scale="   81.303">  5  6 -1 -1</clus>
<clus scale="   86.620">  7  8 -1 -1</clus>
<clus scale="  132.699">  2  5  1 -1</clus>
<clus scale="   74.236">  1  5  2 -1</clus>
</clustering>
</event>
<event>
 9    2  0.1665830E-004  0.1090688E+03  0.7546771E-02  0.1266763E+00
          2   -1    0    0  502    0 -0.00000000000E+00  0.00000000000E+00  0.49429568395E+03  0.49429568395E+03  0.00000000000E+00 0. -1.
         21   -1    0    0  501  502  0.00000000000E+00 -0.00000000000E+00 -0.29342176790E+02  0.29342176790E+02  0.00000000000E+00 0. -1.
         23    2    1    2    0    0 -0.40202835603E+02 -0.35405823508E+02  0.24313825358E+03  0.26503382916E+03  0.90867375420E+02 0.  0.
         24    2    1    2    0    0  0.39988925998E+02  0.59251713449E+02  0.16181530576E+03  0.19403882452E+03  0.79730749990E+02 0.  0.
        -13    1    4    4    0    0  0.34866864393E+02  0.26839873788E+01  0.11572115074E+03  0.12088956427E+03  0.00000000000E+00 0.  1.
         14    1    4    4    0    0  0.51220616046E+01  0.56567726070E+02  0.46094155011E+02  0.73149260243E+02  0.00000000000E+00 0. -1.
        -11    1    3    3    0    0 -0.65004894177E+02 -0.49708692031E+01  0.13328097378E+03  0.14837170815E+03  0.00000000000E+00 0. -1.
         11    1    3    3    0    0  0.24802058575E+02 -0.30434954305E+02  0.10985727980E+03  0.11666212101E+03  0.00000000000E+00 0.  1.
          1    1    1    2  501    0  0.21390960489E+00 -0.23845889941E+02  0.59999947821E+02  0.64565207061E+02  0.00000000000E+00 0. -1.
<scales pt_clust_5="13000.00000" pt_clust_6="13000.00000" pt_clust_7="13000.00000" pt_clust_8="13000.00000" pt_clust_9="23.84686"></scales>
<clustering>
<clus scale="   23.847">  2  9  1 -1</clus>
<clus scale="   79.731">  5  6 -1 -1</clus>
<clus scale="   90.867">  7  8 -1 -1</clus>
<clus scale="   99.981">  2  5  1 -1</clus>
<clus scale="   23.847">  2  5  1 -1</clus>
</clustering>
</event>
<event>
 9    2  0.1665830E-004  0.9584542E+02  0.7546771E-02  0.1294162E+00
         21   -1    0    0  501  502  0.00000000000E+00  0.00000000000E+00  0.29961633846E+03  0.29961633846E+03  0.00000000000E+00 0.  1.
          2   -1    0    0  502    0 -0.00000000000E+00 -0.00000000000E+00 -0.17776464630E+03  0.17776464630E+03  0.00000000000E+00 0. -1.
         23    2    1    2    0    0 -0.11405598138E+00 -0.17787250069E+01 -0.73922430521E+02  0.11758232449E+03  0.91421553404E+02 0.  0.
         24    2    1    2    0    0 -0.86923159925E+02  0.10738118396E+02 -0.28978730803E+02  0.11861492776E+03  0.74557302326E+02 0.  0.
        -13    1    4    4    0    0 -0.72659030177E+02 -0.31671999716E+01  0.11374982662E+02  0.73612200432E+02  0.00000000000E+00 0.  1.
         14    1    4    4    0    0 -0.14264129748E+02  0.13905318367E+02 -0.40353713466E+02  0.45002727327E+02  0.00000000000E+00 0. -1.
        -11    1    3    3    0    0 -0.28126607026E+02  0.20439427942E+02 -0.74073909434E+02  0.81827992131E+02  0.00000000000E+00 0.  1.
         11    1    3    3    0    0  0.28012551045E+02 -0.22218152949E+02  0.15147891310E+00  0.35754332358E+02  0.00000000000E+00 0. -1.
          1    1    1    2  501    0  0.87037215907E+02 -0.89593933887E+01  0.22475285348E+03  0.24118373252E+03  0.00000000000E+00 0. -1.
<scales pt_clust_5="13000.00000" pt_clust_6="13000.00000" pt_clust_7="13000.00000" pt_clust_8="13000.00000" pt_clust_9="87.49713"></scales>
<clustering>
<clus scale="   74.557">  5  6 -1 -1</clus>
<clus scale="   87.497">  1  9  2 -1</clus>
<clus scale="   87.497">  1  5  2 -1</clus>
<clus scale="   91.422">  7  8 -1 -1</clus>
<clus scale="   87.497">  1  5  2 -1</clus>
</clustering>
</event>
<event>
 9    2  0.1665830E-004  0.3294378E+03  0.7546771E-02  0.1095099E+00
          2   -1    0    0  502    0 -0.00000000000E+00  0.00000000000E+00  0.88347566378E+03  0.88347566378E+03  0.00000000000E+00 0. -1.
         21   -1    0    0  501  502  0.00000000000E+00 -0.00000000000E+00 -0.22174359658E+03  0.22174359658E+03  0.00000000000E+00 0.  1.
         23    2    1    2    0    0  0.23711846491E+02  0.14440918877E+03  0.16493704792E+03  0.24017728177E+03  0.95208358028E+02 0.  0.
         24    2    1    2    0    0  0.11899493936E+03 -0.33104576695E+03  0.65055156295E+02  0.37351603998E+03  0.10738232329E+03 0.  0.
        -13    1    4    4    0    0  0.76433052823E+02 -0.26122919292E+03  0.52851859687E+01  0.27223268721E+03  0.00000000000E+00 0.  1.
         14    1    4    4    0    0  0.42561886541E+02 -0.69816574030E+02  0.59769970327E+02  0.10128335277E+03  0.00000000000E+00 0. -1.
        -11    1    3    3    0    0  0.43187198915E+01  0.31373774076E+02 -0.80028208234E+01  0.32665121803E+02  0.00000000000E+00 0.  1.
         11    1    3    3    0    0  0.19393126600E+02  0.11303541469E+03  0.17293986875E+03  0.20751215997E+03  0.00000000000E+00 0. -1.
          1    1    1    2  501    0 -0.14270678585E+03  0.18663657818E+03  0.43173986298E+03  0.49152593861E+03  0.00000000000E+00 0. -1.
<scales pt_clust_5="13000.00000" pt_clust_6="13000.00000" pt_clust_7="13000.00000" pt_clust_8="13000.00000" pt_clust_9="311.44564"></scales>
<clustering>
<clus scale="   95.208">  7  8 -1 -1</clus>
<clus scale="  107.382">  5  6 -1 -1</clus>
<clus scale="  174.588">  1  7  2 -1</clus>
<clus scale="  311.446">  2  9  1 -1</clus>
<clus scale="  311.446">  2  5  1 -1</clus>
</clustering>
</event>
<event>
 9    2  0.1665830E-004  0.1199858E+03  0.7546771E-02  0.1246280E+00
         21   -1    0    0  501  502  0.00000000000E+00  0.00000000000E+00  0.93339888381E+02  0.93339888381E+02  0.00000000000E+00 0. -1.
          2   -1    0    0  502    0 -0.00000000000E+00 -0.00000000000E+00 -0.49908931650E+03  0.49908931650E+03  0.00000000000E+00 0. -1.
         23    2    1    2    0    0  0.52221490141E+02 -0.19668526415E+02 -0.62582415674E+02  0.12404563680E+03  0.91415678596E+02 0.  0.
         24    2    1    2    0    0 -0.61767777188E+02  0.11583281277E+03 -0.54260565305E+02  0.16374339220E+03  0.81456680071E+02 0.  0.
        -13    1    4    4    0    0 -0.26646672502E+02  0.39800821073E+02  0.19909548572E+02  0.51870421609E+02  0.00000000000E+00 0.  1.
         14    1    4    4    0    0 -0.35121104686E+02  0.76031991694E+02 -0.74170113877E+02  0.11187297059E+03  0.00000000000E+00 0. -1.
        -13    1    3    3    0    0 -0.13017609330E+02  0.24016600459E+02 -0.81478497023E+01  0.28506888730E+02  0.00000000000E+00 0.  1.
         13    1    3    3    0    0  0.65239099472E+02 -0.43685126874E+02 -0.54434565972E+02  0.95538748068E+02  0.00000000000E+00 0. -1.
          1    1    1    2  501    0  0.95462870467E+01 -0.96164286353E+02 -0.28890644714E+03  0.30464017589E+03  0.00000000000E+00 0. -1.
<scales pt_clust_5="13000.00000" pt_clust_6="13000.00000" pt_clust_7="13000.00000" pt_clust_8="13000.00000" pt_clust_9="96.63701"></scales>
<clustering>
<clus scale="   81.457">  5  6 -1 -1</clus>
<clus scale="   91.416">  7  8 -1 -1</clus>
<clus scale="   96.637">  1  9  2 -1</clus>
<clus scale="  112.583">  1  5  2 -1</clus>
<clus scale="   96.637">  1  5  2 -1</clus>
</clustering>
</event>
<event>
 9    2  0.1665830E-004  0.1050673E+03  0.7546771E-02  0.1275972E+00
         -1   -1    0    0    0  501 -0.00000000000E+00  0.00000000000E+00  0.12532767549E+03  0.12532767549E+03  0.00000000000E+00 0.  1.
         21   -1    0    0  501  502  0.00000000000E+00 -0.00000000000E+00 -0.24524375436E+03  0.24524375436E+03  0.00000000000E+00 0.  1.
         24    2    1    2    0    0 -0.29611748330E+02  0.63183180229E+02  0.53352447173E+02  0.11874072449E+03  0.79899350003E+02 0.  0.
         23    2    1    2    0    0 -0.21202334222E+02  0.50389792747E+01 -0.72416939630E+02  0.11989368814E+03  0.93034149760E+02 0.  0.
        -13    1    3    3    0    0 -0.51784112383E+02  0.64502066120E+02  0.48890815719E+02  0.96085496776E+02  0.00000000000E+00 0.  1.
         14    1    3    3    0    0  0.22172364053E+02 -0.13188858915E+01  0.44616314540E+01  0.22655227717E+02  0.00000000000E+00 0. -1.
        -11    1    4    4    0    0  0.17636568338E+02  0.26965286567E+02  0.29111973420E+01  0.32351975092E+02  0.00000000000E+00 0.  1.
         11    1    4    4    0    0 -0.38838902560E+02 -0.21926307292E+02 -0.75328136972E+02  0.87541713047E+02  0.00000000000E+00 0. -1.
         -2    1    1    2    0  502  0.50814082552E+02 -0.68222159504E+02 -0.10085158641E+03  0.13193701723E+03  0.00000000000E+00 0.  1.
<scales pt_clust_5="13000.00000" pt_clust_6="13000.00000" pt_clust_7="13000.00000" pt_clust_8="13000.00000" pt_clust_9="85.06664"></scales>
<clustering>
<clus scale="   79.899">  5  6 -1 -1</clus>
<clus scale="   85.067">  2  9  1 -1</clus>
<clus scale="   93.034">  7  8 -1 -1</clus>
<clus scale="   93.636">  1  5  2 -1</clus>
<clus scale="   85.067">  2  5  1 -1</clus>
</clustering>
</event>
<event>
 9    2  0.1665830E-004  0.9713453E+02  0.7546771E-02  0.1292472E+00
         -1   -1    0    0    0  501 -0.00000000000E+00  0.00000000000E+00  0.98930501447E+02  0.98930501447E+02  0.00000000000E+00 0.  1.
         21   -1    0    0  501  502  0.00000000000E+00 -0.00000000000E+00 -0.22962785523E+03  0.22962785523E+03  0.00000000000E+00 0. -1.
         23    2    1    2    0    0  0.20740341643E+02  0.29293177677E+02  0.43597517455E+02  0.10707143758E+03  0.90968660463E+02 0.  0.
         24    2    1    2    0    0  0.31973147872E+01 -0.35319267503E+02 -0.63460865030E+02  0.10793736126E+03  0.79784203240E+02 0.  0.
        -11    1    4    4    0    0  0.19249305742E+02  0.15042384382E+02  0.11535719156E+01  0.24456897342E+02  0.00000000000E+00 0.  1.
         12    1    4    4    0    0 -0.16051990955E+02 -0.50361651885E+02 -0.64614436946E+02  0.83480463918E+02  0.00000000000E+00 0. -1.
        -11    1    3    3    0    0  0.48854237429E+02  0.11171454112E+01  0.46112707243E+02  0.67189034060E+02  0.00000000000E+00 0.  1.
         11    1    3    3    0    0 -0.28113895786E+02  0.28176032265E+02 -0.25151897883E+01  0.39882403515E+02  0.00000000000E+00 0. -1.
         -2    1    1    2    0  502 -0.23937656430E+02  0.60260898265E+01 -0.11083400621E+03  0.11354955784E+03  0.00000000000E+00 0.  1.
<scales pt_clust_5="13000.00000" pt_clust_6="13000.00000" pt_clust_7="13000.00000" pt_clust_8="13000.00000" pt_clust_9="24.68451"></scales>
<clustering>
<clus scale="   24.685">  2  9  1 -1</clus>
<clus scale="   79.784">  5  6 -1 -1</clus>
<clus scale="   86.749">  2  5  1 -1</clus>
<clus scale="   90.969">  7  8 -1 -1</clus>
<clus scale="   24.685">  2  5  1 -1</clus>
</clustering>
</event>
<event>
 9    2  0.1665830E-004  0.2102183E+03  0.7546771E-02  0.1141721E+00
          2   -1    0    0  502    0 -0.00000000000E+00  0.00000000000E+00  0.62860527546E+03  0.62860527546E+03  0.00000000000E+00 0. -1.
         21   -1    0    0  501  502  0.00000000000E+00 -0.00000000000E+00 -0.96549832571E+02  0.96549832571E+02  0.00000000000E+00 0.  1.
         24    2    1    2    0    0 -0.16943401094E+03 -0.14120141392E+03  0.30522230407E+03  0.38507838826E+03  0.80492153965E+02 0.  0.
         23    2    1    2    0    0  0.12062943483E+03  0.10257629865E+03  0.11852185150E+03  0.21515626052E+03  0.84684293501E+02 0.  0.
        -11    1    3    3    0    0 -0.16822348703E+03 -0.15006820601E+03  0.29746008360E+03  0.37323197797E+03  0.00000000000E+00 0.  1.
         12    1    3    3    0    0 -0.12105239065E+01  0.88667920938E+01  0.77622204676E+01  0.11846410290E+02  0.00000000000E+00 0. -1.
        -13    1    4    4    0    0  0.14688389034E+02  0.63105982587E+02  0.57796084841E+02  0.86824542807E+02  0.00000000000E+00 0. -1.
         13    1    4    4    0    0  0.10594104580E+03  0.39470316060E+02  0.60725766657E+02  0.12833171771E+03  0.00000000000E+00 0.  1.
          1    1    1    2  501    0  0.48804576106E+02  0.38625115270E+02  0.10831128732E+03  0.12492045926E+03  0.00000000000E+00 0. -1.
<scales pt_clust_5="13000.00000" pt_clust_6="13000.00000" pt_clust_7="13000.00000" pt_clust_8="13000.00000" pt_clust_9="62.23978"></scales>
<clustering>
<clus scale="   62.240">  2  9  1 -1</clus>
<clus scale="   80.492">  5  6 -1 -1</clus>
<clus scale="   84.684">  7  8 -1 -1</clus>
<clus scale="  208.565">  1  5  2 -1</clus>
<clus scale="   62.240">  2  5  1 -1</clus>
</clustering>
</event>
<event>
 9    2  0.1665830E-004  0.2189981E+03  0.7546771E-02  0.1135485E+00
         21   -1    0    0  501  502  0.00000000000E+00  0.00000000000E+00  0.12149742798E+03  0.12149742798E+03  0.00000000000E+00 0.  1.
         -1   -1    0    0    0  501 -0.00000000000E+00 -0.00000000000E+00 -0.14638074624E+04  0.14638074624E+04  0.00000000000E+00 0.  1.
         23    2    1    2    0    0 -0.87087504098E+02 -0.20215543662E+03 -0.11778391144E+04  0.12017363053E+04  0.91728481011E+02 0.  0.
         24    2    1    2    0    0  0.15041661483E+03  0.50989656928E+02 -0.11667808484E+03  0.21284710336E+03  0.80405290835E+02 0.  0.
        -11    1    4    4    0    0  0.14766837903E+03  0.47813475900E+02 -0.12773573002E+03  0.20101864433E+03  0.00000000000E+00 0.  1.
         12    1    4    4    0    0  0.27482358063E+01  0.31761810282E+01  0.11057645186E+02  0.11828459030E+02  0.00000000000E+00 0. -1.
        -11    1    3    3    0    0 -0.44178380281E+02 -0.34868464712E+02 -0.16643793859E+03  0.17569611981E+03  0.00000000000E+00 0. -1.
         11    1    3    3    0    0 -0.42909123816E+02 -0.16728697190E+03 -0.10114011758E+04  0.10260401855E+04  0.00000000000E+00 0.  1.
         -2    1    1    2    0  502 -0.63329110737E+02  0.15116577969E+03 -0.47792835197E+02  0.17072148169E+03  0.00000000000E+00 0.  1.
<scales pt_clust_5="13000.00000" pt_clust_6="13000.00000" pt_clust_7="13000.00000" pt_clust_8="13000.00000" pt_clust_9="163.89530"></scales>
<clustering>
<clus scale="   80.405">  5  6 -1 -1</clus>
<clus scale="   91.728">  7  8 -1 -1</clus>
<clus scale="  163.895">  1  9  2 -1</clus>
<clus scale="  214.502">  1  5  2 -1</clus>
<clus scale="  163.895">  1  5  2 -1</clus>
</clustering>
</event>
<event>
 9    2  0.1665830E-004  0.1139968E+03  0.7546771E-02  0.1258618E+00
          2   -1    0    0  502    0 -0.00000000000E+00  0.00000000000E+00  0.39512998474E+03  0.39512998474E+03  0.00000000000E+00 0. -1.
         21   -1    0    0  501  502  0.00000000000E+00 -0.00000000000E+00 -0.11879258081E+03  0.11879258081E+03  0.00000000000E+00 0.  1.
         24    2    1    2    0    0  0.23168678892E+02  0.63851199913E+02  0.26828536774E+03  0.28710829207E+03  0.76422309702E+02 0.  0.
         23    2    1    2    0    0  0.57215441539E+02 -0.91734225882E+02  0.10152694762E+02  0.14170562103E+03  0.91041918212E+02 0.  0.
        -11    1    3    3    0    0  0.33758451912E+02  0.10070360519E+02  0.17826766048E+03  0.18171517276E+03  0.00000000000E+00 0.  1.
         12    1    3    3    0    0 -0.10589773020E+02  0.53780839394E+02  0.90017707258E+02  0.10539311931E+03  0.00000000000E+00 0. -1.
        -11    1    4    4    0    0  0.28941591857E+02  0.75136795406E+01  0.22984566064E+02  0.37714206827E+02  0.00000000000E+00 0. -1.
         11    1    4    4    0    0  0.28273849682E+02 -0.99247905423E+02 -0.12831871302E+02  0.10399141420E+03  0.00000000000E+00 0.  1.
          1    1    1    2  501    0 -0.80384120431E+02  0.27883025970E+02 -0.21006585714E+01  0.85108652446E+02  0.00000000000E+00 0. -1.
<scales pt_clust_5="13000.00000" pt_clust_6="13000.00000" pt_clust_7="13000.00000" pt_clust_8="13000.00000" pt_clust_9="85.08272"></scales>
<clustering>
<clus scale="   76.422">  5  6 -1 -1</clus>
<clus scale="   85.083">  2  9  1 -1</clus>
<clus scale="   91.042">  7  8 -1 -1</clus>
<clus scale="  102.699">  1  5  2 -1</clus>
<clus scale="   85.083">  2  5  1 -1</clus>
</clustering>
</event>
<event>
 9    2  0.1665830E-004  0.1068088E+03  0.7546771E-02  0.1270686E+00
          2   -1    0    0  502    0 -0.00000000000E+00  0.00000000000E+00  0.55343979773E+03  0.55343979773E+03  0.00000000000E+00 0. -1.
         21   -1    0    0  501  502  0.00000000000E+00 -0.00000000000E+00 -0.36500465820E+02  0.36500465820E+02  0.00000000000E+00 0.  1.
         23    2    1    2    0    0  0.10945930961E+02 -0.65881984975E+02  0.16629381100E+03  0.20045983143E+03  0.89834643048E+02 0.  0.
         24    2    1    2    0    0 -0.33469177885E+02  0.40259077836E+02  0.10710773216E+03  0.14356482755E+03  0.79986337607E+02 0.  0.
        -11    1    4    4    0    0 -0.46474324327E+02  0.50507887994E+02  0.52245583349E+02  0.86258394089E+02  0.00000000000E+00 0.  1.
         12    1    4    4    0    0  0.13005146442E+02 -0.10248810158E+02  0.54862148812E+02  0.57306433460E+02  0.00000000000E+00 0. -1.
        -13    1    3    3    0    0  0.42412461138E+02 -0.64934763272E+02  0.95827355477E+02  0.12328107072E+03  0.00000000000E+00 0.  1.
         13    1    3    3    0    0 -0.31466530177E+02 -0.94722170258E+00  0.70466455523E+02  0.77178760708E+02  0.00000000000E+00 0. -1.
          1    1    1    2  501    0  0.22523246924E+02  0.25622907139E+02  0.24353778875E+03  0.24591560457E+03  0.00000000000E+00 0. -1.
<scales pt_clust_5="13000.00000" pt_clust_6="13000.00000" pt_clust_7="13000.00000" pt_clust_8="13000.00000" pt_clust_9="34.11497"></scales>
<clustering>
<clus scale="   34.115">  2  9  1 -1</clus>
<clus scale="   79.986">  5  6 -1 -1</clus>
<clus scale="   89.835">  7  8 -1 -1</clus>
<clus scale="   98.669">  2  5  1 -1</clus>
<clus scale="   34.115">  2  5  1 -1</clus>
</clustering>
</event>
<event>
 9    2  0.1665830E-004  0.2866801E+03  0.7546771E-02  0.1110963E+00
          2   -1    0    0  502    0 -0.00000000000E+00  0.00000000000E+00  0.10864778632E+03  0.10864778632E+03  0.00000000000E+00 0. -1.
         21   -1    0    0  501  502  0.00000000000E+00 -0.00000000000E+00 -0.13423205734E+04  0.13423205734E+04  0.00000000000E+00 0. -1.
         24    2    1    2    0    0  0.15161881156E+03 -0.38937011944E+02 -0.20738767178E+03  0.27196682844E+03  0.80324058976E+02 0.  0.
         23    2    1    2    0    0 -0.27409230020E+03  0.19057256118E+03 -0.83904488770E+03  0.90872019999E+03  0.10164442035E+03 0.  0.
        -13    1    3    3    0    0  0.11620554227E+03  0.52013816796E+01 -0.16193930437E+03  0.19938686197E+03  0.00000000000E+00 0.  1.
         14    1    3    3    0    0  0.35413269286E+02 -0.44138393624E+02 -0.45448367406E+02  0.72579966472E+02  0.00000000000E+00 0. -1.
        -13    1    4    4    0    0 -0.34850976413E+02  0.40585883006E+01 -0.17756137075E+03  0.18099475981E+03  0.00000000000E+00 0.  1.
         13    1    4    4    0    0 -0.23924132379E+03  0.18651397288E+03 -0.66148351695E+03  0.72772544018E+03  0.00000000000E+00 0. -1.
          1    1    1    2  501    0  0.12247348865E+03 -0.15163554924E+03 -0.18724022763E+03  0.27028133131E+03  0.00000000000E+00 0. -1.
<scales pt_clust_5="13000.00000" pt_clust_6="13000.00000" pt_clust_7="13000.00000" pt_clust_8="13000.00000" pt_clust_9="268.05586"></scales>
<clustering>
<clus scale="   80.324">  5  6 -1 -1</clus>
<clus scale="  101.644">  7  8 -1 -1</clus>
<clus scale="  175.944">  1  5  2 -1</clus>
<clus scale="  268.056">  2  9  1 -1</clus>
<clus scale="  268.056">  2  5  1 -1</clus>
</clustering>
</event>
<event>
 9    2  0.1665830E-004  0.1261905E+03  0.7546771E-02  0.1236502E+00
         -1   -1    0    0    0  501 -0.00000000000E+00  0.00000000000E+00  0.72190727377E+03  0.72190727377E+03  0.00000000000E+00 0.  1.
         21   -1    0    0  501  502  0.00000000000E+00 -0.00000000000E+00 -0.51054594986E+02  0.51054594986E+02  0.00000000000E+00 0. -1.
         23    2    1    2    0    0 -0.81156401046E+02 -0.46233125577E+02  0.60504540064E+03  0.61908492313E+03  0.91990988036E+02 0.  0.
         24    2    1    2    0    0  0.48259838085E+02  0.21449507541E+02  0.34605339155E+02  0.10220516828E+03  0.80369606067E+02 0.  0.
        -13    1    4    4    0    0 -0.16268123721E+02  0.26846500920E+02  0.12378964131E+02  0.33743521067E+02  0.00000000000E+00 0.  1.
         14    1    4    4    0    0  0.64527961806E+02 -0.53969933789E+01  0.22226375024E+02  0.68461647213E+02  0.00000000000E+00 0. -1.
        -11    1    3    3    0    0 -0.45099168101E+02  0.23358709511E+02  0.29150878586E+03  0.29590021377E+03  0.00000000000E+00 0.  1.
         11    1    3    3    0    0 -0.36057232945E+02 -0.69591835088E+02  0.31353661478E+03  0.32318470936E+03  0.00000000000E+00 0. -1.
         -2    1    1    2    0  502  0.32896562961E+02  0.24783618035E+02  0.31201938992E+02  0.51671777349E+02  0.00000000000E+00 0.  1.
<scales pt_clust_5="13000.00000" pt_clust_6="13000.00000" pt_clust_7="13000.00000" pt_clust_8="13000.00000" pt_clust_9="41.18752"></scales>
<clustering>
<clus scale="   41.188">  2  9  1 -1</clus>
<clus scale="   80.370">  5  6 -1 -1</clus>
<clus scale="   91.991">  7  8 -1 -1</clus>
<clus scale="  117.987">  2  5  1 -1</clus>
<clus scale="   41.188">  2  5  1 -1</clus>
</clustering>
</event>
<event>
 9    2  0.1665830E-004  0.1092677E+03  0.7546771E-02  0.1272827E+00
         21   -1    0    0  501  502  0.00000000000E+00  0.00000000000E+00  0.94615075853E+02  0.94615075853E+02  0.00000000000E+00 0.  1.
          2   -1    0    0  502    0 -0.00000000000E+00 -0.00000000000E+00 -0.46554979223E+03  0.46554979223E+03  0.00000000000E+00 0. -1.
         24    2    1    2    0    0  0.25935442814E+02 -0.21537271775E+02 -0.39757133949E+03  0.40733857359E+03  0.82007574533E+02 0.  0.
         23    2    1    2    0    0 -0.34330654817E+02 -0.69695387599E+01  0.44059232156E+02  0.11837828820E+03  0.10413949707E+03 0.  0.
        -11    1    3    3    0    0 -0.16887774517E+02 -0.37969826298E+02 -0.15531625225E+03  0.16077948517E+03  0.00000000000E+00 0.  1.
         12    1    3    3    0    0  0.42823217331E+02  0.16432554522E+02 -0.24225508724E+03  0.24655908842E+03  0.00000000000E+00 0. -1.
        -11    1    4    4    0    0  0.26834281069E+02  0.36388240242E+01  0.49124412795E+02  0.56093917792E+02  0.00000000000E+00 0.  1.
         11    1    4    4    0    0 -0.61164935886E+02 -0.10608362784E+02 -0.50651806388E+01  0.62284370413E+02  0.00000000000E+00 0. -1.
          1    1    1    2  501    0  0.83952120028E+01  0.28506810535E+02 -0.17422609043E+02  0.34448006289E+02  0.00000000000E+00 0. -1.
<scales pt_clust_5="13000.00000" pt_clust_6="13000.00000" pt_clust_7="13000.00000" pt_clust_8="13000.00000" pt_clust_9="29.71730"></scales>
<clustering>
<clus scale="   29.717">  1  9  2 -1</clus>
<clus scale="   82.008">  5  6 -1 -1</clus>
<clus scale="   88.429">  2  5  1 -1</clus>
<clus scale="  104.139">  7  8 -1 -1</clus>
<clus scale="   29.717">  1  5  2 -1</clus>
</clustering>
</event>
<event>
 9    2  0.1665830E-004  0.1483360E+03  0.7546771E-02  0.1206513E+00
         21   -1    0    0  501  502  0.00000000000E+00  0.00000000000E+00  0.53612413622E+02  0.53612413622E+02  0.00000000000E+00 0. -1.
          2   -1    0    0  502    0 -0.00000000000E+00 -0.00000000000E+00 -0.17528709008E+04  0.17528709008E+04  0.00000000000E+00 0. -1.
         24    2    1    2    0    0  0.10149175077E+03 -0.32566953265E+02 -0.34432185352E+03  0.37025926828E+03  0.84694775652E+02 0.  0.
         23    2    1    2    0    0 -0.36095521453E+02 -0.10926733742E+03 -0.11740316113E+03  0.18887376315E+03  0.92992249506E+02 0.  0.
        -13    1    3    3    0    0  0.11485908121E+03 -0.38663554833E+02 -0.29949889055E+03  0.32308987055E+03  0.00000000000E+00 0.  1.
         14    1    3    3    0    0 -0.13367330443E+02  0.60966015683E+01 -0.44822962963E+02  0.47169397735E+02  0.00000000000E+00 0. -1.
        -11    1    4    4    0    0  0.11547957309E+02 -0.34039805053E+02 -0.88067260876E+02  0.95120481938E+02  0.00000000000E+00 0.  1.
         11    1    4    4    0    0 -0.47643478762E+02 -0.75227532370E+02 -0.29335900255E+02  0.93753281216E+02  0.00000000000E+00 0. -1.
          1    1    1    2  501    0 -0.65396229318E+02  0.14183429069E+03 -0.12375334725E+04  0.12473502830E+04  0.00000000000E+00 0. -1.
<scales pt_clust_5="13000.00000" pt_clust_6="13000.00000" pt_clust_7="13000.00000" pt_clust_8="13000.00000" pt_clust_9="115.56829"></scales>
<clustering>
<clus scale="   84.695">  5  6 -1 -1</clus>
<clus scale="   92.992">  7  8 -1 -1</clus>
<clus scale="  136.141">  2  5  1 -1</clus>
<clus scale="  115.568">  1  9  2 -1</clus>
<clus scale="  115.568">  1  5  2 -1</clus>
</clustering>
</event>
<event>
 9    2  0.1665830E-004  0.1504868E+03  0.7546771E-02  0.1223865E+00
         21   -1    0    0  501  502  0.00000000000E+00  0.00000000000E+00  0.28595798431E+03  0.28595798431E+03  0.00000000000E+00 0.  1.
         -1   -1    0    0    0  501 -0.00000000000E+00 -0.00000000000E+00 -0.16612718266E+03  0.16612718266E+03  0.00000000000E+00 0.  1.
         23    2    1    2    0    0  0.29955554226E+01 -0.98001709006E+01 -0.63004335431E+02  0.11011206519E+03  0.89722371323E+02 0.  0.
         24    2    1    2    0    0 -0.13322580161E+03  0.10526494171E+02  0.13516801971E+03  0.20329145684E+03  0.72090925754E+02 0.  0.
        -11    1    4    4    0    0 -0.13199745402E+03 -0.89748741250E+01  0.11821086028E+03  0.17741951336E+03  0.00000000000E+00 0.  1.
         12    1    4    4    0    0 -0.12283475901E+01  0.19501368296E+02  0.16957159433E+02  0.25871943477E+02  0.00000000000E+00 0. -1.
        -13    1    3    3    0    0  0.34491954754E+02 -0.15643248477E+02  0.17005781849E+01  0.37911714968E+02  0.00000000000E+00 0.  1.
         13    1    3    3    0    0 -0.31496399331E+02  0.58430775768E+01 -0.64704913616E+02  0.72200350224E+02  0.00000000000E+00 0. -1.
         -2    1    1    2    0  502  0.13023024618E+03 -0.72632327084E+00  0.47667117370E+02  0.13868164495E+03  0.00000000000E+00 0.  1.
<scales pt_clust_5="13000.00000" pt_clust_6="13000.00000" pt_clust_7="13000.00000" pt_clust_8="13000.00000" pt_clust_9="132.09535"></scales>
<clustering>
<clus scale="   72.091">  5  6 -1 -1</clus>
<clus scale="   89.722">  7  8 -1 -1</clus>
<clus scale="   90.306">  2  7  1 -1</clus>
<clus scale="  132.095">  1  9  2 -1</clus>
<clus scale="  132.095">  1  5  2 -1</clus>
</clustering>
</event>
<event>
 9    2  0.1665830E-004  0.1685689E+03  0.7546771E-02  0.1180790E+00
          2   -1    0    0  502    0 -0.00000000000E+00  0.00000000000E+00  0.13676964499E+04  0.13676964499E+04  0.00000000000E+00 0. -1.
         21   -1    0    0  501  502  0.00000000000E+00 -0.00000000000E+00 -0.62040355659E+02  0.62040355659E+02  0.00000000000E+00 0. -1.
         24    2    1    2    0    0  0.80183647595E+01 -0.14539921524E+03  0.77691081639E+03  0.79461955409E+03  0.81391603654E+02 0.  0.
         23    2    1    2    0    0  0.78649754575E+02  0.11916188205E+03  0.10009903188E+03  0.19701068368E+03  0.91695448480E+02 0.  0.
        -13    1    3    3    0    0 -0.97177126892E+01 -0.47803499006E+02  0.10945685720E+03  0.11983493667E+03  0.00000000000E+00 0.  1.
         14    1    3    3    0    0  0.17736077449E+02 -0.97595716235E+02  0.66745395919E+03  0.67478461742E+03  0.00000000000E+00 0. -1.
        -11    1    4    4    0    0  0.50661677954E+02  0.82737669215E+02  0.12131248337E+02  0.97771645718E+02  0.00000000000E+00 0. -1.
         11    1    4    4    0    0  0.27988076622E+02  0.36424212830E+02  0.87967783545E+02  0.99239037959E+02  0.00000000000E+00 0.  1.
          1    1    1    2  501    0 -0.86668119335E+02  0.26237333196E+02  0.42864624593E+03  0.43810656776E+03  0.00000000000E+00 0. -1.
<scales pt_clust_5="13000.00000" pt_clust_6="13000.00000" pt_clust_7="13000.00000" pt_clust_8="13000.00000" pt_clust_9="90.55257"></scales>
<clustering>
<clus scale="   81.392">  5  6 -1 -1</clus>
<clus scale="   90.553">  2  9  1 -1</clus>
<clus scale="   91.695">  7  8 -1 -1</clus>
<clus scale="  163.193">  1  5  2 -1</clus>
<clus scale="   90.553">  2  5  1 -1</clus>
</clustering>
</event>
<event>
 9    2  0.1665830E-004  0.9237919E+02  0.7546771E-02  0.1302649E+00
         21   -1    0    0  501  502  0.00000000000E+00  0.00000000000E+00  0.33759909370E+03  0.33759909370E+03  0.00000000000E+00 0.  1.
         -1   -1    0    0    0  501 -0.00000000000E+00 -0.00000000000E+00 -0.15394847844E+03  0.15394847844E+03  0.00000000000E+00 0.  1.
         23    2    1    2    0    0  0.95819629723E+01 -0.61863575862E+01 -0.88280405932E+02  0.12786669933E+03  0.91795303205E+02 0.  0.
         24    2    1    2    0    0  0.61387393202E+01 -0.51321260210E+02  0.13677614465E+02  0.98635426380E+02  0.82887359288E+02 0.  0.
        -13    1    4    4    0    0  0.34853848587E+02 -0.38599222645E+02  0.33157712321E+02  0.61677586176E+02  0.00000000000E+00 0.  1.
         14    1    4    4    0    0 -0.28715109267E+02 -0.12722037564E+02 -0.19480097856E+02  0.36957840203E+02  0.00000000000E+00 0. -1.
        -13    1    3    3    0    0  0.33104924145E+02 -0.29742401892E+02 -0.82975634483E+02  0.94156796838E+02  0.00000000000E+00 0.  1.
         13    1    3    3    0    0 -0.23522961172E+02  0.23556044306E+02 -0.53047714495E+01  0.33709902489E+02  0.00000000000E+00 0. -1.
         -2    1    1    2    0  502 -0.15720702293E+02  0.57507617796E+02  0.25825340673E+03  0.26504544643E+03  0.00000000000E+00 0.  1.
<scales pt_clust_5="13000.00000" pt_clust_6="13000.00000" pt_clust_7="13000.00000" pt_clust_8="13000.00000" pt_clust_9="59.61767"></scales>
<clustering>
<clus scale="   59.618">  1  9  2 -1</clus>
<clus scale="   82.887">  5  6 -1 -1</clus>
<clus scale="   83.534">  1  5  2 -1</clus>
<clus scale="   91.795">  7  8 -1 -1</clus>
<clus scale="   59.618">  1  5  2 -1</clus>
</clustering>
</event>
<event>
 9    2  0.1665830E-004  0.1182781E+03  0.7546771E-02  0.1249696E+00
         21   -1    0    0  501  502  0.00000000000E+00  0.00000000000E+00  0.12471406118E+03  0.12471406118E+03  0.00000000000E+00 0.  1.
         -3   -1    0    0    0  501 -0.00000000000E+00 -0.00000000000E+00 -0.23874843455E+03  0.23874843455E+03  0.00000000000E+00 0.  1.
         23    2    1    2    0    0  0.82212539722E+02 -0.37404287023E+02 -0.14840615303E+03  0.19598412615E+03  0.90705066408E+02 0.  0.
         24    2    1    2    0    0 -0.53282950421E+02 -0.20407666420E+02  0.91828378739E+01  0.98098070598E+02  0.79267656010E+02 0.  0.
        -13    1    4    4    0    0 -0.27274749560E+02 -0.49473345071E+02 -0.47218880598E+01  0.56690564144E+02  0.00000000000E+00 0.  1.
         14    1    4    4    0    0 -0.26008200861E+02  0.29065678651E+02  0.13904725934E+02  0.41407506454E+02  0.00000000000E+00 0. -1.
        -11    1    3    3    0    0  0.49175583950E+02  0.63973935828E+01 -0.12830348653E+03  0.13755344183E+03  0.00000000000E+00 0.  1.
         11    1    3    3    0    0  0.33036955772E+02 -0.43801680605E+02 -0.20102666491E+02  0.58430684324E+02  0.00000000000E+00 0. -1.
         -4    1    1    2    0  502 -0.28929589301E+02  0.57811953442E+02  0.25188941787E+02  0.69380298978E+02  0.00000000000E+00 0.  1.
<scales pt_clust_5="13000.00000" pt_clust_6="13000.00000" pt_clust_7="13000.00000" pt_clust_8="13000.00000" pt_clust_9="64.64629"></scales>
<clustering>
<clus scale="   64.646">  1  9  2 -1</clus>
<clus scale="   79.268">  5  6 -1 -1</clus>
<clus scale="   90.705">  7  8 -1 -1</clus>
<clus scale="  109.753">  1  5  2 -1</clus>
<clus scale="   64.646">  1  5  2 -1</clus>
</clustering>
</event>
<event>
 9    2  0.1665830E-004  0.1112045E+03  0.7546771E-02  0.1258634E+00
         21   -1    0    0  501  502  0.00000000000E+00  0.00000000000E+00  0.87743889407E+02  0.87743889407E+02  0.00000000000E+00 0.  1.
          2   -1    0    0  502    0 -0.00000000000E+00 -0.00000000000E+00 -0.37563971440E+03  0.37563971440E+03  0.00000000000E+00 0. -1.
         24    2    1    2    0    0 -0.61877117709E+02 -0.10660306501E+02 -0.29983502245E+03  0.31948539265E+03  0.90705322866E+02 0.  0.
         23    2    1    2    0    0  0.68272965640E+02 -0.11352919536E+02 -0.59223595566E+01  0.11483751244E+03  0.91446669159E+02 0.  0.
        -13    1    3    3    0    0 -0.15603701266E+01  0.31650133777E+02 -0.51657755188E+02  0.60602717713E+02  0.00000000000E+00 0.  1.
         14    1    3    3    0    0 -0.60316747582E+02 -0.42310440278E+02 -0.24817726726E+03  0.25888267494E+03  0.00000000000E+00 0. -1.
        -11    1    4    4    0    0  0.35443712847E+02  0.39975354104E+02 -0.71121248982E+01  0.53896827705E+02  0.00000000000E+00 0. -1.
         11    1    4    4    0    0  0.32829252794E+02 -0.51328273640E+02  0.11897653415E+01  0.60940684731E+02  0.00000000000E+00 0.  1.
          1    1    1    2  501    0 -0.63958479317E+01  0.22013226037E+02  0.17861557016E+02  0.29060698724E+02  0.00000000000E+00 0. -1.
<scales pt_clust_5="13000.00000" pt_clust_6="13000.00000" pt_clust_7="13000.00000" pt_clust_8="13000.00000" pt_clust_9="22.92355"></scales>
<clustering>
<clus scale="   22.924">  1  9  2 -1</clus>
<clus scale="   90.705">  5  6 -1 -1</clus>
<clus scale="   91.447">  7  8 -1 -1</clus>
<clus scale="  110.596">  2  5  1 -1</clus>
<clus scale="   22.924">  1  5  2 -1</clus>
</clustering>
</event>
<event>
 9    2  0.1665830E-004  0.1838482E+03  0.7546771E-02  0.1200013E+00
         21   -1    0    0  501  502  0.00000000000E+00  0.00000000000E+00  0.69946295351E+02  0.69946295351E+02  0.00000000000E+00 0. -1.
          2   -1    0    0  502    0 -0.00000000000E+00 -0.00000000000E+00 -0.73692760417E+03  0.73692760417E+03  0.00000000000E+00 0. -1.
         24    2    1    2    0    0  0.20410634135E+02 -0.17996817466E+02 -0.24194905829E+03  0.25555883171E+03  0.77656231152E+02 0.  0.
         23    2    1    2    0    0 -0.93289408151E+02 -0.13028578539E+03 -0.26501678264E+03  0.32130638106E+03  0.85595536568E+02 0.  0.
        -13    1    3    3    0    0 -0.46431265217E+01  0.25227025437E+02 -0.39970775474E+02  0.47493413525E+02  0.00000000000E+00 0.  1.
         14    1    3    3    0    0  0.25053760657E+02 -0.43223842903E+02 -0.20197828281E+03  0.20806541819E+03  0.00000000000E+00 0. -1.
        -11    1    4    4    0    0 -0.78019846530E+00 -0.71788763319E+02 -0.11583805460E+03  0.13628165739E+03  0.00000000000E+00 0.  1.
         11    1    4    4    0    0 -0.92509209685E+02 -0.58497022076E+02 -0.14917872805E+03  0.18502472367E+03  0.00000000000E+00 0. -1.
          1    1    1    2  501    0  0.72878774016E+02  0.14828260286E+03 -0.16001546789E+03  0.23000868674E+03  0.00000000000E+00 0. -1.
<scales pt_clust_5="13000.00000" pt_clust_6="13000.00000" pt_clust_7="13000.00000" pt_clust_8="13000.00000" pt_clust_9="162.70699"></scales>
<clustering>
<clus scale="   77.656">  5  6 -1 -1</clus>
<clus scale="   82.286">  2  5  1 -1</clus>
<clus scale="   85.596">  7  8 -1 -1</clus>
<clus scale="  162.707">  1  9  2 -1</clus>
<clus scale="  162.707">  1  5  2 -1</clus>
</clustering>
</event>
<event>
 9    2  0.1665830E-004  0.9506658E+02  0.7546771E-02  0.1299135E+00
         21   -1    0    0  501  502  0.00000000000E+00  0.00000000000E+00  0.15116741345E+03  0.15116741345E+03  0.00000000000E+00 0. -1.
         -3   -1    0    0    0  501 -0.00000000000E+00 -0.00000000000E+00 -0.19233745197E+03  0.19233745197E+03  0.00000000000E+00 0.  1.
         24    2    1    2    0    0  0.27994807328E+01 -0.34005750861E+02 -0.59490425144E+02  0.10258649700E+03  0.76293187765E+02 0.  0.
         23    2    1    2    0    0 -0.27109023420E+01  0.15498470179E+01  0.11072821469E+03  0.14297654778E+03  0.90398034656E+02 0.  0.
        -13    1    3    3    0    0 -0.33643226160E+02 -0.43638824492E+00 -0.28919686795E+02  0.44366714837E+02  0.00000000000E+00 0.  1.
         14    1    3    3    0    0  0.36442706893E+02 -0.33569362616E+02 -0.30570738349E+02  0.58219782165E+02  0.00000000000E+00 0. -1.
        -13    1    4    4    0    0  0.26305922205E+01  0.40893939226E+02  0.88370864786E+02  0.97409671100E+02  0.00000000000E+00 0. -1.
         13    1    4    4    0    0 -0.53414945625E+01 -0.39344092208E+02  0.22357349907E+02  0.45566876684E+02  0.00000000000E+00 0.  1.
         -4    1    1    2    0  502 -0.88578390860E-01  0.32455903843E+02 -0.92407828075E+02  0.97941820638E+02  0.00000000000E+00 0.  1.
<scales pt_clust_5="13000.00000" pt_clust_6="13000.00000" pt_clust_7="13000.00000" pt_clust_8="13000.00000" pt_clust_9="32.45604"></scales>
<clustering>
<clus scale="   32.456">  1  9  2 -1</clus>
<clus scale="   76.293">  5  6 -1 -1</clus>
<clus scale="   81.771">  2  5  1 -1</clus>
<clus scale="   90.398">  7  8 -1 -1</clus>
<clus scale="   32.456">  1  5  2 -1</clus>
</clustering>
</event>
<event>
 9    2  0.1665830E-004  0.1030036E+03  0.7546771E-02  0.1279262E+00
         21   -1    0    0  501  502  0.00000000000E+00  0.00000000000E+00  0.23750400774E+02  0.23750400774E+02  0.00000000000E+00 0.  1.
         -3   -1    0    0    0  501 -0.00000000000E+00 -0.00000000000E+00 -0.65800994447E+03  0.65800994447E+03  0.00000000000E+00 0.  1.
         23    2    1    2    0    0  0.28485612816E+01 -0.39439288831E+02 -0.37392582370E+03  0.38688999583E+03  0.91103103362E+02 0.  0.
         24    2    1    2    0    0  0.19726636381E+02  0.64562426613E+02 -0.19908292649E+03  0.22492414647E+03  0.79996330726E+02 0.  0.
        -11    1    4    4    0    0  0.47834713168E+02  0.58831354474E+02 -0.13866846291E+03  0.15804502732E+03  0.00000000000E+00 0.  1.
         12    1    4    4    0    0 -0.28108076787E+02  0.57310721387E+01 -0.60414463580E+02  0.66879119149E+02  0.00000000000E+00 0. -1.
        -13    1    3    3    0    0 -0.41343439438E+02 -0.27185239865E+02 -0.13936593761E+03  0.14788908620E+03  0.00000000000E+00 0. -1.
         13    1    3    3    0    0  0.44192000720E+02 -0.12254048966E+02 -0.23455988609E+03  0.23900090963E+03  0.00000000000E+00 0.  1.
         -4    1    1    2    0  502 -0.22575197663E+02 -0.25123137781E+02 -0.61250793506E+02  0.69946202946E+02  0.00000000000E+00 0.  1.
<scales pt_clust_5="13000.00000" pt_clust_6="13000.00000" pt_clust_7="13000.00000" pt_clust_8="13000.00000" pt_clust_9="33.77590"></scales>
<clustering>
<clus scale="   33.776">  1  9  2 -1</clus>
<clus scale="   79.996">  5  6 -1 -1</clus>
<clus scale="   91.103">  7  8 -1 -1</clus>
<clus scale="   93.324">  1  5  2 -1</clus>
<clus scale="   33.776">  1  5  2 -1</clus>
</clustering>
</event>
<event>
 9    2  0.1665830E-004  0.2402362E+03  0.7546771E-02  0.1164444E+00
         21   -1    0    0  501  502  0.00000000000E+00  0.00000000000E+00  0.76267459934E+03  0.76267459934E+03  0.00000000000E+00 0. -1.
          4   -1    0    0  502    0 -0.00000000000E+00 -0.00000000000E+00 -0.10130492298E+03  0.10130492298E+03  0.00000000000E+00 0. -1.
         24    2    1    2    0    0 -0.11346921872E+02  0.85369059607E+01  0.12175141144E+03  0.14668056180E+03  0.80561464874E+02 0.  0.
         23    2    1    2    0    0  0.15842562893E+03 -0.16377249754E+03  0.37110727025E+03  0.44503770678E+03  0.91748806952E+02 0.  0.
        -11    1    3    3    0    0  0.27424302067E+02 -0.51535078180E+01  0.13731955792E+02  0.31100122131E+02  0.00000000000E+00 0.  1.
         12    1    3    3    0    0 -0.38771223939E+02  0.13690413779E+02  0.10801945565E+03  0.11558043967E+03  0.00000000000E+00 0. -1.
        -11    1    4    4    0    0 -0.36443585803E+01 -0.39430571039E+02  0.42291030622E+02  0.57936021204E+02  0.00000000000E+00 0.  1.
         11    1    4    4    0    0  0.16206998751E+03 -0.12434192650E+03  0.32881623962E+03  0.38710168558E+03  0.00000000000E+00 0. -1.
          3    1    1    2  501    0 -0.14707870705E+03  0.15523559158E+03  0.16851099467E+03  0.27226125373E+03  0.00000000000E+00 0. -1.
<scales pt_clust_5="13000.00000" pt_clust_6="13000.00000" pt_clust_7="13000.00000" pt_clust_8="13000.00000" pt_clust_9="222.02624"></scales>
<clustering>
<clus scale="   80.561">  5  6 -1 -1</clus>
<clus scale="   81.803">  2  5  1 -1</clus>
<clus scale="   91.749">  7  8 -1 -1</clus>
<clus scale="  222.026">  1  9  2 -1</clus>
<clus scale="  222.026">  1  5  2 -1</clus>
</clustering>
</event>
<event>
 9    2  0.1665830E-004  0.1319294E+03  0.7546771E-02  0.1229385E+00
         21   -1    0    0  501  502  0.00000000000E+00  0.00000000000E+00  0.49993905825E+02  0.49993905825E+02  0.00000000000E+00 0.  1.
          2   -1    0    0  502    0 -0.00000000000E+00 -0.00000000000E+00 -0.50665323966E+03  0.50665323966E+03  0.00000000000E+00 0. -1.
         24    2    1    2    0    0  0.77329929199E+02  0.86799766002E+02 -0.29267371953E+03  0.32309770336E+03  0.72250276716E+02 0.  0.
         23    2    1    2    0    0 -0.32806747353E+02 -0.55317277180E+02 -0.11302291729E+03  0.15891260597E+03  0.91338670221E+02 0.  0.
        -11    1    3    3    0    0  0.28192572264E+02  0.79658560032E+02 -0.15186780706E+03  0.17379337772E+03  0.00000000000E+00 0.  1.
         12    1    3    3    0    0  0.49137356936E+02  0.71412059694E+01 -0.14080591247E+03  0.14930432564E+03  0.00000000000E+00 0. -1.
        -11    1    4    4    0    0 -0.25949712687E+02  0.18789990949E+02 -0.13809880984E+02  0.34887879861E+02  0.00000000000E+00 0. -1.
         11    1    4    4    0    0 -0.68570346661E+01 -0.74107268129E+02 -0.99213036305E+02  0.12402472611E+03  0.00000000000E+00 0.  1.
          1    1    1    2  501    0 -0.44523181846E+02 -0.31482488822E+02 -0.50962697023E+02  0.74636836160E+02  0.00000000000E+00 0. -1.
<scales pt_clust_5="13000.00000" pt_clust_6="13000.00000" pt_clust_7="13000.00000" pt_clust_8="13000.00000" pt_clust_9="54.52945"></scales>
<clustering>
<clus scale="   54.529">  1  9  2 -1</clus>
<clus scale="   72.250">  5  6 -1 -1</clus>
<clus scale="   91.339">  7  8 -1 -1</clus>
<clus scale="  119.510">  2  5  1 -1</clus>
<clus scale="   54.529">  1  5  2 -1</clus>
</clustering>
</event>
<event>
 9    2  0.1665830E-004  0.2820143E+03  0.7546771E-02  0.1095158E+00
         21   -1    0    0  501  502  0.00000000000E+00  0.00000000000E+00  0.72700403334E+03  0.72700403334E+03  0.00000000000E+00 0.  1.
          4   -1    0    0  502    0 -0.00000000000E+00 -0.00000000000E+00 -0.15184118618E+03  0.15184118618E+03  0.00000000000E+00 0. -1.
         24    2    1    2    0    0 -0.19659604995E+03 -0.16494700738E+03  0.10133387799E+03  0.28590955726E+03  0.74954639631E+02 0.  0.
         23    2    1    2    0    0  0.24303710136E+03  0.16392509005E+03  0.37909930908E+03  0.48742962419E+03  0.89066742404E+02 0.  0.
        -13    1    3    3    0    0 -0.11850298717E+03 -0.90871004367E+02  0.97224263218E+02  0.17819386847E+03  0.00000000000E+00 0.  1.
         14    1    3    3    0    0 -0.78093062779E+02 -0.74076003016E+02  0.41096147764E+01  0.10771568879E+03  0.00000000000E+00 0. -1.
        -11    1    4    4    0    0  0.13039776104E+03  0.13741094409E+03  0.25616634888E+03  0.31860091327E+03  0.00000000000E+00 0. -1.
         11    1    4    4    0    0  0.11263934032E+03  0.26514145952E+02  0.12293296021E+03  0.16882871092E+03  0.00000000000E+00 0.  1.
          3    1    1    2  501    0 -0.46441051410E+02  0.10219173380E+01  0.94729660085E+02  0.10550603808E+03  0.00000000000E+00 0. -1.
<scales pt_clust_5="13000.00000" pt_clust_6="13000.00000" pt_clust_7="13000.00000" pt_clust_8="13000.00000" pt_clust_9="46.45229"></scales>
<clustering>
<clus scale="   46.452">  1  9  2 -1</clus>
<clus scale="   74.955">  5  6 -1 -1</clus>
<clus scale="   89.067">  7  8 -1 -1</clus>
<clus scale="  277.880">  2  5  1 -1</clus>
<clus scale="   46.452">  1  5  2 -1</clus>
</clustering>
</event>
<event>
 9    2  0.1665830E-004  0.1847503E+03  0.7546771E-02  0.1170836E+00
          2   -1    0    0  502    0 -0.00000000000E+00  0.00000000000E+00  0.94214768012E+03  0.94214768012E+03  0.00000000000E+00 0. -1.
         21   -1    0    0  501  502  0.00000000000E+00 -0.00000000000E+00 -0.10321000816E+03  0.10321000816E+03  0.00000000000E+00 0.  1.
         23    2    1    2    0    0  0.30153437883E+01 -0.12663999447E+03  0.44493140408E+03  0.47125619648E+03  0.89842461474E+02 0.  0.
         24    2    1    2    0    0  0.13298363642E+03 -0.50427189052E+02  0.79351330618E+02  0.18828257101E+03  0.94478272230E+02 0.  0.
        -11    1    4    4    0    0  0.60221764523E+02  0.16815296731E+02  0.19470460718E+01  0.62555624166E+02  0.00000000000E+00 0.  1.
         12    1    4    4    0    0  0.72761871899E+02 -0.67242485783E+02  0.77404284546E+02  0.12572694684E+03  0.00000000000E+00 0. -1.
        -13    1    3    3    0    0 -0.36940548524E+02 -0.71679195498E+02  0.17155550180E+03  0.18956213068E+03  0.00000000000E+00 0.  1.
         13    1    3    3    0    0  0.39955892312E+02 -0.54960798973E+02  0.27337590228E+03  0.28169406579E+03  0.00000000000E+00 0. -1.
          1    1    1    2  501    0 -0.13599898021E+03  0.17706718352E+03  0.31465493726E+03  0.38581892080E+03  0.00000000000E+00 0. -1.
<scales pt_clust_5="13000.00000" pt_clust_6="13000.00000" pt_clust_7="13000.00000" pt_clust_8="13000.00000" pt_clust_9="158.76567"></scales>
<clustering>
<clus scale="   89.842">  7  8 -1 -1</clus>
<clus scale="   94.478">  5  6 -1 -1</clus>
<clus scale="  155.301">  1  7  2 -1</clus>
<clus scale="  158.766">  2  9  1 -1</clus>
<clus scale="  158.766">  2  5  1 -1</clus>
</clustering>
</event>
<event>
 9    2  0.1754450E-004  0.1219315E+03  0.7546771E-02  0.1241857E+00
          2   -1    0    0  502    0 -0.00000000000E+00  0.00000000000E+00  0.92844786355E+03  0.92844786355E+03  0.00000000000E+00 0. -1.
         21   -1    0    0  501  502  0.00000000000E+00 -0.00000000000E+00 -0.87555159088E+02  0.87555159088E+02  0.00000000000E+00 0.  1.
         23    2    1    2    0    0 -0.71941519228E+02 -0.15613333848E+02  0.38970779276E+03  0.40701082564E+03  0.91467426270E+02 0.  0.
         24    2    1    2    0    0  0.13639062161E+03  0.42233950419E+02  0.14628876671E+02  0.16690225621E+03  0.85183630256E+02 0.  0.
        -11    1    4    4    0    0  0.52634983904E+02  0.60644504694E+02  0.11205649321E+02  0.81078752191E+02  0.00000000000E+00 0.  1.
         12    1    4    4    0    0  0.83755637705E+02 -0.18410554276E+02  0.34232273498E+01  0.85823504016E+02  0.00000000000E+00 0. -1.
        -11    1    3    3    0    0 -0.93961444598E+02 -0.14723844632E+02  0.30512039352E+03  0.31959974846E+03  0.00000000000E+00 0. -1.
         11    1    3    3    0    0  0.22019925370E+02 -0.88948921585E+00  0.84587399234E+02  0.87411077178E+02  0.00000000000E+00 0.  1.
          1    1    1    2  501    0 -0.64449102382E+02 -0.26620616570E+02  0.43655603504E+03  0.44208994080E+03  0.00000000000E+00 0. -1.
<scales pt_clust_5="13000.00000" pt_clust_6="13000.00000" pt_clust_7="13000.00000" pt_clust_8="13000.00000" pt_clust_9="69.73054"></scales>
<clustering>
<clus scale="   69.731">  2  9  1 -1</clus>
<clus scale="   85.184">  5  6 -1 -1</clus>
<clus scale="   91.467">  7  8 -1 -1</clus>
<clus scale="  117.291">  2  5  1 -1</clus>
<clus scale="   69.731">  2  5  1 -1</clus>
</clustering>
</event>
<event>
 9    2  0.1665830E-004  0.1141933E+03  0.7546771E-02  0.1254854E+00
          2   -1    0    0  502    0 -0.00000000000E+00  0.00000000000E+00  0.41207209838E+03  0.41207209838E+03  0.00000000000E+00 0. -1.
         21   -1    0    0  501  502  0.00000000000E+00 -0.00000000000E+00 -0.50472451218E+02  0.50472451218E+02  0.00000000000E+00 0. -1.
         24    2    1    2    0    0 -0.77980792836E+02  0.36862600365E+02  0.25615646256E+03  0.28334281791E+03  0.85012727216E+02 0.  0.
         23    2    1    2    0    0  0.37573840429E+02 -0.15752511896E+02  0.76925570978E+02  0.12542802134E+03  0.90303432674E+02 0.  0.
        -13    1    3    3    0    0 -0.19861229452E+02  0.48966231075E+02  0.68455235899E+02  0.86477046336E+02  0.00000000000E+00 0.  1.
         14    1    3    3    0    0 -0.58119563384E+02 -0.12103630710E+02  0.18770122666E+03  0.19686577157E+03  0.00000000000E+00 0. -1.
        -11    1    4    4    0    0  0.63516883649E+02  0.43583311416E+01  0.63631378817E+02  0.90013009776E+02  0.00000000000E+00 0. -1.
         11    1    4    4    0    0 -0.25943043220E+02 -0.20110843037E+02  0.13294192161E+02  0.35415011569E+02  0.00000000000E+00 0.  1.
          1    1    1    2  501    0  0.40406952406E+02 -0.21110088469E+02  0.28517613621E+02  0.53773710348E+02  0.00000000000E+00 0. -1.
<scales pt_clust_5="13000.00000" pt_clust_6="13000.00000" pt_clust_7="13000.00000" pt_clust_8="13000.00000" pt_clust_9="45.58901"></scales>
<clustering>
<clus scale="   45.589">  2  9  1 -1</clus>
<clus scale="   85.013">  5  6 -1 -1</clus>
<clus scale="   90.303">  7  8 -1 -1</clus>
<clus scale="  110.057">  1  5  2 -1</clus>
<clus scale="   45.589">  2  5  1 -1</clus>
</clustering>
</event>
<event>
 9    2  0.1665830E-004  0.1073935E+03  0.7546771E-02  0.1272838E+00
          2   -1    0    0  502    0 -0.00000000000E+00  0.00000000000E+00  0.58200873646E+03  0.58200873646E+03  0.00000000000E+00 0. -1.
         21   -1    0    0  501  502  0.00000000000E+00 -0.00000000000E+00 -0.39962894354E+02  0.39962894354E+02  0.00000000000E+00 0.  1.
         23    2    1    2    0    0  0.29571196838E+01 -0.14746169806E+02  0.13564519957E+03  0.16302263299E+03  0.89165938681E+02 0.  0.
         24    2    1    2    0    0 -0.63737301787E+02 -0.23302608777E+02  0.16120148029E+03  0.20347968605E+03  0.10398370148E+03 0.  0.
        -13    1    4    4    0    0 -0.20187819368E+02 -0.46639397461E+02  0.21289696848E+02  0.55100205428E+02  0.00000000000E+00 0.  1.
         14    1    4    4    0    0 -0.43549482420E+02  0.23336788683E+02  0.13991178344E+03  0.14837948062E+03  0.00000000000E+00 0. -1.
        -11    1    3    3    0    0  0.42075702052E+02  0.25443898593E+01  0.95389652230E+02  0.10428817946E+03  0.00000000000E+00 0. -1.
         11    1    3    3    0    0 -0.39118582368E+02 -0.17290559665E+02  0.40255547342E+02  0.58734453533E+02  0.00000000000E+00 0.  1.
          1    1    1    2  501    0  0.60780182104E+02  0.38048778583E+02  0.24519916225E+03  0.25546931177E+03  0.00000000000E+00 0. -1.
<scales pt_clust_5="13000.00000" pt_clust_6="13000.00000" pt_clust_7="13000.00000" pt_clust_8="13000.00000" pt_clust_9="71.70736"></scales>
<clustering>
<clus scale="   71.707">  2  9  1 -1</clus>
<clus scale="   89.166">  7  8 -1 -1</clus>
<clus scale="   93.120">  1  7  2 -1</clus>
<clus scale="  103.984">  5  6 -1 -1</clus>
<clus scale="   71.707">  2  5  1 -1</clus>
</clustering>
</event>
<event>
 9    2  0.1665830E-004  0.4635855E+03  0.7546771E-02  0.1023849E+00
         21   -1    0    0  501  502  0.00000000000E+00  0.00000000000E+00  0.42226298221E+03  0.42226298221E+03  0.00000000000E+00 0.  1.
          2   -1    0    0  502    0 -0.00000000000E+00 -0.00000000000E+00 -0.15615605708E+04  0.15615605708E+04  0.00000000000E+00 0. -1.
         24    2    1    2    0    0  0.34469162520E+03  0.30270564624E+03 -0.13764004952E+04  0.14530823528E+04  0.80789702558E+02 0.  0.
         23    2    1    2    0    0 -0.30468295717E+03 -0.29300251321E+03  0.20268389441E+03  0.47708010903E+03  0.88557846868E+02 0.  0.
        -13    1    3    3    0    0  0.10125979039E+03  0.47549056700E+02 -0.37949724287E+03  0.39564202923E+03  0.00000000000E+00 0.  1.
         14    1    3    3    0    0  0.24343183481E+03  0.25515658954E+03 -0.99690325229E+03  0.10574403235E+04  0.00000000000E+00 0. -1.
        -13    1    4    4    0    0 -0.20555328439E+03 -0.16286205475E+03  0.16286576671E+03  0.30870934480E+03  0.00000000000E+00 0.  1.
         13    1    4    4    0    0 -0.99129672779E+02 -0.13014045846E+03  0.39818127702E+02  0.16837076423E+03  0.00000000000E+00 0. -1.
          1    1    1    2  501    0 -0.40008668035E+02 -0.97031330321E+01  0.34419012185E+02  0.53661091196E+02  0.00000000000E+00 0. -1.
<scales pt_clust_5="13000.00000" pt_clust_6="13000.00000" pt_clust_7="13000.00000" pt_clust_8="13000.00000" pt_clust_9="41.16849"></scales>
<clustering>
<clus scale="   41.168">  1  9  2 -1</clus>
<clus scale="   80.790">  5  6 -1 -1</clus>
<clus scale="   88.558">  7  8 -1 -1</clus>
<clus scale="  462.164">  2  5  1 -1</clus>
<clus scale="   41.168">  1  5  2 -1</clus>
</clustering>
</event>
<event>
 9    2  0.1665830E-004  0.1062441E+03  0.7546771E-02  0.1272773E+00
         21   -1    0    0  501  502  0.00000000000E+00  0.00000000000E+00  0.52186747837E+02  0.52186747837E+02  0.00000000000E+00 0.  1.
          2   -1    0    0  502    0 -0.00000000000E+00 -0.00000000000E+00 -0.62982540189E+03  0.62982540189E+03  0.00000000000E+00 0. -1.
         24    2    1    2    0    0  0.16244345034E+02  0.51506987987E+02 -0.53301551195E+03  0.54184244665E+03  0.81060794816E+02 0.  0.
         23    2    1    2    0    0 -0.51453789441E+01 -0.31523582444E+02 -0.97777894879E+01  0.98495704657E+02  0.92658445347E+02 0.  0.
        -11    1    3    3    0    0 -0.26267000029E+02  0.47689229544E+02 -0.27830232921E+03  0.28357786294E+03  0.00000000000E+00 0.  1.
         12    1    3    3    0    0  0.42511345063E+02  0.38177584434E+01 -0.25471318274E+03  0.25826458371E+03  0.00000000000E+00 0. -1.
        -13    1    4    4    0    0 -0.13668509506E+02  0.26483740113E+02  0.16701188749E+02  0.34163523649E+02  0.00000000000E+00 0.  1.
         13    1    4    4    0    0  0.85231305616E+01 -0.58007322557E+02 -0.26478978237E+02  0.64332181008E+02  0.00000000000E+00 0. -1.
          1    1    1    2  501    0 -0.11098966090E+02 -0.19983405544E+02 -0.34845352621E+02  0.41673998424E+02  0.00000000000E+00 0. -1.
<scales pt_clust_5="13000.00000" pt_clust_6="13000.00000" pt_clust_7="13000.00000" pt_clust_8="13000.00000" pt_clust_9="22.85877"></scales>
<clustering>
<clus scale="   22.859">  1  9  2 -1</clus>
<clus scale="   81.061">  5  6 -1 -1</clus>
<clus scale="   92.658">  7  8 -1 -1</clus>
<clus scale="   96.297">  2  5  1 -1</clus>
<clus scale="   22.859">  1  5  2 -1</clus>
</clustering>
</event>
<event>
 9    2  0.1665830E-004  0.1179285E+03  0.7546771E-02  0.1257824E+00
         21   -1    0    0  501  502  0.00000000000E+00  0.00000000000E+00  0.34576611159E+02  0.34576611159E+02  0.00000000000E+00 0. -1.
          2   -1    0    0  502    0 -0.00000000000E+00 -0.00000000000E+00 -0.10719858722E+04  0.10719858722E+04  0.00000000000E+00 0. -1.
         24    2    1    2    0    0 -0.54550814145E+02 -0.44887363945E+00 -0.67401537158E+03  0.68057020744E+03  0.76831590596E+02 0.  0.
         23    2    1    2    0    0 -0.39280839701E+02  0.26024124088E+02 -0.11421619890E+03  0.15850770782E+03  0.99293070985E+02 0.  0.
        -13    1    3    3    0    0  0.14500396833E+02 -0.14716943080E+02 -0.91532378284E+02  0.93835101089E+02  0.00000000000E+00 0.  1.
         14    1    3    3    0    0 -0.69051210977E+02  0.14268069441E+02 -0.58248299329E+03  0.58673510635E+03  0.00000000000E+00 0. -1.
        -13    1    4    4    0    0 -0.69471980981E+02  0.33782894275E+02 -0.68945745297E+02  0.10354301464E+03  0.00000000000E+00 0. -1.
         13    1    4    4    0    0  0.30191141280E+02 -0.77587701873E+01 -0.45270453606E+02  0.54964693179E+02  0.00000000000E+00 0.  1.
          1    1    1    2  501    0  0.93831653846E+02 -0.25575250448E+02 -0.24917769057E+03  0.26748456811E+03  0.00000000000E+00 0. -1.
<scales pt_clust_5="13000.00000" pt_clust_6="13000.00000" pt_clust_7="13000.00000" pt_clust_8="13000.00000" pt_clust_9="63.62406"></scales>
<clustering>
<clus scale="   76.832">  5  6 -1 -1</clus>
<clus scale="   94.229">  2  5  1 -1</clus>
<clus scale="   63.624">  1  9  2 -1</clus>
<clus scale="   99.293">  7  8 -1 -1</clus>
<clus scale="   63.624">  1  5  2 -1</clus>
</clustering>
</event>
<event>
 9    2  0.1665830E-004  0.3499371E+03  0.7546771E-02  0.1062902E+00
         21   -1    0    0  501  502  0.00000000000E+00  0.00000000000E+00  0.95926351445E+03  0.95926351445E+03  0.00000000000E+00 0.  1.
         -1   -1    0    0    0  501 -0.00000000000E+00 -0.00000000000E+00 -0.27552334300E+03  0.27552334300E+03  0.00000000000E+00 0.  1.
         24    2    1    2    0    0  0.30098069736E+03  0.10410412126E+03 -0.15311695918E+02  0.32889516956E+03  0.80687894284E+02 0.  0.
         23    2    1    2    0    0 -0.34438891768E+03 -0.24127104300E+03  0.48931426239E+03  0.65155155941E+03  0.90970019157E+02 0.  0.
        -13    1    3    3    0    0  0.24354193782E+03  0.52015273950E+02  0.36853238240E+01  0.24906193168E+03  0.00000000000E+00 0.  1.
         14    1    3    3    0    0  0.57438759542E+02  0.52088847314E+02 -0.18997019742E+02  0.79833237886E+02  0.00000000000E+00 0. -1.
        -13    1    4    4    0    0 -0.19746964458E+03 -0.13707827310E+03  0.20996881469E+03  0.31917333321E+03  0.00000000000E+00 0.  1.
         13    1    4    4    0    0 -0.14691927310E+03 -0.10419276990E+03  0.27934544770E+03  0.33237822621E+03  0.00000000000E+00 0. -1.
         -2    1    1    2    0  502  0.43408220325E+02  0.13716692173E+03  0.20973760498E+03  0.25434012847E+03  0.00000000000E+00 0.  1.
<scales pt_clust_5="13000.00000" pt_clust_6="13000.00000" pt_clust_7="13000.00000" pt_clust_8="13000.00000" pt_clust_9="143.87160"></scales>
<clustering>
<clus scale="   80.688">  5  6 -1 -1</clus>
<clus scale="   90.970">  7  8 -1 -1</clus>
<clus scale="  143.872">  1  9  2 -1</clus>
<clus scale="  347.406">  2  5  1 -1</clus>
<clus scale="  143.872">  1  5  2 -1</clus>
</clustering>
</event>
<event>
 9    2  0.1665830E-004  0.1322581E+03  0.7546771E-02  0.1227603E+00
         21   -1    0    0  501  502  0.00000000000E+00  0.00000000000E+00  0.22967479720E+03  0.22967479720E+03  0.00000000000E+00 0. -1.
          2   -1    0    0  502    0 -0.00000000000E+00 -0.00000000000E+00 -0.11142395612E+04  0.11142395612E+04  0.00000000000E+00 0. -1.
         24    2    1    2    0    0  0.95936611142E+02 -0.36769715513E+02 -0.86047042254E+03  0.87019656244E+03  0.79226661447E+02 0.  0.
         23    2    1    2    0    0 -0.71000773143E+02  0.84822214518E+01 -0.23333214519E+03  0.26110914877E+03  0.92849554242E+02 0.  0.
        -13    1    3    3    0    0  0.67247372766E+02  0.15470874882E+02 -0.40382254408E+03  0.40967573058E+03  0.00000000000E+00 0.  1.
         14    1    3    3    0    0  0.28689238377E+02 -0.52240590395E+02 -0.45664787846E+03  0.46052083187E+03  0.00000000000E+00 0. -1.
        -13    1    4    4    0    0 -0.69857060121E+02 -0.20924329621E+02 -0.95435995127E+02  0.12010772492E+03  0.00000000000E+00 0.  1.
         13    1    4    4    0    0 -0.11437130223E+01  0.29406551073E+02 -0.13789615006E+03  0.14100142385E+03  0.00000000000E+00 0. -1.
          1    1    1    2  501    0 -0.24935837999E+02  0.28287494061E+02  0.20923780375E+03  0.21260864718E+03  0.00000000000E+00 0. -1.
<scales pt_clust_5="13000.00000" pt_clust_6="13000.00000" pt_clust_7="13000.00000" pt_clust_8="13000.00000" pt_clust_9="37.70913"></scales>
<clustering>
<clus scale="   37.709">  1  9  2 -1</clus>
<clus scale="   79.227">  5  6 -1 -1</clus>
<clus scale="   92.850">  7  8 -1 -1</clus>
<clus scale="  123.077">  2  5  1 -1</clus>
<clus scale="   37.709">  1  5  2 -1</clus>
</clustering>
</event>
<event>
 9    2  0.1665830E-004  0.1009170E+03  0.7546771E-02  0.1285009E+00
         21   -1    0    0  501  502  0.00000000000E+00  0.00000000000E+00  0.38206043954E+02  0.38206043954E+02  0.00000000000E+00 0.  1.
          2   -1    0    0  502    0 -0.00000000000E+00 -0.00000000000E+00 -0.43155488472E+03  0.43155488472E+03  0.00000000000E+00 0. -1.
         24    2    1    2    0    0  0.48497783556E+02  0.36766357842E+01 -0.19640776535E+03  0.21737584865E+03  0.79439893180E+02 0.  0.
         23    2    1    2    0    0 -0.18152453909E+02 -0.82490487423E+01 -0.60198195903E+02  0.11224100740E+03  0.92610272460E+02 0.  0.
        -13    1    3    3    0    0 -0.26339365506E+01  0.33729822489E+02 -0.70360544678E+02  0.78072048739E+02  0.00000000000E+00 0.  1.
         14    1    3    3    0    0  0.51131720107E+02 -0.30053186704E+02 -0.12604722067E+03  0.13930379991E+03  0.00000000000E+00 0. -1.
        -13    1    4    4    0    0 -0.39007693259E+02 -0.40114946864E+02 -0.29071874502E+02  0.63055396140E+02  0.00000000000E+00 0.  1.
         13    1    4    4    0    0  0.20855239350E+02  0.31865898122E+02 -0.31126321402E+02  0.49185611265E+02  0.00000000000E+00 0. -1.
          1    1    1    2  501    0 -0.30345329647E+02  0.45724129581E+01 -0.13674287951E+03  0.14014407262E+03  0.00000000000E+00 0. -1.
<scales pt_clust_5="13000.00000" pt_clust_6="13000.00000" pt_clust_7="13000.00000" pt_clust_8="13000.00000" pt_clust_9="30.68790"></scales>
<clustering>
<clus scale="   30.688">  1  9  2 -1</clus>
<clus scale="   79.440">  5  6 -1 -1</clus>
<clus scale="   88.985">  2  5  1 -1</clus>
<clus scale="   92.610">  7  8 -1 -1</clus>
<clus scale="   30.688">  1  5  2 -1</clus>
</clustering>
</event>
<event>
 9    2  0.1665830E-004  0.1093285E+03  0.7546771E-02  0.1265299E+00
         21   -1    0    0  501  502  0.00000000000E+00  0.00000000000E+00  0.70309109070E+03  0.70309109070E+03  0.00000000000E+00 0.  1.
         -1   -1    0    0    0  501 -0.00000000000E+00 -0.00000000000E+00 -0.44919839834E+02  0.44919839834E+02  0.00000000000E+00 0.  1.
         24    2    1    2    0    0  0.33054583075E+02  0.47079435523E+02  0.39236568446E+02  0.10814891568E+03  0.82750232310E+02 0.  0.
         23    2    1    2    0    0 -0.12191028359E+02 -0.80575228551E+02  0.44987304283E+03  0.46625586852E+03  0.91475634093E+02 0.  0.
        -13    1    3    3    0    0  0.14105779436E+02 -0.20245208943E+02  0.27984457293E+02  0.37309132242E+02  0.00000000000E+00 0.  1.
         14    1    3    3    0    0  0.18948803640E+02  0.67324644466E+02  0.11252111153E+02  0.70839783436E+02  0.00000000000E+00 0. -1.
        -13    1    4    4    0    0 -0.48807705012E+02 -0.65008129438E+02  0.33367312533E+03  0.34343267685E+03  0.00000000000E+00 0.  1.
         13    1    4    4    0    0  0.36616676653E+02 -0.15567099112E+02  0.11619991750E+03  0.12282319167E+03  0.00000000000E+00 0. -1.
         -2    1    1    2    0  502 -0.20863554716E+02  0.33495793027E+02  0.16906163959E+03  0.17360614634E+03  0.00000000000E+00 0.  1.
<scales pt_clust_5="13000.00000" pt_clust_6="13000.00000" pt_clust_7="13000.00000" pt_clust_8="13000.00000" pt_clust_9="39.46208"></scales>
<clustering>
<clus scale="   39.462">  1  9  2 -1</clus>
<clus scale="   82.750">  5  6 -1 -1</clus>
<clus scale="   91.476">  7  8 -1 -1</clus>
<clus scale="  102.140">  2  5  1 -1</clus>
<clus scale="   39.462">  1  5  2 -1</clus>
</clustering>
</event>
<event>
 9    2  0.1665830E-004  0.1747174E+03  0.7546771E-02  0.1174808E+00
         21   -1    0    0  501  502  0.00000000000E+00  0.00000000000E+00  0.19113496222E+03  0.19113496222E+03  0.00000000000E+00 0.  1.
         -3   -1    0    0    0  501 -0.00000000000E+00 -0.00000000000E+00 -0.37700299796E+03  0.37700299796E+03  0.00000000000E+00 0.  1.
         24    2    1    2    0    0 -0.62643956227E+02 -0.10121006246E+03 -0.56897596136E+02  0.15226405780E+03  0.76021476286E+02 0.  0.
         23    2    1    2    0    0 -0.28336882070E+02  0.20727425014E+03 -0.15244843325E+03  0.27417583947E+03  0.90367430481E+02 0.  0.
        -11    1    3    3    0    0 -0.53485795420E+02 -0.55803707746E+02  0.20138592309E+01  0.77322957386E+02  0.00000000000E+00 0.  1.
         12    1    3    3    0    0 -0.91581608069E+01 -0.45406354711E+02 -0.58911455367E+02  0.74941100412E+02  0.00000000000E+00 0. -1.
        -13    1    4    4    0    0 -0.46038812720E+02  0.95287593715E+02 -0.11125304485E+03  0.15354653295E+03  0.00000000000E+00 0.  1.
         13    1    4    4    0    0  0.17701930649E+02  0.11198665643E+03 -0.41195388402E+02  0.12062930652E+03  0.00000000000E+00 0. -1.
         -4    1    1    2    0  502  0.90980838297E+02 -0.10606418769E+03  0.23477993641E+02  0.14169806291E+03  0.00000000000E+00 0.  1.
<scales pt_clust_5="13000.00000" pt_clust_6="13000.00000" pt_clust_7="13000.00000" pt_clust_8="13000.00000" pt_clust_9="139.73949"></scales>
<clustering>
<clus scale="   76.021">  5  6 -1 -1</clus>
<clus scale="   90.367">  7  8 -1 -1</clus>
<clus scale="  139.739">  1  9  2 -1</clus>
<clus scale="  167.747">  2  5  1 -1</clus>
<clus scale="  139.739">  1  5  2 -1</clus>
</clustering>
</event>
<event>
 9    2  0.1665830E-004  0.1110622E+03  0.7546771E-02  0.1261213E+00
          2   -1    0    0  502    0 -0.00000000000E+00  0.00000000000E+00  0.29225042185E+03  0.29225042185E+03  0.00000000000E+00 0. -1.
         21   -1    0    0  501  502  0.00000000000E+00 -0.00000000000E+00 -0.12801890080E+03  0.12801890080E+03  0.00000000000E+00 0.  1.
         23    2    1    2    0    0  0.50133012014E+02  0.47373294689E+01  0.12690322317E+03  0.16494185399E+03  0.92550666997E+02 0.  0.
         24    2    1    2    0    0 -0.11161653009E+03  0.52870326713E+02 -0.22380233852E+02  0.15206095034E+03  0.85837850132E+02 0.  0.
        -13    1    4    4    0    0 -0.34358658307E+02  0.54245979344E+02  0.15424715392E+02  0.66038364006E+02  0.00000000000E+00 0.  1.
         14    1    4    4    0    0 -0.77257871781E+02 -0.13756526309E+01 -0.37804949244E+02  0.86022586334E+02  0.00000000000E+00 0. -1.
        -13    1    3    3    0    0  0.30409253743E+02 -0.32047443829E+02  0.16925406371E+02  0.47309943458E+02  0.00000000000E+00 0.  1.
         13    1    3    3    0    0  0.19723758271E+02  0.36784773298E+02  0.10997781680E+03  0.11763191053E+03  0.00000000000E+00 0. -1.
          1    1    1    2  501    0  0.61483518074E+02 -0.57607656182E+02  0.59708531728E+02  0.10326651832E+03  0.00000000000E+00 0. -1.
<scales pt_clust_5="13000.00000" pt_clust_6="13000.00000" pt_clust_7="13000.00000" pt_clust_8="13000.00000" pt_clust_9="84.25480"></scales>
<clustering>
<clus scale="   84.255">  2  9  1 -1</clus>
<clus scale="   85.838">  5  6 -1 -1</clus>
<clus scale="   92.551">  7  8 -1 -1</clus>
<clus scale="  105.533">  2  5  1 -1</clus>
<clus scale="   84.255">  2  5  1 -1</clus>
</clustering>
</event>
<event>
 9    2  0.1665830E-004  0.1348634E+03  0.7546771E-02  0.1222388E+00
         21   -1    0    0  501  502  0.00000000000E+00  0.00000000000E+00  0.15594340891E+03  0.15594340891E+03  0.00000000000E+00 0.  1.
          2   -1    0    0  502    0 -0.00000000000E+00 -0.00000000000E+00 -0.29251213047E+03  0.29251213047E+03  0.00000000000E+00 0. -1.
         24    2    1    2    0    0 -0.49832898160E+01  0.10028073645E+03 -0.22206301723E+03  0.25726768020E+03  0.82423396998E+02 0.  0.
         23    2    1    2    0    0 -0.14793704845E+02 -0.97004412964E+02  0.36971376439E+02  0.13868702581E+03  0.90766175498E+02 0.  0.
        -11    1    3    3    0    0 -0.24772503380E+02  0.60884376901E+02 -0.58921809002E+02  0.88274366893E+02  0.00000000000E+00 0.  1.
         12    1    3    3    0    0  0.19789213564E+02  0.39396359547E+02 -0.16314120823E+03  0.16899331331E+03  0.00000000000E+00 0. -1.
        -13    1    4    4    0    0  0.35494558813E+02 -0.63405452718E+02  0.14054898450E+02  0.74011183683E+02  0.00000000000E+00 0. -1.
         13    1    4    4    0    0 -0.50288263658E+02 -0.33598960245E+02  0.22916477989E+02  0.64675842126E+02  0.00000000000E+00 0.  1.
          1    1    1    2  501    0  0.19776994661E+02 -0.32763234840E+01  0.48522919232E+02  0.52500833367E+02  0.00000000000E+00 0. -1.
<scales pt_clust_5="13000.00000" pt_clust_6="13000.00000" pt_clust_7="13000.00000" pt_clust_8="13000.00000" pt_clust_9="20.04654"></scales>
<clustering>
<clus scale="   20.047">  1  9  2 -1</clus>
<clus scale="   82.423">  5  6 -1 -1</clus>
<clus scale="   90.766">  7  8 -1 -1</clus>
<clus scale="  129.396">  2  5  1 -1</clus>
<clus scale="   20.047">  1  5  2 -1</clus>
</clustering>
</event>
<event>
 9    2  0.1665830E-004  0.1123399E+03  0.7546771E-02  0.1260333E+00
         21   -1    0    0  501  502  0.00000000000E+00  0.00000000000E+00  0.73471751741E+02  0.73471751741E+02  0.00000000000E+00 0.  1.
         -1   -1    0    0    0  501 -0.00000000000E+00 -0.00000000000E+00 -0.48157928409E+03  0.48157928409E+03  0.00000000000E+00 0.  1.
         23    2    1    2    0    0 -0.25648353713E+01 -0.69997358944E+02 -0.37986153151E+03  0.39718486458E+03  0.92492296394E+02 0.  0.
         24    2    1    2    0    0 -0.10416313907E+02  0.45612663293E+02 -0.63061837582E+02  0.11342220533E+03  0.81846115701E+02 0.  0.
        -11    1    4    4    0    0 -0.44140351817E+02  0.25112756092E+02 -0.18879071348E+02  0.54179705721E+02  0.00000000000E+00 0.  1.
         12    1    4    4    0    0  0.33724037910E+02  0.20499907201E+02 -0.44182766234E+02  0.59242499612E+02  0.00000000000E+00 0. -1.
        -13    1    3    3    0    0 -0.34259058387E+02 -0.62432262893E+02 -0.33016885042E+03  0.33776166200E+03  0.00000000000E+00 0.  1.
         13    1    3    3    0    0  0.31694223016E+02 -0.75650960515E+01 -0.49692681090E+02  0.59423202579E+02  0.00000000000E+00 0. -1.
         -2    1    1    2    0  502  0.12981149278E+02  0.24384695652E+02  0.34815836741E+02  0.44443965919E+02  0.00000000000E+00 0.  1.
<scales pt_clust_5="13000.00000" pt_clust_6="13000.00000" pt_clust_7="13000.00000" pt_clust_8="13000.00000" pt_clust_9="27.62469"></scales>
<clustering>
<clus scale="   27.625">  1  9  2 -1</clus>
<clus scale="   81.846">  5  6 -1 -1</clus>
<clus scale="   92.492">  7  8 -1 -1</clus>
<clus scale="  103.751">  1  5  2 -1</clus>
<clus scale="   27.625">  1  5  2 -1</clus>
</clustering>
</event>
<event>
 9    2  0.1665830E-004  0.1225928E+03  0.7546771E-02  0.1242283E+00
         21   -1    0    0  501  502  0.00000000000E+00  0.00000000000E+00  0.23489961446E+03  0.23489961446E+03  0.00000000000E+00 0. -1.
         -3   -1    0    0    0  501 -0.00000000000E+00 -0.00000000000E+00 -0.12630490158E+03  0.12630490158E+03  0.00000000000E+00 0.  1.
         23    2    1    2    0    0 -0.67533802471E+02 -0.58705262846E+02  0.35903079989E+02  0.13255384966E+03  0.90963561635E+02 0.  0.
         24    2    1    2    0    0  0.70942488651E+02  0.21407403841E+02  0.12412423807E+03  0.16502628188E+03  0.79597321553E+02 0.  0.
        -11    1    4    4    0    0 -0.11364145096E+02  0.19662542364E+02  0.47089205871E+02  0.52279562695E+02  0.00000000000E+00 0.  1.
         12    1    4    4    0    0  0.82306633748E+02  0.17448614766E+01  0.77035032201E+02  0.11274671918E+03  0.00000000000E+00 0. -1.
        -13    1    3    3    0    0 -0.21344169920E+02 -0.13670253065E+02 -0.30712946064E+02  0.39821281551E+02  0.00000000000E+00 0.  1.
         13    1    3    3    0    0 -0.46189632551E+02 -0.45035009781E+02  0.66616026053E+02  0.92732568111E+02  0.00000000000E+00 0. -1.
         -4    1    1    2    0  502 -0.34086861803E+01  0.37297859005E+02 -0.51432605174E+02  0.63624384499E+02  0.00000000000E+00 0.  1.
<scales pt_clust_5="13000.00000" pt_clust_6="13000.00000" pt_clust_7="13000.00000" pt_clust_8="13000.00000" pt_clust_9="37.45332"></scales>
<clustering>
<clus scale="   37.453">  1  9  2 -1</clus>
<clus scale="   79.597">  5  6 -1 -1</clus>
<clus scale="   90.964">  7  8 -1 -1</clus>
<clus scale="  114.413">  1  5  2 -1</clus>
<clus scale="   37.453">  1  5  2 -1</clus>
</clustering>
</event>
<event>
 9    2  0.1665830E-004  0.1920591E+03  0.7546771E-02  0.1157696E+00
         -3   -1    0    0    0  501 -0.00000000000E+00  0.00000000000E+00  0.89669771021E+03  0.89669771021E+03  0.00000000000E+00 0.  1.
         21   -1    0    0  501  502  0.00000000000E+00 -0.00000000000E+00 -0.95604343758E+02  0.95604343758E+02  0.00000000000E+00 0.  1.
         23    2    1    2    0    0 -0.11602784684E+03 -0.97681290744E+02  0.44174154048E+03  0.47656760689E+03  0.94747029238E+02 0.  0.
         24    2    1    2    0    0  0.16863865490E+03  0.92001329588E+02  0.39816347051E+03  0.45011049691E+03  0.84629011602E+02 0.  0.
        -11    1    4    4    0    0  0.13574525072E+03  0.86258592635E+02  0.24306402395E+03  0.29145743709E+03  0.00000000000E+00 0.  1.
         12    1    4    4    0    0  0.32893404184E+02  0.57427369538E+01  0.15509944656E+03  0.15865305982E+03  0.00000000000E+00 0. -1.
        -13    1    3    3    0    0 -0.81886112350E+02 -0.11450379890E+03  0.34728182310E+03  0.37472806142E+03  0.00000000000E+00 0.  1.
         13    1    3    3    0    0 -0.34141734485E+02  0.16822508159E+02  0.94459717378E+02  0.10183954547E+03  0.00000000000E+00 0. -1.
         -4    1    1    2    0  502 -0.52610808067E+02  0.56799611550E+01 -0.38811644537E+02  0.65623950170E+02  0.00000000000E+00 0.  1.
<scales pt_clust_5="13000.00000" pt_clust_6="13000.00000" pt_clust_7="13000.00000" pt_clust_8="13000.00000" pt_clust_9="52.91653"></scales>
<clustering>
<clus scale="   52.917">  2  9  1 -1</clus>
<clus scale="   84.629">  5  6 -1 -1</clus>
<clus scale="   94.747">  7  8 -1 -1</clus>
<clus scale="  187.275">  2  5  1 -1</clus>
<clus scale="   52.917">  2  5  1 -1</clus>
</clustering>
</event>
<event>
 9    2  0.1665830E-004  0.1399052E+03  0.7546771E-02  0.1224914E+00
          2   -1    0    0  502    0 -0.00000000000E+00  0.00000000000E+00  0.23157432695E+03  0.23157432695E+03  0.00000000000E+00 0. -1.
         21   -1    0    0  501  502  0.00000000000E+00 -0.00000000000E+00 -0.26767450605E+03  0.26767450605E+03  0.00000000000E+00 0. -1.
         24    2    1    2    0    0 -0.39516105747E+02 -0.36884163853E+02  0.10147321109E+02  0.11042093566E+03  0.95748894251E+02 0.  0.
         23    2    1    2    0    0  0.57536967461E+02 -0.94915785863E+02 -0.16161246231E+03  0.21274538065E+03  0.82598426040E+02 0.  0.
        -11    1    3    3    0    0 -0.51629153345E+02  0.17118465447E+02  0.84895552777E+01  0.55051647416E+02  0.00000000000E+00 0.  1.
         12    1    3    3    0    0  0.12113047597E+02 -0.54002629300E+02  0.16577658316E+01  0.55369288247E+02  0.00000000000E+00 0. -1.
        -13    1    4    4    0    0  0.19238825736E+01 -0.49334449947E+02 -0.11977990080E+03  0.12955621912E+03  0.00000000000E+00 0. -1.
         13    1    4    4    0    0  0.55613084888E+02 -0.45581335915E+02 -0.41832561506E+02  0.83189161534E+02  0.00000000000E+00 0.  1.
          1    1    1    2  501    0 -0.18020861714E+02  0.13179994972E+03  0.11536496210E+03  0.17608251668E+03  0.00000000000E+00 0. -1.
<scales pt_clust_5="13000.00000" pt_clust_6="13000.00000" pt_clust_7="13000.00000" pt_clust_8="13000.00000" pt_clust_9="112.92020"></scales>
<clustering>
<clus scale="   82.598">  7  8 -1 -1</clus>
<clus scale="   95.749">  5  6 -1 -1</clus>
<clus scale="  109.954">  1  5  2 -1</clus>
<clus scale="  112.920">  2  9  1 -1</clus>
<clus scale="  112.920">  2  5  1 -1</clus>
</clustering>
</event>
<event>
 9    2  0.1665830E-004  0.1108508E+03  0.7546771E-02  0.1266818E+00
         -1   -1    0    0    0  501 -0.00000000000E+00  0.00000000000E+00  0.69571316242E+03  0.69571316242E+03  0.00000000000E+00 0.  1.
         21   -1    0    0  501  502  0.00000000000E+00 -0.00000000000E+00 -0.13218513759E+03  0.13218513759E+03  0.00000000000E+00 0.  1.
         24    2    1    2    0    0 -0.76322716255E+02 -0.29597628043E+01  0.57578906921E+03  0.58498906665E+03  0.69607748575E+02 0.  0.
         23    2    1    2    0    0 -0.71068313818E+01  0.44902042318E+02  0.66531637240E+02  0.12072932132E+03  0.89902223647E+02 0.  0.
        -11    1    3    3    0    0 -0.75628172620E+02  0.15849725351E+02  0.35057282637E+03  0.35898766117E+03  0.00000000000E+00 0.  1.
         12    1    3    3    0    0 -0.69454363406E+00 -0.18809488155E+02  0.22521624285E+03  0.22600140548E+03  0.00000000000E+00 0. -1.
        -11    1    4    4    0    0  0.40151491706E+02  0.10523678952E+02  0.20257029782E+02  0.46186982587E+02  0.00000000000E+00 0. -1.
         11    1    4    4    0    0 -0.47258323088E+02  0.34378363366E+02  0.46274607457E+02  0.74542338736E+02  0.00000000000E+00 0.  1.
         -2    1    1    2    0  502  0.83429547636E+02 -0.41942279514E+02 -0.78792681625E+02  0.12217991204E+03  0.00000000000E+00 0.  1.
<scales pt_clust_5="13000.00000" pt_clust_6="13000.00000" pt_clust_7="13000.00000" pt_clust_8="13000.00000" pt_clust_9="93.37904"></scales>
<clustering>
<clus scale="   69.608">  5  6 -1 -1</clus>
<clus scale="   89.902">  7  8 -1 -1</clus>
<clus scale="   93.379">  2  9  1 -1</clus>
<clus scale="   95.135">  1  5  2 -1</clus>
<clus scale="   93.379">  2  5  1 -1</clus>
</clustering>
</event>
<event>
 9    2  0.1665830E-004  0.1241628E+03  0.7546771E-02  0.1240217E+00
          2   -1    0    0  502    0 -0.00000000000E+00  0.00000000000E+00  0.46665190680E+03  0.46665190680E+03  0.00000000000E+00 0. -1.
         21   -1    0    0  501  502  0.00000000000E+00 -0.00000000000E+00 -0.68052858063E+02  0.68052858063E+02  0.00000000000E+00 0. -1.
         23    2    1    2    0    0  0.40634005100E+02  0.46184005192E+02  0.14609430835E+03  0.18416122578E+03  0.93742868747E+02 0.  0.
         24    2    1    2    0    0 -0.12492419074E+03 -0.34008373021E+02  0.12570076303E+03  0.19779429985E+03  0.80989384238E+02 0.  0.
        -11    1    4    4    0    0 -0.22781057569E+02 -0.28625237248E+02  0.75408023310E+02  0.83813786282E+02  0.00000000000E+00 0.  1.
         12    1    4    4    0    0 -0.10214313317E+03 -0.53831357724E+01  0.50292739722E+02  0.11398051357E+03  0.00000000000E+00 0. -1.
        -13    1    3    3    0    0 -0.11609358167E+02  0.36481203870E+02  0.11799912038E+03  0.12405421332E+03  0.00000000000E+00 0.  1.
         13    1    3    3    0    0  0.52243363268E+02  0.97028013219E+01  0.28095187972E+02  0.60107012455E+02  0.00000000000E+00 0. -1.
          1    1    1    2  501    0  0.84290185640E+02 -0.12175632171E+02  0.12680397735E+03  0.15274923923E+03  0.00000000000E+00 0. -1.
<scales pt_clust_5="13000.00000" pt_clust_6="13000.00000" pt_clust_7="13000.00000" pt_clust_8="13000.00000" pt_clust_9="85.16507"></scales>
<clustering>
<clus scale="   80.989">  5  6 -1 -1</clus>
<clus scale="   85.165">  2  9  1 -1</clus>
<clus scale="   93.743">  7  8 -1 -1</clus>
<clus scale="  114.839">  2  5  1 -1</clus>
<clus scale="   85.165">  2  5  1 -1</clus>
</clustering>
</event>
<event>
 9    2  0.1665830E-004  0.1889051E+03  0.7546771E-02  0.1176059E+00
         -1   -1    0    0    0  501 -0.00000000000E+00  0.00000000000E+00  0.68494023266E+02  0.68494023266E+02  0.00000000000E+00 0.  1.
         21   -1    0    0  501  502  0.00000000000E+00 -0.00000000000E+00 -0.13583246657E+04  0.13583246657E+04  0.00000000000E+00 0.  1.
         24    2    1    2    0    0  0.10253184357E+03  0.38803630976E+01 -0.81436804914E+03  0.82452351370E+03  0.78204021693E+02 0.  0.
         23    2    1    2    0    0  0.96080072277E+02  0.64516538868E+02 -0.12005756554E+03  0.18945433055E+03  0.89918631248E+02 0.  0.
        -11    1    3    3    0    0  0.11302134832E+03 -0.64700258376E+01 -0.68120643890E+03  0.69054898364E+03  0.00000000000E+00 0.  1.
         12    1    3    3    0    0 -0.10489504744E+02  0.10350388935E+02 -0.13316161024E+03  0.13397453005E+03  0.00000000000E+00 0. -1.
        -11    1    4    4    0    0  0.88568961713E+02  0.27384549259E+02 -0.40160916526E+02  0.10103105331E+03  0.00000000000E+00 0. -1.
         11    1    4    4    0    0  0.75111105636E+01  0.37131989609E+02 -0.79896649016E+02  0.88423277242E+02  0.00000000000E+00 0.  1.
         -2    1    1    2    0  502 -0.19861191585E+03 -0.68396901965E+02 -0.35540502774E+03  0.41284084471E+03  0.00000000000E+00 0.  1.
<scales pt_clust_5="13000.00000" pt_clust_6="13000.00000" pt_clust_7="13000.00000" pt_clust_8="13000.00000" pt_clust_9="166.13185"></scales>
<clustering>
<clus scale="   78.204">  5  6 -1 -1</clus>
<clus scale="   89.919">  7  8 -1 -1</clus>
<clus scale="  129.011">  1  5  2 -1</clus>
<clus scale="  166.132">  2  9  1 -1</clus>
<clus scale="  166.132">  2  5  1 -1</clus>
</clustering>
</event>
<event>
 9    2  0.1665830E-004  0.1213722E+03  0.7546771E-02  0.1249462E+00
         -3   -1    0    0    0  501 -0.00000000000E+00  0.00000000000E+00  0.42381028352E+02  0.42381028352E+02  0.00000000000E+00 0.  1.
         21   -1    0    0  501  502  0.00000000000E+00 -0.00000000000E+00 -0.90595104627E+03  0.90595104627E+03  0.00000000000E+00 0.  1.
         24    2    1    2    0    0  0.13882852768E+01  0.57071456596E+02 -0.73591377119E+02  0.12477063395E+03  0.83023742489E+02 0.  0.
         23    2    1    2    0    0  0.82370186740E+02 -0.61653718738E+02 -0.46139698578E+03  0.48444142832E+03  0.10587865832E+03 0.  0.
        -13    1    3    3    0    0  0.24289370672E+02  0.62790613344E+02 -0.26992368438E+02  0.72534285725E+02  0.00000000000E+00 0.  1.
         14    1    3    3    0    0 -0.22901085395E+02 -0.57191567482E+01 -0.46599008681E+02  0.52236348228E+02  0.00000000000E+00 0. -1.
        -11    1    4    4    0    0  0.71361927453E+02  0.12683383281E+02 -0.22900500402E+03  0.24020134215E+03  0.00000000000E+00 0.  1.
         11    1    4    4    0    0  0.11008259287E+02 -0.74337102019E+02 -0.23239198175E+03  0.24424008617E+03  0.00000000000E+00 0. -1.
         -4    1    1    2    0  502 -0.83758472017E+02  0.45822621418E+01 -0.32858165502E+03  0.33912001235E+03  0.00000000000E+00 0.  1.
<scales pt_clust_5="13000.00000" pt_clust_6="13000.00000" pt_clust_7="13000.00000" pt_clust_8="13000.00000" pt_clust_9="83.88372"></scales>
<clustering>
<clus scale="   83.024">  5  6 -1 -1</clus>
<clus scale="   83.884">  2  9  1 -1</clus>
<clus scale="  102.048">  1  5  2 -1</clus>
<clus scale="  105.879">  7  8 -1 -1</clus>
<clus scale="   83.884">  2  5  1 -1</clus>
</clustering>
</event>
<event>
 9    2  0.1665830E-004  0.1273340E+03  0.7546771E-02  0.1246653E+00
         21   -1    0    0  501  502  0.00000000000E+00  0.00000000000E+00  0.29594910434E+03  0.29594910434E+03  0.00000000000E+00 0.  1.
         -1   -1    0    0    0  501 -0.00000000000E+00 -0.00000000000E+00 -0.15384553179E+03  0.15384553179E+03  0.00000000000E+00 0.  1.
         23    2    1    2    0    0  0.71537396124E+01 -0.53403817271E+01  0.14554338277E+03  0.17298443763E+03  0.93064728691E+02 0.  0.
         24    2    1    2    0    0 -0.24163062661E+02  0.97827464674E+02  0.79621816380E+02  0.15134143189E+03  0.80065778705E+02 0.  0.
        -11    1    4    4    0    0 -0.44286270964E+02  0.97759190024E+02  0.74281534357E+02  0.13052156671E+03  0.00000000000E+00 0.  1.
         12    1    4    4    0    0  0.20123208303E+02  0.68274650361E-01  0.53402820226E+01  0.20819865175E+02  0.00000000000E+00 0. -1.
        -13    1    3    3    0    0  0.35987930514E+02 -0.26263249678E+02  0.12301325138E+03  0.13083252440E+03  0.00000000000E+00 0.  1.
         13    1    3    3    0    0 -0.28834190902E+02  0.20922867951E+02  0.22530131388E+02  0.42151913226E+02  0.00000000000E+00 0. -1.
         -2    1    1    2    0  502  0.17009323049E+02 -0.92487082947E+02 -0.83061626601E+02  0.12546876662E+03  0.00000000000E+00 0.  1.
<scales pt_clust_5="13000.00000" pt_clust_6="13000.00000" pt_clust_7="13000.00000" pt_clust_8="13000.00000" pt_clust_9="99.01226"></scales>
<clustering>
<clus scale="   80.066">  5  6 -1 -1</clus>
<clus scale="   93.065">  7  8 -1 -1</clus>
<clus scale="   93.492">  2  7  1 -1</clus>
<clus scale="   99.012">  1  9  2 -1</clus>
<clus scale="   99.012">  1  5  2 -1</clus>
</clustering>
</event>
<event>
 9    2  0.1665830E-004  0.1178174E+03  0.7546771E-02  0.1255780E+00
          2   -1    0    0  502    0 -0.00000000000E+00  0.00000000000E+00  0.37573353009E+02  0.37573353009E+02  0.00000000000E+00 0. -1.
         21   -1    0    0  501  502  0.00000000000E+00 -0.00000000000E+00 -0.73765211496E+03  0.73765211496E+03  0.00000000000E+00 0.  1.
         23    2    1    2    0    0 -0.56223024118E+02 -0.34964218595E+02 -0.16783184095E+03  0.20575154848E+03  0.98907268912E+02 0.  0.
         24    2    1    2    0    0 -0.12370335122E+01  0.81753755469E+02 -0.19572763251E+03  0.22489279622E+03  0.74714502467E+02 0.  0.
        -13    1    4    4    0    0 -0.32153783801E+02  0.13366817653E+02 -0.75829823491E+02  0.83442793323E+02  0.00000000000E+00 0.  1.
         14    1    4    4    0    0  0.30916750289E+02  0.68386937815E+02 -0.11989780902E+03  0.14145000290E+03  0.00000000000E+00 0. -1.
        -11    1    3    3    0    0 -0.10636539398E+02 -0.18607646910E+02  0.83739146193E+01  0.23010930879E+02  0.00000000000E+00 0. -1.
         11    1    3    3    0    0 -0.45586484721E+02 -0.16356571685E+02 -0.17620575557E+03  0.18274061760E+03  0.00000000000E+00 0.  1.
          1    1    1    2  501    0  0.57460057630E+02 -0.46789536874E+02 -0.33651928849E+03  0.34458112326E+03  0.00000000000E+00 0. -1.
<scales pt_clust_5="13000.00000" pt_clust_6="13000.00000" pt_clust_7="13000.00000" pt_clust_8="13000.00000" pt_clust_9="74.10074"></scales>
<clustering>
<clus scale="   74.101">  2  9  1 -1</clus>
<clus scale="   74.715">  5  6 -1 -1</clus>
<clus scale="   98.390">  2  5  1 -1</clus>
<clus scale="   98.907">  7  8 -1 -1</clus>
<clus scale="   74.101">  2  5  1 -1</clus>
</clustering>
</event>
<event>
 9    2  0.1665830E-004  0.1095246E+03  0.7546771E-02  0.1264395E+00
         -1   -1    0    0    0  501 -0.00000000000E+00  0.00000000000E+00  0.31546291641E+03  0.31546291641E+03  0.00000000000E+00 0.  1.
         21   -1    0    0  501  502  0.00000000000E+00 -0.00000000000E+00 -0.60523607454E+02  0.60523607454E+02  0.00000000000E+00 0.  1.
         24    2    1    2    0    0  0.23162984371E+02  0.55365547061E+02  0.11099721723E+03  0.15028477266E+03  0.81628812406E+02 0.  0.
         23    2    1    2    0    0 -0.49805441607E+01 -0.72638428786E+02  0.45059580898E+02  0.12368849460E+03  0.89259905384E+02 0.  0.
        -13    1    3    3    0    0  0.42497659797E+02  0.29198557128E+02  0.22987506804E+02  0.56453806742E+02  0.00000000000E+00 0.  1.
         14    1    3    3    0    0 -0.19334675427E+02  0.26166989933E+02  0.88009710428E+02  0.93830965921E+02  0.00000000000E+00 0. -1.
        -11    1    4    4    0    0 -0.38287754293E+02 -0.38253030212E+02 -0.50860181006E+01  0.54360960526E+02  0.00000000000E+00 0. -1.
         11    1    4    4    0    0  0.33307210132E+02 -0.34385398574E+02  0.50145598998E+02  0.69327534074E+02  0.00000000000E+00 0.  1.
         -2    1    1    2    0  502 -0.18182440210E+02  0.17272881725E+02  0.98882510831E+02  0.10201325661E+03  0.00000000000E+00 0.  1.
<scales pt_clust_5="13000.00000" pt_clust_6="13000.00000" pt_clust_7="13000.00000" pt_clust_8="13000.00000" pt_clust_9="25.07896"></scales>
<clustering>
<clus scale="   25.079">  2  9  1 -1</clus>
<clus scale="   81.629">  5  6 -1 -1</clus>
<clus scale="   89.260">  7  8 -1 -1</clus>
<clus scale="  103.400">  1  5  2 -1</clus>
<clus scale="   25.079">  2  5  1 -1</clus>
</clustering>
</event>
<event>
 9    2  0.1665830E-004  0.1995282E+03  0.7546771E-02  0.1152198E+00
         21   -1    0    0  501  502  0.00000000000E+00  0.00000000000E+00  0.25559857016E+03  0.25559857016E+03  0.00000000000E+00 0. -1.
          2   -1    0    0  502    0 -0.00000000000E+00 -0.00000000000E+00 -0.34434732557E+03  0.34434732557E+03  0.00000000000E+00 0. -1.
         24    2    1    2    0    0 -0.14313452118E+03  0.13812093353E+03  0.14479031728E+02  0.21197779880E+03  0.71833567336E+02 0.  0.
         23    2    1    2    0    0  0.28242043585E+02 -0.16798720642E+03  0.43316115082E+02  0.19937490792E+03  0.94110326400E+02 0.  0.
        -13    1    3    3    0    0 -0.40862595361E+02  0.27393768705E+01 -0.47208176450E+01  0.41225501871E+02  0.00000000000E+00 0.  1.
         14    1    3    3    0    0 -0.10227192581E+03  0.13538155666E+03  0.19199849373E+02  0.17075229693E+03  0.00000000000E+00 0. -1.
        -13    1    4    4    0    0  0.61036514161E+01 -0.15126292590E+03  0.64412864754E+02  0.16451973881E+03  0.00000000000E+00 0. -1.
         13    1    4    4    0    0  0.22138392169E+02 -0.16724280517E+02 -0.21096749672E+02  0.34855169105E+02  0.00000000000E+00 0.  1.
          1    1    1    2  501    0  0.11489247759E+03  0.29866272894E+02 -0.14654390221E+03  0.18859318901E+03  0.00000000000E+00 0. -1.
<scales pt_clust_5="13000.00000" pt_clust_6="13000.00000" pt_clust_7="13000.00000" pt_clust_8="13000.00000" pt_clust_9="118.71095"></scales>
<clustering>
<clus scale="   71.834">  5  6 -1 -1</clus>
<clus scale="   94.110">  7  8 -1 -1</clus>
<clus scale="  118.711">  1  9  2 -1</clus>
<clus scale="  190.039">  2  5  1 -1</clus>
<clus scale="  118.711">  1  5  2 -1</clus>
</clustering>
</event>
<event>
 9    2  0.1665830E-004  0.9697051E+02  0.7546771E-02  0.1292878E+00
         21   -1    0    0  501  502  0.00000000000E+00  0.00000000000E+00  0.18473262890E+03  0.18473262890E+03  0.00000000000E+00 0. -1.
          2   -1    0    0  502    0 -0.00000000000E+00 -0.00000000000E+00 -0.13287647986E+03  0.13287647986E+03  0.00000000000E+00 0. -1.
         24    2    1    2    0    0  0.11056105250E+02  0.26767507477E+02 -0.19834924121E+02  0.87281199951E+02  0.79911493104E+02 0.  0.
         23    2    1    2    0    0 -0.69199783769E+02 -0.14097987431E+02  0.11017617970E+03  0.15945966829E+03  0.91111096551E+02 0.  0.
        -13    1    3    3    0    0 -0.28428414041E+02  0.67615586178E+00  0.11335113999E+02  0.30612362225E+02  0.00000000000E+00 0.  1.
         14    1    3    3    0    0  0.39484519291E+02  0.26091351615E+02 -0.31170038120E+02  0.56668837726E+02  0.00000000000E+00 0. -1.
        -13    1    4    4    0    0 -0.42138115976E+02 -0.49099769328E+02  0.89972510768E+02  0.11082175265E+03  0.00000000000E+00 0. -1.
         13    1    4    4    0    0 -0.27061667792E+02  0.35001781897E+02  0.20203668929E+02  0.48637915640E+02  0.00000000000E+00 0.  1.
          1    1    1    2  501    0  0.58143678518E+02 -0.12669520045E+02 -0.38485106529E+02  0.70868240520E+02  0.00000000000E+00 0. -1.
<scales pt_clust_5="13000.00000" pt_clust_6="13000.00000" pt_clust_7="13000.00000" pt_clust_8="13000.00000" pt_clust_9="59.50805"></scales>
<clustering>
<clus scale="   59.508">  1  9  2 -1</clus>
<clus scale="   79.911">  5  6 -1 -1</clus>
<clus scale="   86.533">  2  5  1 -1</clus>
<clus scale="   91.111">  7  8 -1 -1</clus>
<clus scale="   59.508">  1  5  2 -1</clus>
</clustering>
</event>
<event>
 9    2  0.1665830E-004  0.1392830E+03  0.7546771E-02  0.1240206E+00
          2   -1    0    0  502    0 -0.00000000000E+00  0.00000000000E+00  0.10787219764E+04  0.10787219764E+04  0.00000000000E+00 0. -1.
         21   -1    0    0  501  502  0.00000000000E+00 -0.00000000000E+00 -0.35001326067E+02  0.35001326067E+02  0.00000000000E+00 0.  1.
         24    2    1    2    0    0  0.20791780642E+02 -0.74452212766E+00  0.63384117066E+02  0.10314301636E+03  0.78664369778E+02 0.  0.
         23    2    1    2    0    0  0.92713491675E+02 -0.82834252861E+01  0.51006891881E+03  0.52672433658E+03  0.92756768710E+02 0.  0.
        -11    1    3    3    0    0  0.38618484422E+02  0.12304867292E+02  0.51478250552E+01  0.40857033677E+02  0.00000000000E+00 0.  1.
         12    1    3    3    0    0 -0.17826703779E+02 -0.13049389420E+02  0.58236292010E+02  0.62285982685E+02  0.00000000000E+00 0. -1.
        -13    1    4    4    0    0  0.10608695189E+02  0.36369331077E+02  0.13989084584E+03  0.14493005694E+03  0.00000000000E+00 0.  1.
         13    1    4    4    0    0  0.82104796486E+02 -0.44652756363E+02  0.37017807297E+03  0.38179427964E+03  0.00000000000E+00 0. -1.
          1    1    1    2  501    0 -0.11350527232E+03  0.90279474137E+01  0.47026761447E+03  0.48385594953E+03  0.00000000000E+00 0. -1.
<scales pt_clust_5="13000.00000" pt_clust_6="13000.00000" pt_clust_7="13000.00000" pt_clust_8="13000.00000" pt_clust_9="103.90356"></scales>
<clustering>
<clus scale="   78.664">  5  6 -1 -1</clus>
<clus scale="   81.369">  1  5  2 -1</clus>
<clus scale="   92.757">  7  8 -1 -1</clus>
<clus scale="  103.904">  2  9  1 -1</clus>
<clus scale="  103.904">  2  5  1 -1</clus>
</clustering>
</event>
<event>
 9    2  0.1665830E-004  0.2663306E+03  0.7546771E-02  0.1103398E+00
         21   -1    0    0  501  502  0.00000000000E+00  0.00000000000E+00  0.10645735063E+04  0.10645735063E+04  0.00000000000E+00 0.  1.
         -1   -1    0    0    0  501 -0.00000000000E+00 -0.00000000000E+00 -0.15002831258E+03  0.15002831258E+03  0.00000000000E+00 0.  1.
         24    2    1    2    0    0  0.30867192657E+02  0.96211214353E+02 -0.42817220190E+02  0.13642677185E+03  0.81052873988E+02 0.  0.
         23    2    1    2    0    0  0.52487865750E+02  0.69985945142E+02  0.27921987761E+02  0.13032006479E+03  0.92469850860E+02 0.  0.
        -11    1    3    3    0    0 -0.64715385915E+01  0.77903153813E+02 -0.51937894066E+02  0.93852687898E+02  0.00000000000E+00 0.  1.
         12    1    3    3    0    0  0.37338731249E+02  0.18308060541E+02  0.91206738764E+01  0.42574083948E+02  0.00000000000E+00 0. -1.
        -13    1    4    4    0    0  0.74030442810E+02  0.73788154151E+02  0.17097116282E+02  0.10591274494E+03  0.00000000000E+00 0.  1.
         13    1    4    4    0    0 -0.21542577060E+02 -0.38022090082E+01  0.10824871479E+02  0.24407319850E+02  0.00000000000E+00 0. -1.
         -2    1    1    2    0  502 -0.83355058408E+02 -0.16619715950E+03  0.92944042615E+03  0.94785498224E+03  0.00000000000E+00 0.  1.
<scales pt_clust_5="13000.00000" pt_clust_6="13000.00000" pt_clust_7="13000.00000" pt_clust_8="13000.00000" pt_clust_9="185.92892"></scales>
<clustering>
<clus scale="   81.053">  5  6 -1 -1</clus>
<clus scale="   92.470">  7  8 -1 -1</clus>
<clus scale="  106.388">  5  7 -1 -1</clus>
<clus scale="  185.929">  1  9  2 -1</clus>
<clus scale="  185.929">  1  5  2 -1</clus>
</clustering>
</event>
<event>
 9    2  0.1665830E-004  0.1627319E+03  0.7546771E-02  0.1187251E+00
         21   -1    0    0  501  502  0.00000000000E+00  0.00000000000E+00  0.48206111243E+02  0.48206111243E+02  0.00000000000E+00 0.  1.
          2   -1    0    0  502    0 -0.00000000000E+00 -0.00000000000E+00 -0.18164696897E+04  0.18164696897E+04  0.00000000000E+00 0. -1.
         23    2    1    2    0    0 -0.93353558596E+02 -0.87548284522E+02 -0.25511754995E+03  0.29957222350E+03  0.90988811258E+02 0.  0.
         24    2    1    2    0    0  0.13337610122E+03 -0.67096660236E+02 -0.32614431470E+03  0.36740163980E+03  0.79515437019E+02 0.  0.
        -11    1    4    4    0    0  0.10369654668E+03 -0.25565156042E+02 -0.15088001988E+03  0.18485489281E+03  0.00000000000E+00 0.  1.
         12    1    4    4    0    0  0.29679554546E+02 -0.41531504195E+02 -0.17526429481E+03  0.18254674699E+03  0.00000000000E+00 0. -1.
        -13    1    3    3    0    0 -0.95784994808E+02 -0.35435503283E+02 -0.19380684291E+03  0.21906969778E+03  0.00000000000E+00 0.  1.
         13    1    3    3    0    0  0.24314362120E+01 -0.52112781240E+02 -0.61310707040E+02  0.80502525726E+02  0.00000000000E+00 0. -1.
          1    1    1    2  501    0 -0.40022542626E+02  0.15464494476E+03 -0.11870017138E+04  0.11977019376E+04  0.00000000000E+00 0. -1.
<scales pt_clust_5="13000.00000" pt_clust_6="13000.00000" pt_clust_7="13000.00000" pt_clust_8="13000.00000" pt_clust_9="141.98239"></scales>
<clustering>
<clus scale="   79.515">  5  6 -1 -1</clus>
<clus scale="   90.989">  7  8 -1 -1</clus>
<clus scale="  157.030">  2  7  1 -1</clus>
<clus scale="  141.982">  1  9  2 -1</clus>
<clus scale="  141.982">  1  5  2 -1</clus>
</clustering>
</event>
<event>
 9    2  0.1665830E-004  0.9168596E+02  0.7546771E-02  0.1304537E+00
         21   -1    0    0  501  502  0.00000000000E+00  0.00000000000E+00  0.41309079787E+02  0.41309079787E+02  0.00000000000E+00 0.  1.
         -1   -1    0    0    0  501 -0.00000000000E+00 -0.00000000000E+00 -0.69773274296E+03  0.69773274296E+03  0.00000000000E+00 0.  1.
         23    2    1    2    0    0 -0.21639721319E+00 -0.22625013120E+02 -0.20425987350E+03  0.22400411104E+03  0.89128041581E+02 0.  0.
         24    2    1    2    0    0 -0.52504507900E+02  0.67717469882E+00 -0.47931066780E+02  0.10679110032E+03  0.79685444278E+02 0.  0.
        -13    1    4    4    0    0 -0.19196095938E+02  0.39684387692E+02 -0.23940326499E+02  0.50164528889E+02  0.00000000000E+00 0.  1.
         14    1    4    4    0    0 -0.33308411962E+02 -0.39007212994E+02 -0.23990740281E+02  0.56626571432E+02  0.00000000000E+00 0. -1.
        -11    1    3    3    0    0 -0.43731307790E+02 -0.16436950829E+02 -0.86514719089E+02  0.98322923332E+02  0.00000000000E+00 0.  1.
         11    1    3    3    0    0  0.43514910577E+02 -0.61880622905E+01 -0.11774515441E+03  0.12568118771E+03  0.00000000000E+00 0. -1.
         -2    1    1    2    0  502  0.52720905113E+02  0.21947838421E+02 -0.40423272289E+03  0.40824661138E+03  0.00000000000E+00 0.  1.
<scales pt_clust_5="13000.00000" pt_clust_6="13000.00000" pt_clust_7="13000.00000" pt_clust_8="13000.00000" pt_clust_9="57.10696"></scales>
<clustering>
<clus scale="   57.107">  1  9  2 -1</clus>
<clus scale="   79.685">  5  6 -1 -1</clus>
<clus scale="   82.537">  1  5  2 -1</clus>
<clus scale="   89.128">  7  8 -1 -1</clus>
<clus scale="   57.107">  1  5  2 -1</clus>
</clustering>
</event>
<event>
 9    2  0.1665830E-004  0.1843681E+03  0.7546771E-02  0.1172730E+00
         -3   -1    0    0    0  501 -0.00000000000E+00  0.00000000000E+00  0.18479211616E+03  0.18479211616E+03  0.00000000000E+00 0.  1.
         21   -1    0    0  501  502  0.00000000000E+00 -0.00000000000E+00 -0.87059761652E+03  0.87059761652E+03  0.00000000000E+00 0.  1.
         24    2    1    2    0    0  0.38313402845E+02 -0.12050688943E+03 -0.16631245002E+03  0.22373736187E+03  0.80054661506E+02 0.  0.
         23    2    1    2    0    0  0.13900212554E+03  0.80270994276E+02 -0.60336159611E+03  0.63141836563E+03  0.94227986082E+02 0.  0.
        -13    1    3    3    0    0  0.36377715390E+02 -0.10660053627E+03 -0.84708965974E+02  0.14093481269E+03  0.00000000000E+00 0.  1.
         14    1    3    3    0    0  0.19356874542E+01 -0.13906353165E+02 -0.81603484042E+02  0.82802549188E+02  0.00000000000E+00 0. -1.
        -13    1    4    4    0    0  0.40045108825E+02  0.44126217012E+02 -0.94147171421E+02  0.11142003256E+03  0.00000000000E+00 0. -1.
         13    1    4    4    0    0  0.98957016711E+02  0.36144777263E+02 -0.50921442469E+03  0.51999833307E+03  0.00000000000E+00 0.  1.
         -4    1    1    2    0  502 -0.17731552838E+03  0.40235895159E+02  0.83868545766E+02  0.20023400519E+03  0.00000000000E+00 0.  1.
<scales pt_clust_5="13000.00000" pt_clust_6="13000.00000" pt_clust_7="13000.00000" pt_clust_8="13000.00000" pt_clust_9="158.46989"></scales>
<clustering>
<clus scale="   80.055">  5  6 -1 -1</clus>
<clus scale="   94.228">  7  8 -1 -1</clus>
<clus scale="  149.662">  1  5  2 -1</clus>
<clus scale="  158.470">  2  9  1 -1</clus>
<clus scale="  158.470">  2  5  1 -1</clus>
</clustering>
</event>
<event>
 9    2  0.1665830E-004  0.2267574E+03  0.7546771E-02  0.1129810E+00
         -1   -1    0    0    0  501 -0.00000000000E+00  0.00000000000E+00  0.29787370759E+03  0.29787370759E+03  0.00000000000E+00 0.  1.
         21   -1    0    0  501  502  0.00000000000E+00 -0.00000000000E+00 -0.58906873060E+03  0.58906873060E+03  0.00000000000E+00 0.  1.
         23    2    1    2    0    0 -0.15650110459E+03  0.17101126694E+03 -0.45629775006E+02  0.25342951665E+03  0.91689663443E+02 0.  0.
         24    2    1    2    0    0 -0.18672098466E+02 -0.19249508962E+03 -0.36488152385E+03  0.42047870038E+03  0.79125243951E+02 0.  0.
        -11    1    4    4    0    0 -0.48382893521E+02 -0.13769834013E+03 -0.23974164383E+03  0.28067381967E+03  0.00000000000E+00 0.  1.
         12    1    4    4    0    0  0.29710795055E+02 -0.54796749488E+02 -0.12513988002E+03  0.13980488071E+03  0.00000000000E+00 0. -1.
        -11    1    3    3    0    0 -0.29509691138E+02  0.27791771954E+02 -0.46929645467E+02  0.62012870302E+02  0.00000000000E+00 0. -1.
         11    1    3    3    0    0 -0.12699141345E+03  0.14321949499E+03  0.12998704609E+01  0.19141664635E+03  0.00000000000E+00 0.  1.
         -2    1    1    2    0  502  0.17517320305E+03  0.21483822675E+02  0.11931627584E+03  0.21303422116E+03  0.00000000000E+00 0.  1.
<scales pt_clust_5="13000.00000" pt_clust_6="13000.00000" pt_clust_7="13000.00000" pt_clust_8="13000.00000" pt_clust_9="176.48580"></scales>
<clustering>
<clus scale="   79.125">  5  6 -1 -1</clus>
<clus scale="   91.690">  7  8 -1 -1</clus>
<clus scale="  176.486">  2  9  1 -1</clus>
<clus scale="  221.975">  2  5  1 -1</clus>
<clus scale="  176.486">  2  5  1 -1</clus>
</clustering>
</event>
<event>
 9    2  0.1665830E-004  0.1013994E+03  0.7546771E-02  0.1282423E+00
         21   -1    0    0  501  502  0.00000000000E+00  0.00000000000E+00  0.31979106193E+03  0.31979106193E+03  0.00000000000E+00 0. -1.
          2   -1    0    0  502    0 -0.00000000000E+00 -0.00000000000E+00 -0.72609968604E+02  0.72609968604E+02  0.00000000000E+00 0. -1.
         24    2    1    2    0    0 -0.39033110338E+02  0.12417149306E+02 -0.16194800132E+02  0.91676488807E+02  0.80402349152E+02 0.  0.
         23    2    1    2    0    0  0.59290197221E+02 -0.23947212771E+02  0.16033534500E+03  0.19508058042E+03  0.90885716795E+02 0.  0.
        -13    1    3    3    0    0  0.14331008145E+02  0.30420029780E+02 -0.25197481852E+01  0.33720989564E+02  0.00000000000E+00 0.  1.
         14    1    3    3    0    0 -0.53364118482E+02 -0.18002880474E+02 -0.13675051947E+02  0.57955499243E+02  0.00000000000E+00 0. -1.
        -11    1    4    4    0    0  0.26591025382E+02  0.84902175005E+01  0.14326678657E+03  0.14596074320E+03  0.00000000000E+00 0.  1.
         11    1    4    4    0    0  0.32699171839E+02 -0.32437430271E+02  0.17068558432E+02  0.49119837220E+02  0.00000000000E+00 0. -1.
          1    1    1    2  501    0 -0.20257086883E+02  0.11530063465E+02  0.10304054846E+03  0.10564396130E+03  0.00000000000E+00 0. -1.
<scales pt_clust_5="13000.00000" pt_clust_6="13000.00000" pt_clust_7="13000.00000" pt_clust_8="13000.00000" pt_clust_9="23.30862"></scales>
<clustering>
<clus scale="   23.309">  1  9  2 -1</clus>
<clus scale="   80.402">  5  6 -1 -1</clus>
<clus scale="   90.886">  7  8 -1 -1</clus>
<clus scale="   92.120">  2  5  1 -1</clus>
<clus scale="   23.309">  1  5  2 -1</clus>
</clustering>
</event>
<event>
 9    2  0.1665830E-004  0.1203350E+03  0.7546771E-02  0.1253924E+00
         21   -1    0    0  501  502  0.00000000000E+00  0.00000000000E+00  0.39661190999E+02  0.39661190999E+02  0.00000000000E+00 0. -1.
          2   -1    0    0  502    0 -0.00000000000E+00 -0.00000000000E+00 -0.87104766584E+03  0.87104766584E+03  0.00000000000E+00 0. -1.
         24    2    1    2    0    0  0.50703637203E+02  0.14009796508E+02 -0.17541192280E+03  0.19986920857E+03  0.80070123343E+02 0.  0.
         23    2    1    2    0    0  0.62462484033E+02  0.11669464044E+02 -0.13129984562E+03  0.17348544201E+03  0.93913847903E+02 0.  0.
        -11    1    3    3    0    0 -0.60624584826E+01 -0.25760085465E+02 -0.50682201771E+02  0.57175352928E+02  0.00000000000E+00 0.  1.
         12    1    3    3    0    0  0.56766095685E+02  0.39769881973E+02 -0.12472972103E+03  0.14269385565E+03  0.00000000000E+00 0. -1.
        -13    1    4    4    0    0  0.33258790191E+02  0.45094525651E+02 -0.31546094459E+02  0.64302561724E+02  0.00000000000E+00 0.  1.
         13    1    4    4    0    0  0.29203693842E+02 -0.33425061608E+02 -0.99753751161E+02  0.10918288029E+03  0.00000000000E+00 0. -1.
          1    1    1    2  501    0 -0.11316612124E+03 -0.25679260552E+02 -0.52467470642E+03  0.53735420625E+03  0.00000000000E+00 0. -1.
<scales pt_clust_5="13000.00000" pt_clust_6="13000.00000" pt_clust_7="13000.00000" pt_clust_8="13000.00000" pt_clust_9="75.23762"></scales>
<clustering>
<clus scale="   80.070">  5  6 -1 -1</clus>
<clus scale="   93.914">  7  8 -1 -1</clus>
<clus scale="   95.804">  2  5  1 -1</clus>
<clus scale="   75.238">  1  9  2 -1</clus>
<clus scale="   75.238">  1  5  2 -1</clus>
</clustering>
</event>
<event>
 9    2  0.1665830E-004  0.2175285E+03  0.7546771E-02  0.1150237E+00
         21   -1    0    0  501  502  0.00000000000E+00  0.00000000000E+00  0.10315427186E+04  0.10315427186E+04  0.00000000000E+00 0.  1.
          2   -1    0    0  502    0 -0.00000000000E+00 -0.00000000000E+00 -0.15087997470E+03  0.15087997470E+03  0.00000000000E+00 0. -1.
         24    2    1    2    0    0 -0.95480816124E+02 -0.89920073827E+02  0.19199606086E+03  0.24588916320E+03  0.79979917899E+02 0.  0.
         23    2    1    2    0    0 -0.18055280919E+03 -0.20173141733E+02  0.58851462264E+03  0.62293264741E+03  0.93216680875E+02 0.  0.
        -13    1    3    3    0    0 -0.99203725820E+02 -0.97650618553E+02  0.19219111987E+03  0.23730665620E+03  0.00000000000E+00 0.  1.
         14    1    3    3    0    0  0.37229096954E+01  0.77305447261E+01 -0.19505900726E+00  0.85825069985E+01  0.00000000000E+00 0. -1.
        -11    1    4    4    0    0 -0.12560857274E+03 -0.28871463485E+02  0.51418515894E+03  0.53009192847E+03  0.00000000000E+00 0.  1.
         11    1    4    4    0    0 -0.54944236445E+02  0.86983217523E+01  0.74329463697E+02  0.92840718940E+02  0.00000000000E+00 0. -1.
          1    1    1    2  501    0  0.27603362531E+03  0.11009321556E+03  0.10015206038E+03  0.31360088267E+03  0.00000000000E+00 0. -1.
<scales pt_clust_5="13000.00000" pt_clust_6="13000.00000" pt_clust_7="13000.00000" pt_clust_8="13000.00000" pt_clust_9="196.54352"></scales>
<clustering>
<clus scale="   79.980">  5  6 -1 -1</clus>
<clus scale="   93.217">  7  8 -1 -1</clus>
<clus scale="  153.620">  2  5  1 -1</clus>
<clus scale="  196.544">  1  9  2 -1</clus>
<clus scale="  196.544">  1  5  2 -1</clus>
</clustering>
</event>
<event>
 9    2  0.1665830E-004  0.2671079E+03  0.7546771E-02  0.1102946E+00
         21   -1    0    0  501  502  0.00000000000E+00  0.00000000000E+00  0.33522449826E+02  0.33522449826E+02  0.00000000000E+00 0.  1.
          2   -1    0    0  502    0 -0.00000000000E+00 -0.00000000000E+00 -0.18964044209E+04  0.18964044209E+04  0.00000000000E+00 0. -1.
         24    2    1    2    0    0  0.59956577059E+01 -0.14660765289E+03 -0.42120133287E+03  0.45196651224E+03  0.73030223745E+02 0.  0.
         23    2    1    2    0    0  0.23893682656E+02 -0.35225069533E+02 -0.22283004984E+03  0.24525874481E+03  0.93203579316E+02 0.  0.
        -11    1    3    3    0    0 -0.98837272291E+01 -0.14736827761E+03 -0.38780746758E+03  0.41498160106E+03  0.00000000000E+00 0.  1.
         12    1    3    3    0    0  0.15879384935E+02  0.76062472480E+00 -0.33393865290E+02  0.36984911179E+02  0.00000000000E+00 0. -1.
        -11    1    4    4    0    0  0.57803788995E+02 -0.27422040121E+02 -0.11075053072E+03  0.12790201859E+03  0.00000000000E+00 0. -1.
         11    1    4    4    0    0 -0.33910106339E+02 -0.78030294121E+01 -0.11207951913E+03  0.11735672622E+03  0.00000000000E+00 0.  1.
          1    1    1    2  501    0 -0.29889340362E+02  0.18183272242E+03 -0.12188505883E+04  0.12327016136E+04  0.00000000000E+00 0. -1.
<scales pt_clust_5="13000.00000" pt_clust_6="13000.00000" pt_clust_7="13000.00000" pt_clust_8="13000.00000" pt_clust_9="184.27302"></scales>
<clustering>
<clus scale="   73.030">  5  6 -1 -1</clus>
<clus scale="   93.204">  7  8 -1 -1</clus>
<clus scale="  100.304">  5  7 -1 -1</clus>
<clus scale="  184.273">  1  9  2 -1</clus>
<clus scale="  184.273">  1  5  2 -1</clus>
</clustering>
</event>
<event>
 9    2  0.1665830E-004  0.2707634E+03  0.7546771E-02  0.1143952E+00
         21   -1    0    0  501  502  0.00000000000E+00  0.00000000000E+00  0.10541361709E+04  0.10541361709E+04  0.00000000000E+00 0.  1.
          2   -1    0    0  502    0 -0.00000000000E+00 -0.00000000000E+00 -0.13136394319E+03  0.13136394319E+03  0.00000000000E+00 0. -1.
         24    2    1    2    0    0 -0.43592351310E+02  0.15252478547E+02  0.91264255174E+02  0.12995844096E+03  0.80169201747E+02 0.  0.
         23    2    1    2    0    0  0.41098500840E+02  0.24936803687E+03  0.71959886255E+03  0.76821975373E+03  0.92008491179E+02 0.  0.
        -13    1    3    3    0    0  0.20134497367E+02  0.11978436599E+00  0.46363669762E+02  0.50547029649E+02  0.00000000000E+00 0.  1.
         14    1    3    3    0    0 -0.63726848677E+02  0.15132694181E+02  0.44900585412E+02  0.79411411308E+02  0.00000000000E+00 0. -1.
        -11    1    4    4    0    0  0.19901985975E+02  0.13934633482E+03  0.52626964012E+03  0.54476896404E+03  0.00000000000E+00 0.  1.
         11    1    4    4    0    0  0.21196514865E+02  0.11002170205E+03  0.19332922243E+03  0.22345078968E+03  0.00000000000E+00 0. -1.
          1    1    1    2  501    0  0.24938504699E+01 -0.26462051542E+03  0.11190910998E+03  0.28732191940E+03  0.00000000000E+00 0. -1.
<scales pt_clust_5="13000.00000" pt_clust_6="13000.00000" pt_clust_7="13000.00000" pt_clust_8="13000.00000" pt_clust_9="254.65132"></scales>
<clustering>
<clus scale="   80.169">  5  6 -1 -1</clus>
<clus scale="   92.008">  7  8 -1 -1</clus>
<clus scale="   92.520">  2  5  1 -1</clus>
<clus scale="  254.651">  1  9  2 -1</clus>
<clus scale="  254.651">  1  5  2 -1</clus>
</clustering>
</event>
<event>
 9    2  0.1665830E-004  0.1616561E+03  0.7546771E-02  0.1189740E+00
         21   -1    0    0  501  502  0.00000000000E+00  0.00000000000E+00  0.10506919536E+03  0.10506919536E+03  0.00000000000E+00 0. -1.
          2   -1    0    0  502    0 -0.00000000000E+00 -0.00000000000E+00 -0.67714093215E+03  0.67714093215E+03  0.00000000000E+00 0. -1.
         24    2    1    2    0    0  0.19203719343E+02  0.12505604953E+03 -0.55558080381E+03  0.57591818760E+03  0.83689490883E+02 0.  0.
         23    2    1    2    0    0 -0.54248696424E+02 -0.11797532214E+03  0.52422451965E+01  0.16445155089E+03  0.10077566055E+03 0.  0.
        -11    1    3    3    0    0 -0.20769899479E+02  0.50434509109E+00 -0.84026151990E+02  0.86556555538E+02  0.00000000000E+00 0.  1.
         12    1    3    3    0    0  0.39973618822E+02  0.12455170443E+03 -0.47155465182E+03  0.48936163206E+03  0.00000000000E+00 0. -1.
        -13    1    4    4    0    0  0.15690801893E+01 -0.81102298435E+02 -0.32795558581E+02  0.87496248415E+02  0.00000000000E+00 0.  1.
         13    1    4    4    0    0 -0.55817776614E+02 -0.36873023705E+02  0.38037803778E+02  0.76955302478E+02  0.00000000000E+00 0. -1.
          1    1    1    2  501    0  0.35044977082E+02 -0.70807273846E+01 -0.21733178181E+02  0.41840389013E+02  0.00000000000E+00 0. -1.
<scales pt_clust_5="13000.00000" pt_clust_6="13000.00000" pt_clust_7="13000.00000" pt_clust_8="13000.00000" pt_clust_9="35.75314"></scales>
<clustering>
<clus scale="   35.753">  1  9  2 -1</clus>
<clus scale="   83.689">  5  6 -1 -1</clus>
<clus scale="  100.776">  7  8 -1 -1</clus>
<clus scale="  151.594">  2  5  1 -1</clus>
<clus scale="   35.753">  1  5  2 -1</clus>
</clustering>
</event>
<event>
 9    2  0.1665830E-004  0.2915799E+03  0.7546771E-02  0.1089986E+00
          4   -1    0    0  502    0 -0.00000000000E+00  0.00000000000E+00  0.17309539176E+04  0.17309539176E+04  0.00000000000E+00 0. -1.
         21   -1    0    0  501  502  0.00000000000E+00 -0.00000000000E+00 -0.86137296070E+02  0.86137296070E+02  0.00000000000E+00 0. -1.
         23    2    1    2    0    0 -0.17513896800E+03 -0.10251198126E+03  0.39840207095E+03  0.45623535361E+03  0.90797154884E+02 0.  0.
         24    2    1    2    0    0  0.29843233431E+03  0.20220227571E+03  0.10179517802E+04  0.10827647842E+04  0.78779012329E+02 0.  0.
        -11    1    4    4    0    0  0.22519432890E+02  0.26068001905E+02  0.48112113465E+02  0.59172975615E+02  0.00000000000E+00 0.  1.
         12    1    4    4    0    0  0.27591290142E+03  0.17613427380E+03  0.96983966671E+03  0.10235918086E+04  0.00000000000E+00 0. -1.
        -11    1    3    3    0    0 -0.14864119594E+03 -0.41749316387E+02  0.25217913541E+03  0.29568822582E+03  0.00000000000E+00 0. -1.
         11    1    3    3    0    0 -0.26497772063E+02 -0.60762664873E+02  0.14622293553E+03  0.16054712780E+03  0.00000000000E+00 0.  1.
          3    1    1    2  501    0 -0.12329336631E+03 -0.99690294445E+02  0.22846277040E+03  0.27809107580E+03  0.00000000000E+00 0. -1.
<scales pt_clust_5="13000.00000" pt_clust_6="13000.00000" pt_clust_7="13000.00000" pt_clust_8="13000.00000" pt_clust_9="158.55412"></scales>
<clustering>
<clus scale="   78.779">  5  6 -1 -1</clus>
<clus scale="   90.797">  7  8 -1 -1</clus>
<clus scale="  158.554">  2  9  1 -1</clus>
<clus scale="  288.064">  2  5  1 -1</clus>
<clus scale="  158.554">  2  5  1 -1</clus>
</clustering>
</event>
<event>
 9    2  0.1665830E-004  0.1149738E+03  0.7546771E-02  0.1261266E+00
         21   -1    0    0  501  502  0.00000000000E+00  0.00000000000E+00  0.58165153003E+03  0.58165153003E+03  0.00000000000E+00 0.  1.
         -3   -1    0    0    0  501 -0.00000000000E+00 -0.00000000000E+00 -0.26144610446E+03  0.26144610446E+03  0.00000000000E+00 0.  1.
         23    2    1    2    0    0 -0.34808142306E+02  0.39821803270E+02 -0.22222820940E+03  0.25044748854E+03  0.10267027162E+03 0.  0.
         24    2    1    2    0    0 -0.52651868222E+02 -0.63495981990E+02  0.44522353078E+03  0.45976100216E+03  0.79700864439E+02 0.  0.
        -11    1    4    4    0    0 -0.56151399314E+02 -0.79892874872E+02  0.39064196367E+03  0.40266238325E+03  0.00000000000E+00 0.  1.
         12    1    4    4    0    0  0.34995310914E+01  0.16396892882E+02  0.54581567107E+02  0.57098618914E+02  0.00000000000E+00 0. -1.
        -13    1    3    3    0    0 -0.33223533738E+02 -0.15081204262E+02 -0.17262416868E+03  0.17643794809E+03  0.00000000000E+00 0.  1.
         13    1    3    3    0    0 -0.15846085678E+01  0.54903007532E+02 -0.49604040725E+02  0.74009540443E+02  0.00000000000E+00 0. -1.
         -4    1    1    2    0  502  0.87460010528E+02  0.23674178719E+02  0.97210104197E+02  0.13288914379E+03  0.00000000000E+00 0.  1.
<scales pt_clust_5="13000.00000" pt_clust_6="13000.00000" pt_clust_7="13000.00000" pt_clust_8="13000.00000" pt_clust_9="90.60751"></scales>
<clustering>
<clus scale="   79.701">  5  6 -1 -1</clus>
<clus scale="   90.608">  1  9  2 -1</clus>
<clus scale="   95.026">  1  5  2 -1</clus>
<clus scale="  102.670">  7  8 -1 -1</clus>
<clus scale="   90.608">  1  5  2 -1</clus>
</clustering>
</event>
<event>
 9    2  0.1665830E-004  0.1786987E+03  0.7546771E-02  0.1202675E+00
         21   -1    0    0  501  502  0.00000000000E+00  0.00000000000E+00  0.11848904505E+03  0.11848904505E+03  0.00000000000E+00 0. -1.
          2   -1    0    0  502    0 -0.00000000000E+00 -0.00000000000E+00 -0.72308376453E+03  0.72308376453E+03  0.00000000000E+00 0. -1.
         24    2    1    2    0    0 -0.37946128564E+00  0.25833609669E+02 -0.41072048595E+03  0.41933957309E+03  0.80540924980E+02 0.  0.
         23    2    1    2    0    0 -0.77020581479E+02  0.12582260666E+03 -0.12337009588E+02  0.17334342505E+03  0.90178949227E+02 0.  0.
        -11    1    3    3    0    0  0.39186275360E+02  0.42963599445E+01 -0.20260400041E+03  0.20640349771E+03  0.00000000000E+00 0.  1.
         12    1    3    3    0    0 -0.39565736646E+02  0.21537249724E+02 -0.20811648554E+03  0.21293607537E+03  0.00000000000E+00 0. -1.
        -13    1    4    4    0    0 -0.93169444001E+01  0.75538699092E+02 -0.38163728902E+02  0.85143236473E+02  0.00000000000E+00 0.  1.
         13    1    4    4    0    0 -0.67703637079E+02  0.50283907567E+02  0.25826719314E+02  0.88200188573E+02  0.00000000000E+00 0. -1.
          1    1    1    2  501    0  0.77400042765E+02 -0.15165621633E+03 -0.18153722394E+03  0.24888981146E+03  0.00000000000E+00 0. -1.
<scales pt_clust_5="13000.00000" pt_clust_6="13000.00000" pt_clust_7="13000.00000" pt_clust_8="13000.00000" pt_clust_9="154.27569"></scales>
<clustering>
<clus scale="   80.541">  5  6 -1 -1</clus>
<clus scale="   84.583">  2  5  1 -1</clus>
<clus scale="   90.179">  7  8 -1 -1</clus>
<clus scale="  154.276">  1  9  2 -1</clus>
<clus scale="  154.276">  1  5  2 -1</clus>
</clustering>
</event>
<event>
 9    2  0.1665830E-004  0.9997396E+02  0.7546771E-02  0.1282014E+00
         21   -1    0    0  501  502  0.00000000000E+00  0.00000000000E+00  0.78908077047E+02  0.78908077047E+02  0.00000000000E+00 0. -1.
          2   -1    0    0  502    0 -0.00000000000E+00 -0.00000000000E+00 -0.27369531640E+03  0.27369531640E+03  0.00000000000E+00 0. -1.
         24    2    1    2    0    0  0.49871019593E+01 -0.66725510185E+02 -0.17045956623E+03  0.20015334497E+03  0.80794386475E+02 0.  0.
         23    2    1    2    0    0 -0.31482719213E+02  0.13688268715E+02 -0.15333490024E+02  0.92484541348E+02  0.84497006826E+02 0.  0.
        -11    1    3    3    0    0  0.16466642728E+02 -0.32763420348E+02 -0.13378029733E+02  0.39032854304E+02  0.00000000000E+00 0.  1.
         12    1    3    3    0    0 -0.11479540769E+02 -0.33962089837E+02 -0.15708153650E+03  0.16112049066E+03  0.00000000000E+00 0. -1.
        -13    1    4    4    0    0  0.15624420636E+02  0.27101613548E+02  0.15186547921E+02  0.34774289567E+02  0.00000000000E+00 0.  1.
         13    1    4    4    0    0 -0.47107139849E+02 -0.13413344833E+02 -0.30520037946E+02  0.57710251781E+02  0.00000000000E+00 0. -1.
          1    1    1    2  501    0  0.26495617253E+02  0.53037241470E+02 -0.89941831006E+01  0.59965507136E+02  0.00000000000E+00 0. -1.
<scales pt_clust_5="13000.00000" pt_clust_6="13000.00000" pt_clust_7="13000.00000" pt_clust_8="13000.00000" pt_clust_9="59.28715"></scales>
<clustering>
<clus scale="   59.287">  1  9  2 -1</clus>
<clus scale="   80.794">  5  6 -1 -1</clus>
<clus scale="   84.497">  7  8 -1 -1</clus>
<clus scale="   96.865">  2  5  1 -1</clus>
<clus scale="   59.287">  1  5  2 -1</clus>
</clustering>
</event>
<event>
 9    2  0.1665830E-004  0.9293404E+02  0.7546771E-02  0.1302077E+00
         21   -1    0    0  501  502  0.00000000000E+00  0.00000000000E+00  0.19865840345E+03  0.19865840345E+03  0.00000000000E+00 0.  1.
          2   -1    0    0  502    0 -0.00000000000E+00 -0.00000000000E+00 -0.82880345395E+02  0.82880345395E+02  0.00000000000E+00 0. -1.
         24    2    1    2    0    0  0.65991265420E+01  0.15712361743E+02 -0.22610035636E+02  0.84499262998E+02  0.79614602637E+02 0.  0.
         23    2    1    2    0    0 -0.33997825174E+02 -0.38294959647E+02  0.11373862280E+03  0.15381612607E+03  0.90003168130E+02 0.  0.
        -11    1    3    3    0    0  0.37163714755E+01 -0.32530561064E+02 -0.53255406647E+01  0.33172431377E+02  0.00000000000E+00 0.  1.
         12    1    3    3    0    0  0.28827550665E+01  0.48242922807E+02 -0.17284494971E+02  0.51326831620E+02  0.00000000000E+00 0. -1.
        -13    1    4    4    0    0  0.71639759117E+01  0.25090477061E+02  0.17369758836E+02  0.31345862758E+02  0.00000000000E+00 0. -1.
         13    1    4    4    0    0 -0.41161801086E+02 -0.63385436709E+02  0.96368863962E+02  0.12247026332E+03  0.00000000000E+00 0.  1.
          1    1    1    2  501    0  0.27398698632E+02  0.22582597905E+02  0.24649470896E+02  0.43223359776E+02  0.00000000000E+00 0. -1.
<scales pt_clust_5="13000.00000" pt_clust_6="13000.00000" pt_clust_7="13000.00000" pt_clust_8="13000.00000" pt_clust_9="35.50581"></scales>
<clustering>
<clus scale="   35.506">  1  9  2 -1</clus>
<clus scale="   79.615">  5  6 -1 -1</clus>
<clus scale="   82.914">  2  5  1 -1</clus>
<clus scale="   90.003">  7  8 -1 -1</clus>
<clus scale="   35.506">  1  5  2 -1</clus>
</clustering>
</event>
<event>
 9    2  0.1665830E-004  0.1828237E+03  0.7546771E-02  0.1197931E+00
         -3   -1    0    0    0  501 -0.00000000000E+00  0.00000000000E+00  0.12502697786E+03  0.12502697786E+03  0.00000000000E+00 0.  1.
         21   -1    0    0  501  502  0.00000000000E+00 -0.00000000000E+00 -0.42618719227E+03  0.42618719227E+03  0.00000000000E+00 0.  1.
         24    2    1    2    0    0 -0.24462166952E+02  0.18784817353E+02  0.83585340424E+01  0.87952424910E+02  0.81942034275E+02 0.  0.
         23    2    1    2    0    0 -0.56984449953E+02 -0.15268100587E+03 -0.14777224472E+03  0.23804258047E+03  0.90933584108E+02 0.  0.
        -11    1    3    3    0    0 -0.52209670640E+02  0.16591829427E+02  0.19245679060E+02  0.58064917761E+02  0.00000000000E+00 0.  1.
         12    1    3    3    0    0  0.27747503688E+02  0.21929879258E+01 -0.10887145017E+02  0.29887507149E+02  0.00000000000E+00 0. -1.
        -11    1    4    4    0    0 -0.72185423515E+02 -0.64735297173E+02 -0.69043305605E+02  0.11903097125E+03  0.00000000000E+00 0.  1.
         11    1    4    4    0    0  0.15200973562E+02 -0.87945708695E+02 -0.78728939117E+02  0.11901160922E+03  0.00000000000E+00 0. -1.
         -4    1    1    2    0  502  0.81446616905E+02  0.13389618851E+03 -0.16174650373E+03  0.22521916475E+03  0.00000000000E+00 0.  1.
<scales pt_clust_5="13000.00000" pt_clust_6="13000.00000" pt_clust_7="13000.00000" pt_clust_8="13000.00000" pt_clust_9="158.60517"></scales>
<clustering>
<clus scale="   81.942">  5  6 -1 -1</clus>
<clus scale="   87.554">  1  5  2 -1</clus>
<clus scale="   90.934">  7  8 -1 -1</clus>
<clus scale="  158.605">  2  9  1 -1</clus>
<clus scale="  158.605">  2  5  1 -1</clus>
</clustering>
</event>
<event>
 9    2  0.1665830E-004  0.2232634E+03  0.7546771E-02  0.1132807E+00
          2   -1    0    0  502    0 -0.00000000000E+00  0.00000000000E+00  0.16270046967E+04  0.16270046967E+04  0.00000000000E+00 0. -1.
         21   -1    0    0  501  502  0.00000000000E+00 -0.00000000000E+00 -0.51239874826E+02  0.51239874826E+02  0.00000000000E+00 0.  1.
         24    2    1    2    0    0  0.34987376134E+02 -0.20141787320E+03  0.12957275774E+04  0.13142243776E+04  0.80513872899E+02 0.  0.
         23    2    1    2    0    0 -0.43267474574E+02  0.17990104155E+03  0.25484874693E+03  0.32987353255E+03  0.98143795307E+02 0.  0.
        -11    1    3    3    0    0  0.42501603655E+02 -0.62755147505E+02  0.33188071359E+03  0.34042532647E+03  0.00000000000E+00 0.  1.
         12    1    3    3    0    0 -0.75142275210E+01 -0.13866272569E+03  0.96384686383E+03  0.97379905116E+03  0.00000000000E+00 0. -1.
        -11    1    4    4    0    0 -0.42652436939E+02  0.15985537549E+03  0.15064139095E+03  0.22375388291E+03  0.00000000000E+00 0.  1.
         11    1    4    4    0    0 -0.61503763547E+00  0.20045666063E+02  0.10420735598E+03  0.10611964964E+03  0.00000000000E+00 0. -1.
          1    1    1    2  501    0  0.82800984410E+01  0.21516831643E+02  0.25188497541E+02  0.34146661367E+02  0.00000000000E+00 0. -1.
<scales pt_clust_5="13000.00000" pt_clust_6="13000.00000" pt_clust_7="13000.00000" pt_clust_8="13000.00000" pt_clust_9="23.05502"></scales>
<clustering>
<clus scale="   23.055">  2  9  1 -1</clus>
<clus scale="   80.514">  5  6 -1 -1</clus>
<clus scale="   98.144">  7  8 -1 -1</clus>
<clus scale="  216.094">  1  5  2 -1</clus>
<clus scale="   23.055">  2  5  1 -1</clus>
</clustering>
</event>
<event>
 9    2  0.1665830E-004  0.9606971E+02  0.7546771E-02  0.1294353E+00
         -1   -1    0    0    0  501 -0.00000000000E+00  0.00000000000E+00  0.30805074326E+03  0.30805074326E+03  0.00000000000E+00 0.  1.
         21   -1    0    0  501  502  0.00000000000E+00 -0.00000000000E+00 -0.58296681509E+02  0.58296681509E+02  0.00000000000E+00 0.  1.
         23    2    1    2    0    0  0.30230085446E+02 -0.23152869955E+02  0.20662388109E+03  0.22858647513E+03  0.90046848480E+02 0.  0.
         24    2    1    2    0    0  0.84918380230E+01  0.34780464239E+02  0.15687633958E+02  0.88897039895E+02  0.79842281012E+02 0.  0.
        -13    1    4    4    0    0 -0.74593108091E+01  0.56094836663E+02  0.23315469329E+02  0.61203620220E+02  0.00000000000E+00 0.  1.
         14    1    4    4    0    0  0.15951148832E+02 -0.21314372423E+02 -0.76278353712E+01  0.27693419675E+02  0.00000000000E+00 0. -1.
        -11    1    3    3    0    0  0.56922664111E+02 -0.28847481796E+02  0.17773299985E+03  0.18884222550E+03  0.00000000000E+00 0.  1.
         11    1    3    3    0    0 -0.26692578665E+02  0.56946118409E+01  0.28890881243E+02  0.39744249632E+02  0.00000000000E+00 0. -1.
         -2    1    1    2    0  502 -0.38721923469E+02 -0.11627594285E+02  0.27442546697E+02  0.48863909741E+02  0.00000000000E+00 0.  1.
<scales pt_clust_5="13000.00000" pt_clust_6="13000.00000" pt_clust_7="13000.00000" pt_clust_8="13000.00000" pt_clust_9="40.43004"></scales>
<clustering>
<clus scale="   40.430">  2  9  1 -1</clus>
<clus scale="   79.842">  5  6 -1 -1</clus>
<clus scale="   86.578">  2  5  1 -1</clus>
<clus scale="   90.047">  7  8 -1 -1</clus>
<clus scale="   40.430">  2  5  1 -1</clus>
</clustering>
</event>
<event>
 9    2  0.1665830E-004  0.8117702E+02  0.7546771E-02  0.1326446E+00
          2   -1    0    0  502    0 -0.00000000000E+00  0.00000000000E+00  0.38464057385E+03  0.38464057385E+03  0.00000000000E+00 0. -1.
         21   -1    0    0  501  502  0.00000000000E+00 -0.00000000000E+00 -0.66178938935E+02  0.66178938935E+02  0.00000000000E+00 0. -1.
         24    2    1    2    0    0  0.96133488691E+01 -0.28462888918E+02  0.23892963357E+03  0.25333884856E+03  0.78680682948E+02 0.  0.
         23    2    1    2    0    0 -0.88358441234E+01  0.66601663242E+00  0.12308971340E+03  0.14580334907E+03  0.77646785729E+02 0.  0.
        -13    1    3    3    0    0 -0.12484591213E+02 -0.50843755840E+02  0.13679931334E+03  0.14647526978E+03  0.00000000000E+00 0.  1.
         14    1    3    3    0    0  0.22097940082E+02  0.22380866922E+02  0.10213032023E+03  0.10686357878E+03  0.00000000000E+00 0. -1.
        -13    1    4    4    0    0 -0.34290614522E+02  0.64753201013E+00  0.20182043767E+02  0.39794226122E+02  0.00000000000E+00 0. -1.
         13    1    4    4    0    0  0.25454770399E+02  0.18484622292E-01  0.10290766964E+03  0.10600912295E+03  0.00000000000E+00 0.  1.
          1    1    1    2  501    0 -0.77750474564E+00  0.27796872285E+02 -0.43557712057E+02  0.51677315160E+02  0.00000000000E+00 0. -1.
<scales pt_clust_5="13000.00000" pt_clust_6="13000.00000" pt_clust_7="13000.00000" pt_clust_8="13000.00000" pt_clust_9="27.80774"></scales>
<clustering>
<clus scale="   27.808">  2  9  1 -1</clus>
<clus scale="   77.647">  7  8 -1 -1</clus>
<clus scale="   78.681">  5  6 -1 -1</clus>
<clus scale="   80.175">  2  7  1 -1</clus>
<clus scale="   27.808">  2  5  1 -1</clus>
</clustering>
</event>
<event>
 9    2  0.1665830E-004  0.1620481E+03  0.7546771E-02  0.1204235E+00
         21   -1    0    0  501  502  0.00000000000E+00  0.00000000000E+00  0.96382828334E+02  0.96382828334E+02  0.00000000000E+00 0.  1.
          2   -1    0    0  502    0 -0.00000000000E+00 -0.00000000000E+00 -0.48887302430E+03  0.48887302430E+03  0.00000000000E+00 0. -1.
         24    2    1    2    0    0  0.31698621240E+02  0.73142785369E+02 -0.34979946594E+02  0.11511485104E+03  0.75320399807E+02 0.  0.
         23    2    1    2    0    0  0.11226532903E+03 -0.50984978266E+02 -0.22292198816E+03  0.27182159395E+03  0.94814524307E+02 0.  0.
        -11    1    3    3    0    0  0.37714106798E+02  0.61259167846E+02  0.58423390270E+01  0.72174596792E+02  0.00000000000E+00 0.  1.
         12    1    3    3    0    0 -0.60154855577E+01  0.11883617523E+02 -0.40822285621E+02  0.42940254252E+02  0.00000000000E+00 0. -1.
        -11    1    4    4    0    0 -0.39614527546E+01 -0.37973513745E+02 -0.63640625152E+02  0.74214621361E+02  0.00000000000E+00 0. -1.
         11    1    4    4    0    0  0.11622678178E+03 -0.13011464522E+02 -0.15928136301E+03  0.19760697259E+03  0.00000000000E+00 0.  1.
          1    1    1    2  501    0 -0.14396395027E+03 -0.22157807102E+02 -0.13458826121E+03  0.19831940764E+03  0.00000000000E+00 0. -1.
<scales pt_clust_5="13000.00000" pt_clust_6="13000.00000" pt_clust_7="13000.00000" pt_clust_8="13000.00000" pt_clust_9="131.41459"></scales>
<clustering>
<clus scale="   75.320">  5  6 -1 -1</clus>
<clus scale="   94.815">  7  8 -1 -1</clus>
<clus scale="  109.672">  2  5  1 -1</clus>
<clus scale="  131.415">  1  9  2 -1</clus>
<clus scale="  131.415">  1  5  2 -1</clus>
</clustering>
</event>
<event>
 9    2  0.1665830E-004  0.9385209E+02  0.7546771E-02  0.1300568E+00
         21   -1    0    0  501  502  0.00000000000E+00  0.00000000000E+00  0.92223431180E+02  0.92223431180E+02  0.00000000000E+00 0. -1.
         -1   -1    0    0    0  501 -0.00000000000E+00 -0.00000000000E+00 -0.17285698630E+03  0.17285698630E+03  0.00000000000E+00 0.  1.
         24    2    1    2    0    0 -0.43522933648E+01  0.16069251628E+02 -0.48021593937E+02  0.95321110679E+02  0.80640420085E+02 0.  0.
         23    2    1    2    0    0 -0.25981034951E+02 -0.24297827150E+02  0.27106060620E+02  0.10227551326E+03  0.91979038426E+02 0.  0.
        -11    1    3    3    0    0  0.16713891642E+02 -0.26724046148E+02 -0.67238408152E+01  0.32229471787E+02  0.00000000000E+00 0.  1.
         12    1    3    3    0    0 -0.21066185007E+02  0.42793297776E+02 -0.41297753122E+02  0.63091638893E+02  0.00000000000E+00 0. -1.
        -11    1    4    4    0    0 -0.14966476060E+01 -0.20357803889E+02  0.58678657967E+02  0.62127812082E+02  0.00000000000E+00 0. -1.
         11    1    4    4    0    0 -0.24484387345E+02 -0.39400232605E+01 -0.31572597347E+02  0.40147701182E+02  0.00000000000E+00 0.  1.
         -2    1    1    2    0  502  0.30333328316E+02  0.82285755217E+01 -0.59718021803E+02  0.67483793535E+02  0.00000000000E+00 0.  1.
<scales pt_clust_5="13000.00000" pt_clust_6="13000.00000" pt_clust_7="13000.00000" pt_clust_8="13000.00000" pt_clust_9="31.42962"></scales>
<clustering>
<clus scale="   31.430">  1  9  2 -1</clus>
<clus scale="   80.640">  5  6 -1 -1</clus>
<clus scale="   82.770">  2  5  1 -1</clus>
<clus scale="   91.979">  7  8 -1 -1</clus>
<clus scale="   31.430">  1  5  2 -1</clus>
</clustering>
</event>
<event>
 9    2  0.1665830E-004  0.1063871E+03  0.7546771E-02  0.1272403E+00
         21   -1    0    0  501  502  0.00000000000E+00  0.00000000000E+00  0.38574581608E+02  0.38574581608E+02  0.00000000000E+00 0.  1.
          2   -1    0    0  502    0 -0.00000000000E+00 -0.00000000000E+00 -0.95137131263E+03  0.95137131263E+03  0.00000000000E+00 0. -1.
         24    2    1    2    0    0 -0.23509856258E+02 -0.31866053127E+02 -0.32111874009E+03  0.33350424068E+03  0.80868254793E+02 0.  0.
         23    2    1    2    0    0  0.44009863674E+02  0.10790035779E+03 -0.16314501454E+03  0.22073306098E+03  0.92344101754E+02 0.  0.
        -13    1    3    3    0    0  0.18803800173E+01 -0.49801843869E+02 -0.11908589447E+03  0.12909380211E+03  0.00000000000E+00 0.  1.
         14    1    3    3    0    0 -0.25390236275E+02  0.17935790742E+02 -0.20203284562E+03  0.20441043858E+03  0.00000000000E+00 0. -1.
        -11    1    4    4    0    0 -0.19342451617E+02  0.16308824630E+02 -0.27262098376E+01  0.25446815429E+02  0.00000000000E+00 0. -1.
         11    1    4    4    0    0  0.63352315291E+02  0.91591533161E+02 -0.16041880471E+03  0.19528624556E+03  0.00000000000E+00 0.  1.
          1    1    1    2  501    0 -0.20500007416E+02 -0.76034304664E+02 -0.42853297639E+03  0.43570859258E+03  0.00000000000E+00 0. -1.
<scales pt_clust_5="13000.00000" pt_clust_6="13000.00000" pt_clust_7="13000.00000" pt_clust_8="13000.00000" pt_clust_9="78.74943"></scales>
<clustering>
<clus scale="   78.749">  1  9  2 -1</clus>
<clus scale="   80.868">  5  6 -1 -1</clus>
<clus scale="   92.344">  7  8 -1 -1</clus>
<clus scale="   96.594">  2  5  1 -1</clus>
<clus scale="   78.749">  1  5  2 -1</clus>
</clustering>
</event>
<event>
 9    2  0.1665830E-004  0.2257520E+03  0.7546771E-02  0.1156729E+00
         21   -1    0    0  501  502  0.00000000000E+00  0.00000000000E+00  0.24601979338E+03  0.24601979338E+03  0.00000000000E+00 0. -1.
         -1   -1    0    0    0  501 -0.00000000000E+00 -0.00000000000E+00 -0.36776964989E+03  0.36776964989E+03  0.00000000000E+00 0.  1.
         24    2    1    2    0    0 -0.16169127699E+02 -0.78641925565E+02  0.40638353395E+02  0.12475698579E+03  0.86410859206E+02 0.  0.
         23    2    1    2    0    0  0.15703749286E+03  0.18113318541E+03  0.12861797452E-01  0.25086767684E+03  0.73922838799E+02 0.  0.
        -11    1    3    3    0    0  0.21171036911E+02 -0.36063887686E+02 -0.15894282489E+02  0.44737512389E+02  0.00000000000E+00 0.  1.
         12    1    3    3    0    0 -0.37340164611E+02 -0.42578037879E+02  0.56532635884E+02  0.80019473397E+02  0.00000000000E+00 0. -1.
        -13    1    4    4    0    0  0.12766384567E+03  0.14049391030E+03 -0.30356075876E+02  0.19224486382E+03  0.00000000000E+00 0. -1.
         13    1    4    4    0    0  0.29373647190E+02  0.40639275113E+02  0.30368937674E+02  0.58622813020E+02  0.00000000000E+00 0.  1.
         -2    1    1    2    0  502 -0.14086836516E+03 -0.10249125985E+03 -0.16240107171E+03  0.23816478064E+03  0.00000000000E+00 0.  1.
<scales pt_clust_5="13000.00000" pt_clust_6="13000.00000" pt_clust_7="13000.00000" pt_clust_8="13000.00000" pt_clust_9="213.30594"></scales>
<clustering>
<clus scale="   73.923">  7  8 -1 -1</clus>
<clus scale="   86.411">  5  6 -1 -1</clus>
<clus scale="  117.953">  2  5  1 -1</clus>
<clus scale="  213.306">  1  9  2 -1</clus>
<clus scale="  213.306">  1  5  2 -1</clus>
</clustering>
</event>
<event>
 9    2  0.1665830E-004  0.1226241E+03  0.7546771E-02  0.1254556E+00
         21   -1    0    0  501  502  0.00000000000E+00  0.00000000000E+00  0.40783551075E+03  0.40783551075E+03  0.00000000000E+00 0. -1.
          2   -1    0    0  502    0 -0.00000000000E+00 -0.00000000000E+00 -0.36885278859E+03  0.36885278859E+03  0.00000000000E+00 0. -1.
         23    2    1    2    0    0  0.90211227592E+01 -0.43024116676E+02 -0.34070559815E+03  0.36254657188E+03  0.11587604110E+03 0.  0.
         24    2    1    2    0    0  0.11812943727E+02  0.56471265692E+01  0.88999067945E+02  0.12031977600E+03  0.79903558888E+02 0.  0.
        -11    1    4    4    0    0  0.39958442136E+02 -0.10338753243E+01  0.80969567884E+02  0.90298487913E+02  0.00000000000E+00 0.  1.
         12    1    4    4    0    0 -0.28145498409E+02  0.66810018935E+01  0.80295000611E+01  0.30021288084E+02  0.00000000000E+00 0. -1.
        -11    1    3    3    0    0  0.23305254764E+02 -0.74601557103E+02 -0.29505106963E+03  0.30522722833E+03  0.00000000000E+00 0. -1.
         11    1    3    3    0    0 -0.14284132005E+02  0.31577440427E+02 -0.45654528517E+02  0.57319343551E+02  0.00000000000E+00 0.  1.
          1    1    1    2  501    0 -0.20834066486E+02  0.37376990106E+02  0.29068925237E+03  0.29382195146E+03  0.00000000000E+00 0. -1.
<scales pt_clust_5="13000.00000" pt_clust_6="13000.00000" pt_clust_7="13000.00000" pt_clust_8="13000.00000" pt_clust_9="42.79133"></scales>
<clustering>
<clus scale="   42.791">  1  9  2 -1</clus>
<clus scale="   79.904">  5  6 -1 -1</clus>
<clus scale="   89.409">  1  5  2 -1</clus>
<clus scale="  115.876">  7  8 -1 -1</clus>
<clus scale="   42.791">  1  5  2 -1</clus>
</clustering>
</event>
<event>
 9    2  0.1665830E-004  0.1002981E+03  0.7546771E-02  0.1291267E+00
         -3   -1    0    0    0  501 -0.00000000000E+00  0.00000000000E+00  0.60143209009E+03  0.60143209009E+03  0.00000000000E+00 0.  1.
         21   -1    0    0  501  502  0.00000000000E+00 -0.00000000000E+00 -0.44148160345E+02  0.44148160345E+02  0.00000000000E+00 0. -1.
         24    2    1    2    0    0 -0.13711347459E+01  0.26450908941E+01  0.39588989798E+03  0.40391339097E+03  0.80052105347E+02 0.  0.
         23    2    1    2    0    0  0.59990843068E+02  0.17482880680E+02  0.10937577559E+03  0.16075144425E+03  0.99866982399E+02 0.  0.
        -11    1    3    3    0    0  0.47558818608E+01 -0.38337830724E+02  0.18484240779E+03  0.18883623432E+03  0.00000000000E+00 0.  1.
         12    1    3    3    0    0 -0.61270166067E+01  0.40982921618E+02  0.21104749019E+03  0.21507715665E+03  0.00000000000E+00 0. -1.
        -13    1    4    4    0    0 -0.28296421296E+01  0.38793498554E+02  0.78443272539E+02  0.87557349270E+02  0.00000000000E+00 0.  1.
         13    1    4    4    0    0  0.62820485198E+02 -0.21310617874E+02  0.30932503047E+02  0.73194094976E+02  0.00000000000E+00 0. -1.
         -4    1    1    2    0  502 -0.58619708322E+02 -0.20127971574E+02  0.52018256187E+02  0.80915415220E+02  0.00000000000E+00 0.  1.
<scales pt_clust_5="13000.00000" pt_clust_6="13000.00000" pt_clust_7="13000.00000" pt_clust_8="13000.00000" pt_clust_9="61.97907"></scales>
<clustering>
<clus scale="   61.979">  2  9  1 -1</clus>
<clus scale="   80.052">  5  6 -1 -1</clus>
<clus scale="   80.589">  1  5  2 -1</clus>
<clus scale="   99.867">  7  8 -1 -1</clus>
<clus scale="   61.979">  2  5  1 -1</clus>
</clustering>
</event>
<event>
 9    2  0.1665830E-004  0.1009502E+03  0.7546771E-02  0.1282080E+00
         21   -1    0    0  501  502  0.00000000000E+00  0.00000000000E+00  0.13619115069E+03  0.13619115069E+03  0.00000000000E+00 0. -1.
          2   -1    0    0  502    0 -0.00000000000E+00 -0.00000000000E+00 -0.22395795321E+03  0.22395795321E+03  0.00000000000E+00 0. -1.
         24    2    1    2    0    0  0.50912289215E+02  0.30802344381E+01 -0.89569399799E+02  0.13018060665E+03  0.79515809314E+02 0.  0.
         23    2    1    2    0    0 -0.47635141022E+02  0.21163716918E+02 -0.89349544862E+02  0.13559041772E+03  0.87660770223E+02 0.  0.
        -13    1    3    3    0    0 -0.81487481363E+01  0.25252427382E+02 -0.47327154668E+02  0.54258149193E+02  0.00000000000E+00 0.  1.
         14    1    3    3    0    0  0.59061037352E+02 -0.22172192944E+02 -0.42242245130E+02  0.75922457459E+02  0.00000000000E+00 0. -1.
        -13    1    4    4    0    0 -0.20909229070E+02  0.22747261382E+02  0.10173665639E+02  0.32529021399E+02  0.00000000000E+00 0.  1.
         13    1    4    4    0    0 -0.26725911953E+02 -0.15835444640E+01 -0.99523210502E+02  0.10306139632E+03  0.00000000000E+00 0. -1.
          1    1    1    2  501    0 -0.32771481934E+01 -0.24243951356E+02  0.91152142144E+02  0.94378079526E+02  0.00000000000E+00 0. -1.
<scales pt_clust_5="13000.00000" pt_clust_6="13000.00000" pt_clust_7="13000.00000" pt_clust_8="13000.00000" pt_clust_9="24.46444"></scales>
<clustering>
<clus scale="   24.464">  1  9  2 -1</clus>
<clus scale="   79.516">  5  6 -1 -1</clus>
<clus scale="   87.661">  7  8 -1 -1</clus>
<clus scale="   93.964">  2  5  1 -1</clus>
<clus scale="   24.464">  1  5  2 -1</clus>
</clustering>
</event>
<event>
 9    2  0.1665830E-004  0.1274710E+03  0.7546771E-02  0.1250305E+00
         21   -1    0    0  501  502  0.00000000000E+00  0.00000000000E+00  0.55220829077E+03  0.55220829077E+03  0.00000000000E+00 0.  1.
         -3   -1    0    0    0  501 -0.00000000000E+00 -0.00000000000E+00 -0.78928260449E+02  0.78928260449E+02  0.00000000000E+00 0.  1.
         23    2    1    2    0    0 -0.17652735006E+02  0.12247110171E+02 -0.30828529635E+01  0.86673113052E+02  0.83911344781E+02 0.  0.
         24    2    1    2    0    0 -0.27469734927E+02  0.89793673761E+02  0.37084281100E+03  0.39089636965E+03  0.80362249531E+02 0.  0.
        -11    1    4    4    0    0  0.18021393699E+02  0.55056702611E+02  0.11546258499E+03  0.12918057001E+03  0.00000000000E+00 0.  1.
         12    1    4    4    0    0 -0.45491128626E+02  0.34736971150E+02  0.25538022601E+03  0.26171579964E+03  0.00000000000E+00 0. -1.
        -11    1    3    3    0    0 -0.35753268499E+02  0.30559128968E+02  0.20916394551E+02  0.51474771807E+02  0.00000000000E+00 0.  1.
         11    1    3    3    0    0  0.18100533493E+02 -0.18312018797E+02 -0.23999247514E+02  0.35198341245E+02  0.00000000000E+00 0. -1.
         -4    1    1    2    0  502  0.45122469933E+02 -0.10204078393E+03  0.10552007229E+03  0.15356706852E+03  0.00000000000E+00 0.  1.
<scales pt_clust_5="13000.00000" pt_clust_6="13000.00000" pt_clust_7="13000.00000" pt_clust_8="13000.00000" pt_clust_9="98.94836"></scales>
<clustering>
<clus scale="   80.362">  5  6 -1 -1</clus>
<clus scale="   83.911">  7  8 -1 -1</clus>
<clus scale="   86.618">  2  7  1 -1</clus>
<clus scale="   98.948">  1  9  2 -1</clus>
<clus scale="   98.948">  1  5  2 -1</clus>
</clustering>
</event>
<event>
 9    2  0.1665830E-004  0.1292522E+03  0.7546771E-02  0.1231762E+00
         21   -1    0    0  501  502  0.00000000000E+00  0.00000000000E+00  0.96803256027E+02  0.96803256027E+02  0.00000000000E+00 0. -1.
         -1   -1    0    0    0  501 -0.00000000000E+00 -0.00000000000E+00 -0.40122625979E+03  0.40122625979E+03  0.00000000000E+00 0.  1.
         24    2    1    2    0    0  0.11342367672E+03  0.31079993707E+02 -0.13448166089E+03  0.19593462144E+03  0.80462179393E+02 0.  0.
         23    2    1    2    0    0 -0.39795384770E+02 -0.20239066744E+01  0.14239662371E+02  0.10162538482E+03  0.92396872291E+02 0.  0.
        -13    1    3    3    0    0  0.83316610625E+01 -0.19751213398E+02 -0.58357928639E+01  0.22216738850E+02  0.00000000000E+00 0.  1.
         14    1    3    3    0    0  0.10509201565E+03  0.50831207106E+02 -0.12864586802E+03  0.17371788259E+03  0.00000000000E+00 0. -1.
        -11    1    4    4    0    0 -0.50086945992E+02  0.20084927082E+02  0.39223324277E+02  0.66712634651E+02  0.00000000000E+00 0. -1.
         11    1    4    4    0    0  0.10291561222E+02 -0.22108833756E+02 -0.24983661906E+02  0.34912750174E+02  0.00000000000E+00 0.  1.
         -2    1    1    2    0  502 -0.73628291947E+02 -0.29056087033E+02 -0.18418100524E+03  0.20046950955E+03  0.00000000000E+00 0.  1.
<scales pt_clust_5="13000.00000" pt_clust_6="13000.00000" pt_clust_7="13000.00000" pt_clust_8="13000.00000" pt_clust_9="79.15420"></scales>
<clustering>
<clus scale="   79.154">  1  9  2 -1</clus>
<clus scale="   80.462">  5  6 -1 -1</clus>
<clus scale="   92.397">  7  8 -1 -1</clus>
<clus scale="  121.009">  2  5  1 -1</clus>
<clus scale="   79.154">  1  5  2 -1</clus>
</clustering>
</event>
<event>
 9    2  0.1665830E-004  0.1205888E+03  0.7546771E-02  0.1244966E+00
          2   -1    0    0  502    0 -0.00000000000E+00  0.00000000000E+00  0.39862176491E+03  0.39862176491E+03  0.00000000000E+00 0. -1.
         21   -1    0    0  501  502  0.00000000000E+00 -0.00000000000E+00 -0.62518672380E+02  0.62518672380E+02  0.00000000000E+00 0.  1.
         24    2    1    2    0    0  0.70273599369E+02  0.55906969016E+02  0.21821029518E+03  0.24888753367E+03  0.79153670437E+02 0.  0.
         23    2    1    2    0    0 -0.63211737578E+02 -0.34533658761E+02  0.14004862265E+03  0.18066858983E+03  0.88539399652E+02 0.  0.
        -11    1    3    3    0    0  0.36618978989E+02  0.60116599668E+02  0.79923693744E+02  0.10650235678E+03  0.00000000000E+00 0.  1.
         12    1    3    3    0    0  0.33654620380E+02 -0.42096306514E+01  0.13828660143E+03  0.14238517690E+03  0.00000000000E+00 0. -1.
        -11    1    4    4    0    0 -0.47020911290E+02  0.22979051313E+02  0.82584556623E+02  0.97771222200E+02  0.00000000000E+00 0.  1.
         11    1    4    4    0    0 -0.16190826287E+02 -0.57512710075E+02  0.57464066026E+02  0.82897367631E+02  0.00000000000E+00 0. -1.
          1    1    1    2  501    0 -0.70618617909E+01 -0.21373310255E+02 -0.22155825292E+02  0.31584313790E+02  0.00000000000E+00 0. -1.
<scales pt_clust_5="13000.00000" pt_clust_6="13000.00000" pt_clust_7="13000.00000" pt_clust_8="13000.00000" pt_clust_9="22.50974"></scales>
<clustering>
<clus scale="   22.510">  2  9  1 -1</clus>
<clus scale="   79.154">  5  6 -1 -1</clus>
<clus scale="   88.539">  7  8 -1 -1</clus>
<clus scale="  113.876">  1  5  2 -1</clus>
<clus scale="   22.510">  2  5  1 -1</clus>
</clustering>
</event>
<event>
 9    2  0.1665830E-004  0.1077928E+03  0.7546771E-02  0.1269679E+00
         21   -1    0    0  501  502  0.00000000000E+00  0.00000000000E+00  0.36926704187E+03  0.36926704187E+03  0.00000000000E+00 0. -1.
          4   -1    0    0  502    0 -0.00000000000E+00 -0.00000000000E+00 -0.46744739317E+02  0.46744739317E+02  0.00000000000E+00 0. -1.
         24    2    1    2    0    0  0.65818997934E+02  0.27364367202E+01  0.82082901465E+02  0.13262646169E+03  0.80700353487E+02 0.  0.
         23    2    1    2    0    0 -0.33310533999E+02  0.23140947103E+02  0.20599939228E+03  0.22941724164E+03  0.92473920825E+02 0.  0.
        -13    1    3    3    0    0  0.34864002681E+02  0.40121054139E+02  0.28434753248E+02  0.60280451727E+02  0.00000000000E+00 0.  1.
         14    1    3    3    0    0  0.30954995252E+02 -0.37384617418E+02  0.53648148216E+02  0.72346009963E+02  0.00000000000E+00 0. -1.
        -11    1    4    4    0    0 -0.44292711155E+02  0.52232783195E+02  0.15827702716E+03  0.17245789407E+03  0.00000000000E+00 0. -1.
         11    1    4    4    0    0  0.10982177157E+02 -0.29091836092E+02  0.47722365124E+02  0.56959347568E+02  0.00000000000E+00 0.  1.
          3    1    1    2  501    0 -0.32508463935E+02 -0.25877383824E+02  0.34440008805E+02  0.53968077856E+02  0.00000000000E+00 0. -1.
<scales pt_clust_5="13000.00000" pt_clust_6="13000.00000" pt_clust_7="13000.00000" pt_clust_8="13000.00000" pt_clust_9="41.55046"></scales>
<clustering>
<clus scale="   41.550">  1  9  2 -1</clus>
<clus scale="   80.700">  5  6 -1 -1</clus>
<clus scale="   92.474">  7  8 -1 -1</clus>
<clus scale="   97.880">  2  5  1 -1</clus>
<clus scale="   41.550">  1  5  2 -1</clus>
</clustering>
</event>
<event>
 9    2  0.1665830E-004  0.9160701E+02  0.7546771E-02  0.1304256E+00
          2   -1    0    0  502    0 -0.00000000000E+00  0.00000000000E+00  0.11357445192E+03  0.11357445192E+03  0.00000000000E+00 0. -1.
         21   -1    0    0  501  502  0.00000000000E+00 -0.00000000000E+00 -0.13992186747E+03  0.13992186747E+03  0.00000000000E+00 0. -1.
         24    2    1    2    0    0 -0.49605692035E+00  0.25916167949E+02  0.51898494113E+02  0.98416291539E+02  0.79501062354E+02 0.  0.
         23    2    1    2    0    0 -0.34633061054E+02 -0.14217638067E+02 -0.64586838419E+02  0.11561509711E+03  0.88282505813E+02 0.  0.
        -13    1    3    3    0    0  0.21292904817E+02  0.20638007712E+02 -0.11010852120E+02  0.31631535250E+02  0.00000000000E+00 0.  1.
         14    1    3    3    0    0 -0.21788961737E+02  0.52781602365E+01  0.62909346233E+02  0.66784756289E+02  0.00000000000E+00 0. -1.
        -13    1    4    4    0    0  0.17412744987E+02 -0.35255994222E+02 -0.21248522785E+02  0.44695509138E+02  0.00000000000E+00 0.  1.
         13    1    4    4    0    0 -0.52045806041E+02  0.21038356154E+02 -0.43338315633E+02  0.70919587971E+02  0.00000000000E+00 0. -1.
          1    1    1    2  501    0  0.35129117974E+02 -0.11698529881E+02 -0.13659071245E+02  0.39464930740E+02  0.00000000000E+00 0. -1.
<scales pt_clust_5="13000.00000" pt_clust_6="13000.00000" pt_clust_7="13000.00000" pt_clust_8="13000.00000" pt_clust_9="37.02581"></scales>
<clustering>
<clus scale="   37.026">  2  9  1 -1</clus>
<clus scale="   79.501">  5  6 -1 -1</clus>
<clus scale="   83.177">  1  5  2 -1</clus>
<clus scale="   88.283">  7  8 -1 -1</clus>
<clus scale="   37.026">  2  5  1 -1</clus>
</clustering>
</event>
<event>
 9    2  0.1665830E-004  0.1153150E+03  0.7546771E-02  0.1254553E+00
         21   -1    0    0  501  502  0.00000000000E+00  0.00000000000E+00  0.57859629149E+02  0.57859629149E+02  0.00000000000E+00 0. -1.
          2   -1    0    0  502    0 -0.00000000000E+00 -0.00000000000E+00 -0.49881323486E+03  0.49881323486E+03  0.00000000000E+00 0. -1.
         23    2    1    2    0    0 -0.72105132042E+02  0.68834463316E+01 -0.39790766516E+03  0.41461410178E+03  0.91256843596E+02 0.  0.
         24    2    1    2    0    0  0.57312716939E+02 -0.26397791367E+02 -0.13525483233E+02  0.10370406751E+03  0.81178839662E+02 0.  0.
        -13    1    4    4    0    0  0.45446360009E+02  0.42943698364E+01 -0.40599828096E+02  0.61091401128E+02  0.00000000000E+00 0.  1.
         14    1    4    4    0    0  0.11866356930E+02 -0.30692161204E+02  0.27074344864E+02  0.42612666379E+02  0.00000000000E+00 0. -1.
        -11    1    3    3    0    0 -0.93429901307E+02  0.12908940109E+02 -0.31833606681E+03  0.33201451569E+03  0.00000000000E+00 0. -1.
         11    1    3    3    0    0  0.21324769265E+02 -0.60254937778E+01 -0.79571598345E+02  0.82599586092E+02  0.00000000000E+00 0.  1.
          1    1    1    2  501    0  0.14792415103E+02  0.19514345036E+02 -0.29520457319E+02  0.38354694720E+02  0.00000000000E+00 0. -1.
<scales pt_clust_5="13000.00000" pt_clust_6="13000.00000" pt_clust_7="13000.00000" pt_clust_8="13000.00000" pt_clust_9="24.48725"></scales>
<clustering>
<clus scale="   24.487">  1  9  2 -1</clus>
<clus scale="   81.179">  5  6 -1 -1</clus>
<clus scale="   91.257">  7  8 -1 -1</clus>
<clus scale="  107.516">  1  5  2 -1</clus>
<clus scale="   24.487">  1  5  2 -1</clus>
</clustering>
</event>
<event>
 9    2  0.1665830E-004  0.9539095E+02  0.7546771E-02  0.1290954E+00
         21   -1    0    0  501  502  0.00000000000E+00  0.00000000000E+00  0.73868758464E+02  0.73868758464E+02  0.00000000000E+00 0. -1.
          2   -1    0    0  502    0 -0.00000000000E+00 -0.00000000000E+00 -0.32550112748E+03  0.32550112748E+03  0.00000000000E+00 0. -1.
         24    2    1    2    0    0 -0.23253954889E+02 -0.26660949811E+02 -0.17540617208E+03  0.20165427177E+03  0.92981543634E+02 0.  0.
         23    2    1    2    0    0 -0.33118572235E+02 -0.11917508694E+02 -0.41203789359E+01  0.98390852586E+02  0.91787338504E+02 0.  0.
        -11    1    3    3    0    0  0.22429471550E+02 -0.25193220274E+02 -0.19016440824E+02  0.38722145645E+02  0.00000000000E+00 0.  1.
         12    1    3    3    0    0 -0.45683426439E+02 -0.14677295367E+01 -0.15638973125E+03  0.16293212612E+03  0.00000000000E+00 0. -1.
        -11    1    4    4    0    0  0.13550594576E+02  0.23668701120E+02 -0.24098712785E+02  0.36394697196E+02  0.00000000000E+00 0.  1.
         11    1    4    4    0    0 -0.46669166811E+02 -0.35586209814E+02  0.19978333849E+02  0.61996155390E+02  0.00000000000E+00 0. -1.
          1    1    1    2  501    0  0.56372527125E+02  0.38578458504E+02 -0.72105817999E+02  0.99324761587E+02  0.00000000000E+00 0. -1.
<scales pt_clust_5="13000.00000" pt_clust_6="13000.00000" pt_clust_7="13000.00000" pt_clust_8="13000.00000" pt_clust_9="68.30933"></scales>
<clustering>
<clus scale="   68.309">  1  9  2 -1</clus>
<clus scale="   91.787">  7  8 -1 -1</clus>
<clus scale="   92.982">  5  6 -1 -1</clus>
<clus scale="   94.227">  1  7  2 -1</clus>
<clus scale="   68.309">  1  5  2 -1</clus>
</clustering>
</event>
<event>
 9    2  0.1665830E-004  0.1651061E+03  0.7546771E-02  0.1184795E+00
         21   -1    0    0  501  502  0.00000000000E+00  0.00000000000E+00  0.16751104688E+04  0.16751104688E+04  0.00000000000E+00 0. -1.
         -3   -1    0    0    0  501 -0.00000000000E+00 -0.00000000000E+00 -0.30743016100E+02  0.30743016100E+02  0.00000000000E+00 0.  1.
         23    2    1    2    0    0 -0.12111011099E+03  0.56380308432E+02  0.25001493358E+03  0.29834099179E+03  0.93024094762E+02 0.  0.
         24    2    1    2    0    0  0.12871590886E+03 -0.76594374617E+02  0.12370097375E+04  0.12486943343E+04  0.81301700365E+02 0.  0.
        -11    1    4    4    0    0  0.26044390339E+02 -0.25247084053E+01  0.68187870876E+02  0.73036088034E+02  0.00000000000E+00 0.  1.
         12    1    4    4    0    0  0.10267151852E+03 -0.74069666211E+02  0.11688218666E+04  0.11756582463E+04  0.00000000000E+00 0. -1.
        -11    1    3    3    0    0 -0.63630610584E+02 -0.19544982585E+02  0.86926033102E+02  0.10948514136E+03  0.00000000000E+00 0.  1.
         11    1    3    3    0    0 -0.57479500404E+02  0.75925291017E+02  0.16308890048E+03  0.18885585043E+03  0.00000000000E+00 0. -1.
         -4    1    1    2    0  502 -0.76057978758E+01  0.20214066184E+02  0.15734278164E+03  0.15881815881E+03  0.00000000000E+00 0.  1.
<scales pt_clust_5="13000.00000" pt_clust_6="13000.00000" pt_clust_7="13000.00000" pt_clust_8="13000.00000" pt_clust_9="21.59761"></scales>
<clustering>
<clus scale="   21.598">  1  9  2 -1</clus>
<clus scale="   81.302">  5  6 -1 -1</clus>
<clus scale="   93.024">  7  8 -1 -1</clus>
<clus scale="  158.797">  1  5  2 -1</clus>
<clus scale="   21.598">  1  5  2 -1</clus>
</clustering>
</event>
<event>
 9    2  0.1665830E-004  0.1101851E+03  0.7546771E-02  0.1265363E+00
          2   -1    0    0  502    0 -0.00000000000E+00  0.00000000000E+00  0.10052092691E+04  0.10052092691E+04  0.00000000000E+00 0. -1.
         21   -1    0    0  501  502  0.00000000000E+00 -0.00000000000E+00 -0.14924782397E+03  0.14924782397E+03  0.00000000000E+00 0. -1.
         24    2    1    2    0    0 -0.47908976559E+02 -0.40576208922E+02  0.94995845071E+03  0.95519480767E+03  0.77681167370E+02 0.  0.
         23    2    1    2    0    0  0.23390814171E+02  0.55816364301E+02 -0.89935105514E+01  0.10949037008E+03  0.90800116721E+02 0.  0.
        -13    1    3    3    0    0 -0.31801486212E+02 -0.10050649688E+01  0.12028215199E+03  0.12441921382E+03  0.00000000000E+00 0.  1.
         14    1    3    3    0    0 -0.16107490347E+02 -0.39571143953E+02  0.82967629872E+03  0.83077559385E+03  0.00000000000E+00 0. -1.
        -11    1    4    4    0    0  0.56728286085E+02  0.33408559243E+02 -0.18151362834E+02  0.68291304319E+02  0.00000000000E+00 0.  1.
         11    1    4    4    0    0 -0.33337471913E+02  0.22407805057E+02  0.91578522829E+01  0.41199065760E+02  0.00000000000E+00 0. -1.
          1    1    1    2  501    0  0.24518162387E+02 -0.15240155379E+02 -0.85003494998E+02  0.89771915345E+02  0.00000000000E+00 0. -1.
<scales pt_clust_5="13000.00000" pt_clust_6="13000.00000" pt_clust_7="13000.00000" pt_clust_8="13000.00000" pt_clust_9="28.86871"></scales>
<clustering>
<clus scale="   28.869">  2  9  1 -1</clus>
<clus scale="   77.681">  5  6 -1 -1</clus>
<clus scale="   90.800">  7  8 -1 -1</clus>
<clus scale="   99.652">  1  5  2 -1</clus>
<clus scale="   28.869">  2  5  1 -1</clus>
</clustering>
</event>
<event>
 9    2  0.1665830E-004  0.1169644E+03  0.7546771E-02  0.1249844E+00
         21   -1    0    0  501  502  0.00000000000E+00  0.00000000000E+00  0.39614402000E+02  0.39614402000E+02  0.00000000000E+00 0. -1.
          2   -1    0    0  502    0 -0.00000000000E+00 -0.00000000000E+00 -0.94703031303E+03  0.94703031303E+03  0.00000000000E+00 0. -1.
         23    2    1    2    0    0  0.31860191423E+02  0.39668420403E+02 -0.30688136653E+03  0.32405265046E+03  0.90803589009E+02 0.  0.
         24    2    1    2    0    0 -0.84372614776E+02 -0.11335356825E+03 -0.24390792018E+03  0.29466597851E+03  0.85844020232E+02 0.  0.
        -13    1    4    4    0    0  0.53568942621E+01 -0.61327233947E+02 -0.94601319484E+02  0.11286777923E+03  0.00000000000E+00 0.  1.
         14    1    4    4    0    0 -0.89729509038E+02 -0.52026334300E+02 -0.14930660069E+03  0.18179819929E+03  0.00000000000E+00 0. -1.
        -13    1    3    3    0    0 -0.31849205292E+02  0.10310235850E+02 -0.85356994575E+02  0.91686909447E+02  0.00000000000E+00 0.  1.
         13    1    3    3    0    0  0.63709396715E+02  0.29358184553E+02 -0.22152437195E+03  0.23236574102E+03  0.00000000000E+00 0. -1.
          1    1    1    2  501    0  0.52512423353E+02  0.73685147844E+02 -0.35662662433E+03  0.36792608605E+03  0.00000000000E+00 0. -1.
<scales pt_clust_5="13000.00000" pt_clust_6="13000.00000" pt_clust_7="13000.00000" pt_clust_8="13000.00000" pt_clust_9="90.48240"></scales>
<clustering>
<clus scale="   85.844">  5  6 -1 -1</clus>
<clus scale="   90.482">  1  9  2 -1</clus>
<clus scale="   90.804">  7  8 -1 -1</clus>
<clus scale="  113.157">  1  5  2 -1</clus>
<clus scale="   90.482">  1  5  2 -1</clus>
</clustering>
</event>
<event>
 9    2  0.1665830E-004  0.2182007E+03  0.7546771E-02  0.1136468E+00
          2   -1    0    0  502    0 -0.00000000000E+00  0.00000000000E+00  0.92419485156E+03  0.92419485156E+03  0.00000000000E+00 0. -1.
         21   -1    0    0  501  502  0.00000000000E+00 -0.00000000000E+00 -0.85842058680E+02  0.85842058680E+02  0.00000000000E+00 0. -1.
         23    2    1    2    0    0 -0.14037306850E+03  0.10140299404E+03  0.43172952768E+03  0.47426059351E+03  0.92442197751E+02 0.  0.
         24    2    1    2    0    0  0.22037550602E+03 -0.11348346085E+03  0.35578104215E+03  0.44021869364E+03  0.75950567731E+02 0.  0.
        -13    1    4    4    0    0  0.26696301984E+02  0.96999349942E+01  0.54556998931E+02  0.61508108497E+02  0.00000000000E+00 0.  1.
         14    1    4    4    0    0  0.19367920403E+03 -0.12318339585E+03  0.30122404322E+03  0.37871058514E+03  0.00000000000E+00 0. -1.
        -13    1    3    3    0    0 -0.74004001483E+02  0.84301719397E+02  0.16976242983E+03  0.20347642299E+03  0.00000000000E+00 0. -1.
         13    1    3    3    0    0 -0.66369067020E+02  0.17101274639E+02  0.26196709785E+03  0.27078417052E+03  0.00000000000E+00 0.  1.
          1    1    1    2  501    0 -0.80002437513E+02  0.12080466818E+02  0.50842223058E+02  0.95557623098E+02  0.00000000000E+00 0. -1.
<scales pt_clust_5="13000.00000" pt_clust_6="13000.00000" pt_clust_7="13000.00000" pt_clust_8="13000.00000" pt_clust_9="80.90938"></scales>
<clustering>
<clus scale="   75.951">  5  6 -1 -1</clus>
<clus scale="   80.909">  2  9  1 -1</clus>
<clus scale="   92.442">  7  8 -1 -1</clus>
<clus scale="  211.742">  2  5  1 -1</clus>
<clus scale="   80.909">  2  5  1 -1</clus>
</clustering>
</event>
<event>
 9    2  0.1665830E-004  0.1357564E+03  0.7546771E-02  0.1220948E+00
          2   -1    0    0  502    0 -0.00000000000E+00  0.00000000000E+00  0.46963862500E+03  0.46963862500E+03  0.00000000000E+00 0. -1.
         21   -1    0    0  501  502  0.00000000000E+00 -0.00000000000E+00 -0.20067258190E+03  0.20067258190E+03  0.00000000000E+00 0. -1.
         24    2    1    2    0    0  0.10417221052E+03  0.41476489772E+02  0.40788899152E+03  0.43088201124E+03  0.81937351421E+02 0.  0.
         23    2    1    2    0    0 -0.83561940070E+01 -0.39902407828E+02 -0.60841128164E+02  0.11581707082E+03  0.89721362500E+02 0.  0.
        -13    1    3    3    0    0  0.30541758160E+02  0.46904825299E+02  0.10347975765E+03  0.11764744737E+03  0.00000000000E+00 0.  1.
         14    1    3    3    0    0  0.73630452361E+02 -0.54283355276E+01  0.30440923386E+03  0.31323456387E+03  0.00000000000E+00 0. -1.
        -11    1    4    4    0    0  0.38279777390E+02 -0.33483988474E+02 -0.25121868136E+02  0.56724131548E+02  0.00000000000E+00 0. -1.
         11    1    4    4    0    0 -0.46635971397E+02 -0.64184193544E+01 -0.35719260028E+02  0.59092939275E+02  0.00000000000E+00 0.  1.
          1    1    1    2  501    0 -0.95816016514E+02 -0.15740819434E+01 -0.78081820249E+02  0.12361212484E+03  0.00000000000E+00 0. -1.
<scales pt_clust_5="13000.00000" pt_clust_6="13000.00000" pt_clust_7="13000.00000" pt_clust_8="13000.00000" pt_clust_9="95.82895"></scales>
<clustering>
<clus scale="   81.937">  5  6 -1 -1</clus>
<clus scale="   89.721">  7  8 -1 -1</clus>
<clus scale="   95.829">  2  9  1 -1</clus>
<clus scale="  130.743">  1  5  2 -1</clus>
<clus scale="   95.829">  2  5  1 -1</clus>
</clustering>
</event>
<event>
 9    2  0.1665830E-004  0.1628785E+03  0.7546771E-02  0.1212158E+00
          2   -1    0    0  502    0 -0.00000000000E+00  0.00000000000E+00  0.72747520084E+03  0.72747520084E+03  0.00000000000E+00 0. -1.
         21   -1    0    0  501  502  0.00000000000E+00 -0.00000000000E+00 -0.72112346519E+02  0.72112346519E+02  0.00000000000E+00 0. -1.
         24    2    1    2    0    0  0.30952987331E+02 -0.28361538394E+02  0.23903452873E+03  0.25582205750E+03  0.80900895503E+02 0.  0.
         23    2    1    2    0    0  0.12571256662E+03  0.50159811604E+01  0.87558966972E+02  0.17882932831E+03  0.92111598043E+02 0.  0.
        -11    1    3    3    0    0  0.18623210582E+02 -0.53752650006E+02  0.11117750206E+03  0.12488638164E+03  0.00000000000E+00 0.  1.
         12    1    3    3    0    0  0.12329776749E+02  0.25391111612E+02  0.12785702667E+03  0.13093567586E+03  0.00000000000E+00 0. -1.
        -11    1    4    4    0    0  0.93804987591E+00  0.25468498723E+02  0.31501989846E+02  0.40520361907E+02  0.00000000000E+00 0.  1.
         11    1    4    4    0    0  0.12477451675E+03 -0.20452517563E+02  0.56056977126E+02  0.13830896641E+03  0.00000000000E+00 0. -1.
          1    1    1    2  501    0 -0.15666555395E+03  0.23345557234E+02  0.32876935862E+03  0.36493616154E+03  0.00000000000E+00 0. -1.
<scales pt_clust_5="13000.00000" pt_clust_6="13000.00000" pt_clust_7="13000.00000" pt_clust_8="13000.00000" pt_clust_9="134.33118"></scales>
<clustering>
<clus scale="   80.901">  5  6 -1 -1</clus>
<clus scale="   91.145">  1  5  2 -1</clus>
<clus scale="   92.112">  7  8 -1 -1</clus>
<clus scale="  134.331">  2  9  1 -1</clus>
<clus scale="  134.331">  2  5  1 -1</clus>
</clustering>
</event>
<event>
 9    2  0.1665830E-004  0.9146467E+02  0.7546771E-02  0.1303810E+00
          2   -1    0    0  502    0 -0.00000000000E+00  0.00000000000E+00  0.15324328658E+04  0.15324328658E+04  0.00000000000E+00 0. -1.
         21   -1    0    0  501  502  0.00000000000E+00 -0.00000000000E+00 -0.19686616592E+02  0.19686616592E+02  0.00000000000E+00 0.  1.
         24    2    1    2    0    0 -0.16989071177E+02 -0.11596203604E+02  0.11341623246E+04  0.11373352226E+04  0.82365827340E+02 0.  0.
         23    2    1    2    0    0  0.10493779278E+02 -0.39730663972E+02  0.14407808297E+03  0.17463924963E+03  0.89731424009E+02 0.  0.
        -11    1    3    3    0    0 -0.25007150964E+02  0.10691038766E+02  0.12631683659E+03  0.12921145118E+03  0.00000000000E+00 0.  1.
         12    1    3    3    0    0  0.80180797872E+01 -0.22287242370E+02  0.10078454880E+04  0.10081237714E+04  0.00000000000E+00 0. -1.
        -13    1    4    4    0    0 -0.26917286876E+02 -0.27607107182E+02  0.12522605516E+03  0.13102769780E+03  0.00000000000E+00 0. -1.
         13    1    4    4    0    0  0.37411066155E+02 -0.12123556790E+02  0.18852027807E+02  0.43611551824E+02  0.00000000000E+00 0.  1.
          1    1    1    2  501    0  0.64952918989E+01  0.51326867576E+02  0.23450584163E+03  0.24014501017E+03  0.00000000000E+00 0. -1.
<scales pt_clust_5="13000.00000" pt_clust_6="13000.00000" pt_clust_7="13000.00000" pt_clust_8="13000.00000" pt_clust_9="51.73624"></scales>
<clustering>
<clus scale="   51.736">  2  9  1 -1</clus>
<clus scale="   82.366">  5  6 -1 -1</clus>
<clus scale="   84.251">  1  5  2 -1</clus>
<clus scale="   89.731">  7  8 -1 -1</clus>
<clus scale="   51.736">  2  5  1 -1</clus>
</clustering>
</event>
<event>
 9    2  0.1665830E-004  0.1323279E+03  0.7546771E-02  0.1226191E+00
         21   -1    0    0  501  502  0.00000000000E+00  0.00000000000E+00  0.18599402787E+03  0.18599402787E+03  0.00000000000E+00 0.  1.
          2   -1    0    0  502    0 -0.00000000000E+00 -0.00000000000E+00 -0.13290708398E+03  0.13290708398E+03  0.00000000000E+00 0. -1.
         24    2    1    2    0    0 -0.77689528451E+02 -0.46284054318E+02 -0.35084700720E+02  0.12641425146E+03  0.81066332306E+02 0.  0.
         23    2    1    2    0    0  0.10055798628E+03  0.56119547603E+02  0.78185741622E+02  0.16566482561E+03  0.89836028535E+02 0.  0.
        -11    1    3    3    0    0 -0.46873988205E+02 -0.30062459908E+02 -0.61306527218E+02  0.82821570533E+02  0.00000000000E+00 0.  1.
         12    1    3    3    0    0 -0.30815540246E+02 -0.16221594410E+02  0.26221826498E+02  0.43592680931E+02  0.00000000000E+00 0. -1.
        -11    1    4    4    0    0  0.66641508710E+02 -0.83444194575E+01  0.61212053920E+02  0.90871533300E+02  0.00000000000E+00 0.  1.
         11    1    4    4    0    0  0.33916477565E+02  0.64463967061E+02  0.16973687702E+02  0.74793292305E+02  0.00000000000E+00 0. -1.
          1    1    1    2  501    0 -0.22868457824E+02 -0.98354932855E+01  0.99859029863E+01  0.26822034783E+02  0.00000000000E+00 0. -1.
<scales pt_clust_5="13000.00000" pt_clust_6="13000.00000" pt_clust_7="13000.00000" pt_clust_8="13000.00000" pt_clust_9="24.89384"></scales>
<clustering>
<clus scale="   24.894">  1  9  2 -1</clus>
<clus scale="   81.066">  5  6 -1 -1</clus>
<clus scale="   89.836">  7  8 -1 -1</clus>
<clus scale="  126.538">  2  5  1 -1</clus>
<clus scale="   24.894">  1  5  2 -1</clus>
</clustering>
</event>
<event>
 9    2  0.1665830E-004  0.1968517E+03  0.7546771E-02  0.1153759E+00
         21   -1    0    0  501  502  0.00000000000E+00  0.00000000000E+00  0.99038514749E+02  0.99038514749E+02  0.00000000000E+00 0. -1.
          2   -1    0    0  502    0 -0.00000000000E+00 -0.00000000000E+00 -0.76703377256E+03  0.76703377256E+03  0.00000000000E+00 0. -1.
         23    2    1    2    0    0  0.49318843831E+02  0.16097427388E+03 -0.27572631155E+03  0.33653913093E+03  0.94278961353E+02 0.  0.
         24    2    1    2    0    0 -0.15674345781E+03 -0.12760066321E+03 -0.15579808948E+03  0.26767000189E+03  0.80769699800E+02 0.  0.
        -13    1    4    4    0    0 -0.54421027285E+02 -0.90993930661E+02 -0.54982123637E+02  0.11943440688E+03  0.00000000000E+00 0.  1.
         14    1    4    4    0    0 -0.10232243053E+03 -0.36606732549E+02 -0.10081596585E+03  0.14823559501E+03  0.00000000000E+00 0. -1.
        -13    1    3    3    0    0 -0.18867555846E+02  0.94255573964E+02 -0.11788372971E+03  0.15210743446E+03  0.00000000000E+00 0.  1.
         13    1    3    3    0    0  0.68186399677E+02  0.66718699916E+02 -0.15784258184E+03  0.18443169647E+03  0.00000000000E+00 0. -1.
          1    1    1    2  501    0  0.10742461398E+03 -0.33373610670E+02 -0.23647085677E+03  0.26186315449E+03  0.00000000000E+00 0. -1.
<scales pt_clust_5="13000.00000" pt_clust_6="13000.00000" pt_clust_7="13000.00000" pt_clust_8="13000.00000" pt_clust_9="112.48937"></scales>
<clustering>
<clus scale="   80.770">  5  6 -1 -1</clus>
<clus scale="   94.279">  7  8 -1 -1</clus>
<clus scale="  112.489">  1  9  2 -1</clus>
<clus scale="  190.751">  1  5  2 -1</clus>
<clus scale="  112.489">  1  5  2 -1</clus>
</clustering>
</event>
<event>
 9    2  0.1665830E-004  0.1406906E+03  0.7546771E-02  0.1214742E+00
         21   -1    0    0  501  502  0.00000000000E+00  0.00000000000E+00  0.50366687615E+02  0.50366687615E+02  0.00000000000E+00 0.  1.
          4   -1    0    0  502    0 -0.00000000000E+00 -0.00000000000E+00 -0.76642764981E+03  0.76642764981E+03  0.00000000000E+00 0. -1.
         23    2    1    2    0    0 -0.13815255118E+03 -0.55733694439E+02 -0.48477078009E+03  0.51530301586E+03  0.91335189478E+02 0.  0.
         24    2    1    2    0    0  0.63782706604E+02  0.13179933158E+02 -0.15721626688E+03  0.18822772944E+03  0.80441154029E+02 0.  0.
        -11    1    4    4    0    0  0.16147857718E+02 -0.20590593157E+02 -0.70379895367E+01  0.27097216317E+02  0.00000000000E+00 0.  1.
         12    1    4    4    0    0  0.47634848887E+02  0.33770526314E+02 -0.15017827734E+03  0.16113051313E+03  0.00000000000E+00 0. -1.
        -11    1    3    3    0    0 -0.91309838249E+02  0.11712814788E+02 -0.23544631123E+03  0.25280356419E+03  0.00000000000E+00 0. -1.
         11    1    3    3    0    0 -0.46842712933E+02 -0.67446509227E+02 -0.24932446885E+03  0.26249945168E+03  0.00000000000E+00 0.  1.
          3    1    1    2  501    0  0.74369844578E+02  0.42553761281E+02 -0.74073915236E+02  0.11326359212E+03  0.00000000000E+00 0. -1.
<scales pt_clust_5="13000.00000" pt_clust_6="13000.00000" pt_clust_7="13000.00000" pt_clust_8="13000.00000" pt_clust_9="85.68370"></scales>
<clustering>
<clus scale="   80.441">  5  6 -1 -1</clus>
<clus scale="   85.684">  1  9  2 -1</clus>
<clus scale="   91.335">  7  8 -1 -1</clus>
<clus scale="  133.875">  1  5  2 -1</clus>
<clus scale="   85.684">  1  5  2 -1</clus>
</clustering>
</event>
<event>
 9    2  0.1665830E-004  0.1101383E+03  0.7546771E-02  0.1267403E+00
         21   -1    0    0  501  502  0.00000000000E+00  0.00000000000E+00  0.64131509221E+02  0.64131509221E+02  0.00000000000E+00 0. -1.
          4   -1    0    0  502    0 -0.00000000000E+00 -0.00000000000E+00 -0.39717948793E+03  0.39717948793E+03  0.00000000000E+00 0. -1.
         24    2    1    2    0    0  0.48243020774E+02 -0.11433219597E+02 -0.17700106324E+03  0.19861860492E+03  0.75245373743E+02 0.  0.
         23    2    1    2    0    0 -0.78221986779E+02 -0.84397871629E+01 -0.18161456107E+03  0.21856327144E+03  0.92715401139E+02 0.  0.
        -13    1    3    3    0    0  0.49087031952E+02 -0.14405145696E+02 -0.49845836633E+02  0.71425852169E+02  0.00000000000E+00 0.  1.
         14    1    3    3    0    0 -0.84401117837E+00  0.29719260992E+01 -0.12715522661E+03  0.12719275276E+03  0.00000000000E+00 0. -1.
        -13    1    4    4    0    0 -0.61196147962E+02 -0.46248585434E+02 -0.14103537307E+03  0.16054555938E+03  0.00000000000E+00 0. -1.
         13    1    4    4    0    0 -0.17025838817E+02  0.37808798271E+02 -0.40579187995E+02  0.58017712058E+02  0.00000000000E+00 0.  1.
          3    1    1    2  501    0  0.29978966005E+02  0.19873006759E+02  0.25567645595E+02  0.44129120790E+02  0.00000000000E+00 0. -1.
<scales pt_clust_5="13000.00000" pt_clust_6="13000.00000" pt_clust_7="13000.00000" pt_clust_8="13000.00000" pt_clust_9="35.96769"></scales>
<clustering>
<clus scale="   35.968">  1  9  2 -1</clus>
<clus scale="   75.245">  5  6 -1 -1</clus>
<clus scale="   92.715">  7  8 -1 -1</clus>
<clus scale="   95.897">  2  5  1 -1</clus>
<clus scale="   35.968">  1  5  2 -1</clus>
</clustering>
</event>
<event>
 9    2  0.1665830E-004  0.1363866E+03  0.7546771E-02  0.1241693E+00
          2   -1    0    0  502    0 -0.00000000000E+00  0.00000000000E+00  0.37720020617E+03  0.37720020617E+03  0.00000000000E+00 0. -1.
         21   -1    0    0  501  502  0.00000000000E+00 -0.00000000000E+00 -0.69250975638E+02  0.69250975638E+02  0.00000000000E+00 0. -1.
         24    2    1    2    0    0 -0.22776699026E+02  0.69688923752E+01  0.90243093630E+02  0.12334925582E+03  0.80646633435E+02 0.  0.
         23    2    1    2    0    0  0.73618280395E+02 -0.82174268903E+02  0.10513165214E+03  0.17848612576E+03  0.92910554460E+02 0.  0.
        -11    1    3    3    0    0 -0.22735109205E+02  0.40674506076E+02  0.33642083276E+02  0.57472518670E+02  0.00000000000E+00 0.  1.
         12    1    3    3    0    0 -0.41589821208E-01 -0.33705613701E+02  0.56601010354E+02  0.65876737151E+02  0.00000000000E+00 0. -1.
        -11    1    4    4    0    0  0.14123742231E+02 -0.74798705026E+02  0.28707128449E+02  0.81353706689E+02  0.00000000000E+00 0. -1.
         11    1    4    4    0    0  0.59494538164E+02 -0.73755638766E+01  0.76424523690E+02  0.97132419073E+02  0.00000000000E+00 0.  1.
          1    1    1    2  501    0 -0.50841581369E+02  0.75205376527E+02  0.11257448477E+03  0.14461580023E+03  0.00000000000E+00 0. -1.
<scales pt_clust_5="13000.00000" pt_clust_6="13000.00000" pt_clust_7="13000.00000" pt_clust_8="13000.00000" pt_clust_9="99.84458"></scales>
<clustering>
<clus scale="   80.647">  5  6 -1 -1</clus>
<clus scale="   84.091">  1  5  2 -1</clus>
<clus scale="   92.911">  7  8 -1 -1</clus>
<clus scale="   99.845">  2  9  1 -1</clus>
<clus scale="   99.845">  2  5  1 -1</clus>
</clustering>
</event>
<event>
 9    2  0.1665830E-004  0.2017771E+03  0.7546771E-02  0.1148926E+00
         -3   -1    0    0    0  501 -0.00000000000E+00  0.00000000000E+00  0.24808162234E+03  0.24808162234E+03  0.00000000000E+00 0.  1.
         21   -1    0    0  501  502  0.00000000000E+00 -0.00000000000E+00 -0.29523465598E+03  0.29523465598E+03  0.00000000000E+00 0. -1.
         23    2    1    2    0    0  0.18127013536E+03 -0.42239330574E+02  0.61245971311E+02  0.20808764884E+03  0.70045539317E+02 0.  0.
         24    2    1    2    0    0 -0.19315499837E+03 -0.32774696924E+02 -0.13960573024E+03  0.25311764366E+03  0.78713070476E+02 0.  0.
        -13    1    4    4    0    0 -0.11182567587E+03 -0.27256827322E+02 -0.34605480945E+02  0.12018924965E+03  0.00000000000E+00 0.  1.
         14    1    4    4    0    0 -0.81329322498E+02 -0.55178696014E+01 -0.10500024929E+03  0.13292839401E+03  0.00000000000E+00 0. -1.
        -11    1    3    3    0    0  0.88102248393E+02  0.44956855556E+01  0.54375987958E+02  0.10362897967E+03  0.00000000000E+00 0.  1.
         11    1    3    3    0    0  0.93167886964E+02 -0.46735016130E+02  0.68699833528E+01  0.10445866917E+03  0.00000000000E+00 0. -1.
         -4    1    1    2    0  502  0.11884863015E+02  0.75014027498E+02  0.31206725285E+02  0.82110985826E+02  0.00000000000E+00 0.  1.
<scales pt_clust_5="13000.00000" pt_clust_6="13000.00000" pt_clust_7="13000.00000" pt_clust_8="13000.00000" pt_clust_9="75.94972"></scales>
<clustering>
<clus scale="   70.046">  7  8 -1 -1</clus>
<clus scale="   75.950">  2  9  1 -1</clus>
<clus scale="   78.713">  5  6 -1 -1</clus>
<clus scale="  198.556">  1  7  2 -1</clus>
<clus scale="   75.950">  2  5  1 -1</clus>
</clustering>
</event>
<event>
 9    2  0.1665830E-004  0.1310761E+03  0.7546771E-02  0.1228574E+00
         -1   -1    0    0    0  501 -0.00000000000E+00  0.00000000000E+00  0.43193875750E+03  0.43193875750E+03  0.00000000000E+00 0.  1.
         21   -1    0    0  501  502  0.00000000000E+00 -0.00000000000E+00 -0.68337855759E+02  0.68337855759E+02  0.00000000000E+00 0. -1.
         23    2    1    2    0    0  0.98765407816E+02 -0.31829556579E+01  0.33530454514E+03  0.36118354000E+03  0.90882751854E+02 0.  0.
         24    2    1    2    0    0 -0.79874189526E+02 -0.74885103252E+01  0.29936341093E+02  0.11733421613E+03  0.80219510199E+02 0.  0.
        -13    1    4    4    0    0 -0.53382794973E+02 -0.38295520250E+02 -0.18851572965E+01  0.65725364117E+02  0.00000000000E+00 0.  1.
         14    1    4    4    0    0 -0.26491394553E+02  0.30807009925E+02  0.31821498390E+02  0.51608852009E+02  0.00000000000E+00 0. -1.
        -11    1    3    3    0    0  0.20505569539E+02  0.49896234756E+01  0.50702798716E+01  0.21704434167E+02  0.00000000000E+00 0. -1.
         11    1    3    3    0    0  0.78259838277E+02 -0.81725791335E+01  0.33023426527E+03  0.33947910583E+03  0.00000000000E+00 0.  1.
         -2    1    1    2    0  502 -0.18891218290E+02  0.10671465983E+02 -0.16399844930E+01  0.21758857136E+02  0.00000000000E+00 0.  1.
<scales pt_clust_5="13000.00000" pt_clust_6="13000.00000" pt_clust_7="13000.00000" pt_clust_8="13000.00000" pt_clust_9="21.69697"></scales>
<clustering>
<clus scale="   21.697">  2  9  1 -1</clus>
<clus scale="   80.220">  5  6 -1 -1</clus>
<clus scale="   90.883">  7  8 -1 -1</clus>
<clus scale="  123.921">  2  5  1 -1</clus>
<clus scale="   21.697">  2  5  1 -1</clus>
</clustering>
</event>
<event>
 9    2  0.1665830E-004  0.1584894E+03  0.7546771E-02  0.1192841E+00
          2   -1    0    0  502    0 -0.00000000000E+00  0.00000000000E+00  0.49343292245E+03  0.49343292245E+03  0.00000000000E+00 0. -1.
         21   -1    0    0  501  502  0.00000000000E+00 -0.00000000000E+00 -0.20107838811E+03  0.20107838811E+03  0.00000000000E+00 0. -1.
         24    2    1    2    0    0  0.12917036097E+03 -0.63765286086E+02  0.27405150124E+03  0.32680839859E+03  0.10463512888E+03 0.  0.
         23    2    1    2    0    0 -0.10279012883E+03 -0.88729221826E+01  0.15693914604E+03  0.20898240996E+03  0.91647219155E+02 0.  0.
        -11    1    3    3    0    0  0.26566536169E+02 -0.61044042919E+02  0.60880343381E+02  0.90214035660E+02  0.00000000000E+00 0.  1.
         12    1    3    3    0    0  0.10260382480E+03 -0.27212431677E+01  0.21317115786E+03  0.23659436293E+03  0.00000000000E+00 0. -1.
        -13    1    4    4    0    0 -0.56751993351E+02 -0.62236711568E+01  0.13992881257E+02  0.58782000288E+02  0.00000000000E+00 0. -1.
         13    1    4    4    0    0 -0.46038135477E+02 -0.26492510258E+01  0.14294626478E+03  0.15020040967E+03  0.00000000000E+00 0.  1.
          1    1    1    2  501    0 -0.26380232141E+02  0.72638208269E+02 -0.13863611294E+03  0.15872050201E+03  0.00000000000E+00 0. -1.
<scales pt_clust_5="13000.00000" pt_clust_6="13000.00000" pt_clust_7="13000.00000" pt_clust_8="13000.00000" pt_clust_9="77.28018"></scales>
<clustering>
<clus scale="   77.280">  2  9  1 -1</clus>
<clus scale="   91.647">  7  8 -1 -1</clus>
<clus scale="  104.635">  5  6 -1 -1</clus>
<clus scale="  150.232">  2  7  1 -1</clus>
<clus scale="   77.280">  2  5  1 -1</clus>
</clustering>
</event>
<event>
 9    2  0.1665830E-004  0.3084994E+03  0.7546771E-02  0.1125306E+00
         21   -1    0    0  501  502  0.00000000000E+00  0.00000000000E+00  0.82087219197E+02  0.82087219197E+02  0.00000000000E+00 0.  1.
          2   -1    0    0  502    0 -0.00000000000E+00 -0.00000000000E+00 -0.22005916237E+04  0.22005916237E+04  0.00000000000E+00 0. -1.
         24    2    1    2    0    0  0.24302933113E+02  0.45757406627E+02 -0.16239965735E+03  0.18994137702E+03  0.83783680852E+02 0.  0.
         23    2    1    2    0    0 -0.16029894777E+03  0.23876651360E+03 -0.38420541962E+03  0.48951687186E+03  0.96476746935E+02 0.  0.
        -13    1    3    3    0    0  0.46039517002E+02  0.90633030969E+01 -0.44914343843E+02  0.64954436889E+02  0.00000000000E+00 0.  1.
         14    1    3    3    0    0 -0.21736583889E+02  0.36694103530E+02 -0.11748531350E+03  0.12498694013E+03  0.00000000000E+00 0. -1.
        -13    1    4    4    0    0 -0.58252437909E+02  0.17134813639E+03 -0.22484481547E+03  0.28863250235E+03  0.00000000000E+00 0.  1.
         13    1    4    4    0    0 -0.10204650986E+03  0.67418377206E+02 -0.15936060415E+03  0.20088436951E+03  0.00000000000E+00 0. -1.
          1    1    1    2  501    0  0.13599601466E+03 -0.28452392023E+03 -0.15718993276E+04  0.16032205941E+04  0.00000000000E+00 0. -1.
<scales pt_clust_5="13000.00000" pt_clust_6="13000.00000" pt_clust_7="13000.00000" pt_clust_8="13000.00000" pt_clust_9="293.02595"></scales>
<clustering>
<clus scale="   83.784">  5  6 -1 -1</clus>
<clus scale="   96.477">  7  8 -1 -1</clus>
<clus scale="   98.509">  2  5  1 -1</clus>
<clus scale="  293.026">  1  9  2 -1</clus>
<clus scale="  293.026">  1  5  2 -1</clus>
</clustering>
</event>
<event>
 9    2  0.1665830E-004  0.3079010E+03  0.7546771E-02  0.1098371E+00
         21   -1    0    0  501  502  0.00000000000E+00  0.00000000000E+00  0.10030846149E+04  0.10030846149E+04  0.00000000000E+00 0.  1.
         -1   -1    0    0    0  501 -0.00000000000E+00 -0.00000000000E+00 -0.18197864606E+03  0.18197864606E+03  0.00000000000E+00 0.  1.
         23    2    1    2    0    0  0.15454851734E+03 -0.80148152095E+02  0.30318550551E+03  0.36120704093E+03  0.90775025022E+02 0.  0.
         24    2    1    2    0    0 -0.33067472188E+03 -0.98639609106E+02  0.43208729079E+03  0.55861512785E+03  0.79220515195E+02 0.  0.
        -11    1    4    4    0    0 -0.26559052819E+03 -0.64206703989E+02  0.28916391532E+03  0.39783991683E+03  0.00000000000E+00 0.  1.
         12    1    4    4    0    0 -0.65084193695E+02 -0.34432905117E+02  0.14292337547E+03  0.16077521102E+03  0.00000000000E+00 0. -1.
        -13    1    3    3    0    0  0.13368279170E+03 -0.10041890373E+03  0.25528158798E+03  0.30516181639E+03  0.00000000000E+00 0.  1.
         13    1    3    3    0    0  0.20865725647E+02  0.20270751635E+02  0.47903917535E+02  0.56045224541E+02  0.00000000000E+00 0. -1.
         -2    1    1    2    0  502  0.17612620454E+03  0.17878776120E+03  0.85833172564E+02  0.26524109220E+03  0.00000000000E+00 0.  1.
<scales pt_clust_5="13000.00000" pt_clust_6="13000.00000" pt_clust_7="13000.00000" pt_clust_8="13000.00000" pt_clust_9="297.53529"></scales>
<clustering>
<clus scale="   79.221">  5  6 -1 -1</clus>
<clus scale="   90.775">  7  8 -1 -1</clus>
<clus scale="  196.339">  2  7  1 -1</clus>
<clus scale="  297.535">  1  9  2 -1</clus>
<clus scale="  297.535">  1  5  2 -1</clus>
</clustering>
</event>
<event>
 9    2  0.1665830E-004  0.9776646E+02  0.7546771E-02  0.1286956E+00
          2   -1    0    0  502    0 -0.00000000000E+00  0.00000000000E+00  0.24329784639E+03  0.24329784639E+03  0.00000000000E+00 0. -1.
         21   -1    0    0  501  502  0.00000000000E+00 -0.00000000000E+00 -0.10004401808E+03  0.10004401808E+03  0.00000000000E+00 0. -1.
         23    2    1    2    0    0 -0.60225582854E+02  0.43122533728E+00  0.10740922185E+03  0.14956442351E+03  0.84885034346E+02 0.  0.
         24    2    1    2    0    0  0.80968613062E+01 -0.25489284059E+02 -0.43426816226E+02  0.95648605389E+02  0.80916652059E+02 0.  0.
        -13    1    4    4    0    0 -0.33560977316E+02  0.44267493599E+01 -0.19345019452E+02  0.38989294503E+02  0.00000000000E+00 0.  1.
         14    1    4    4    0    0  0.41657838622E+02 -0.29916033419E+02 -0.24081796774E+02  0.56659310885E+02  0.00000000000E+00 0. -1.
        -13    1    3    3    0    0 -0.30207343558E+02  0.39903912995E+02  0.32316123899E+02  0.59574640083E+02  0.00000000000E+00 0.  1.
         13    1    3    3    0    0 -0.30018239296E+02 -0.39472687657E+02  0.75093097951E+02  0.89989783427E+02  0.00000000000E+00 0. -1.
          1    1    1    2  501    0  0.52128721548E+02  0.25058058722E+02  0.79271422687E+02  0.98128835578E+02  0.00000000000E+00 0. -1.
<scales pt_clust_5="13000.00000" pt_clust_6="13000.00000" pt_clust_7="13000.00000" pt_clust_8="13000.00000" pt_clust_9="57.83868"></scales>
<clustering>
<clus scale="   57.839">  2  9  1 -1</clus>
<clus scale="   80.917">  5  6 -1 -1</clus>
<clus scale="   84.885">  7  8 -1 -1</clus>
<clus scale="   94.341">  2  5  1 -1</clus>
<clus scale="   57.839">  2  5  1 -1</clus>
</clustering>
</event>
<event>
 9    2  0.1686358E-004  0.1237584E+03  0.7546771E-02  0.1240919E+00
         -3   -1    0    0    0  501 -0.00000000000E+00  0.00000000000E+00  0.33385439594E+03  0.33385439594E+03  0.00000000000E+00 0.  1.
         21   -1    0    0  501  502  0.00000000000E+00 -0.00000000000E+00 -0.29965015328E+03  0.29965015328E+03  0.00000000000E+00 0.  1.
         23    2    1    2    0    0  0.33852072683E+02  0.78434889235E+02  0.29691618204E+03  0.32279261262E+03  0.93476504717E+02 0.  0.
         24    2    1    2    0    0 -0.11846523941E+02 -0.46738102518E+02 -0.78166610072E+02  0.12217570923E+03  0.80573535601E+02 0.  0.
        -11    1    4    4    0    0 -0.31566792124E+02  0.98365172396E+01 -0.19837427649E+02  0.38558306137E+02  0.00000000000E+00 0.  1.
         12    1    4    4    0    0  0.19720268183E+02 -0.56574619757E+02 -0.58329182423E+02  0.83617403093E+02  0.00000000000E+00 0. -1.
        -13    1    3    3    0    0 -0.46361501176E+01  0.80188156927E+02  0.24703069011E+03  0.25976103683E+03  0.00000000000E+00 0.  1.
         13    1    3    3    0    0  0.38488222801E+02 -0.17532676924E+01  0.49885491927E+02  0.63031575792E+02  0.00000000000E+00 0. -1.
         -4    1    1    2    0  502 -0.22005548742E+02 -0.31696786718E+02 -0.18454532931E+03  0.18853622738E+03  0.00000000000E+00 0.  1.
<scales pt_clust_5="13000.00000" pt_clust_6="13000.00000" pt_clust_7="13000.00000" pt_clust_8="13000.00000" pt_clust_9="38.58666"></scales>
<clustering>
<clus scale="   38.587">  2  9  1 -1</clus>
<clus scale="   80.574">  5  6 -1 -1</clus>
<clus scale="   93.477">  7  8 -1 -1</clus>
<clus scale="  114.326">  2  5  1 -1</clus>
<clus scale="   38.587">  2  5  1 -1</clus>
</clustering>
</event>
<event>
 9    2  0.1665830E-004  0.1404747E+03  0.7546771E-02  0.1230660E+00
         21   -1    0    0  501  502  0.00000000000E+00  0.00000000000E+00  0.40019581092E+02  0.40019581092E+02  0.00000000000E+00 0. -1.
          2   -1    0    0  502    0 -0.00000000000E+00 -0.00000000000E+00 -0.98278885379E+03  0.98278885379E+03  0.00000000000E+00 0. -1.
         24    2    1    2    0    0  0.37124590210E+02  0.40718153878E+02 -0.50309543616E+03  0.51225322966E+03  0.79133748513E+02 0.  0.
         23    2    1    2    0    0  0.84323138350E+02 -0.60393994881E+02 -0.20897031236E+03  0.24909621120E+03  0.87306956797E+02 0.  0.
        -11    1    3    3    0    0  0.22343833680E+02 -0.13215908948E+02 -0.56600023965E+02  0.62269333268E+02  0.00000000000E+00 0.  1.
         12    1    3    3    0    0  0.14780756530E+02  0.53934062826E+02 -0.44649541219E+03  0.44998389639E+03  0.00000000000E+00 0. -1.
        -11    1    4    4    0    0  0.61024529515E+02 -0.67586731084E+02 -0.91381826215E+02  0.12900619204E+03  0.00000000000E+00 0. -1.
         11    1    4    4    0    0  0.23298608834E+02  0.71927362030E+01 -0.11758848615E+03  0.12009001916E+03  0.00000000000E+00 0.  1.
          1    1    1    2  501    0 -0.12144772856E+03  0.19675841003E+02 -0.23070352417E+03  0.26145899403E+03  0.00000000000E+00 0. -1.
<scales pt_clust_5="13000.00000" pt_clust_6="13000.00000" pt_clust_7="13000.00000" pt_clust_8="13000.00000" pt_clust_9="110.04833"></scales>
<clustering>
<clus scale="   79.134">  5  6 -1 -1</clus>
<clus scale="   87.307">  7  8 -1 -1</clus>
<clus scale="   96.428">  2  5  1 -1</clus>
<clus scale="  110.048">  1  9  2 -1</clus>
<clus scale="  110.048">  1  5  2 -1</clus>
</clustering>
</event>
<event>
 9    2  0.1665830E-004  0.1116850E+03  0.7546771E-02  0.1261548E+00
         21   -1    0    0  501  502  0.00000000000E+00  0.00000000000E+00  0.12055274095E+03  0.12055274095E+03  0.00000000000E+00 0.  1.
          2   -1    0    0  502    0 -0.00000000000E+00 -0.00000000000E+00 -0.29593906216E+03  0.29593906216E+03  0.00000000000E+00 0. -1.
         24    2    1    2    0    0  0.54688947877E+02 -0.41501477742E+02 -0.23533833886E+03  0.25823892036E+03  0.81178522862E+02 0.  0.
         23    2    1    2    0    0 -0.33098444432E+02  0.20709033256E+02  0.10391732555E+02  0.10033313270E+03  0.91838871565E+02 0.  0.
        -13    1    3    3    0    0  0.50733661448E+02 -0.53259430115E+02 -0.11023825411E+03  0.13252525785E+03  0.00000000000E+00 0.  1.
         14    1    3    3    0    0  0.39552864290E+01  0.11757952373E+02 -0.12510008476E+03  0.12571366251E+03  0.00000000000E+00 0. -1.
        -11    1    4    4    0    0 -0.54729564348E+02 -0.41760834949E+01  0.29407774418E+02  0.62270234328E+02  0.00000000000E+00 0.  1.
         11    1    4    4    0    0  0.21631119916E+02  0.24885116750E+02 -0.19016041863E+02  0.38062898374E+02  0.00000000000E+00 0. -1.
          1    1    1    2  501    0 -0.21590503445E+02  0.20792444487E+02  0.49560285098E+02  0.57919750049E+02  0.00000000000E+00 0. -1.
<scales pt_clust_5="13000.00000" pt_clust_6="13000.00000" pt_clust_7="13000.00000" pt_clust_8="13000.00000" pt_clust_9="29.97458"></scales>
<clustering>
<clus scale="   29.975">  1  9  2 -1</clus>
<clus scale="   81.179">  5  6 -1 -1</clus>
<clus scale="   91.839">  7  8 -1 -1</clus>
<clus scale="  103.098">  2  5  1 -1</clus>
<clus scale="   29.975">  1  5  2 -1</clus>
</clustering>
</event>
<event>
 9    2  0.1665830E-004  0.9757778E+02  0.7546771E-02  0.1290716E+00
         21   -1    0    0  501  502  0.00000000000E+00  0.00000000000E+00  0.40955256184E+02  0.40955256184E+02  0.00000000000E+00 0. -1.
          4   -1    0    0  502    0 -0.00000000000E+00 -0.00000000000E+00 -0.47006073424E+03  0.47006073424E+03  0.00000000000E+00 0. -1.
         23    2    1    2    0    0  0.32389515086E+02  0.18506223018E+02 -0.33995391049E+03  0.35369277959E+03  0.90212859926E+02 0.  0.
         24    2    1    2    0    0 -0.18747432764E+02 -0.38306917005E+02 -0.33739221901E+02  0.96918724709E+02  0.80224796535E+02 0.  0.
        -13    1    4    4    0    0  0.25593481050E+02 -0.18445121512E+02 -0.36512426729E+02  0.48253560340E+02  0.00000000000E+00 0.  1.
         14    1    4    4    0    0 -0.44340913814E+02 -0.19861795493E+02  0.27732048281E+01  0.48665164369E+02  0.00000000000E+00 0. -1.
        -11    1    3    3    0    0  0.23626906938E+02  0.54915084370E+02 -0.19332024950E+03  0.20235270221E+03  0.00000000000E+00 0.  1.
         11    1    3    3    0    0  0.87626081477E+01 -0.36408861352E+02 -0.14663366099E+03  0.15134007738E+03  0.00000000000E+00 0. -1.
          3    1    1    2  501    0 -0.13642082322E+02  0.19800693986E+02 -0.55412345665E+02  0.60404486129E+02  0.00000000000E+00 0. -1.
<scales pt_clust_5="13000.00000" pt_clust_6="13000.00000" pt_clust_7="13000.00000" pt_clust_8="13000.00000" pt_clust_9="24.04526"></scales>
<clustering>
<clus scale="   24.045">  1  9  2 -1</clus>
<clus scale="   80.225">  5  6 -1 -1</clus>
<clus scale="   88.426">  1  5  2 -1</clus>
<clus scale="   90.213">  7  8 -1 -1</clus>
<clus scale="   24.045">  1  5  2 -1</clus>
</clustering>
</event>
<event>
 9    2  0.1665830E-004  0.1047138E+03  0.7546771E-02  0.1275494E+00
         21   -1    0    0  501  502  0.00000000000E+00  0.00000000000E+00  0.43149090680E+03  0.43149090680E+03  0.00000000000E+00 0.  1.
          2   -1    0    0  502    0 -0.00000000000E+00 -0.00000000000E+00 -0.60107692560E+02  0.60107692560E+02  0.00000000000E+00 0. -1.
         23    2    1    2    0    0 -0.47592326650E+02  0.91835213771E+01  0.12079895106E+02  0.10339285235E+03  0.90525087299E+02 0.  0.
         24    2    1    2    0    0  0.67104406251E+02 -0.38518840303E+02  0.28827425792E+03  0.30891886459E+03  0.79637395263E+02 0.  0.
        -13    1    4    4    0    0  0.30152905828E+02 -0.50640335127E+02  0.95202012352E+02  0.11196903334E+03  0.00000000000E+00 0.  1.
         14    1    4    4    0    0  0.36951500423E+02  0.12121494824E+02  0.19307224557E+03  0.19694983125E+03  0.00000000000E+00 0. -1.
        -13    1    3    3    0    0 -0.66838814499E+02 -0.17386729236E+02  0.14229611940E+02  0.70513880428E+02  0.00000000000E+00 0. -1.
         13    1    3    3    0    0  0.19246487849E+02  0.26570250613E+02 -0.21497168340E+01  0.32878971921E+02  0.00000000000E+00 0.  1.
          1    1    1    2  501    0 -0.19512079601E+02  0.29335318926E+02  0.71029061206E+02  0.79286882412E+02  0.00000000000E+00 0. -1.
<scales pt_clust_5="13000.00000" pt_clust_6="13000.00000" pt_clust_7="13000.00000" pt_clust_8="13000.00000" pt_clust_9="35.23183"></scales>
<clustering>
<clus scale="   35.232">  1  9  2 -1</clus>
<clus scale="   79.637">  5  6 -1 -1</clus>
<clus scale="   90.525">  7  8 -1 -1</clus>
<clus scale="   95.458">  1  5  2 -1</clus>
<clus scale="   35.232">  1  5  2 -1</clus>
</clustering>
</event>
<event>
 9    2  0.1665830E-004  0.1061515E+03  0.7546771E-02  0.1272533E+00
         21   -1    0    0  501  502  0.00000000000E+00  0.00000000000E+00  0.20388252122E+03  0.20388252122E+03  0.00000000000E+00 0. -1.
          2   -1    0    0  502    0 -0.00000000000E+00 -0.00000000000E+00 -0.14910810213E+03  0.14910810213E+03  0.00000000000E+00 0. -1.
         24    2    1    2    0    0 -0.58487757968E+02  0.37113627454E+02 -0.56912899262E+02  0.12035659292E+03  0.80301881565E+02 0.  0.
         23    2    1    2    0    0  0.28905428173E+02 -0.20135722213E+02 -0.17277231021E+02  0.99235310427E+02  0.91149180121E+02 0.  0.
        -13    1    3    3    0    0 -0.17808883966E+02  0.12103687133E+02  0.20285408795E+02  0.29582991740E+02  0.00000000000E+00 0.  1.
         14    1    3    3    0    0 -0.40678874001E+02  0.25009940321E+02 -0.77198308057E+02  0.90773601183E+02  0.00000000000E+00 0. -1.
        -13    1    4    4    0    0 -0.19154100274E+02 -0.10663701895E+02 -0.39709594541E+02  0.45359078408E+02  0.00000000000E+00 0. -1.
         13    1    4    4    0    0  0.48059528447E+02 -0.94720203184E+01  0.22432363520E+02  0.53876232019E+02  0.00000000000E+00 0.  1.
          1    1    1    2  501    0  0.29582329794E+02 -0.16977905241E+02  0.12896454937E+03  0.13339872000E+03  0.00000000000E+00 0. -1.
<scales pt_clust_5="13000.00000" pt_clust_6="13000.00000" pt_clust_7="13000.00000" pt_clust_8="13000.00000" pt_clust_9="34.10811"></scales>
<clustering>
<clus scale="   34.108">  1  9  2 -1</clus>
<clus scale="   80.302">  5  6 -1 -1</clus>
<clus scale="   91.149">  7  8 -1 -1</clus>
<clus scale="   96.997">  2  5  1 -1</clus>
<clus scale="   34.108">  1  5  2 -1</clus>
</clustering>
</event>
<event>
 9    2  0.1665830E-004  0.1442298E+03  0.7546771E-02  0.1215042E+00
          2   -1    0    0  502    0 -0.00000000000E+00  0.00000000000E+00  0.50784614418E+02  0.50784614418E+02  0.00000000000E+00 0. -1.
         21   -1    0    0  501  502  0.00000000000E+00 -0.00000000000E+00 -0.76584046587E+03  0.76584046587E+03  0.00000000000E+00 0. -1.
         23    2    1    2    0    0 -0.66591628394E+02 -0.43641633232E+02 -0.24141356951E+03  0.27685020246E+03  0.10966533606E+03 0.  0.
         24    2    1    2    0    0  0.12190676307E+03  0.23089665240E+02 -0.45417095856E+03  0.47763567968E+03  0.80437499836E+02 0.  0.
        -11    1    4    4    0    0  0.12832756594E+03  0.35190472056E+02 -0.39185155041E+03  0.41382843192E+03  0.00000000000E+00 0.  1.
         12    1    4    4    0    0 -0.64208028647E+01 -0.12100806817E+02 -0.62319408149E+02  0.63807247763E+02  0.00000000000E+00 0. -1.
        -13    1    3    3    0    0 -0.79754639923E+02 -0.69431067296E+02 -0.20123407464E+03  0.22732494032E+03  0.00000000000E+00 0.  1.
         13    1    3    3    0    0  0.13163011529E+02  0.25789434064E+02 -0.40179494871E+02  0.49525262139E+02  0.00000000000E+00 0. -1.
          1    1    1    2  501    0 -0.55315134680E+02  0.20551967992E+02 -0.19471323388E+02  0.62139198156E+02  0.00000000000E+00 0. -1.
<scales pt_clust_5="13000.00000" pt_clust_6="13000.00000" pt_clust_7="13000.00000" pt_clust_8="13000.00000" pt_clust_9="59.00975"></scales>
<clustering>
<clus scale="   59.010">  2  9  1 -1</clus>
<clus scale="   80.437">  5  6 -1 -1</clus>
<clus scale="  109.665">  7  8 -1 -1</clus>
<clus scale="  123.474">  2  5  1 -1</clus>
<clus scale="   59.010">  2  5  1 -1</clus>
</clustering>
</event>
<event>
 9    2  0.1665830E-004  0.1586103E+03  0.7546771E-02  0.1199972E+00
         21   -1    0    0  501  502  0.00000000000E+00  0.00000000000E+00  0.34056640445E+02  0.34056640445E+02  0.00000000000E+00 0. -1.
          2   -1    0    0  502    0 -0.00000000000E+00 -0.00000000000E+00 -0.22269372304E+04  0.22269372304E+04  0.00000000000E+00 0. -1.
         24    2    1    2    0    0 -0.53180295610E+02  0.96944452225E+02 -0.15625817619E+04  0.15686483912E+04  0.82277833603E+02 0.  0.
         23    2    1    2    0    0 -0.51220523451E+02 -0.33632704791E+02 -0.18868739618E+03  0.23416585860E+03  0.12440263263E+03 0.  0.
        -13    1    3    3    0    0 -0.13948028387E+02  0.22994963108E+02 -0.96472592995E+02  0.10015127070E+03  0.00000000000E+00 0.  1.
         14    1    3    3    0    0 -0.39232267224E+02  0.73949489118E+02 -0.14661091689E+04  0.14684971205E+04  0.00000000000E+00 0. -1.
        -11    1    4    4    0    0 -0.92743485191E+00 -0.20091697288E+02  0.14251164721E+02  0.24650195359E+02  0.00000000000E+00 0.  1.
         11    1    4    4    0    0 -0.50293088599E+02 -0.13541007503E+02 -0.20293856090E+03  0.20951566324E+03  0.00000000000E+00 0. -1.
          1    1    1    2  501    0  0.10440081906E+03 -0.63311747434E+02 -0.44161143192E+03  0.45817962110E+03  0.00000000000E+00 0. -1.
<scales pt_clust_5="13000.00000" pt_clust_6="13000.00000" pt_clust_7="13000.00000" pt_clust_8="13000.00000" pt_clust_9="122.09795"></scales>
<clustering>
<clus scale="   82.278">  5  6 -1 -1</clus>
<clus scale="  122.098">  1  9  2 -1</clus>
<clus scale="  124.403">  7  8 -1 -1</clus>
<clus scale="  128.261">  2  5  1 -1</clus>
<clus scale="  122.098">  1  5  2 -1</clus>
</clustering>
</event>
<event>
 9    2  0.1665830E-004  0.1265968E+03  0.7546771E-02  0.1235389E+00
         -1   -1    0    0    0  501 -0.00000000000E+00  0.00000000000E+00  0.22823148607E+03  0.22823148607E+03  0.00000000000E+00 0.  1.
         21   -1    0    0  501  502  0.00000000000E+00 -0.00000000000E+00 -0.38171502132E+03  0.38171502132E+03  0.00000000000E+00 0. -1.
         23    2    1    2    0    0 -0.10417092954E+02  0.89574165072E+02  0.18445456380E+03  0.22404481230E+03  0.89669085747E+02 0.  0.
         24    2    1    2    0    0 -0.28433127430E+02 -0.85627111246E+02 -0.14165365324E+03  0.18577048182E+03  0.79400689689E+02 0.  0.
        -11    1    4    4    0    0  0.25421739514E+02 -0.48438834905E+02 -0.62251845976E+02  0.82872660717E+02  0.00000000000E+00 0.  1.
         12    1    4    4    0    0 -0.53854866944E+02 -0.37188276340E+02 -0.79401807263E+02  0.10289782110E+03  0.00000000000E+00 0. -1.
        -13    1    3    3    0    0  0.38445260354E+02  0.35501572646E+02  0.96901422459E+02  0.11012849485E+03  0.00000000000E+00 0.  1.
         13    1    3    3    0    0 -0.48862353307E+02  0.54072592427E+02  0.87553141340E+02  0.11391631745E+03  0.00000000000E+00 0. -1.
         -2    1    1    2    0  502  0.38850220384E+02 -0.39470538267E+01 -0.19628444581E+03  0.20013121327E+03  0.00000000000E+00 0.  1.
<scales pt_clust_5="13000.00000" pt_clust_6="13000.00000" pt_clust_7="13000.00000" pt_clust_8="13000.00000" pt_clust_9="39.05021"></scales>
<clustering>
<clus scale="   39.050">  2  9  1 -1</clus>
<clus scale="   79.401">  5  6 -1 -1</clus>
<clus scale="   89.669">  7  8 -1 -1</clus>
<clus scale="  119.544">  2  5  1 -1</clus>
<clus scale="   39.050">  2  5  1 -1</clus>
</clustering>
</event>
<event>
 9    2  0.1665830E-004  0.1504067E+03  0.7546771E-02  0.1202573E+00
         -1   -1    0    0    0  501 -0.00000000000E+00  0.00000000000E+00  0.22103745664E+03  0.22103745664E+03  0.00000000000E+00 0.  1.
         21   -1    0    0  501  502  0.00000000000E+00 -0.00000000000E+00 -0.20667271844E+03  0.20667271844E+03  0.00000000000E+00 0.  1.
         24    2    1    2    0    0 -0.87255162432E+02  0.44623225442E+02  0.81365451040E+01  0.12818297858E+03  0.82219079370E+02 0.  0.
         23    2    1    2    0    0  0.15685297760E+03  0.41122675701E+02  0.13860824076E+02  0.18882727556E+03  0.95758480104E+02 0.  0.
        -13    1    3    3    0    0 -0.65835750642E+02  0.66933938016E+02  0.18250517862E+02  0.95642979476E+02  0.00000000000E+00 0.  1.
         14    1    3    3    0    0 -0.21419411789E+02 -0.22310712573E+02 -0.10113972758E+02  0.32539999107E+02  0.00000000000E+00 0. -1.
        -11    1    4    4    0    0  0.79143951446E+02  0.36763916287E+02 -0.38125677334E+02  0.95230866128E+02  0.00000000000E+00 0. -1.
         11    1    4    4    0    0  0.77709026156E+02  0.43587594136E+01  0.51986501410E+02  0.93596409432E+02  0.00000000000E+00 0.  1.
         -2    1    1    2    0  502 -0.69597815171E+02 -0.85745901143E+02 -0.76326309777E+01  0.11069992094E+03  0.00000000000E+00 0.  1.
<scales pt_clust_5="13000.00000" pt_clust_6="13000.00000" pt_clust_7="13000.00000" pt_clust_8="13000.00000" pt_clust_9="110.43648"></scales>
<clustering>
<clus scale="   82.219">  5  6 -1 -1</clus>
<clus scale="   95.758">  7  8 -1 -1</clus>
<clus scale="  110.436">  2  9  1 -1</clus>
<clus scale="  142.171">  1  5  2 -1</clus>
<clus scale="  110.436">  2  5  1 -1</clus>
</clustering>
</event>
<event>
 9    2  0.1665830E-004  0.2647779E+03  0.7546771E-02  0.1110350E+00
         -3   -1    0    0    0  501 -0.00000000000E+00  0.00000000000E+00  0.46103074200E+03  0.46103074200E+03  0.00000000000E+00 0.  1.
         21   -1    0    0  501  502  0.00000000000E+00 -0.00000000000E+00 -0.34537365253E+03  0.34537365253E+03  0.00000000000E+00 0.  1.
         23    2    1    2    0    0 -0.16942758099E+02  0.20703624178E+03  0.71918900456E+02  0.23795377388E+03  0.91096694765E+02 0.  0.
         24    2    1    2    0    0  0.25254216811E+03 -0.19427290761E+03  0.44682347169E+02  0.33250385519E+03  0.83921345707E+02 0.  0.
        -13    1    4    4    0    0  0.18444937705E+03 -0.16169447471E+03  0.66100153278E+02  0.25403918223E+03  0.00000000000E+00 0.  1.
         14    1    4    4    0    0  0.68092791057E+02 -0.32578432901E+02 -0.21417806109E+02  0.78464672960E+02  0.00000000000E+00 0. -1.
        -11    1    3    3    0    0  0.24565961249E+02  0.15174857308E+03  0.28582577054E+02  0.15635881682E+03  0.00000000000E+00 0.  1.
         11    1    3    3    0    0 -0.41508719347E+02  0.55287668694E+02  0.43336323402E+02  0.81594957059E+02  0.00000000000E+00 0. -1.
         -4    1    1    2    0  502 -0.23559941001E+03 -0.12763334171E+02 -0.94415815420E+00  0.23594676546E+03  0.00000000000E+00 0.  1.
<scales pt_clust_5="13000.00000" pt_clust_6="13000.00000" pt_clust_7="13000.00000" pt_clust_8="13000.00000" pt_clust_9="251.12650"></scales>
<clustering>
<clus scale="   83.921">  5  6 -1 -1</clus>
<clus scale="   91.097">  7  8 -1 -1</clus>
<clus scale="  226.825">  1  7  2 -1</clus>
<clus scale="  251.126">  2  9  1 -1</clus>
<clus scale="  251.126">  2  5  1 -1</clus>
</clustering>
</event>
<event>
 9    2  0.1665830E-004  0.1345908E+03  0.7546771E-02  0.1224582E+00
         -3   -1    0    0    0  501 -0.00000000000E+00  0.00000000000E+00  0.15204814939E+03  0.15204814939E+03  0.00000000000E+00 0.  1.
         21   -1    0    0  501  502  0.00000000000E+00 -0.00000000000E+00 -0.36712962001E+03  0.36712962001E+03  0.00000000000E+00 0. -1.
         23    2    1    2    0    0 -0.11889807808E+02 -0.79950575993E+02  0.50942024261E+02  0.13438584406E+03  0.94503984655E+02 0.  0.
         24    2    1    2    0    0 -0.10588303468E+03  0.33089964833E+02 -0.20119003976E+03  0.24242010155E+03  0.77355741427E+02 0.  0.
        -11    1    4    4    0    0 -0.29496171169E+02  0.42932249519E+02 -0.47420682858E+02  0.70440920814E+02  0.00000000000E+00 0.  1.
         12    1    4    4    0    0 -0.76386863515E+02 -0.98422846861E+01 -0.15376935690E+03  0.17197918074E+03  0.00000000000E+00 0. -1.
        -13    1    3    3    0    0 -0.14948568525E+02  0.16683974530E+02  0.26425769412E+02  0.34642979030E+02  0.00000000000E+00 0. -1.
         13    1    3    3    0    0  0.30587607170E+01 -0.96634550523E+02  0.24516254848E+02  0.99742865027E+02  0.00000000000E+00 0.  1.
         -4    1    1    2    0  502  0.11777284249E+03  0.46860611160E+02 -0.64833455121E+02  0.14237182379E+03  0.00000000000E+00 0.  1.
<scales pt_clust_5="13000.00000" pt_clust_6="13000.00000" pt_clust_7="13000.00000" pt_clust_8="13000.00000" pt_clust_9="110.13990"></scales>
<clustering>
<clus scale="   77.356">  5  6 -1 -1</clus>
<clus scale="   94.504">  7  8 -1 -1</clus>
<clus scale="  124.356">  1  7  2 -1</clus>
<clus scale="  110.140">  2  9  1 -1</clus>
<clus scale="  110.140">  2  5  1 -1</clus>
</clustering>
</event>
<event>
 9    2  0.1665830E-004  0.1062061E+03  0.7546771E-02  0.1272374E+00
          2   -1    0    0  502    0 -0.00000000000E+00  0.00000000000E+00  0.64357061834E+03  0.64357061834E+03  0.00000000000E+00 0. -1.
         21   -1    0    0  501  502  0.00000000000E+00 -0.00000000000E+00 -0.29523098519E+02  0.29523098519E+02  0.00000000000E+00 0. -1.
         24    2    1    2    0    0 -0.61218101010E+02  0.17308798641E+02  0.46801846840E+03  0.47894284030E+03  0.79358094211E+02 0.  0.
         23    2    1    2    0    0  0.29479152155E+02 -0.11209249203E+02  0.11137295788E+03  0.14676300682E+03  0.90226253087E+02 0.  0.
        -11    1    3    3    0    0 -0.12094857137E+02  0.43940936940E+02  0.22728758543E+03  0.23181185906E+03  0.00000000000E+00 0.  1.
         12    1    3    3    0    0 -0.49123243873E+02 -0.26632138299E+02  0.24073088297E+03  0.24713098125E+03  0.00000000000E+00 0. -1.
        -11    1    4    4    0    0  0.21630778015E+02 -0.36801011088E+02  0.12718836438E+02  0.44541820517E+02  0.00000000000E+00 0. -1.
         11    1    4    4    0    0  0.78483741403E+01  0.25591761884E+02  0.98654121440E+02  0.10222118631E+03  0.00000000000E+00 0.  1.
          1    1    1    2  501    0  0.31738948855E+02 -0.60995494378E+01  0.34656093547E+02  0.47387869731E+02  0.00000000000E+00 0. -1.
<scales pt_clust_5="13000.00000" pt_clust_6="13000.00000" pt_clust_7="13000.00000" pt_clust_8="13000.00000" pt_clust_9="32.31974"></scales>
<clustering>
<clus scale="   32.320">  2  9  1 -1</clus>
<clus scale="   79.358">  5  6 -1 -1</clus>
<clus scale="   90.226">  7  8 -1 -1</clus>
<clus scale="   97.142">  1  5  2 -1</clus>
<clus scale="   32.320">  2  5  1 -1</clus>
</clustering>
</event>
<event>
 9    2  0.1665830E-004  0.1475899E+03  0.7546771E-02  0.1206210E+00
         21   -1    0    0  501  502  0.00000000000E+00  0.00000000000E+00  0.12189476373E+03  0.12189476373E+03  0.00000000000E+00 0. -1.
          2   -1    0    0  502    0 -0.00000000000E+00 -0.00000000000E+00 -0.54227388295E+03  0.54227388295E+03  0.00000000000E+00 0. -1.
         24    2    1    2    0    0 -0.81908441785E+02  0.81430008647E+02 -0.24869471140E+03  0.28491725036E+03  0.77388248038E+02 0.  0.
         23    2    1    2    0    0  0.39862572060E+02 -0.12155939198E+03  0.37760110078E+02  0.16189172055E+03  0.91746350559E+02 0.  0.
        -13    1    3    3    0    0 -0.38825538556E+02  0.86041760471E+02 -0.15149617739E+03  0.17849845589E+03  0.00000000000E+00 0.  1.
         14    1    3    3    0    0 -0.43082903229E+02 -0.46117518247E+01 -0.97198534003E+02  0.10641879448E+03  0.00000000000E+00 0. -1.
        -11    1    4    4    0    0  0.17105181551E+01 -0.28466001374E+02 -0.29375327510E+02  0.40940798391E+02  0.00000000000E+00 0.  1.
         11    1    4    4    0    0  0.38152053905E+02 -0.93093390602E+02  0.67135437588E+02  0.12095092216E+03  0.00000000000E+00 0. -1.
          1    1    1    2  501    0  0.42045869725E+02  0.40129383329E+02 -0.20944451790E+03  0.21735967576E+03  0.00000000000E+00 0. -1.
<scales pt_clust_5="13000.00000" pt_clust_6="13000.00000" pt_clust_7="13000.00000" pt_clust_8="13000.00000" pt_clust_9="58.12251"></scales>
<clustering>
<clus scale="   58.123">  1  9  2 -1</clus>
<clus scale="   77.388">  5  6 -1 -1</clus>
<clus scale="   91.746">  7  8 -1 -1</clus>
<clus scale="  139.120">  2  5  1 -1</clus>
<clus scale="   58.123">  1  5  2 -1</clus>
</clustering>
</event>
<event>
 9    2  0.1665830E-004  0.1815677E+03  0.7546771E-02  0.1167786E+00
         -3   -1    0    0    0  501 -0.00000000000E+00  0.00000000000E+00  0.37100152307E+03  0.37100152307E+03  0.00000000000E+00 0.  1.
         21   -1    0    0  501  502  0.00000000000E+00 -0.00000000000E+00 -0.35149721516E+03  0.35149721516E+03  0.00000000000E+00 0. -1.
         23    2    1    2    0    0  0.12720824587E+03 -0.91902266612E+02  0.30361524718E+03  0.35378298583E+03  0.91390471708E+02 0.  0.
         24    2    1    2    0    0 -0.15710568046E+03  0.48340849119E+02 -0.21881713857E+03  0.28472328785E+03  0.78532655532E+02 0.  0.
        -11    1    4    4    0    0 -0.17861359357E+02 -0.11554643184E+02 -0.37410089787E+01  0.21599376967E+02  0.00000000000E+00 0.  1.
         12    1    4    4    0    0 -0.13924432110E+03  0.59895492303E+02 -0.21507612959E+03  0.26312391088E+03  0.00000000000E+00 0. -1.
        -13    1    3    3    0    0  0.33767998211E+02 -0.80403186101E+02  0.13668903391E+03  0.16213834226E+03  0.00000000000E+00 0.  1.
         13    1    3    3    0    0  0.93440247655E+02 -0.11499080511E+02  0.16692621327E+03  0.19164464358E+03  0.00000000000E+00 0. -1.
         -4    1    1    2    0  502  0.29897434595E+02  0.43561417493E+02 -0.65293800704E+02  0.83992464541E+02  0.00000000000E+00 0.  1.
<scales pt_clust_5="13000.00000" pt_clust_6="13000.00000" pt_clust_7="13000.00000" pt_clust_8="13000.00000" pt_clust_9="52.83421"></scales>
<clustering>
<clus scale="   52.834">  2  9  1 -1</clus>
<clus scale="   78.533">  5  6 -1 -1</clus>
<clus scale="   91.390">  7  8 -1 -1</clus>
<clus scale="  175.448">  2  5  1 -1</clus>
<clus scale="   52.834">  2  5  1 -1</clus>
</clustering>
</event>
<event>
 9    2  0.1665830E-004  0.9375407E+02  0.7546771E-02  0.1296332E+00
         -1   -1    0    0    0  501 -0.00000000000E+00  0.00000000000E+00  0.25867076933E+03  0.25867076933E+03  0.00000000000E+00 0.  1.
         21   -1    0    0  501  502  0.00000000000E+00 -0.00000000000E+00 -0.82323082447E+02  0.82323082447E+02  0.00000000000E+00 0.  1.
         23    2    1    2    0    0 -0.56749588758E+02 -0.33147776773E+02  0.85362276755E+02  0.13931933313E+03  0.88339500576E+02 0.  0.
         24    2    1    2    0    0  0.39287947408E+01 -0.39462995445E+02  0.40326689901E+02  0.98579094609E+02  0.80739287449E+02 0.  0.
        -13    1    4    4    0    0  0.28536423642E+02 -0.22270220553E+02  0.54465641299E+02  0.65397219206E+02  0.00000000000E+00 0.  1.
         14    1    4    4    0    0 -0.24607628901E+02 -0.17192774892E+02 -0.14138951397E+02  0.33181875403E+02  0.00000000000E+00 0. -1.
        -11    1    3    3    0    0 -0.10145293893E+02 -0.50988628734E+02  0.69826183315E+02  0.87054368786E+02  0.00000000000E+00 0. -1.
         11    1    3    3    0    0 -0.46604294865E+02  0.17840851962E+02  0.15536093440E+02  0.52264964344E+02  0.00000000000E+00 0.  1.
         -2    1    1    2    0  502  0.52820794017E+02  0.72610772218E+02  0.50658720230E+02  0.10309542404E+03  0.00000000000E+00 0.  1.
<scales pt_clust_5="13000.00000" pt_clust_6="13000.00000" pt_clust_7="13000.00000" pt_clust_8="13000.00000" pt_clust_9="89.79065"></scales>
<clustering>
<clus scale="   80.739">  5  6 -1 -1</clus>
<clus scale="   88.340">  7  8 -1 -1</clus>
<clus scale="   89.791">  2  9  1 -1</clus>
<clus scale="   89.791">  2  5  1 -1</clus>
<clus scale="   89.791">  2  5  1 -1</clus>
</clustering>
</event>
<event>
 9    2  0.1665830E-004  0.1297160E+03  0.7546771E-02  0.1240030E+00
         21   -1    0    0  501  502  0.00000000000E+00  0.00000000000E+00  0.52498447874E+02  0.52498447874E+02  0.00000000000E+00 0. -1.
          2   -1    0    0  502    0 -0.00000000000E+00 -0.00000000000E+00 -0.59483823894E+03  0.59483823894E+03  0.00000000000E+00 0. -1.
         24    2    1    2    0    0 -0.50402995726E+02  0.30465886302E+02 -0.28260819534E+03  0.30014589821E+03  0.82167730495E+02 0.  0.
         23    2    1    2    0    0 -0.31894906525E+02  0.46411621580E+02 -0.17820331431E+03  0.20815857434E+03  0.91663772337E+02 0.  0.
        -13    1    3    3    0    0 -0.49722396303E+02 -0.17756776139E+02 -0.15324479947E+03  0.16208512689E+03  0.00000000000E+00 0.  1.
         14    1    3    3    0    0 -0.68059942306E+00  0.48222662442E+02 -0.12936339586E+03  0.13806077132E+03  0.00000000000E+00 0. -1.
        -11    1    4    4    0    0 -0.61662988181E+02  0.25529821286E+02 -0.84701740414E+02  0.10783543349E+03  0.00000000000E+00 0. -1.
         11    1    4    4    0    0  0.29768081655E+02  0.20881800294E+02 -0.93501573894E+02  0.10032314085E+03  0.00000000000E+00 0.  1.
          1    1    1    2  501    0  0.82297902252E+02 -0.76877507883E+02 -0.81528281427E+02  0.13903221427E+03  0.00000000000E+00 0. -1.
<scales pt_clust_5="13000.00000" pt_clust_6="13000.00000" pt_clust_7="13000.00000" pt_clust_8="13000.00000" pt_clust_9="91.78234"></scales>
<clustering>
<clus scale="   82.168">  5  6 -1 -1</clus>
<clus scale="   91.664">  7  8 -1 -1</clus>
<clus scale="  101.095">  2  5  1 -1</clus>
<clus scale="   91.782">  1  9  2 -1</clus>
<clus scale="   91.782">  1  5  2 -1</clus>
</clustering>
</event>
<event>
 9    2  0.1665830E-004  0.3012091E+03  0.7546771E-02  0.1085226E+00
          2   -1    0    0  502    0 -0.00000000000E+00  0.00000000000E+00  0.23017479779E+04  0.23017479779E+04  0.00000000000E+00 0. -1.
         21   -1    0    0  501  502  0.00000000000E+00 -0.00000000000E+00 -0.99672309344E+02  0.99672309344E+02  0.00000000000E+00 0.  1.
         24    2    1    2    0    0 -0.28512396609E+03  0.28624461532E+02  0.19937587351E+04  0.20158593068E+04  0.80621431413E+02 0.  0.
         23    2    1    2    0    0  0.27758466056E+03 -0.84124447208E+01  0.21354895251E+03  0.36336321539E+03  0.96465839445E+02 0.  0.
        -11    1    3    3    0    0 -0.41593007658E+02  0.15747042868E+01  0.14247297951E+03  0.14842846044E+03  0.00000000000E+00 0.  1.
         12    1    3    3    0    0 -0.24353095844E+03  0.27049757245E+02  0.18512857556E+04  0.18674308463E+04  0.00000000000E+00 0. -1.
        -13    1    4    4    0    0  0.50491374297E+02 -0.10922953211E+02  0.92655053184E+02  0.10608321576E+03  0.00000000000E+00 0. -1.
         13    1    4    4    0    0  0.22709328626E+03  0.25105084901E+01  0.12089389932E+03  0.25727999963E+03  0.00000000000E+00 0.  1.
          1    1    1    2  501    0  0.75393055350E+01 -0.20212016811E+02 -0.52320190186E+01  0.22197765079E+02  0.00000000000E+00 0. -1.
<scales pt_clust_5="13000.00000" pt_clust_6="13000.00000" pt_clust_7="13000.00000" pt_clust_8="13000.00000" pt_clust_9="21.57236"></scales>
<clustering>
<clus scale="   21.572">  2  9  1 -1</clus>
<clus scale="   80.621">  5  6 -1 -1</clus>
<clus scale="   96.466">  7  8 -1 -1</clus>
<clus scale="  296.515">  1  5  2 -1</clus>
<clus scale="   21.572">  2  5  1 -1</clus>
</clustering>
</event>
<event>
 9    2  0.1665830E-004  0.1269796E+03  0.7546771E-02  0.1250670E+00
          2   -1    0    0  502    0 -0.00000000000E+00  0.00000000000E+00  0.83731429395E+03  0.83731429395E+03  0.00000000000E+00 0. -1.
         21   -1    0    0  501  502  0.00000000000E+00 -0.00000000000E+00 -0.34284341099E+02  0.34284341099E+02  0.00000000000E+00 0. -1.
         24    2    1    2    0    0 -0.36580665942E+00  0.32847603069E+02  0.10605469628E+03  0.13716883935E+03  0.80551803478E+02 0.  0.
         23    2    1    2    0    0 -0.20667848907E+01  0.64389736097E+02  0.52678656025E+03  0.53840630225E+03  0.90702571771E+02 0.  0.
        -11    1    3    3    0    0 -0.37452527312E+02  0.17025491383E+02  0.77559320887E+02  0.87795258502E+02  0.00000000000E+00 0.  1.
         12    1    3    3    0    0  0.37086720653E+02  0.15822111686E+02  0.28495375393E+02  0.49373580848E+02  0.00000000000E+00 0. -1.
        -13    1    4    4    0    0  0.68968706363E+01  0.83526323317E+02  0.47721187488E+03  0.48451562105E+03  0.00000000000E+00 0.  1.
         13    1    4    4    0    0 -0.89636555269E+01 -0.19136587220E+02  0.49574685373E+02  0.53890681204E+02  0.00000000000E+00 0. -1.
          1    1    1    2  501    0  0.24325915501E+01 -0.97237339166E+02  0.17018869632E+03  0.19602349345E+03  0.00000000000E+00 0. -1.
<scales pt_clust_5="13000.00000" pt_clust_6="13000.00000" pt_clust_7="13000.00000" pt_clust_8="13000.00000" pt_clust_9="88.86436"></scales>
<clustering>
<clus scale="   80.552">  5  6 -1 -1</clus>
<clus scale="   86.993">  1  5  2 -1</clus>
<clus scale="   88.864">  2  9  1 -1</clus>
<clus scale="   90.703">  7  8 -1 -1</clus>
<clus scale="   88.864">  2  5  1 -1</clus>
</clustering>
</event>
