<event>
 9    2  0.4653788E-005  0.9442032E+02  0.7546771E-02  0.1299452E+00
          2   -1    0    0  502    0 -0.00000000000E+00  0.00000000000E+00  0.46229999726E+03  0.46229999726E+03  0.00000000000E+00 0. -1.
         21   -1    0    0  501  502  0.00000000000E+00 -0.00000000000E+00 -0.56094369071E+02  0.56094369071E+02  0.00000000000E+00 0. -1.
         24    2    1    2    0    0  0.50077460973E+01  0.20096191708E+02  0.22149657835E+03  0.23650601916E+03  0.80283425650E+02 0.  0.
         23    2    1    2    0    0 -0.39811137436E+02 -0.86819960526E+01  0.75261031377E+01  0.10095919941E+03  0.92064184115E+02 0.  0.
        -11    1    3    3    0    0 -0.24331516782E+02  0.31760476642E+02  0.61116906930E+02  0.73048113583E+02  0.00000000000E+00 0.  1.
         12    1    3    3    0    0  0.29339262879E+02 -0.11664284934E+02  0.16037967142E+03  0.16345790558E+03  0.00000000000E+00 0. -1.
        -13    1    4    4    0    0 -0.28573397140E+02 -0.40676401361E+02  0.32018410836E+02  0.59128565722E+02  0.00000000000E+00 0.  1.
         13    1    4    4    0    0 -0.11237740296E+02  0.31994405309E+02 -0.24492307698E+02  0.41830633684E+02  0.00000000000E+00 0. -1.
          1    1    1    2  501    0  0.34803391339E+02 -0.11414195655E+02  0.17718294670E+03  0.18092914777E+03  0.00000000000E+00 0. -1.
<scales pt_clust_5="13000.00000" pt_clust_6="13000.00000" pt_clust_7="13000.00000" pt_clust_8="13000.00000" pt_clust_9="36.62733"></scales>
<clustering>
<clus scale="   36.627">  2  9  1 -1</clus>
<clus scale="   80.283">  5  6 -1 -1</clus>
<clus scale="   82.975">  1  5  2 -1</clus>
<clus scale="   92.064">  7  8 -1 -1</clus>
<clus scale="   36.627">  2  5  1 -1</clus>
</clustering>
</event>
<event>
 9    2  0.4653788E-005  0.9903440E+02  0.7546771E-02  0.1290459E+00
         21   -1    0    0  501  502  0.00000000000E+00  0.00000000000E+00  0.20941056835E+02  0.20941056835E+02  0.00000000000E+00 0. -1.
         -1   -1    0    0    0  501 -0.00000000000E+00 -0.00000000000E+00 -0.52928758204E+03  0.52928758204E+03  0.00000000000E+00 0.  1.
         23    2    1    2    0    0 -0.22258135074E+02  0.33985945328E+02 -0.30443710367E+03  0.32075650023E+03  0.92478718053E+02 0.  0.
         24    2    1    2    0    0  0.83000777936E+00 -0.32060785821E+02 -0.16603715019E+03  0.18591551096E+03  0.77250625056E+02 0.  0.
        -11    1    4    4    0    0  0.34554001775E+02 -0.33371772366E+02 -0.11607339400E+03  0.12562120452E+03  0.00000000000E+00 0.  1.
         12    1    4    4    0    0 -0.33723993996E+02  0.13109865452E+01 -0.49963756190E+02  0.60294306443E+02  0.00000000000E+00 0. -1.
        -13    1    3    3    0    0 -0.99375109758E+01 -0.32189177453E+02 -0.99613764349E+02  0.10515607123E+03  0.00000000000E+00 0.  1.
         13    1    3    3    0    0 -0.12320624098E+02  0.66175122781E+02 -0.20482333932E+03  0.21560042899E+03  0.00000000000E+00 0. -1.
         -2    1    1    2    0  502  0.21428127295E+02 -0.19251595067E+01 -0.37872271349E+02  0.43556627689E+02  0.00000000000E+00 0.  1.
<scales pt_clust_5="13000.00000" pt_clust_6="13000.00000" pt_clust_7="13000.00000" pt_clust_8="13000.00000" pt_clust_9="21.51443"></scales>
<clustering>
<clus scale="   21.514">  1  9  2 -1</clus>
<clus scale="   77.251">  5  6 -1 -1</clus>
<clus scale="   84.989">  1  5  2 -1</clus>
<clus scale="   92.479">  7  8 -1 -1</clus>
<clus scale="   21.514">  1  5  2 -1</clus>
</clustering>
</event>
<event>
 9    2  0.4653788E-005  0.9502248E+02  0.7546771E-02  0.1297203E+00
         21   -1    0    0  501  502  0.00000000000E+00  0.00000000000E+00  0.60617119711E+03  0.60617119711E+03  0.00000000000E+00 0. -1.
          4   -1    0    0  502    0 -0.00000000000E+00 -0.00000000000E+00 -0.11629897075E+03  0.11629897075E+03  0.00000000000E+00 0. -1.
         23    2    1    2    0    0  0.29086539123E+02  0.18249264032E+02 -0.62061629289E+02  0.11551632596E+03  0.91177372942E+02 0.  0.
         24    2    1    2    0    0 -0.18386632052E+02  0.42434477160E+02  0.58652462158E+02  0.10983862626E+03  0.80533591823E+02 0.  0.
        -13    1    4    4    0    0  0.15893038544E+02 -0.17443543291E+02  0.11357977843E+02  0.26189111046E+02  0.00000000000E+00 0.  1.
         14    1    4    4    0    0 -0.34279670596E+02  0.59878020451E+02  0.47294484315E+02  0.83649515216E+02  0.00000000000E+00 0. -1.
        -11    1    3    3    0    0  0.58634485808E+02 -0.56489489050E+01 -0.43474384853E+02  0.73211581652E+02  0.00000000000E+00 0.  1.
         11    1    3    3    0    0 -0.29547946685E+02  0.23898212937E+02 -0.18587244436E+02  0.42304744304E+02  0.00000000000E+00 0. -1.
          3    1    1    2  501    0 -0.10699907071E+02 -0.60683741192E+02  0.49328139349E+03  0.49711521564E+03  0.00000000000E+00 0. -1.
<scales pt_clust_5="13000.00000" pt_clust_6="13000.00000" pt_clust_7="13000.00000" pt_clust_8="13000.00000" pt_clust_9="61.61984"></scales>
<clustering>
<clus scale="   61.620">  1  9  2 -1</clus>
<clus scale="   80.534">  5  6 -1 -1</clus>
<clus scale="   84.862">  1  5  2 -1</clus>
<clus scale="   91.177">  7  8 -1 -1</clus>
<clus scale="   61.620">  1  5  2 -1</clus>
</clustering>
</event>
<event>
 9    2  0.4653788E-005  0.1241310E+03  0.7546771E-02  0.1239719E+00
         -3   -1    0    0    0  501 -0.00000000000E+00  0.00000000000E+00  0.60369762208E+03  0.60369762208E+03  0.00000000000E+00 0.  1.
         21   -1    0    0  501  502  0.00000000000E+00 -0.00000000000E+00 -0.57519991997E+02  0.57519991997E+02  0.00000000000E+00 0. -1.
         23    2    1    2    0    0 -0.86642028821E+02  0.80582880635E+01  0.42183128253E+03  0.44052730433E+03  0.92471064528E+02 0.  0.
         24    2    1    2    0    0  0.57586235933E+02 -0.49623351275E+02  0.32878096286E+02  0.11610381650E+03  0.81366304016E+02 0.  0.
        -11    1    4    4    0    0  0.23244751223E+02 -0.89951205612E+00  0.49095070000E+02  0.54327281173E+02  0.00000000000E+00 0.  1.
         12    1    4    4    0    0  0.34341484710E+02 -0.48723839219E+02 -0.16216973714E+02  0.61776535325E+02  0.00000000000E+00 0. -1.
        -11    1    3    3    0    0 -0.90056265283E+02 -0.25220351493E+02  0.31006329237E+03  0.32386022035E+03  0.00000000000E+00 0.  1.
         11    1    3    3    0    0  0.34142364622E+01  0.33278639557E+02  0.11176799016E+03  0.11666708398E+03  0.00000000000E+00 0. -1.
         -4    1    1    2    0  502  0.29055792888E+02  0.41565063211E+02  0.91468251268E+02  0.10458649325E+03  0.00000000000E+00 0.  1.
<scales pt_clust_5="13000.00000" pt_clust_6="13000.00000" pt_clust_7="13000.00000" pt_clust_8="13000.00000" pt_clust_9="50.71387"></scales>
<clustering>
<clus scale="   50.714">  2  9  1 -1</clus>
<clus scale="   81.366">  5  6 -1 -1</clus>
<clus scale="   92.471">  7  8 -1 -1</clus>
<clus scale="  116.095">  2  5  1 -1</clus>
<clus scale="   50.714">  2  5  1 -1</clus>
</clustering>
</event>
<event>
 9    2  0.4653788E-005  0.2889812E+03  0.7546771E-02  0.1091247E+00
         21   -1    0    0  501  502  0.00000000000E+00  0.00000000000E+00  0.31711071758E+03  0.31711071758E+03  0.00000000000E+00 0. -1.
         -1   -1    0    0    0  501 -0.00000000000E+00 -0.00000000000E+00 -0.75583460611E+03  0.75583460611E+03  0.00000000000E+00 0.  1.
         24    2    1    2    0    0 -0.22286564073E+03 -0.14708652851E+03 -0.49164923923E+03  0.56599337729E+03  0.85591985632E+02 0.  0.
         23    2    1    2    0    0  0.32853315593E+03  0.58709956859E+02  0.10068029015E+03  0.36115559382E+03  0.94424300600E+02 0.  0.
        -13    1    3    3    0    0 -0.17573708598E+03 -0.96808166993E+02 -0.28797909287E+03  0.35098048738E+03  0.00000000000E+00 0.  1.
         14    1    3    3    0    0 -0.47128554753E+02 -0.50278361516E+02 -0.20367014636E+03  0.21501288991E+03  0.00000000000E+00 0. -1.
        -11    1    4    4    0    0  0.20700344435E+03  0.60880649867E+02  0.23204896028E+02  0.21701462324E+03  0.00000000000E+00 0.  1.
         11    1    4    4    0    0  0.12152971158E+03 -0.21706930079E+01  0.77475394126E+02  0.14414097058E+03  0.00000000000E+00 0. -1.
         -2    1    1    2    0  502 -0.10566751520E+03  0.88376571649E+02 -0.47754939445E+02  0.14579635258E+03  0.00000000000E+00 0.  1.
<scales pt_clust_5="13000.00000" pt_clust_6="13000.00000" pt_clust_7="13000.00000" pt_clust_8="13000.00000" pt_clust_9="137.75356"></scales>
<clustering>
<clus scale="   85.592">  5  6 -1 -1</clus>
<clus scale="   94.424">  7  8 -1 -1</clus>
<clus scale="  137.754">  1  9  2 -1</clus>
<clus scale="  286.217">  2  5  1 -1</clus>
<clus scale="  137.754">  1  5  2 -1</clus>
</clustering>
</event>
<event>
 9    2  0.4653788E-005  0.1059852E+03  0.7546771E-02  0.1273040E+00
          2   -1    0    0  502    0 -0.00000000000E+00  0.00000000000E+00  0.61303073400E+03  0.61303073400E+03  0.00000000000E+00 0. -1.
         21   -1    0    0  501  502  0.00000000000E+00 -0.00000000000E+00 -0.79518294914E+02  0.79518294914E+02  0.00000000000E+00 0.  1.
         23    2    1    2    0    0 -0.33617862405E+02 -0.17211455025E+02  0.20449985652E+03  0.22743168994E+03  0.92079245307E+02 0.  0.
         24    2    1    2    0    0  0.98271388605E+02  0.88858655681E+02  0.39292804133E+02  0.15974715407E+03  0.80138020123E+02 0.  0.
        -11    1    4    4    0    0  0.10576874063E+03  0.96834322685E+02  0.33104679034E+02  0.14717279748E+03  0.00000000000E+00 0.  1.
         12    1    4    4    0    0 -0.74973520211E+01 -0.79756670036E+01  0.61881250998E+01  0.12574356593E+02  0.00000000000E+00 0. -1.
        -11    1    3    3    0    0 -0.29778682873E+01 -0.50108277163E+02  0.14068389499E+03  0.14937089893E+03  0.00000000000E+00 0. -1.
         11    1    3    3    0    0 -0.30639994117E+02  0.32896822138E+02  0.63815961534E+02  0.78060791008E+02  0.00000000000E+00 0.  1.
          1    1    1    2  501    0 -0.64653526200E+02 -0.71647200656E+02  0.28971977843E+03  0.30537018490E+03  0.00000000000E+00 0. -1.
<scales pt_clust_5="13000.00000" pt_clust_6="13000.00000" pt_clust_7="13000.00000" pt_clust_8="13000.00000" pt_clust_9="96.50601"></scales>
<clustering>
<clus scale="   80.138">  5  6 -1 -1</clus>
<clus scale="   92.079">  7  8 -1 -1</clus>
<clus scale="   96.506">  2  9  1 -1</clus>
<clus scale="   96.506">  2  5  1 -1</clus>
<clus scale="   96.506">  2  5  1 -1</clus>
</clustering>
</event>
<event>
 9    2  0.4653788E-005  0.2282524E+03  0.7546771E-02  0.1128889E+00
         -1   -1    0    0    0  501 -0.00000000000E+00  0.00000000000E+00  0.13063757728E+03  0.13063757728E+03  0.00000000000E+00 0.  1.
         21   -1    0    0  501  502  0.00000000000E+00 -0.00000000000E+00 -0.10358567735E+04  0.10358567735E+04  0.00000000000E+00 0.  1.
         23    2    1    2    0    0  0.15350486259E+03 -0.13828184640E+03 -0.47820606389E+02  0.22121725467E+03  0.62965478524E+02 0.  0.
         24    2    1    2    0    0 -0.22565140675E+03  0.13197040296E+03 -0.81863689639E+03  0.86313437255E+03  0.80621537524E+02 0.  0.
        -11    1    4    4    0    0 -0.13739247886E+03  0.12364776214E+03 -0.56231958459E+03  0.59191957016E+03  0.00000000000E+00 0.  1.
         12    1    4    4    0    0 -0.88258927889E+02  0.83226408198E+01 -0.25631731180E+03  0.27121480238E+03  0.00000000000E+00 0. -1.
        -13    1    3    3    0    0  0.12037719265E+03 -0.13553643285E+03 -0.30805508792E+02  0.18387433892E+03  0.00000000000E+00 0.  1.
         13    1    3    3    0    0  0.33127669937E+02 -0.27454135591E+01 -0.17015097597E+02  0.37342915758E+02  0.00000000000E+00 0. -1.
         -2    1    1    2    0  502  0.72146544158E+02  0.63114434433E+01 -0.38761693407E+02  0.82142723525E+02  0.00000000000E+00 0.  1.
<scales pt_clust_5="13000.00000" pt_clust_6="13000.00000" pt_clust_7="13000.00000" pt_clust_8="13000.00000" pt_clust_9="72.42212"></scales>
<clustering>
<clus scale="   62.965">  7  8 -1 -1</clus>
<clus scale="   72.422">  2  9  1 -1</clus>
<clus scale="   80.622">  5  6 -1 -1</clus>
<clus scale="  222.630">  1  7  2 -1</clus>
<clus scale="   72.422">  2  5  1 -1</clus>
</clustering>
</event>
<event>
 9    2  0.4653788E-005  0.1206318E+03  0.7546771E-02  0.1245466E+00
         21   -1    0    0  501  502  0.00000000000E+00  0.00000000000E+00  0.34570647192E+03  0.34570647192E+03  0.00000000000E+00 0.  1.
          4   -1    0    0  502    0 -0.00000000000E+00 -0.00000000000E+00 -0.95704501610E+02  0.95704501610E+02  0.00000000000E+00 0. -1.
         24    2    1    2    0    0  0.60903373761E+02  0.28688038237E+02  0.76007241216E+02  0.12955082449E+03  0.80461735853E+02 0.  0.
         23    2    1    2    0    0 -0.34877864921E+02 -0.11595884326E+03  0.15867616287E+03  0.21951200888E+03  0.91348117583E+02 0.  0.
        -13    1    3    3    0    0  0.71235109139E+02  0.33597092943E+02  0.84341487460E+02  0.11539797197E+03  0.00000000000E+00 0.  1.
         14    1    3    3    0    0 -0.10331735378E+02 -0.49090547067E+01 -0.83342462448E+01  0.14152852522E+02  0.00000000000E+00 0. -1.
        -11    1    4    4    0    0 -0.61339500273E+02 -0.73538431040E+02  0.13129587622E+03  0.16250859130E+03  0.00000000000E+00 0.  1.
         11    1    4    4    0    0  0.26461635352E+02 -0.42420412217E+02  0.27380286649E+02  0.57003417574E+02  0.00000000000E+00 0. -1.
          3    1    1    2  501    0 -0.26025508840E+02  0.87270805021E+02  0.15318566218E+02  0.92348140156E+02  0.00000000000E+00 0. -1.
<scales pt_clust_5="13000.00000" pt_clust_6="13000.00000" pt_clust_7="13000.00000" pt_clust_8="13000.00000" pt_clust_9="91.06881"></scales>
<clustering>
<clus scale="   80.462">  5  6 -1 -1</clus>
<clus scale="   91.069">  1  9  2 -1</clus>
<clus scale="   91.348">  7  8 -1 -1</clus>
<clus scale="  112.613">  2  5  1 -1</clus>
<clus scale="   91.069">  1  5  2 -1</clus>
</clustering>
</event>
<event>
 9    2  0.4653788E-005  0.1760226E+03  0.7546771E-02  0.1173290E+00
         -3   -1    0    0    0  501 -0.00000000000E+00  0.00000000000E+00  0.42784907562E+03  0.42784907562E+03  0.00000000000E+00 0.  1.
         21   -1    0    0  501  502  0.00000000000E+00 -0.00000000000E+00 -0.10047801726E+03  0.10047801726E+03  0.00000000000E+00 0.  1.
         23    2    1    2    0    0 -0.12999139226E+03  0.98250839180E+02  0.23459231953E+03  0.30026218819E+03  0.92589609627E+02 0.  0.
         24    2    1    2    0    0  0.11771092714E+03 -0.51769365442E+02  0.40066228140E+02  0.15672104716E+03  0.80126490133E+02 0.  0.
        -11    1    4    4    0    0  0.68848786096E+02 -0.17374033178E+02 -0.18156658087E+02  0.73291722647E+02  0.00000000000E+00 0.  1.
         12    1    4    4    0    0  0.48862141042E+02 -0.34395332264E+02  0.58222886227E+02  0.83429324517E+02  0.00000000000E+00 0. -1.
        -13    1    3    3    0    0 -0.29179701735E+01  0.34313594997E+02  0.12735316502E+02  0.36716830445E+02  0.00000000000E+00 0. -1.
         13    1    3    3    0    0 -0.12707342208E+03  0.63937244183E+02  0.22185700303E+03  0.26354535774E+03  0.00000000000E+00 0.  1.
         -4    1    1    2    0  502  0.12280465120E+02 -0.46481473737E+02  0.52712510686E+02  0.71343857529E+02  0.00000000000E+00 0.  1.
<scales pt_clust_5="13000.00000" pt_clust_6="13000.00000" pt_clust_7="13000.00000" pt_clust_8="13000.00000" pt_clust_9="48.07639"></scales>
<clustering>
<clus scale="   48.076">  2  9  1 -1</clus>
<clus scale="   80.126">  5  6 -1 -1</clus>
<clus scale="   92.590">  7  8 -1 -1</clus>
<clus scale="  169.798">  2  5  1 -1</clus>
<clus scale="   48.076">  2  5  1 -1</clus>
</clustering>
</event>
<event>
 9    2  0.4653788E-005  0.1654342E+03  0.7546771E-02  0.1195044E+00
          2   -1    0    0  502    0 -0.00000000000E+00  0.00000000000E+00  0.30929577617E+03  0.30929577617E+03  0.00000000000E+00 0. -1.
         21   -1    0    0  501  502  0.00000000000E+00 -0.00000000000E+00 -0.40374900530E+03  0.40374900530E+03  0.00000000000E+00 0.  1.
         23    2    1    2    0    0  0.87208256721E+02  0.10683496687E+02  0.73661125017E+02  0.14583282576E+03  0.90121221626E+02 0.  0.
         24    2    1    2    0    0  0.10531108826E+03  0.88123677637E+02 -0.28133587950E+03  0.32298732614E+03  0.79465262101E+02 0.  0.
        -13    1    4    4    0    0  0.41544403949E+02  0.84887215406E+02 -0.17748603759E+03  0.20107976124E+03  0.00000000000E+00 0.  1.
         14    1    4    4    0    0  0.63766684311E+02  0.32364622306E+01 -0.10384984191E+03  0.12190756490E+03  0.00000000000E+00 0. -1.
        -11    1    3    3    0    0  0.41427408975E+02 -0.36772202772E+02  0.14537785336E+02  0.57269296430E+02  0.00000000000E+00 0. -1.
         11    1    3    3    0    0  0.45780847745E+02  0.47455699460E+02  0.59123339681E+02  0.88563529325E+02  0.00000000000E+00 0.  1.
          1    1    1    2  501    0 -0.19251934498E+03 -0.98807174324E+02  0.11322152536E+03  0.24422462958E+03  0.00000000000E+00 0. -1.
<scales pt_clust_5="13000.00000" pt_clust_6="13000.00000" pt_clust_7="13000.00000" pt_clust_8="13000.00000" pt_clust_9="145.09920"></scales>
<clustering>
<clus scale="   79.465">  5  6 -1 -1</clus>
<clus scale="   90.121">  7  8 -1 -1</clus>
<clus scale="  125.862">  1  7  2 -1</clus>
<clus scale="  145.099">  2  9  1 -1</clus>
<clus scale="  145.099">  2  5  1 -1</clus>
</clustering>
</event>
<event>
 9    2  0.4653788E-005  0.1211988E+03  0.7546771E-02  0.1242874E+00
          2   -1    0    0  502    0 -0.00000000000E+00  0.00000000000E+00  0.86622749612E+02  0.86622749612E+02  0.00000000000E+00 0. -1.
         21   -1    0    0  501  502  0.00000000000E+00 -0.00000000000E+00 -0.23236879276E+03  0.23236879276E+03  0.00000000000E+00 0. -1.
         23    2    1    2    0    0  0.61152805660E+02  0.66845601192E+02 -0.21274805635E+02  0.12684786137E+03  0.86196070324E+02 0.  0.
         24    2    1    2    0    0 -0.69781405741E+02 -0.38867371354E+02 -0.78866833499E+02  0.13794962460E+03  0.80187307961E+02 0.  0.
        -13    1    4    4    0    0  0.50779448280E+01 -0.35488558832E+02 -0.39353397558E+02  0.53234511654E+02  0.00000000000E+00 0.  1.
         14    1    4    4    0    0 -0.74859350569E+02 -0.33788125215E+01 -0.39513435941E+02  0.84715112946E+02  0.00000000000E+00 0. -1.
        -11    1    3    3    0    0  0.81132714244E+02  0.60436001491E+02 -0.27720431611E+02  0.10489733040E+03  0.00000000000E+00 0. -1.
         11    1    3    3    0    0 -0.19979908584E+02  0.64095997015E+01  0.64456259751E+01  0.21950530963E+02  0.00000000000E+00 0.  1.
          1    1    1    2  501    0  0.86286000812E+01 -0.27978229838E+02 -0.45604404013E+02  0.54194056405E+02  0.00000000000E+00 0. -1.
<scales pt_clust_5="13000.00000" pt_clust_6="13000.00000" pt_clust_7="13000.00000" pt_clust_8="13000.00000" pt_clust_9="29.27856"></scales>
<clustering>
<clus scale="   29.279">  2  9  1 -1</clus>
<clus scale="   80.187">  5  6 -1 -1</clus>
<clus scale="   86.196">  7  8 -1 -1</clus>
<clus scale="  117.002">  2  5  1 -1</clus>
<clus scale="   29.279">  2  5  1 -1</clus>
</clustering>
</event>
<event>
 9    2  0.4653788E-005  0.8798820E+02  0.7546771E-02  0.1311512E+00
         21   -1    0    0  501  502  0.00000000000E+00  0.00000000000E+00  0.67152211159E+02  0.67152211159E+02  0.00000000000E+00 0.  1.
          2   -1    0    0  502    0 -0.00000000000E+00 -0.00000000000E+00 -0.22463363809E+03  0.22463363809E+03  0.00000000000E+00 0. -1.
         24    2    1    2    0    0 -0.24437935330E+02  0.13536630280E+01 -0.98591663842E+02  0.13063169512E+03  0.82129644492E+02 0.  0.
         23    2    1    2    0    0 -0.27109153396E+02  0.39137597812E+01 -0.59012554983E+02  0.10933848876E+03  0.87876047734E+02 0.  0.
        -11    1    3    3    0    0 -0.28624873566E+02  0.20481968942E+02 -0.56485348258E+01  0.35648287253E+02  0.00000000000E+00 0.  1.
         12    1    3    3    0    0  0.41869382361E+01 -0.19128305914E+02 -0.92943129016E+02  0.94983407868E+02  0.00000000000E+00 0. -1.
        -13    1    4    4    0    0 -0.48494366271E+02 -0.22442395796E+02 -0.52239827910E+02  0.74728604356E+02  0.00000000000E+00 0. -1.
         13    1    4    4    0    0  0.21385212874E+02  0.26356155577E+02 -0.67727270731E+01  0.34609884404E+02  0.00000000000E+00 0.  1.
          1    1    1    2  501    0  0.51547088726E+02 -0.52674228093E+01  0.12279189679E+00  0.51815665364E+02  0.00000000000E+00 0. -1.
<scales pt_clust_5="13000.00000" pt_clust_6="13000.00000" pt_clust_7="13000.00000" pt_clust_8="13000.00000" pt_clust_9="51.81552"></scales>
<clustering>
<clus scale="   51.816">  1  9  2 -1</clus>
<clus scale="   82.130">  5  6 -1 -1</clus>
<clus scale="   82.250">  2  5  1 -1</clus>
<clus scale="   87.876">  7  8 -1 -1</clus>
<clus scale="   51.816">  1  5  2 -1</clus>
</clustering>
</event>
<event>
 9    2  0.4653788E-005  0.1863513E+03  0.7546771E-02  0.1164603E+00
         21   -1    0    0  501  502  0.00000000000E+00  0.00000000000E+00  0.78265207971E+02  0.78265207971E+02  0.00000000000E+00 0. -1.
          4   -1    0    0  502    0 -0.00000000000E+00 -0.00000000000E+00 -0.47776880247E+03  0.47776880247E+03  0.00000000000E+00 0. -1.
         23    2    1    2    0    0  0.87905872763E+01 -0.16046668542E+03 -0.22703076652E+03  0.29184737325E+03  0.88346413474E+02 0.  0.
         24    2    1    2    0    0 -0.65168431881E+01  0.13745340639E+03 -0.14329624149E+03  0.22695688936E+03  0.10972560609E+03 0.  0.
        -13    1    4    4    0    0  0.14885935246E+02  0.85209487149E+02 -0.14680113305E+03  0.17039020052E+03  0.00000000000E+00 0.  1.
         14    1    4    4    0    0 -0.21402778434E+02  0.52243919240E+02  0.35048915559E+01  0.56566688847E+02  0.00000000000E+00 0. -1.
        -11    1    3    3    0    0  0.35268925883E+02 -0.12320444850E+03 -0.20335672347E+03  0.24036886288E+03  0.00000000000E+00 0.  1.
         11    1    3    3    0    0 -0.26478338607E+02 -0.37262236918E+02 -0.23674043051E+02  0.51478510370E+02  0.00000000000E+00 0. -1.
          3    1    1    2  501    0 -0.22737440881E+01  0.23013279031E+02 -0.29176586493E+02  0.37229747828E+02  0.00000000000E+00 0. -1.
<scales pt_clust_5="13000.00000" pt_clust_6="13000.00000" pt_clust_7="13000.00000" pt_clust_8="13000.00000" pt_clust_9="23.12534"></scales>
<clustering>
<clus scale="   23.125">  1  9  2 -1</clus>
<clus scale="   88.346">  7  8 -1 -1</clus>
<clus scale="  109.726">  5  6 -1 -1</clus>
<clus scale="  174.620">  2  7  1 -1</clus>
<clus scale="   23.125">  1  5  2 -1</clus>
</clustering>
</event>
<event>
 9    2  0.4653788E-005  0.1085637E+03  0.7546771E-02  0.1268331E+00
         21   -1    0    0  501  502  0.00000000000E+00  0.00000000000E+00  0.41534347817E+02  0.41534347817E+02  0.00000000000E+00 0.  1.
          2   -1    0    0  502    0 -0.00000000000E+00 -0.00000000000E+00 -0.62651626036E+03  0.62651626036E+03  0.00000000000E+00 0. -1.
         24    2    1    2    0    0 -0.62188391952E+02  0.18328093332E+02 -0.47771282728E+03  0.48864662207E+03  0.79766288668E+02 0.  0.
         23    2    1    2    0    0  0.17358910509E+02 -0.11820522731E+02 -0.51536631525E+02  0.10758381289E+03  0.92071688784E+02 0.  0.
        -11    1    3    3    0    0 -0.41868417479E+02 -0.26479696349E+02 -0.17169410941E+03  0.17869808590E+03  0.00000000000E+00 0.  1.
         12    1    3    3    0    0 -0.20319974473E+02  0.44807789680E+02 -0.30601871788E+03  0.30994853616E+03  0.00000000000E+00 0. -1.
        -11    1    4    4    0    0  0.30842376736E+02 -0.46760826948E+02 -0.23247767218E+02  0.60648873198E+02  0.00000000000E+00 0.  1.
         11    1    4    4    0    0 -0.13483466228E+02  0.34940304216E+02 -0.28288864307E+02  0.46934939693E+02  0.00000000000E+00 0. -1.
          1    1    1    2  501    0  0.44829481444E+02 -0.65075706004E+01 -0.55732453732E+02  0.71820173215E+02  0.00000000000E+00 0. -1.
<scales pt_clust_5="13000.00000" pt_clust_6="13000.00000" pt_clust_7="13000.00000" pt_clust_8="13000.00000" pt_clust_9="45.29935"></scales>
<clustering>
<clus scale="   45.299">  1  9  2 -1</clus>
<clus scale="   79.766">  5  6 -1 -1</clus>
<clus scale="   92.072">  7  8 -1 -1</clus>
<clus scale="   98.344">  2  5  1 -1</clus>
<clus scale="   45.299">  1  5  2 -1</clus>
</clustering>
</event>
<event>
 9    2  0.4653788E-005  0.1430043E+03  0.7546771E-02  0.1217302E+00
          2   -1    0    0  502    0 -0.00000000000E+00  0.00000000000E+00  0.83730382299E+03  0.83730382299E+03  0.00000000000E+00 0. -1.
         21   -1    0    0  501  502  0.00000000000E+00 -0.00000000000E+00 -0.62964745009E+02  0.62964745009E+02  0.00000000000E+00 0.  1.
         23    2    1    2    0    0  0.36394588642E+02 -0.87259618503E+02  0.73444545028E+03  0.74845294111E+03  0.10877903528E+03 0.  0.
         24    2    1    2    0    0 -0.48821574348E+02  0.70130596038E+02  0.53130291395E+02  0.12685480459E+03  0.77249381626E+02 0.  0.
        -13    1    4    4    0    0 -0.12700201661E+02  0.75110840131E+02  0.23056752826E+02  0.79589869194E+02  0.00000000000E+00 0.  1.
         14    1    4    4    0    0 -0.36121372687E+02 -0.49802440929E+01  0.30073538569E+02  0.47264935397E+02  0.00000000000E+00 0. -1.
        -11    1    3    3    0    0  0.38044586814E+02  0.15573606605E+02  0.22645582902E+03  0.23015683849E+03  0.00000000000E+00 0.  1.
         11    1    3    3    0    0 -0.16499981715E+01 -0.10283322511E+03  0.50798962126E+03  0.51829610261E+03  0.00000000000E+00 0. -1.
          1    1    1    2  501    0  0.12426985706E+02  0.17129022464E+02 -0.13236663690E+02  0.24960822301E+02  0.00000000000E+00 0. -1.
<scales pt_clust_5="13000.00000" pt_clust_6="13000.00000" pt_clust_7="13000.00000" pt_clust_8="13000.00000" pt_clust_9="21.16207"></scales>
<clustering>
<clus scale="   21.162">  2  9  1 -1</clus>
<clus scale="   77.249">  5  6 -1 -1</clus>
<clus scale="  108.779">  7  8 -1 -1</clus>
<clus scale="  120.768">  2  5  1 -1</clus>
<clus scale="   21.162">  2  5  1 -1</clus>
</clustering>
</event>
<event>
 9    2  0.4653788E-005  0.1076144E+03  0.7546771E-02  0.1271222E+00
         21   -1    0    0  501  502  0.00000000000E+00  0.00000000000E+00  0.43548304850E+02  0.43548304850E+02  0.00000000000E+00 0.  1.
          2   -1    0    0  502    0 -0.00000000000E+00 -0.00000000000E+00 -0.41116258976E+03  0.41116258976E+03  0.00000000000E+00 0. -1.
         24    2    1    2    0    0 -0.15598858322E+02 -0.46630852804E+02 -0.25306007300E+03  0.26950479488E+03  0.78585450968E+02 0.  0.
         23    2    1    2    0    0  0.30221925044E+02  0.62505381602E+02 -0.11535414349E+03  0.16360807585E+03  0.92955562390E+02 0.  0.
        -11    1    3    3    0    0  0.22851081228E+02  0.28999931734E+01 -0.30141394082E+02  0.37935280557E+02  0.00000000000E+00 0.  1.
         12    1    3    3    0    0 -0.38449939550E+02 -0.49530845977E+02 -0.22291867892E+03  0.23156951433E+03  0.00000000000E+00 0. -1.
        -13    1    4    4    0    0  0.17600114118E+02  0.36483700373E+02  0.40894147786E+01  0.40712992068E+02  0.00000000000E+00 0.  1.
         13    1    4    4    0    0  0.12621810925E+02  0.26021681229E+02 -0.11944355827E+03  0.12289508378E+03  0.00000000000E+00 0. -1.
          1    1    1    2  501    0 -0.14623066722E+02 -0.15874528799E+02  0.79993158203E+00  0.21598023879E+02  0.00000000000E+00 0. -1.
<scales pt_clust_5="13000.00000" pt_clust_6="13000.00000" pt_clust_7="13000.00000" pt_clust_8="13000.00000" pt_clust_9="21.58321"></scales>
<clustering>
<clus scale="   21.583">  1  9  2 -1</clus>
<clus scale="   78.585">  5  6 -1 -1</clus>
<clus scale="   92.956">  7  8 -1 -1</clus>
<clus scale="   95.477">  2  5  1 -1</clus>
<clus scale="   21.583">  1  5  2 -1</clus>
</clustering>
</event>
<event>
 9    2  0.4653788E-005  0.9365157E+02  0.7546771E-02  0.1299815E+00
         21   -1    0    0  501  502  0.00000000000E+00  0.00000000000E+00  0.73756263958E+02  0.73756263958E+02  0.00000000000E+00 0.  1.
         -1   -1    0    0    0  501 -0.00000000000E+00 -0.00000000000E+00 -0.56178352499E+03  0.56178352499E+03  0.00000000000E+00 0.  1.
         24    2    1    2    0    0 -0.18088726019E+01 -0.17734288910E+02 -0.35572009409E+03  0.36511909772E+03  0.80357906634E+02 0.  0.
         23    2    1    2    0    0  0.50197408406E+01  0.49086042460E+02 -0.18353829639E+03  0.21027195267E+03  0.89963050610E+02 0.  0.
        -11    1    3    3    0    0 -0.15680442484E+02 -0.29967982267E+02 -0.60437594602E+02  0.69257917085E+02  0.00000000000E+00 0.  1.
         12    1    3    3    0    0  0.13871569882E+02  0.12233693357E+02 -0.29528249948E+03  0.29586118063E+03  0.00000000000E+00 0. -1.
        -11    1    4    4    0    0  0.36768979605E+02  0.14537753168E+01 -0.33801425987E+02  0.49966065711E+02  0.00000000000E+00 0. -1.
         11    1    4    4    0    0 -0.31749238765E+02  0.47632267143E+02 -0.14973687040E+03  0.16030588696E+03  0.00000000000E+00 0.  1.
         -2    1    1    2    0  502 -0.32108682387E+01 -0.31351753550E+02  0.51231129448E+02  0.60148738557E+02  0.00000000000E+00 0.  1.
<scales pt_clust_5="13000.00000" pt_clust_6="13000.00000" pt_clust_7="13000.00000" pt_clust_8="13000.00000" pt_clust_9="31.51574"></scales>
<clustering>
<clus scale="   31.516">  1  9  2 -1</clus>
<clus scale="   80.358">  5  6 -1 -1</clus>
<clus scale="   84.467">  2  5  1 -1</clus>
<clus scale="   89.963">  7  8 -1 -1</clus>
<clus scale="   31.516">  1  5  2 -1</clus>
</clustering>
</event>
<event>
 9    2  0.4653788E-005  0.1006511E+03  0.7546771E-02  0.1282777E+00
          2   -1    0    0  502    0 -0.00000000000E+00  0.00000000000E+00  0.12508578309E+04  0.12508578309E+04  0.00000000000E+00 0. -1.
         21   -1    0    0  501  502  0.00000000000E+00 -0.00000000000E+00 -0.34034405670E+02  0.34034405670E+02  0.00000000000E+00 0.  1.
         24    2    1    2    0    0 -0.36758512116E+02  0.21687418700E+02  0.10024544760E+04  0.10067527073E+04  0.82550014525E+02 0.  0.
         23    2    1    2    0    0  0.52633231579E+02 -0.35937932175E+02  0.67337471859E+02  0.12956853884E+03  0.90509000141E+02 0.  0.
        -13    1    3    3    0    0 -0.16624318930E+02 -0.20701405505E+02  0.11364287254E+03  0.11670312185E+03  0.00000000000E+00 0.  1.
         14    1    3    3    0    0 -0.20134193186E+02  0.42388824205E+02  0.88881160344E+03  0.89004958545E+03  0.00000000000E+00 0. -1.
        -13    1    4    4    0    0  0.54322813547E+02 -0.63196878439E+02  0.52371821973E+02  0.98425714388E+02  0.00000000000E+00 0.  1.
         13    1    4    4    0    0 -0.16895819676E+01  0.27258946264E+02  0.14965649885E+02  0.31142824456E+02  0.00000000000E+00 0. -1.
          1    1    1    2  501    0 -0.15874719463E+02  0.14250513475E+02  0.14703147738E+03  0.14857099041E+03  0.00000000000E+00 0. -1.
<scales pt_clust_5="13000.00000" pt_clust_6="13000.00000" pt_clust_7="13000.00000" pt_clust_8="13000.00000" pt_clust_9="21.33271"></scales>
<clustering>
<clus scale="   21.333">  2  9  1 -1</clus>
<clus scale="   82.550">  5  6 -1 -1</clus>
<clus scale="   90.509">  7  8 -1 -1</clus>
<clus scale="   93.559">  1  5  2 -1</clus>
<clus scale="   21.333">  2  5  1 -1</clus>
</clustering>
</event>
<event>
 9    2  0.4653788E-005  0.1156138E+03  0.7546771E-02  0.1254258E+00
          2   -1    0    0  502    0 -0.00000000000E+00  0.00000000000E+00  0.63424853194E+03  0.63424853194E+03  0.00000000000E+00 0. -1.
         21   -1    0    0  501  502  0.00000000000E+00 -0.00000000000E+00 -0.45579801311E+02  0.45579801311E+02  0.00000000000E+00 0.  1.
         23    2    1    2    0    0  0.10211452788E+03  0.11821823832E+02  0.38984072680E+03  0.41323418198E+03  0.90661814246E+02 0.  0.
         24    2    1    2    0    0 -0.41454682664E+02  0.18189750564E+02  0.16969663306E+03  0.19291275483E+03  0.79806177480E+02 0.  0.
        -11    1    4    4    0    0  0.47621246753E+01  0.23451388393E+02  0.89133658268E+01  0.25536122246E+02  0.00000000000E+00 0.  1.
         12    1    4    4    0    0 -0.46216807340E+02 -0.52616378287E+01  0.16078326723E+03  0.16737663258E+03  0.00000000000E+00 0. -1.
        -13    1    3    3    0    0  0.49194381655E+02  0.49621396058E+02  0.23818572704E+03  0.24822330812E+03  0.00000000000E+00 0.  1.
         13    1    3    3    0    0  0.52920146223E+02 -0.37799572226E+02  0.15165499976E+03  0.16501087385E+03  0.00000000000E+00 0. -1.
          1    1    1    2  501    0 -0.60659845213E+02 -0.30011574396E+02  0.29131370775E+02  0.73681396446E+02  0.00000000000E+00 0. -1.
<scales pt_clust_5="13000.00000" pt_clust_6="13000.00000" pt_clust_7="13000.00000" pt_clust_8="13000.00000" pt_clust_9="67.67800"></scales>
<clustering>
<clus scale="   67.678">  2  9  1 -1</clus>
<clus scale="   79.806">  5  6 -1 -1</clus>
<clus scale="   90.662">  7  8 -1 -1</clus>
<clus scale="  107.313">  2  5  1 -1</clus>
<clus scale="   67.678">  2  5  1 -1</clus>
</clustering>
</event>
<event>
 9    2  0.4653788E-005  0.9998722E+02  0.7546771E-02  0.1285607E+00
         21   -1    0    0  501  502  0.00000000000E+00  0.00000000000E+00  0.12165864342E+03  0.12165864342E+03  0.00000000000E+00 0. -1.
          2   -1    0    0  502    0 -0.00000000000E+00 -0.00000000000E+00 -0.23426548706E+03  0.23426548706E+03  0.00000000000E+00 0. -1.
         23    2    1    2    0    0  0.13354836522E+02 -0.18650235235E+02 -0.46071089573E+02  0.10491305625E+03  0.91422213624E+02 0.  0.
         24    2    1    2    0    0  0.23869715564E+02  0.95613029117E+02  0.20355218492E+02  0.12911365821E+03  0.80897386591E+02 0.  0.
        -11    1    4    4    0    0 -0.30020301595E+02  0.35789818579E+02  0.34437240160E+01  0.46840034766E+02  0.00000000000E+00 0.  1.
         12    1    4    4    0    0  0.53890017159E+02  0.59823210538E+02  0.16911494476E+02  0.82273623440E+02  0.00000000000E+00 0. -1.
        -13    1    3    3    0    0  0.37773700242E+02 -0.36861321611E+02 -0.39435464010E+01  0.52925995684E+02  0.00000000000E+00 0. -1.
         13    1    3    3    0    0 -0.24418863720E+02  0.18211086376E+02 -0.42127543172E+02  0.51987060564E+02  0.00000000000E+00 0.  1.
          1    1    1    2  501    0 -0.37224552086E+02 -0.76962793882E+02 -0.86890972567E+02  0.12189741603E+03  0.00000000000E+00 0. -1.
<scales pt_clust_5="13000.00000" pt_clust_6="13000.00000" pt_clust_7="13000.00000" pt_clust_8="13000.00000" pt_clust_9="85.49238"></scales>
<clustering>
<clus scale="   80.897">  5  6 -1 -1</clus>
<clus scale="   85.492">  1  9  2 -1</clus>
<clus scale="   90.464">  1  5  2 -1</clus>
<clus scale="   91.422">  7  8 -1 -1</clus>
<clus scale="   85.492">  1  5  2 -1</clus>
</clustering>
</event>
<event>
 9    2  0.4653788E-005  0.1019596E+03  0.7546771E-02  0.1282621E+00
          2   -1    0    0  502    0 -0.00000000000E+00  0.00000000000E+00  0.92183735270E+03  0.92183735270E+03  0.00000000000E+00 0. -1.
         21   -1    0    0  501  502  0.00000000000E+00 -0.00000000000E+00 -0.19709604422E+02  0.19709604422E+02  0.00000000000E+00 0.  1.
         23    2    1    2    0    0  0.37652229948E+02  0.38067144164E+02  0.53694877691E+03  0.54761085678E+03  0.93256975877E+02 0.  0.
         24    2    1    2    0    0 -0.38807215964E+02  0.16554244430E+02  0.26073060294E+03  0.27606204997E+03  0.80310429615E+02 0.  0.
        -11    1    4    4    0    0 -0.47789392210E+02  0.38659410967E+02  0.13854878756E+03  0.15157223558E+03  0.00000000000E+00 0.  1.
         12    1    4    4    0    0  0.89821762456E+01 -0.22105166536E+02  0.12218181538E+03  0.12448981439E+03  0.00000000000E+00 0. -1.
        -13    1    3    3    0    0  0.53992572909E+02 -0.99301005221E+01  0.33041477772E+03  0.33494436875E+03  0.00000000000E+00 0. -1.
         13    1    3    3    0    0 -0.16340342962E+02  0.47997244686E+02  0.20653399919E+03  0.21266648802E+03  0.00000000000E+00 0.  1.
          1    1    1    2  501    0  0.11549860162E+01 -0.54621388594E+02  0.10444836843E+03  0.11787405038E+03  0.00000000000E+00 0. -1.
<scales pt_clust_5="13000.00000" pt_clust_6="13000.00000" pt_clust_7="13000.00000" pt_clust_8="13000.00000" pt_clust_9="54.63360"></scales>
<clustering>
<clus scale="   54.634">  2  9  1 -1</clus>
<clus scale="   80.310">  5  6 -1 -1</clus>
<clus scale="   90.270">  2  5  1 -1</clus>
<clus scale="   93.257">  7  8 -1 -1</clus>
<clus scale="   54.634">  2  5  1 -1</clus>
</clustering>
</event>
<event>
 9    2  0.4653788E-005  0.9665754E+02  0.7546771E-02  0.1294421E+00
         -1   -1    0    0    0  501 -0.00000000000E+00  0.00000000000E+00  0.56207020748E+03  0.56207020748E+03  0.00000000000E+00 0.  1.
         21   -1    0    0  501  502  0.00000000000E+00 -0.00000000000E+00 -0.34015324713E+02  0.34015324713E+02  0.00000000000E+00 0. -1.
         24    2    1    2    0    0  0.43926983561E+02  0.20658596831E+02  0.24623433338E+03  0.26296334259E+03  0.78498503823E+02 0.  0.
         23    2    1    2    0    0  0.18860871525E+02 -0.16402419526E+02  0.87093561631E+02  0.12847852478E+03  0.91086063761E+02 0.  0.
        -13    1    3    3    0    0  0.53834713724E+02  0.29714530458E+02  0.10960072579E+03  0.12567198899E+03  0.00000000000E+00 0.  1.
         14    1    3    3    0    0 -0.99077301631E+01 -0.90559336275E+01  0.13663360759E+03  0.13729135360E+03  0.00000000000E+00 0. -1.
        -11    1    4    4    0    0 -0.20487347505E+02  0.21374689379E+02  0.61436314190E+02  0.68198456398E+02  0.00000000000E+00 0.  1.
         11    1    4    4    0    0  0.39348219030E+02 -0.37777108905E+02  0.25657247441E+02  0.60280068383E+02  0.00000000000E+00 0. -1.
         -2    1    1    2    0  502 -0.62787855086E+02 -0.42561773043E+01  0.19472698775E+03  0.20464366482E+03  0.00000000000E+00 0.  1.
<scales pt_clust_5="13000.00000" pt_clust_6="13000.00000" pt_clust_7="13000.00000" pt_clust_8="13000.00000" pt_clust_9="62.93198"></scales>
<clustering>
<clus scale="   62.932">  2  9  1 -1</clus>
<clus scale="   78.499">  5  6 -1 -1</clus>
<clus scale="   84.900">  1  5  2 -1</clus>
<clus scale="   91.086">  7  8 -1 -1</clus>
<clus scale="   62.932">  2  5  1 -1</clus>
</clustering>
</event>
<event>
 9    2  0.4653788E-005  0.1505996E+03  0.7546771E-02  0.1206021E+00
         21   -1    0    0  501  502  0.00000000000E+00  0.00000000000E+00  0.10449019858E+04  0.10449019858E+04  0.00000000000E+00 0.  1.
          4   -1    0    0  502    0 -0.00000000000E+00 -0.00000000000E+00 -0.81527568198E+02  0.81527568198E+02  0.00000000000E+00 0. -1.
         23    2    1    2    0    0 -0.82420564383E+02  0.49387367346E+02  0.27630401952E+02  0.13434883540E+03  0.89743573448E+02 0.  0.
         24    2    1    2    0    0 -0.12846208297E+02  0.10708222528E+03  0.53169774262E+03  0.54844586634E+03  0.80366353384E+02 0.  0.
        -13    1    4    4    0    0 -0.36705298793E+02  0.87629171799E+02  0.46986335140E+03  0.47937221415E+03  0.00000000000E+00 0.  1.
         14    1    4    4    0    0  0.23859090496E+02  0.19453053478E+02  0.61834391223E+02  0.69073652189E+02  0.00000000000E+00 0. -1.
        -11    1    3    3    0    0 -0.26855676039E+02  0.61005980472E+02 -0.82945174828E+01  0.67169606290E+02  0.00000000000E+00 0.  1.
         11    1    3    3    0    0 -0.55564888344E+02 -0.11618613126E+02  0.35924919435E+02  0.67179229112E+02  0.00000000000E+00 0. -1.
          3    1    1    2  501    0  0.95266772680E+02 -0.15646959262E+03  0.40404627306E+03  0.44363485229E+03  0.00000000000E+00 0. -1.
<scales pt_clust_5="13000.00000" pt_clust_6="13000.00000" pt_clust_7="13000.00000" pt_clust_8="13000.00000" pt_clust_9="127.36370"></scales>
<clustering>
<clus scale="   80.366">  5  6 -1 -1</clus>
<clus scale="   89.744">  7  8 -1 -1</clus>
<clus scale="  131.477">  2  7  1 -1</clus>
<clus scale="  127.364">  1  9  2 -1</clus>
<clus scale="  127.364">  1  5  2 -1</clus>
</clustering>
</event>
<event>
 9    2  0.4653788E-005  0.9786262E+02  0.7546771E-02  0.1288352E+00
         -3   -1    0    0    0  501 -0.00000000000E+00  0.00000000000E+00  0.63888763251E+02  0.63888763251E+02  0.00000000000E+00 0.  1.
         21   -1    0    0  501  502  0.00000000000E+00 -0.00000000000E+00 -0.29135077113E+03  0.29135077113E+03  0.00000000000E+00 0.  1.
         24    2    1    2    0    0  0.11073738790E+02  0.53581072252E+02 -0.11687061740E+03  0.15292973703E+03  0.82068290230E+02 0.  0.
         23    2    1    2    0    0  0.42719383437E+01 -0.26238788533E+02 -0.13410462599E+03  0.16311843951E+03  0.88976688602E+02 0.  0.
        -11    1    3    3    0    0 -0.69736331342E+01  0.22604156190E+02  0.64374660530E+01  0.24515717517E+02  0.00000000000E+00 0.  1.
         12    1    3    3    0    0  0.18047371924E+02  0.30976916061E+02 -0.12330808345E+03  0.12841401951E+03  0.00000000000E+00 0. -1.
        -13    1    4    4    0    0 -0.10677562305E+01 -0.56695072621E+02 -0.11056090819E+03  0.12425452017E+03  0.00000000000E+00 0.  1.
         13    1    4    4    0    0  0.53396945743E+01  0.30456284088E+02 -0.23543717808E+02  0.38863919345E+02  0.00000000000E+00 0. -1.
         -4    1    1    2    0  502 -0.15345677134E+02 -0.27342283719E+02  0.23513235511E+02  0.39191357846E+02  0.00000000000E+00 0.  1.
<scales pt_clust_5="13000.00000" pt_clust_6="13000.00000" pt_clust_7="13000.00000" pt_clust_8="13000.00000" pt_clust_9="31.35429"></scales>
<clustering>
<clus scale="   31.354">  2  9  1 -1</clus>
<clus scale="   82.068">  5  6 -1 -1</clus>
<clus scale="   88.977">  7  8 -1 -1</clus>
<clus scale="   91.627">  1  5  2 -1</clus>
<clus scale="   31.354">  2  5  1 -1</clus>
</clustering>
</event>
<event>
 9    2  0.4653788E-005  0.1302639E+03  0.7546771E-02  0.1229710E+00
          2   -1    0    0  502    0 -0.00000000000E+00  0.00000000000E+00  0.59858255107E+03  0.59858255107E+03  0.00000000000E+00 0. -1.
         21   -1    0    0  501  502  0.00000000000E+00 -0.00000000000E+00 -0.84006570176E+02  0.84006570176E+02  0.00000000000E+00 0.  1.
         24    2    1    2    0    0  0.29277459517E+02 -0.62064488203E+02  0.14998273810E+03  0.18453136113E+03  0.82751623441E+02 0.  0.
         23    2    1    2    0    0 -0.59814261602E+02  0.15678987371E+03  0.10190771321E+03  0.21715015539E+03  0.92780372842E+02 0.  0.
        -11    1    3    3    0    0  0.23992339323E+02 -0.80014455451E+02  0.14073492898E+03  0.16365899200E+03  0.00000000000E+00 0.  1.
         12    1    3    3    0    0  0.52851201945E+01  0.17949967248E+02  0.92478091153E+01  0.20872369130E+02  0.00000000000E+00 0. -1.
        -11    1    4    4    0    0 -0.25669141289E+02  0.10638369105E+03  0.14158955093E+02  0.11034885838E+03  0.00000000000E+00 0.  1.
         11    1    4    4    0    0 -0.34145120313E+02  0.50406182656E+02  0.87748758122E+02  0.10680129701E+03  0.00000000000E+00 0. -1.
          1    1    1    2  501    0  0.30536802085E+02 -0.94725385505E+02  0.26268552958E+03  0.28090760472E+03  0.00000000000E+00 0. -1.
<scales pt_clust_5="13000.00000" pt_clust_6="13000.00000" pt_clust_7="13000.00000" pt_clust_8="13000.00000" pt_clust_9="99.52590"></scales>
<clustering>
<clus scale="   82.752">  5  6 -1 -1</clus>
<clus scale="   92.780">  7  8 -1 -1</clus>
<clus scale="   99.526">  2  9  1 -1</clus>
<clus scale="  123.322">  1  5  2 -1</clus>
<clus scale="   99.526">  2  5  1 -1</clus>
</clustering>
</event>
<event>
 9    2  0.4653788E-005  0.9413476E+02  0.7546771E-02  0.1300864E+00
         21   -1    0    0  501  502  0.00000000000E+00  0.00000000000E+00  0.73355525439E+02  0.73355525439E+02  0.00000000000E+00 0.  1.
          4   -1    0    0  502    0 -0.00000000000E+00 -0.00000000000E+00 -0.29666641698E+03  0.29666641698E+03  0.00000000000E+00 0. -1.
         24    2    1    2    0    0  0.15975845385E+02 -0.28718863379E+02 -0.15967285567E+03  0.18098686010E+03  0.78618203618E+02 0.  0.
         23    2    1    2    0    0  0.21435740443E+02  0.88318665022E+01 -0.96781020159E+02  0.13524310516E+03  0.91578593549E+02 0.  0.
        -13    1    3    3    0    0  0.11184306459E+02  0.18960882977E+02 -0.10660966658E+02  0.24459354127E+02  0.00000000000E+00 0.  1.
         14    1    3    3    0    0  0.47915389258E+01 -0.47679746357E+02 -0.14901188901E+03  0.15652750597E+03  0.00000000000E+00 0. -1.
        -11    1    4    4    0    0  0.44237279853E+02 -0.18963325812E+02 -0.84511324017E+02  0.97255892067E+02  0.00000000000E+00 0. -1.
         11    1    4    4    0    0 -0.22801539410E+02  0.27795192314E+02 -0.12269696142E+02  0.37987213094E+02  0.00000000000E+00 0.  1.
          3    1    1    2  501    0 -0.37411585828E+02  0.19886996877E+02  0.33142984291E+02  0.53791977159E+02  0.00000000000E+00 0. -1.
<scales pt_clust_5="13000.00000" pt_clust_6="13000.00000" pt_clust_7="13000.00000" pt_clust_8="13000.00000" pt_clust_9="42.36885"></scales>
<clustering>
<clus scale="   42.369">  1  9  2 -1</clus>
<clus scale="   78.618">  5  6 -1 -1</clus>
<clus scale="   81.581">  2  5  1 -1</clus>
<clus scale="   91.579">  7  8 -1 -1</clus>
<clus scale="   42.369">  1  5  2 -1</clus>
</clustering>
</event>
<event>
 9    2  0.4653788E-005  0.2387065E+03  0.7546771E-02  0.1120658E+00
         21   -1    0    0  501  502  0.00000000000E+00  0.00000000000E+00  0.91132328473E+02  0.91132328473E+02  0.00000000000E+00 0. -1.
          2   -1    0    0  502    0 -0.00000000000E+00 -0.00000000000E+00 -0.70586527269E+03  0.70586527269E+03  0.00000000000E+00 0. -1.
         24    2    1    2    0    0 -0.31858873885E+02  0.82609238626E+02 -0.51055125564E+03  0.52442288839E+03  0.80731078786E+02 0.  0.
         23    2    1    2    0    0 -0.27909948809E+01  0.15094125303E+02 -0.13547092197E+03  0.16429001001E+03  0.91669048309E+02 0.  0.
        -11    1    3    3    0    0 -0.56183888406E+02  0.36881282439E+02 -0.25757469168E+03  0.26619838487E+03  0.00000000000E+00 0.  1.
         12    1    3    3    0    0  0.24325014521E+02  0.45727956187E+02 -0.25297656396E+03  0.25822450352E+03  0.00000000000E+00 0. -1.
        -11    1    4    4    0    0  0.21738961205E+02 -0.32565966825E+02 -0.52070410397E+02  0.65149460999E+02  0.00000000000E+00 0.  1.
         11    1    4    4    0    0 -0.24529956086E+02  0.47660092128E+02 -0.83400511571E+02  0.99140549008E+02  0.00000000000E+00 0. -1.
          1    1    1    2  501    0  0.34649868766E+02 -0.97703363929E+02  0.31289233385E+02  0.10828470277E+03  0.00000000000E+00 0. -1.
<scales pt_clust_5="13000.00000" pt_clust_6="13000.00000" pt_clust_7="13000.00000" pt_clust_8="13000.00000" pt_clust_9="103.66562"></scales>
<clustering>
<clus scale="   80.731">  5  6 -1 -1</clus>
<clus scale="   91.669">  7  8 -1 -1</clus>
<clus scale="   92.162">  5  7 -1 -1</clus>
<clus scale="  103.666">  1  9  2 -1</clus>
<clus scale="  103.666">  1  5  2 -1</clus>
</clustering>
</event>
<event>
 9    2  0.4653788E-005  0.1282856E+03  0.7546771E-02  0.1233625E+00
         21   -1    0    0  501  502  0.00000000000E+00  0.00000000000E+00  0.90272213333E+02  0.90272213333E+02  0.00000000000E+00 0. -1.
         -1   -1    0    0    0  501 -0.00000000000E+00 -0.00000000000E+00 -0.27511275739E+03  0.27511275739E+03  0.00000000000E+00 0.  1.
         23    2    1    2    0    0  0.98344828414E+02 -0.40965520324E+02 -0.15639255594E+03  0.21097775125E+03  0.93290411287E+02 0.  0.
         24    2    1    2    0    0 -0.51281659202E+02  0.22499124322E+02 -0.31603968189E+01  0.97879244529E+02  0.80214333107E+02 0.  0.
        -13    1    4    4    0    0 -0.58970360965E+02  0.22818353974E+02 -0.29979304928E+02  0.69978135688E+02  0.00000000000E+00 0.  1.
         14    1    4    4    0    0  0.76887017630E+01 -0.31922965228E+00  0.26818908110E+02  0.27901108841E+02  0.00000000000E+00 0. -1.
        -11    1    3    3    0    0  0.10660288910E+03 -0.16678450471E+02 -0.14958043720E+03  0.18443604275E+03  0.00000000000E+00 0. -1.
         11    1    3    3    0    0 -0.82580606813E+01 -0.24287069853E+02 -0.68121187411E+01  0.26541708498E+02  0.00000000000E+00 0.  1.
         -2    1    1    2    0  502 -0.47063169212E+02  0.18466396002E+02 -0.25287591299E+02  0.56527974944E+02  0.00000000000E+00 0.  1.
<scales pt_clust_5="13000.00000" pt_clust_6="13000.00000" pt_clust_7="13000.00000" pt_clust_8="13000.00000" pt_clust_9="50.55640"></scales>
<clustering>
<clus scale="   50.556">  1  9  2 -1</clus>
<clus scale="   80.214">  5  6 -1 -1</clus>
<clus scale="   93.290">  7  8 -1 -1</clus>
<clus scale="  119.115">  1  5  2 -1</clus>
<clus scale="   50.556">  1  5  2 -1</clus>
</clustering>
</event>
<event>
 9    2  0.4653788E-005  0.2082826E+03  0.7546771E-02  0.1144012E+00
         21   -1    0    0  501  502  0.00000000000E+00  0.00000000000E+00  0.10124573972E+03  0.10124573972E+03  0.00000000000E+00 0.  1.
         -1   -1    0    0    0  501 -0.00000000000E+00 -0.00000000000E+00 -0.12407382485E+04  0.12407382485E+04  0.00000000000E+00 0.  1.
         23    2    1    2    0    0  0.11619812411E+03 -0.15181813211E+03 -0.10450909213E+04  0.10663991994E+04  0.91877469866E+02 0.  0.
         24    2    1    2    0    0 -0.55108125431E+02  0.16274799970E+03 -0.98744035184E+02  0.21337299899E+03  0.79081194460E+02 0.  0.
        -11    1    4    4    0    0 -0.29791146208E+01  0.34273555677E+02  0.11461506950E+02  0.36261796483E+02  0.00000000000E+00 0.  1.
         12    1    4    4    0    0 -0.52129010810E+02  0.12847444402E+03 -0.11020554213E+03  0.17711120250E+03  0.00000000000E+00 0. -1.
        -13    1    3    3    0    0  0.22749245657E+02 -0.98848811589E+02 -0.60116810966E+03  0.60966524569E+03  0.00000000000E+00 0.  1.
         13    1    3    3    0    0  0.93448878453E+02 -0.52969320522E+02 -0.44392281161E+03  0.45673395370E+03  0.00000000000E+00 0. -1.
         -2    1    1    2    0  502 -0.61089998680E+02 -0.10929867589E+02  0.43424476681E+01  0.62211789847E+02  0.00000000000E+00 0.  1.
<scales pt_clust_5="13000.00000" pt_clust_6="13000.00000" pt_clust_7="13000.00000" pt_clust_8="13000.00000" pt_clust_9="62.06005"></scales>
<clustering>
<clus scale="   62.060">  1  9  2 -1</clus>
<clus scale="   79.081">  5  6 -1 -1</clus>
<clus scale="   91.877">  7  8 -1 -1</clus>
<clus scale="  202.963">  1  5  2 -1</clus>
<clus scale="   62.060">  1  5  2 -1</clus>
</clustering>
</event>
<event>
 9    2  0.4653788E-005  0.2861695E+03  0.7546771E-02  0.1092906E+00
         21   -1    0    0  501  502  0.00000000000E+00  0.00000000000E+00  0.84565427812E+02  0.84565427812E+02  0.00000000000E+00 0. -1.
          2   -1    0    0  502    0 -0.00000000000E+00 -0.00000000000E+00 -0.18066633188E+04  0.18066633188E+04  0.00000000000E+00 0. -1.
         24    2    1    2    0    0 -0.14554725028E+03  0.24853929220E+03 -0.12973368505E+04  0.13313783503E+04  0.80806102490E+02 0.  0.
         23    2    1    2    0    0  0.87032043621E+02 -0.21913785589E+03 -0.42423573672E+03  0.49436184909E+03  0.93923910807E+02 0.  0.
        -13    1    3    3    0    0 -0.28964837576E+02  0.85012178129E+01 -0.90890348405E+02  0.95772062488E+02  0.00000000000E+00 0.  1.
         14    1    3    3    0    0 -0.11658241271E+03  0.24003807439E+03 -0.12064465021E+04  0.12356062878E+04  0.00000000000E+00 0. -1.
        -13    1    4    4    0    0  0.10175182790E+03 -0.14085970585E+03 -0.27794215008E+03  0.32779068017E+03  0.00000000000E+00 0.  1.
         13    1    4    4    0    0 -0.14719784282E+02 -0.78278150045E+02 -0.14629358664E+03  0.16657116892E+03  0.00000000000E+00 0. -1.
          1    1    1    2  501    0  0.58515206662E+02 -0.29401436308E+02 -0.52530374149E+00  0.65488547179E+02  0.00000000000E+00 0. -1.
<scales pt_clust_5="13000.00000" pt_clust_6="13000.00000" pt_clust_7="13000.00000" pt_clust_8="13000.00000" pt_clust_9="65.48644"></scales>
<clustering>
<clus scale="   65.486">  1  9  2 -1</clus>
<clus scale="   80.806">  5  6 -1 -1</clus>
<clus scale="   93.924">  7  8 -1 -1</clus>
<clus scale="  282.136">  2  5  1 -1</clus>
<clus scale="   65.486">  1  5  2 -1</clus>
</clustering>
</event>
<event>
 9    2  0.4653788E-005  0.1157687E+03  0.7546771E-02  0.1254536E+00
          4   -1    0    0  502    0 -0.00000000000E+00  0.00000000000E+00  0.64880474070E+02  0.64880474070E+02  0.00000000000E+00 0. -1.
         21   -1    0    0  501  502  0.00000000000E+00 -0.00000000000E+00 -0.57124433288E+03  0.57124433288E+03  0.00000000000E+00 0. -1.
         23    2    1    2    0    0  0.63424173829E+02  0.31288173334E+02 -0.90855996257E+02  0.14816486626E+03  0.93254704555E+02 0.  0.
         24    2    1    2    0    0 -0.81306275032E+02  0.53318937176E+02 -0.36821888718E+03  0.38939838691E+03  0.81193198179E+02 0.  0.
        -11    1    4    4    0    0 -0.83891191480E+02  0.69911852627E+02 -0.30396422315E+03  0.32298552305E+03  0.00000000000E+00 0.  1.
         12    1    4    4    0    0  0.25849164477E+01 -0.16592915451E+02 -0.64254664033E+02  0.66412863861E+02  0.00000000000E+00 0. -1.
        -13    1    3    3    0    0  0.49244031794E+02  0.64202228166E+02 -0.67664730259E+02  0.10547708988E+03  0.00000000000E+00 0. -1.
         13    1    3    3    0    0  0.14180142035E+02 -0.32914054832E+02 -0.23191265998E+02  0.42687776379E+02  0.00000000000E+00 0.  1.
          3    1    1    2  501    0  0.17882101203E+02 -0.84607110511E+02 -0.47288975378E+02  0.98561553786E+02  0.00000000000E+00 0. -1.
<scales pt_clust_5="13000.00000" pt_clust_6="13000.00000" pt_clust_7="13000.00000" pt_clust_8="13000.00000" pt_clust_9="86.47624"></scales>
<clustering>
<clus scale="   81.193">  5  6 -1 -1</clus>
<clus scale="   86.476">  2  9  1 -1</clus>
<clus scale="   93.255">  7  8 -1 -1</clus>
<clus scale="  106.293">  2  5  1 -1</clus>
<clus scale="   86.476">  2  5  1 -1</clus>
</clustering>
</event>
<event>
 9    2  0.4653788E-005  0.1258367E+03  0.7546771E-02  0.1236550E+00
         21   -1    0    0  501  502  0.00000000000E+00  0.00000000000E+00  0.68782714659E+03  0.68782714659E+03  0.00000000000E+00 0. -1.
         -1   -1    0    0    0  501 -0.00000000000E+00 -0.00000000000E+00 -0.94509740800E+02  0.94509740800E+02  0.00000000000E+00 0.  1.
         23    2    1    2    0    0 -0.73644394893E+01  0.87948450766E+02 -0.36443562517E+02  0.13202686908E+03  0.91180019469E+02 0.  0.
         24    2    1    2    0    0 -0.30481309660E+02 -0.71438398015E+02  0.53895040210E+03  0.55055310624E+03  0.81293492438E+02 0.  0.
        -13    1    4    4    0    0  0.12508704589E+02 -0.30642833671E+02  0.65296009914E+02  0.73205326695E+02  0.00000000000E+00 0.  1.
         14    1    4    4    0    0 -0.42990014249E+02 -0.40795564344E+02  0.47365439219E+03  0.47734777954E+03  0.00000000000E+00 0. -1.
        -13    1    3    3    0    0  0.26669729708E+02  0.64939398343E+00  0.86458660233E+01  0.28043665854E+02  0.00000000000E+00 0.  1.
         13    1    3    3    0    0 -0.34034169197E+02  0.87299056782E+02 -0.45089428540E+02  0.10398320323E+03  0.00000000000E+00 0. -1.
         -2    1    1    2    0  502  0.37845749150E+02 -0.16510052751E+02  0.90810566206E+02  0.99756912067E+02  0.00000000000E+00 0.  1.
<scales pt_clust_5="13000.00000" pt_clust_6="13000.00000" pt_clust_7="13000.00000" pt_clust_8="13000.00000" pt_clust_9="41.29022"></scales>
<clustering>
<clus scale="   41.290">  1  9  2 -1</clus>
<clus scale="   81.293">  5  6 -1 -1</clus>
<clus scale="   91.180">  7  8 -1 -1</clus>
<clus scale="  118.868">  1  5  2 -1</clus>
<clus scale="   41.290">  1  5  2 -1</clus>
</clustering>
</event>
<event>
 9    2  0.4653788E-005  0.9064118E+02  0.7546771E-02  0.1305556E+00
         21   -1    0    0  501  502  0.00000000000E+00  0.00000000000E+00  0.11111472241E+03  0.11111472241E+03  0.00000000000E+00 0.  1.
         -1   -1    0    0    0  501 -0.00000000000E+00 -0.00000000000E+00 -0.33631298514E+03  0.33631298514E+03  0.00000000000E+00 0.  1.
         23    2    1    2    0    0 -0.36372902955E+01  0.74013600639E+01 -0.18810658026E+03  0.20753190809E+03  0.87277702343E+02 0.  0.
         24    2    1    2    0    0 -0.12184785384E+02 -0.57793699652E+02 -0.11094785041E+03  0.14909679336E+03  0.80198800275E+02 0.  0.
        -11    1    4    4    0    0  0.31863425344E+02 -0.30447978479E+02 -0.31280803092E+02  0.54044850913E+02  0.00000000000E+00 0.  1.
         12    1    4    4    0    0 -0.44048210728E+02 -0.27345721173E+02 -0.79667047314E+02  0.95051942445E+02  0.00000000000E+00 0. -1.
        -13    1    3    3    0    0 -0.31272421066E+02  0.79126650019E+01 -0.21775017279E+02  0.38919480524E+02  0.00000000000E+00 0.  1.
         13    1    3    3    0    0  0.27635130771E+02 -0.51130493797E+00 -0.16633156298E+03  0.16861242756E+03  0.00000000000E+00 0. -1.
         -2    1    1    2    0  502  0.15822075680E+02  0.50392339588E+02  0.73856167930E+02  0.90799006102E+02  0.00000000000E+00 0.  1.
<scales pt_clust_5="13000.00000" pt_clust_6="13000.00000" pt_clust_7="13000.00000" pt_clust_8="13000.00000" pt_clust_9="52.81786"></scales>
<clustering>
<clus scale="   52.818">  1  9  2 -1</clus>
<clus scale="   80.199">  5  6 -1 -1</clus>
<clus scale="   83.847">  1  5  2 -1</clus>
<clus scale="   87.278">  7  8 -1 -1</clus>
<clus scale="   52.818">  1  5  2 -1</clus>
</clustering>
</event>
<event>
 9    2  0.4653788E-005  0.1650258E+03  0.7546771E-02  0.1185090E+00
         21   -1    0    0  501  502  0.00000000000E+00  0.00000000000E+00  0.19905435292E+03  0.19905435292E+03  0.00000000000E+00 0. -1.
          4   -1    0    0  502    0 -0.00000000000E+00 -0.00000000000E+00 -0.16823496726E+03  0.16823496726E+03  0.00000000000E+00 0. -1.
         24    2    1    2    0    0  0.77291574733E+02  0.97095424701E+02 -0.77157882378E+00  0.14730399843E+03  0.79349628844E+02 0.  0.
         23    2    1    2    0    0 -0.10459572245E+03 -0.11582280402E+03  0.40030899927E+02  0.18581715338E+03  0.92576208913E+02 0.  0.
        -11    1    3    3    0    0 -0.60166042347E+01  0.19490172319E+02 -0.23589668260E+02  0.31185554222E+02  0.00000000000E+00 0.  1.
         12    1    3    3    0    0  0.83308178968E+02  0.77605252382E+02  0.22818089436E+02  0.11611844421E+03  0.00000000000E+00 0. -1.
        -11    1    4    4    0    0 -0.77470977582E+02 -0.78340503470E+02  0.70146290066E+02  0.13061197825E+03  0.00000000000E+00 0. -1.
         11    1    4    4    0    0 -0.27124744864E+02 -0.37482300553E+02 -0.30115390139E+02  0.55205175137E+02  0.00000000000E+00 0.  1.
          3    1    1    2  501    0  0.27304147713E+02  0.18727379322E+02 -0.84399354419E+01  0.34168168356E+02  0.00000000000E+00 0. -1.
<scales pt_clust_5="13000.00000" pt_clust_6="13000.00000" pt_clust_7="13000.00000" pt_clust_8="13000.00000" pt_clust_9="33.10940"></scales>
<clustering>
<clus scale="   33.109">  1  9  2 -1</clus>
<clus scale="   79.350">  5  6 -1 -1</clus>
<clus scale="   92.576">  7  8 -1 -1</clus>
<clus scale="  157.986">  2  5  1 -1</clus>
<clus scale="   33.109">  1  5  2 -1</clus>
</clustering>
</event>
<event>
 9    2  0.4653788E-005  0.1576878E+03  0.7546771E-02  0.1209970E+00
         21   -1    0    0  501  502  0.00000000000E+00  0.00000000000E+00  0.44030808323E+02  0.44030808323E+02  0.00000000000E+00 0. -1.
          2   -1    0    0  502    0 -0.00000000000E+00 -0.00000000000E+00 -0.10998836900E+04  0.10998836900E+04  0.00000000000E+00 0. -1.
         24    2    1    2    0    0 -0.63567832518E+02  0.23536349786E+02 -0.60193542912E+03  0.61106607195E+03  0.80502511586E+02 0.  0.
         23    2    1    2    0    0 -0.36555475598E+02  0.68169517823E+02 -0.29076266686E+03  0.32058885161E+03  0.11068377200E+03 0.  0.
        -13    1    3    3    0    0 -0.58497254967E+02  0.27933408067E+02 -0.22710443016E+03  0.23617499090E+03  0.00000000000E+00 0.  1.
         14    1    3    3    0    0 -0.50705775503E+01 -0.43970582811E+01 -0.37483099896E+03  0.37489108106E+03  0.00000000000E+00 0. -1.
        -13    1    4    4    0    0  0.26671077571E+02  0.63091426643E+02 -0.18487458412E+03  0.19715599496E+03  0.00000000000E+00 0.  1.
         13    1    4    4    0    0 -0.63226553169E+02  0.50780911803E+01 -0.10588808273E+03  0.12343285665E+03  0.00000000000E+00 0. -1.
          1    1    1    2  501    0  0.10012330812E+03 -0.91705867609E+02 -0.16315478573E+03  0.21225957478E+03  0.00000000000E+00 0. -1.
<scales pt_clust_5="13000.00000" pt_clust_6="13000.00000" pt_clust_7="13000.00000" pt_clust_8="13000.00000" pt_clust_9="112.31445"></scales>
<clustering>
<clus scale="   80.503">  5  6 -1 -1</clus>
<clus scale="  105.240">  2  5  1 -1</clus>
<clus scale="  110.684">  7  8 -1 -1</clus>
<clus scale="  112.314">  1  9  2 -1</clus>
<clus scale="  112.314">  1  5  2 -1</clus>
</clustering>
</event>
<event>
 9    2  0.5406617E-005  0.9905245E+02  0.7546771E-02  0.1288245E+00
         21   -1    0    0  501  502  0.00000000000E+00  0.00000000000E+00  0.15659837952E+03  0.15659837952E+03  0.00000000000E+00 0.  1.
         -1   -1    0    0    0  501 -0.00000000000E+00 -0.00000000000E+00 -0.32871434072E+03  0.32871434072E+03  0.00000000000E+00 0.  1.
         24    2    1    2    0    0 -0.65628212761E+01  0.46881296436E+02 -0.81958160927E+02  0.12401580243E+03  0.80136461934E+02 0.  0.
         23    2    1    2    0    0 -0.27391042123E+02  0.19203192878E+02  0.11046431356E+03  0.14735941028E+03  0.91615497712E+02 0.  0.
        -13    1    3    3    0    0  0.24829239466E+02  0.49330947095E+02 -0.28934890546E+02  0.62347905856E+02  0.00000000000E+00 0.  1.
         14    1    3    3    0    0 -0.31392060742E+02 -0.24496506591E+01 -0.53023270380E+02  0.61667896574E+02  0.00000000000E+00 0. -1.
        -11    1    4    4    0    0  0.23330077249E+02 -0.20729024317E+02  0.23563734235E+02  0.39105428328E+02  0.00000000000E+00 0. -1.
         11    1    4    4    0    0 -0.50721119373E+02  0.39932217194E+02  0.86900579327E+02  0.10825398195E+03  0.00000000000E+00 0.  1.
         -2    1    1    2    0  502  0.33953863400E+02 -0.66084489313E+02 -0.20062211384E+03  0.21393750753E+03  0.00000000000E+00 0.  1.
<scales pt_clust_5="13000.00000" pt_clust_6="13000.00000" pt_clust_7="13000.00000" pt_clust_8="13000.00000" pt_clust_9="74.29690"></scales>
<clustering>
<clus scale="   74.297">  1  9  2 -1</clus>
<clus scale="   80.136">  5  6 -1 -1</clus>
<clus scale="   88.543">  2  5  1 -1</clus>
<clus scale="   91.615">  7  8 -1 -1</clus>
<clus scale="   74.297">  1  5  2 -1</clus>
</clustering>
</event>
<event>
 9    2  0.4653788E-005  0.1031378E+03  0.7546771E-02  0.1278922E+00
         -1   -1    0    0    0  501 -0.00000000000E+00  0.00000000000E+00  0.40450477215E+02  0.40450477215E+02  0.00000000000E+00 0.  1.
         21   -1    0    0  501  502  0.00000000000E+00 -0.00000000000E+00 -0.69179528438E+03  0.69179528438E+03  0.00000000000E+00 0.  1.
         23    2    1    2    0    0  0.42277757932E+02  0.13389764256E+01 -0.66309371443E+02  0.12091055515E+03  0.91832608221E+02 0.  0.
         24    2    1    2    0    0 -0.51413882192E+02 -0.50372594945E+02 -0.24786627183E+03  0.27049681425E+03  0.80932392805E+02 0.  0.
        -11    1    4    4    0    0 -0.41613757921E+02 -0.68924057805E+02 -0.14831765544E+03  0.16876124409E+03  0.00000000000E+00 0.  1.
         12    1    4    4    0    0 -0.98001242710E+01  0.18551462860E+02 -0.99548616395E+02  0.10173557016E+03  0.00000000000E+00 0. -1.
        -11    1    3    3    0    0  0.65183702284E+02 -0.55636549562E+01 -0.70985993870E+02  0.96534349460E+02  0.00000000000E+00 0.  1.
         11    1    3    3    0    0 -0.22905944352E+02  0.69026313818E+01  0.46766224270E+01  0.24376205693E+02  0.00000000000E+00 0. -1.
         -2    1    1    2    0  502  0.91361242604E+01  0.49033618520E+02 -0.33716916389E+03  0.34083839219E+03  0.00000000000E+00 0.  1.
<scales pt_clust_5="13000.00000" pt_clust_6="13000.00000" pt_clust_7="13000.00000" pt_clust_8="13000.00000" pt_clust_9="49.87750"></scales>
<clustering>
<clus scale="   49.877">  2  9  1 -1</clus>
<clus scale="   80.932">  5  6 -1 -1</clus>
<clus scale="   91.833">  7  8 -1 -1</clus>
<clus scale="   93.564">  2  5  1 -1</clus>
<clus scale="   49.877">  2  5  1 -1</clus>
</clustering>
</event>
<event>
 9    2  0.4653788E-005  0.1034122E+03  0.7546771E-02  0.1278218E+00
          2   -1    0    0  502    0 -0.00000000000E+00  0.00000000000E+00  0.49611170226E+02  0.49611170226E+02  0.00000000000E+00 0. -1.
         21   -1    0    0  501  502  0.00000000000E+00 -0.00000000000E+00 -0.52963997202E+03  0.52963997202E+03  0.00000000000E+00 0. -1.
         23    2    1    2    0    0 -0.62390541594E+02 -0.17115969339E+02 -0.17852806230E+03  0.21085893020E+03  0.91671605904E+02 0.  0.
         24    2    1    2    0    0 -0.12495498853E+02  0.63948624999E+02 -0.23769769065E+03  0.25943329441E+03  0.80993073646E+02 0.  0.
        -13    1    4    4    0    0  0.30156173700E+02  0.50861633561E+02 -0.14348287714E+03  0.15518903509E+03  0.00000000000E+00 0.  1.
         14    1    4    4    0    0 -0.42651672553E+02  0.13086991438E+02 -0.94214813516E+02  0.10424425933E+03  0.00000000000E+00 0. -1.
        -13    1    3    3    0    0 -0.21421588598E+02  0.25711787672E+01  0.46964595740E+01  0.22080583118E+02  0.00000000000E+00 0.  1.
         13    1    3    3    0    0 -0.40968952996E+02 -0.19687148106E+02 -0.18322452188E+03  0.18877834708E+03  0.00000000000E+00 0. -1.
          1    1    1    2  501    0  0.74886040447E+02 -0.46832655660E+02 -0.63803048836E+02  0.10895891763E+03  0.00000000000E+00 0. -1.
<scales pt_clust_5="13000.00000" pt_clust_6="13000.00000" pt_clust_7="13000.00000" pt_clust_8="13000.00000" pt_clust_9="88.32454"></scales>
<clustering>
<clus scale="   80.993">  5  6 -1 -1</clus>
<clus scale="   88.325">  2  9  1 -1</clus>
<clus scale="   91.672">  7  8 -1 -1</clus>
<clus scale="   94.076">  2  5  1 -1</clus>
<clus scale="   88.325">  2  5  1 -1</clus>
</clustering>
</event>
<event>
 9    2  0.4653788E-005  0.1089095E+03  0.7546771E-02  0.1270010E+00
         21   -1    0    0  501  502  0.00000000000E+00  0.00000000000E+00  0.16113931982E+03  0.16113931982E+03  0.00000000000E+00 0.  1.
          2   -1    0    0  502    0 -0.00000000000E+00 -0.00000000000E+00 -0.11205599033E+03  0.11205599033E+03  0.00000000000E+00 0. -1.
         24    2    1    2    0    0 -0.33309341910E+02  0.53765975763E+02 -0.24284476450E+02  0.10203807094E+03  0.76300325802E+02 0.  0.
         23    2    1    2    0    0 -0.93262542859E+01 -0.49678579734E+02  0.31066791695E+02  0.11095859573E+03  0.93764194220E+02 0.  0.
        -11    1    3    3    0    0  0.23514656191E+02  0.83963332290E+01 -0.13925880852E+02  0.28589641917E+02  0.00000000000E+00 0.  1.
         12    1    3    3    0    0 -0.56823998101E+02  0.45369642534E+02 -0.10358595599E+02  0.73448429027E+02  0.00000000000E+00 0. -1.
        -13    1    4    4    0    0 -0.29088884650E+02 -0.22813345086E+02 -0.25767149394E+02  0.45061712263E+02  0.00000000000E+00 0. -1.
         13    1    4    4    0    0  0.19762630364E+02 -0.26865234647E+02  0.56833941088E+02  0.65896883471E+02  0.00000000000E+00 0.  1.
          1    1    1    2  501    0  0.42635596196E+02 -0.40873960288E+01  0.42301014251E+02  0.60198643472E+02  0.00000000000E+00 0. -1.
<scales pt_clust_5="13000.00000" pt_clust_6="13000.00000" pt_clust_7="13000.00000" pt_clust_8="13000.00000" pt_clust_9="42.83107"></scales>
<clustering>
<clus scale="   42.831">  1  9  2 -1</clus>
<clus scale="   76.300">  5  6 -1 -1</clus>
<clus scale="   93.764">  7  8 -1 -1</clus>
<clus scale="   94.294">  2  5  1 -1</clus>
<clus scale="   42.831">  1  5  2 -1</clus>
</clustering>
</event>
<event>
 9    2  0.4653788E-005  0.2365693E+03  0.7546771E-02  0.1123108E+00
         21   -1    0    0  501  502  0.00000000000E+00  0.00000000000E+00  0.19395559830E+03  0.19395559830E+03  0.00000000000E+00 0. -1.
          2   -1    0    0  502    0 -0.00000000000E+00 -0.00000000000E+00 -0.71473018109E+03  0.71473018109E+03  0.00000000000E+00 0. -1.
         23    2    1    2    0    0 -0.22932339461E+03  0.47487612936E+02 -0.38819359106E+03  0.46252722235E+03  0.91612633303E+02 0.  0.
         24    2    1    2    0    0  0.19779055264E+03  0.11067566702E+03 -0.15298154808E+03  0.28359741177E+03  0.75192632114E+02 0.  0.
        -11    1    4    4    0    0  0.71773602726E+02  0.49874727831E+01 -0.28735938505E+02  0.77473086260E+02  0.00000000000E+00 0.  1.
         12    1    4    4    0    0  0.12601694992E+03  0.10568819424E+03 -0.12424560958E+03  0.20612432551E+03  0.00000000000E+00 0. -1.
        -11    1    3    3    0    0 -0.14788707729E+03  0.67841533342E+02 -0.29653341142E+03  0.33823826715E+03  0.00000000000E+00 0.  1.
         11    1    3    3    0    0 -0.81436317316E+02 -0.20353920406E+02 -0.91660179640E+02  0.12428895520E+03  0.00000000000E+00 0. -1.
          1    1    1    2  501    0  0.31532841965E+02 -0.15816327996E+03  0.20400556353E+02  0.16256114526E+03  0.00000000000E+00 0. -1.
<scales pt_clust_5="13000.00000" pt_clust_6="13000.00000" pt_clust_7="13000.00000" pt_clust_8="13000.00000" pt_clust_9="161.27598"></scales>
<clustering>
<clus scale="   75.193">  5  6 -1 -1</clus>
<clus scale="   91.613">  7  8 -1 -1</clus>
<clus scale="  161.276">  1  9  2 -1</clus>
<clus scale="  230.708">  1  5  2 -1</clus>
<clus scale="  161.276">  1  5  2 -1</clus>
</clustering>
</event>
<event>
 9    2  0.4653788E-005  0.3366112E+03  0.7546771E-02  0.1108339E+00
         21   -1    0    0  501  502  0.00000000000E+00  0.00000000000E+00  0.14597652613E+03  0.14597652613E+03  0.00000000000E+00 0. -1.
          2   -1    0    0  502    0 -0.00000000000E+00 -0.00000000000E+00 -0.12088489645E+04  0.12088489645E+04  0.00000000000E+00 0. -1.
         23    2    1    2    0    0  0.42988409642E+02 -0.54728782275E+02 -0.25668824987E+03  0.28176611998E+03  0.93059366935E+02 0.  0.
         24    2    1    2    0    0 -0.32599731944E+03  0.17336539690E+03 -0.57822361376E+03  0.69078366778E+03  0.80682805114E+02 0.  0.
        -11    1    4    4    0    0 -0.42534416832E+02  0.30092710154E+02 -0.14142577039E+03  0.15071826814E+03  0.00000000000E+00 0.  1.
         12    1    4    4    0    0 -0.28346290261E+03  0.14327268674E+03 -0.43679784337E+03  0.54006539964E+03  0.00000000000E+00 0. -1.
        -13    1    3    3    0    0  0.33826294418E+02  0.21046451244E+02 -0.91441638471E+02  0.99743393517E+02  0.00000000000E+00 0.  1.
         13    1    3    3    0    0  0.91621152249E+01 -0.75775233519E+02 -0.16524661140E+03  0.18202272647E+03  0.00000000000E+00 0. -1.
          1    1    1    2  501    0  0.28300890980E+03 -0.11863661462E+03 -0.22796057469E+03  0.38227570282E+03  0.00000000000E+00 0. -1.
<scales pt_clust_5="13000.00000" pt_clust_6="13000.00000" pt_clust_7="13000.00000" pt_clust_8="13000.00000" pt_clust_9="326.79874"></scales>
<clustering>
<clus scale="   80.683">  5  6 -1 -1</clus>
<clus scale="   93.059">  7  8 -1 -1</clus>
<clus scale="  116.204">  2  7  1 -1</clus>
<clus scale="  326.799">  1  9  2 -1</clus>
<clus scale="  326.799">  1  5  2 -1</clus>
</clustering>
</event>
<event>
 9    2  0.4653788E-005  0.1197423E+03  0.7546771E-02  0.1245635E+00
         21   -1    0    0  501  502  0.00000000000E+00  0.00000000000E+00  0.68751762464E+03  0.68751762464E+03  0.00000000000E+00 0. -1.
          4   -1    0    0  502    0 -0.00000000000E+00 -0.00000000000E+00 -0.36815484537E+02  0.36815484537E+02  0.00000000000E+00 0. -1.
         24    2    1    2    0    0  0.88943752196E+02  0.51102701430E+02  0.26861384823E+03  0.29934545889E+03  0.83257595132E+02 0.  0.
         23    2    1    2    0    0 -0.55045317403E+02 -0.27325918604E+01  0.32919484953E+03  0.34570027662E+03  0.90010989708E+02 0.  0.
        -11    1    3    3    0    0  0.77911643043E+01  0.31198268046E+02  0.22003773885E+02  0.38964089049E+02  0.00000000000E+00 0.  1.
         12    1    3    3    0    0  0.81152587892E+02  0.19904433384E+02  0.24661007435E+03  0.26038136984E+03  0.00000000000E+00 0. -1.
        -13    1    4    4    0    0  0.24286512165E+02  0.74972953798E+01  0.87150783574E+02  0.90781623629E+02  0.00000000000E+00 0.  1.
         13    1    4    4    0    0 -0.79331829568E+02 -0.10229887240E+02  0.24204406596E+03  0.25491865299E+03  0.00000000000E+00 0. -1.
          3    1    1    2  501    0 -0.33898434793E+02 -0.48370109569E+02  0.52893442334E+02  0.79287373668E+02  0.00000000000E+00 0. -1.
<scales pt_clust_5="13000.00000" pt_clust_6="13000.00000" pt_clust_7="13000.00000" pt_clust_8="13000.00000" pt_clust_9="59.06585"></scales>
<clustering>
<clus scale="   59.066">  1  9  2 -1</clus>
<clus scale="   83.258">  5  6 -1 -1</clus>
<clus scale="   90.011">  7  8 -1 -1</clus>
<clus scale="  114.752">  2  5  1 -1</clus>
<clus scale="   59.066">  1  5  2 -1</clus>
</clustering>
</event>
<event>
 9    2  0.4653788E-005  0.1127712E+03  0.7546771E-02  0.1259053E+00
         21   -1    0    0  501  502  0.00000000000E+00  0.00000000000E+00  0.44761305167E+03  0.44761305167E+03  0.00000000000E+00 0.  1.
          2   -1    0    0  502    0 -0.00000000000E+00 -0.00000000000E+00 -0.65182159386E+02  0.65182159386E+02  0.00000000000E+00 0. -1.
         24    2    1    2    0    0  0.78588840606E+01  0.70447733903E+02  0.12751079532E+02  0.10926727573E+03  0.82171176495E+02 0.  0.
         23    2    1    2    0    0 -0.24819919682E+02 -0.47322296135E+02  0.16063171499E+03  0.19252184589E+03  0.91687977174E+02 0.  0.
        -13    1    3    3    0    0 -0.19345321220E+02 -0.53286866469E+01 -0.13955615505E+02  0.24441676674E+02  0.00000000000E+00 0.  1.
         14    1    3    3    0    0  0.27204205281E+02  0.75776420550E+02  0.26706695037E+02  0.84825599061E+02  0.00000000000E+00 0. -1.
        -11    1    4    4    0    0  0.28904335669E+02 -0.43504378443E+02  0.76711953096E+02  0.92805254765E+02  0.00000000000E+00 0. -1.
         11    1    4    4    0    0 -0.53724255351E+02 -0.38179176919E+01  0.83919761897E+02  0.99716591124E+02  0.00000000000E+00 0.  1.
          1    1    1    2  501    0  0.16961035621E+02 -0.23125437768E+02  0.20904809776E+03  0.21100608943E+03  0.00000000000E+00 0. -1.
<scales pt_clust_5="13000.00000" pt_clust_6="13000.00000" pt_clust_7="13000.00000" pt_clust_8="13000.00000" pt_clust_9="28.67861"></scales>
<clustering>
<clus scale="   28.679">  1  9  2 -1</clus>
<clus scale="   82.171">  5  6 -1 -1</clus>
<clus scale="   91.688">  7  8 -1 -1</clus>
<clus scale="  105.180">  2  5  1 -1</clus>
<clus scale="   28.679">  1  5  2 -1</clus>
</clustering>
</event>
<event>
 9    2  0.4653788E-005  0.9338065E+02  0.7546771E-02  0.1302408E+00
         21   -1    0    0  501  502  0.00000000000E+00  0.00000000000E+00  0.41532524221E+03  0.41532524221E+03  0.00000000000E+00 0. -1.
          2   -1    0    0  502    0 -0.00000000000E+00 -0.00000000000E+00 -0.39873292374E+02  0.39873292374E+02  0.00000000000E+00 0. -1.
         24    2    1    2    0    0 -0.60367086323E+01  0.85780039429E+01  0.96728297412E+02  0.12566283506E+03  0.79528363439E+02 0.  0.
         23    2    1    2    0    0 -0.29572025275E+02 -0.34282420779E+02  0.26405738925E+03  0.28323453053E+03  0.91900519121E+02 0.  0.
        -13    1    3    3    0    0 -0.39393375513E+02 -0.74679468394E+01  0.67452830504E+02  0.78469692285E+02  0.00000000000E+00 0.  1.
         14    1    3    3    0    0  0.33356666881E+02  0.16045950782E+02  0.29275466908E+02  0.47193142771E+02  0.00000000000E+00 0. -1.
        -13    1    4    4    0    0 -0.28709045157E+02 -0.65298380829E+02  0.18934127382E+03  0.20233191984E+03  0.00000000000E+00 0. -1.
         13    1    4    4    0    0 -0.86298011789E+00  0.31015960049E+02  0.74716115426E+02  0.80902610692E+02  0.00000000000E+00 0.  1.
          1    1    1    2  501    0  0.35608733907E+02  0.25704416836E+02  0.14666263180E+02  0.46301169003E+02  0.00000000000E+00 0. -1.
<scales pt_clust_5="13000.00000" pt_clust_6="13000.00000" pt_clust_7="13000.00000" pt_clust_8="13000.00000" pt_clust_9="43.91698"></scales>
<clustering>
<clus scale="   43.917">  1  9  2 -1</clus>
<clus scale="   79.528">  5  6 -1 -1</clus>
<clus scale="   81.234">  2  5  1 -1</clus>
<clus scale="   91.901">  7  8 -1 -1</clus>
<clus scale="   43.917">  1  5  2 -1</clus>
</clustering>
</event>
<event>
 9    2  0.4653788E-005  0.2126478E+03  0.7546771E-02  0.1140924E+00
         21   -1    0    0  501  502  0.00000000000E+00  0.00000000000E+00  0.13562755441E+03  0.13562755441E+03  0.00000000000E+00 0.  1.
         -3   -1    0    0    0  501 -0.00000000000E+00 -0.00000000000E+00 -0.45976703203E+03  0.45976703203E+03  0.00000000000E+00 0.  1.
         24    2    1    2    0    0  0.19209007431E+03  0.79500164178E+02 -0.28241758994E+03  0.35838773796E+03  0.73913482277E+02 0.  0.
         23    2    1    2    0    0 -0.14446462904E+03 -0.64075781461E+02 -0.27792977987E+02  0.18504427402E+03  0.92158553084E+02 0.  0.
        -11    1    3    3    0    0  0.17897258776E+03  0.92716839517E+02 -0.25161109946E+03  0.32239067119E+03  0.00000000000E+00 0.  1.
         12    1    3    3    0    0  0.13117486545E+02 -0.13216675340E+02 -0.30806490483E+02  0.35997066772E+02  0.00000000000E+00 0. -1.
        -13    1    4    4    0    0 -0.34737147725E+02 -0.47869760549E+02  0.22469294856E+02  0.63269681668E+02  0.00000000000E+00 0.  1.
         13    1    4    4    0    0 -0.10972748132E+03 -0.16206020912E+02 -0.50262272842E+02  0.12177459235E+03  0.00000000000E+00 0. -1.
         -4    1    1    2    0  502 -0.47625445266E+02 -0.15424382716E+02 -0.13928909690E+02  0.51962574456E+02  0.00000000000E+00 0.  1.
<scales pt_clust_5="13000.00000" pt_clust_6="13000.00000" pt_clust_7="13000.00000" pt_clust_8="13000.00000" pt_clust_9="50.06091"></scales>
<clustering>
<clus scale="   50.061">  1  9  2 -1</clus>
<clus scale="   73.913">  5  6 -1 -1</clus>
<clus scale="   92.159">  7  8 -1 -1</clus>
<clus scale="  205.400">  2  5  1 -1</clus>
<clus scale="   50.061">  1  5  2 -1</clus>
</clustering>
</event>
<event>
 9    2  0.4653788E-005  0.1162281E+03  0.7546771E-02  0.1253360E+00
         21   -1    0    0  501  502  0.00000000000E+00  0.00000000000E+00  0.22134893642E+02  0.22134893642E+02  0.00000000000E+00 0. -1.
          2   -1    0    0  502    0 -0.00000000000E+00 -0.00000000000E+00 -0.12760479871E+04  0.12760479871E+04  0.00000000000E+00 0. -1.
         24    2    1    2    0    0  0.81195470682E+02 -0.16715380250E+02 -0.97306048301E+03  0.97983008404E+03  0.79675476842E+02 0.  0.
         23    2    1    2    0    0 -0.32914655238E+02  0.22258675058E+02 -0.21132136560E+03  0.23352143890E+03  0.91086331139E+02 0.  0.
        -11    1    3    3    0    0  0.34215601465E+01  0.20816323896E+02 -0.84915775368E+02  0.87496944637E+02  0.00000000000E+00 0.  1.
         12    1    3    3    0    0  0.77773910536E+02 -0.37531704146E+02 -0.88814470764E+03  0.89233313941E+03  0.00000000000E+00 0. -1.
        -11    1    4    4    0    0  0.27302548361E+02 -0.12180340671E+02 -0.58702957461E+02  0.65877363795E+02  0.00000000000E+00 0. -1.
         11    1    4    4    0    0 -0.60217203599E+02  0.34439015729E+02 -0.15261840814E+03  0.16764407510E+03  0.00000000000E+00 0.  1.
          1    1    1    2  501    0 -0.48280815444E+02 -0.55432948073E+01 -0.69531244889E+02  0.84831357840E+02  0.00000000000E+00 0. -1.
<scales pt_clust_5="13000.00000" pt_clust_6="13000.00000" pt_clust_7="13000.00000" pt_clust_8="13000.00000" pt_clust_9="48.59800"></scales>
<clustering>
<clus scale="   48.598">  1  9  2 -1</clus>
<clus scale="   79.675">  5  6 -1 -1</clus>
<clus scale="   91.086">  7  8 -1 -1</clus>
<clus scale="  107.519">  2  5  1 -1</clus>
<clus scale="   48.598">  1  5  2 -1</clus>
</clustering>
</event>
<event>
 9    2  0.4653788E-005  0.1206744E+03  0.7546771E-02  0.1242722E+00
          2   -1    0    0  502    0 -0.00000000000E+00  0.00000000000E+00  0.64181195691E+03  0.64181195691E+03  0.00000000000E+00 0. -1.
         21   -1    0    0  501  502  0.00000000000E+00 -0.00000000000E+00 -0.35615395452E+02  0.35615395452E+02  0.00000000000E+00 0. -1.
         23    2    1    2    0    0 -0.82009480167E+02 -0.27679146354E+02  0.34382136443E+03  0.36522159341E+03  0.87646971832E+02 0.  0.
         24    2    1    2    0    0  0.54287883792E+02  0.65927065659E+02  0.20535036149E+03  0.23815697703E+03  0.85184637290E+02 0.  0.
        -13    1    4    4    0    0  0.35194065754E+02 -0.14400908342E+02  0.62272616191E+02  0.72964972094E+02  0.00000000000E+00 0.  1.
         14    1    4    4    0    0  0.19093818038E+02  0.80327974001E+02  0.14307774530E+03  0.16519200493E+03  0.00000000000E+00 0. -1.
        -11    1    3    3    0    0 -0.47993430657E+02 -0.45143362345E+02  0.29960718636E+03  0.30676661922E+03  0.00000000000E+00 0.  1.
         11    1    3    3    0    0 -0.34016049510E+02  0.17464215991E+02  0.44214178069E+02  0.58454974183E+02  0.00000000000E+00 0. -1.
          1    1    1    2  501    0  0.27721596375E+02 -0.38247919305E+02  0.57024835541E+02  0.74048781930E+02  0.00000000000E+00 0. -1.
<scales pt_clust_5="13000.00000" pt_clust_6="13000.00000" pt_clust_7="13000.00000" pt_clust_8="13000.00000" pt_clust_9="47.23759"></scales>
<clustering>
<clus scale="   47.238">  2  9  1 -1</clus>
<clus scale="   85.185">  5  6 -1 -1</clus>
<clus scale="   87.647">  7  8 -1 -1</clus>
<clus scale="  118.898">  2  5  1 -1</clus>
<clus scale="   47.238">  2  5  1 -1</clus>
</clustering>
</event>
<event>
 9    2  0.4653788E-005  0.1044283E+03  0.7546771E-02  0.1276127E+00
         21   -1    0    0  501  502  0.00000000000E+00  0.00000000000E+00  0.12809951175E+03  0.12809951175E+03  0.00000000000E+00 0. -1.
         -3   -1    0    0    0  501 -0.00000000000E+00 -0.00000000000E+00 -0.15177928916E+03  0.15177928916E+03  0.00000000000E+00 0.  1.
         23    2    1    2    0    0  0.10754785011E+02 -0.48343433959E+02 -0.81757516792E+02  0.13321688474E+03  0.92788435804E+02 0.  0.
         24    2    1    2    0    0  0.20703445615E+02  0.45798179118E+02  0.62498568048E+02  0.11479277245E+03  0.82129189254E+02 0.  0.
        -11    1    4    4    0    0  0.11609169050E+02 -0.22152715806E+02  0.54332530580E+01  0.25593668405E+02  0.00000000000E+00 0.  1.
         12    1    4    4    0    0  0.90942765643E+01  0.67950894924E+02  0.57065314990E+02  0.89199104043E+02  0.00000000000E+00 0. -1.
        -11    1    3    3    0    0  0.74865374329E+00 -0.67743010070E+02 -0.87485397997E+02  0.11064976619E+03  0.00000000000E+00 0.  1.
         11    1    3    3    0    0  0.10006131267E+02  0.19399576111E+02  0.57278812055E+01  0.22567118542E+02  0.00000000000E+00 0. -1.
         -4    1    1    2    0  502 -0.31458230625E+02  0.25452548412E+01 -0.44208286651E+01  0.31869143734E+02  0.00000000000E+00 0.  1.
<scales pt_clust_5="13000.00000" pt_clust_6="13000.00000" pt_clust_7="13000.00000" pt_clust_8="13000.00000" pt_clust_9="31.56105"></scales>
<clustering>
<clus scale="   31.561">  1  9  2 -1</clus>
<clus scale="   82.129">  5  6 -1 -1</clus>
<clus scale="   92.788">  7  8 -1 -1</clus>
<clus scale="   95.083">  1  5  2 -1</clus>
<clus scale="   31.561">  1  5  2 -1</clus>
</clustering>
</event>
<event>
 9    2  0.4653788E-005  0.1182544E+03  0.7546771E-02  0.1264645E+00
          4   -1    0    0  502    0 -0.00000000000E+00  0.00000000000E+00  0.35213241642E+03  0.35213241642E+03  0.00000000000E+00 0. -1.
         21   -1    0    0  501  502  0.00000000000E+00 -0.00000000000E+00 -0.55143055217E+02  0.55143055217E+02  0.00000000000E+00 0.  1.
         24    2    1    2    0    0 -0.15551822133E+02  0.13500449797E+02  0.23383869536E+03  0.24802600743E+03  0.80076485931E+02 0.  0.
         23    2    1    2    0    0 -0.93850175759E+01 -0.10790853433E-01  0.46344800302E+02  0.12629109668E+03  0.11710474762E+03 0.  0.
        -11    1    3    3    0    0  0.31235428789E+02  0.17264754482E+02  0.96558038277E+02  0.10294259815E+03  0.00000000000E+00 0.  1.
         12    1    3    3    0    0 -0.46787250922E+02 -0.37643046850E+01  0.13728065708E+03  0.14508340928E+03  0.00000000000E+00 0. -1.
        -13    1    4    4    0    0 -0.40100892548E+02  0.34541429998E+02  0.58096147752E+02  0.78589785297E+02  0.00000000000E+00 0. -1.
         13    1    4    4    0    0  0.30715874972E+02 -0.34552220851E+02 -0.11751347450E+02  0.47701311386E+02  0.00000000000E+00 0.  1.
          3    1    1    2  501    0  0.24936839709E+02 -0.13489658944E+02  0.16805865542E+02  0.32958367522E+02  0.00000000000E+00 0. -1.
<scales pt_clust_5="13000.00000" pt_clust_6="13000.00000" pt_clust_7="13000.00000" pt_clust_8="13000.00000" pt_clust_9="28.35166"></scales>
<clustering>
<clus scale="   28.352">  2  9  1 -1</clus>
<clus scale="   80.076">  5  6 -1 -1</clus>
<clus scale="   81.749">  1  5  2 -1</clus>
<clus scale="  117.105">  7  8 -1 -1</clus>
<clus scale="   28.352">  2  5  1 -1</clus>
</clustering>
</event>
<event>
 9    2  0.4653788E-005  0.1453289E+03  0.7546771E-02  0.1206959E+00
         21   -1    0    0  501  502  0.00000000000E+00  0.00000000000E+00  0.24192837845E+03  0.24192837845E+03  0.00000000000E+00 0. -1.
          2   -1    0    0  502    0 -0.00000000000E+00 -0.00000000000E+00 -0.24474129853E+03  0.24474129853E+03  0.00000000000E+00 0. -1.
         24    2    1    2    0    0  0.62528310076E+02  0.86172763688E+02 -0.11347723018E+03  0.17596656274E+03  0.82168209605E+02 0.  0.
         23    2    1    2    0    0 -0.86262540246E+02 -0.11344802237E+03 -0.26989860259E+02  0.16837980612E+03  0.85508051813E+02 0.  0.
        -13    1    3    3    0    0  0.23510915526E+02  0.49940180234E+02 -0.53704458521E+01  0.55458330657E+02  0.00000000000E+00 0.  1.
         14    1    3    3    0    0  0.39017394550E+02  0.36232583454E+02 -0.10810678433E+03  0.12050823208E+03  0.00000000000E+00 0. -1.
        -13    1    4    4    0    0  0.14669802848E+02 -0.34483108955E+02 -0.12033588000E+02  0.39358546199E+02  0.00000000000E+00 0. -1.
         13    1    4    4    0    0 -0.10093234309E+03 -0.78964913413E+02 -0.14956272259E+02  0.12902125993E+03  0.00000000000E+00 0.  1.
          1    1    1    2  501    0  0.23734230170E+02  0.27275258680E+02  0.13765417035E+03  0.14232330812E+03  0.00000000000E+00 0. -1.
<scales pt_clust_5="13000.00000" pt_clust_6="13000.00000" pt_clust_7="13000.00000" pt_clust_8="13000.00000" pt_clust_9="36.15596"></scales>
<clustering>
<clus scale="   36.156">  1  9  2 -1</clus>
<clus scale="   82.168">  5  6 -1 -1</clus>
<clus scale="   85.508">  7  8 -1 -1</clus>
<clus scale="  143.389">  2  5  1 -1</clus>
<clus scale="   36.156">  1  5  2 -1</clus>
</clustering>
</event>
<event>
 9    2  0.4653788E-005  0.1316131E+03  0.7546771E-02  0.1226410E+00
         21   -1    0    0  501  502  0.00000000000E+00  0.00000000000E+00  0.49135627856E+02  0.49135627856E+02  0.00000000000E+00 0. -1.
          2   -1    0    0  502    0 -0.00000000000E+00 -0.00000000000E+00 -0.98198490287E+03  0.98198490287E+03  0.00000000000E+00 0. -1.
         24    2    1    2    0    0 -0.10592078587E+03 -0.74654908757E+00 -0.81104813218E+03  0.82261208877E+03  0.87588844411E+02 0.  0.
         23    2    1    2    0    0  0.43738537397E+02  0.11312666160E+02 -0.94035773109E+02  0.13959407037E+03  0.92750966514E+02 0.  0.
        -11    1    3    3    0    0 -0.36845438331E+02  0.29764585857E+02 -0.15090428179E+03  0.15816326742E+03  0.00000000000E+00 0.  1.
         12    1    3    3    0    0 -0.69075347538E+02 -0.30511134945E+02 -0.66014385039E+03  0.66444882135E+03  0.00000000000E+00 0. -1.
        -13    1    4    4    0    0  0.24722179221E+02 -0.58256503735E+01  0.13700065126E+02  0.28858553882E+02  0.00000000000E+00 0. -1.
         13    1    4    4    0    0  0.19016358176E+02  0.17138316533E+02 -0.10773583823E+03  0.11073551649E+03  0.00000000000E+00 0.  1.
          1    1    1    2  501    0  0.62182248472E+02 -0.10566117072E+02 -0.27765369726E+02  0.68914371585E+02  0.00000000000E+00 0. -1.
<scales pt_clust_5="13000.00000" pt_clust_6="13000.00000" pt_clust_7="13000.00000" pt_clust_8="13000.00000" pt_clust_9="63.07357"></scales>
<clustering>
<clus scale="   63.074">  1  9  2 -1</clus>
<clus scale="   87.589">  5  6 -1 -1</clus>
<clus scale="   92.751">  7  8 -1 -1</clus>
<clus scale="  128.028">  2  5  1 -1</clus>
<clus scale="   63.074">  1  5  2 -1</clus>
</clustering>
</event>
<event>
 9    2  0.4653788E-005  0.1748728E+03  0.7546771E-02  0.1173926E+00
         21   -1    0    0  501  502  0.00000000000E+00  0.00000000000E+00  0.38781413890E+03  0.38781413890E+03  0.00000000000E+00 0. -1.
         -1   -1    0    0    0  501 -0.00000000000E+00 -0.00000000000E+00 -0.13329458482E+03  0.13329458482E+03  0.00000000000E+00 0.  1.
         23    2    1    2    0    0 -0.57487118967E+02 -0.12934024469E+03 -0.16994085782E+02  0.17060454049E+03  0.93720022083E+02 0.  0.
         24    2    1    2    0    0  0.55238013774E+02  0.15780328138E+03  0.20462297579E+03  0.27777479528E+03  0.85645553836E+02 0.  0.
        -11    1    4    4    0    0  0.39312418474E+02  0.36328943361E+02  0.22019665144E+02  0.57880255917E+02  0.00000000000E+00 0.  1.
         12    1    4    4    0    0  0.15925595300E+02  0.12147433802E+03  0.18260331064E+03  0.21989453936E+03  0.00000000000E+00 0. -1.
        -11    1    3    3    0    0 -0.24825227780E+01 -0.28720175536E+02 -0.44179988229E+02  0.52753035572E+02  0.00000000000E+00 0.  1.
         11    1    3    3    0    0 -0.55004596189E+02 -0.10062006915E+03  0.27185902448E+02  0.11785150491E+03  0.00000000000E+00 0. -1.
         -2    1    1    2    0  502  0.22491051930E+01 -0.28463036690E+02  0.66890664074E+02  0.72729387954E+02  0.00000000000E+00 0.  1.
<scales pt_clust_5="13000.00000" pt_clust_6="13000.00000" pt_clust_7="13000.00000" pt_clust_8="13000.00000" pt_clust_9="28.55176"></scales>
<clustering>
<clus scale="   28.552">  1  9  2 -1</clus>
<clus scale="   85.646">  5  6 -1 -1</clus>
<clus scale="   93.720">  7  8 -1 -1</clus>
<clus scale="  170.682">  1  5  2 -1</clus>
<clus scale="   28.552">  1  5  2 -1</clus>
</clustering>
</event>
<event>
 9    2  0.4653788E-005  0.9715895E+02  0.7546771E-02  0.1289910E+00
         21   -1    0    0  501  502  0.00000000000E+00  0.00000000000E+00  0.74753791782E+02  0.74753791782E+02  0.00000000000E+00 0.  1.
         -1   -1    0    0    0  501 -0.00000000000E+00 -0.00000000000E+00 -0.42821441186E+03  0.42821441186E+03  0.00000000000E+00 0.  1.
         23    2    1    2    0    0 -0.42212410322E+02  0.17851618358E+02 -0.34362556384E+03  0.35777076024E+03  0.88435405231E+02 0.  0.
         24    2    1    2    0    0 -0.80043169370E+01 -0.12442712063E+02  0.21674545206E+02  0.85667359012E+02  0.81548882991E+02 0.  0.
        -13    1    4    4    0    0 -0.37627599695E+02 -0.22501170043E+02 -0.55547793249E+01  0.44192697196E+02  0.00000000000E+00 0.  1.
         14    1    4    4    0    0  0.29623282758E+02  0.10058457980E+02  0.27229324531E+02  0.41474661816E+02  0.00000000000E+00 0. -1.
        -11    1    3    3    0    0 -0.24888044767E+02 -0.34301743386E+02 -0.11293668197E+03  0.12062635909E+03  0.00000000000E+00 0.  1.
         11    1    3    3    0    0 -0.17324365555E+02  0.52153361744E+02 -0.23068888186E+03  0.23714440115E+03  0.00000000000E+00 0. -1.
         -2    1    1    2    0  502  0.50216727259E+02 -0.54089062956E+01 -0.31509601444E+02  0.59530084387E+02  0.00000000000E+00 0.  1.
<scales pt_clust_5="13000.00000" pt_clust_6="13000.00000" pt_clust_7="13000.00000" pt_clust_8="13000.00000" pt_clust_9="50.50719"></scales>
<clustering>
<clus scale="   50.507">  1  9  2 -1</clus>
<clus scale="   81.549">  5  6 -1 -1</clus>
<clus scale="   88.435">  7  8 -1 -1</clus>
<clus scale="   90.935">  1  5  2 -1</clus>
<clus scale="   50.507">  1  5  2 -1</clus>
</clustering>
</event>
<event>
 9    2  0.4653788E-005  0.1768583E+03  0.7546771E-02  0.1193585E+00
         21   -1    0    0  501  502  0.00000000000E+00  0.00000000000E+00  0.11043972037E+03  0.11043972037E+03  0.00000000000E+00 0. -1.
          2   -1    0    0  502    0 -0.00000000000E+00 -0.00000000000E+00 -0.77536662078E+03  0.77536662078E+03  0.00000000000E+00 0. -1.
         23    2    1    2    0    0 -0.20411054235E+02 -0.49031689507E+02 -0.47889826345E+03  0.49056770552E+03  0.92154268786E+02 0.  0.
         24    2    1    2    0    0 -0.67722730982E+02 -0.10290749022E+03 -0.16020189109E+03  0.21769962799E+03  0.80945427817E+02 0.  0.
        -11    1    4    4    0    0 -0.48637326043E+01 -0.50523512114E+02 -0.11142072553E+03  0.12243716449E+03  0.00000000000E+00 0.  1.
         12    1    4    4    0    0 -0.62858998378E+02 -0.52383978102E+02 -0.48781165565E+02  0.95262463504E+02  0.00000000000E+00 0. -1.
        -11    1    3    3    0    0  0.35084686371E+02 -0.67712824396E+01 -0.13371643597E+03  0.13840834777E+03  0.00000000000E+00 0.  1.
         11    1    3    3    0    0 -0.55495740607E+02 -0.42260407068E+02 -0.34518182748E+03  0.35215935775E+03  0.00000000000E+00 0. -1.
          1    1    1    2  501    0  0.88133785218E+02  0.15193917972E+03 -0.25826745863E+02  0.17753900764E+03  0.00000000000E+00 0. -1.
<scales pt_clust_5="13000.00000" pt_clust_6="13000.00000" pt_clust_7="13000.00000" pt_clust_8="13000.00000" pt_clust_9="157.24729"></scales>
<clustering>
<clus scale="   80.945">  5  6 -1 -1</clus>
<clus scale="   92.154">  7  8 -1 -1</clus>
<clus scale="  106.363">  2  7  1 -1</clus>
<clus scale="  157.247">  1  9  2 -1</clus>
<clus scale="  157.247">  1  5  2 -1</clus>
</clustering>
</event>
<event>
 9    2  0.4653788E-005  0.8305738E+02  0.7546771E-02  0.1322144E+00
         21   -1    0    0  501  502  0.00000000000E+00  0.00000000000E+00  0.87284334366E+02  0.87284334366E+02  0.00000000000E+00 0.  1.
          2   -1    0    0  502    0 -0.00000000000E+00 -0.00000000000E+00 -0.16650768820E+03  0.16650768820E+03  0.00000000000E+00 0. -1.
         23    2    1    2    0    0  0.39039982451E+02  0.70538456017E+01 -0.58512415811E+02  0.10756834767E+03  0.81076319904E+02 0.  0.
         24    2    1    2    0    0  0.19430768289E+02 -0.18533702160E+02 -0.23842978773E+02  0.86554373926E+02  0.78753534123E+02 0.  0.
        -13    1    4    4    0    0  0.48697100138E+02 -0.17334785807E+02 -0.54723751431E+01  0.51979315603E+02  0.00000000000E+00 0.  1.
         14    1    4    4    0    0 -0.29266331849E+02 -0.11989163533E+01 -0.18370603630E+02  0.34575058323E+02  0.00000000000E+00 0. -1.
        -11    1    3    3    0    0  0.56288871750E+02 -0.12509757000E+02 -0.57552164876E+02  0.81468906860E+02  0.00000000000E+00 0. -1.
         11    1    3    3    0    0 -0.17248889299E+02  0.19563602602E+02 -0.96025093473E+00  0.26099440811E+02  0.00000000000E+00 0.  1.
          1    1    1    2  501    0 -0.58470750740E+02  0.11479856559E+02  0.31320407504E+01  0.59669300968E+02  0.00000000000E+00 0. -1.
<scales pt_clust_5="13000.00000" pt_clust_6="13000.00000" pt_clust_7="13000.00000" pt_clust_8="13000.00000" pt_clust_9="59.58704"></scales>
<clustering>
<clus scale="   59.587">  1  9  2 -1</clus>
<clus scale="   78.754">  5  6 -1 -1</clus>
<clus scale="   80.792">  1  5  2 -1</clus>
<clus scale="   81.076">  7  8 -1 -1</clus>
<clus scale="   59.587">  1  5  2 -1</clus>
</clustering>
</event>
<event>
 9    2  0.4653788E-005  0.9712797E+02  0.7546771E-02  0.1292245E+00
         21   -1    0    0  501  502  0.00000000000E+00  0.00000000000E+00  0.19304422072E+03  0.19304422072E+03  0.00000000000E+00 0.  1.
         -1   -1    0    0    0  501 -0.00000000000E+00 -0.00000000000E+00 -0.11142237451E+03  0.11142237451E+03  0.00000000000E+00 0.  1.
         24    2    1    2    0    0 -0.36619831090E+02 -0.24635983576E+01 -0.25501675171E+02  0.92360526292E+02  0.80827285210E+02 0.  0.
         23    2    1    2    0    0  0.25659577826E+02 -0.17664103662E+02 -0.58357691724E+01  0.96845265263E+02  0.91512374625E+02 0.  0.
        -11    1    3    3    0    0  0.83317387570E+01 -0.29231249577E+02 -0.26063303410E+02  0.40039725364E+02  0.00000000000E+00 0.  1.
         12    1    3    3    0    0 -0.44951569847E+02  0.26767651220E+02  0.56162823933E+00  0.52320800928E+02  0.00000000000E+00 0. -1.
        -11    1    4    4    0    0  0.25958960620E+02  0.35114730984E+02 -0.59042015430E+01  0.44065537151E+02  0.00000000000E+00 0. -1.
         11    1    4    4    0    0 -0.29938279482E+00 -0.52778834645E+02  0.68432370586E-01  0.52779728112E+02  0.00000000000E+00 0.  1.
         -2    1    1    2    0  502  0.10960253264E+02  0.20127702019E+02  0.11295929056E+03  0.11526080368E+03  0.00000000000E+00 0.  1.
<scales pt_clust_5="13000.00000" pt_clust_6="13000.00000" pt_clust_7="13000.00000" pt_clust_8="13000.00000" pt_clust_9="22.91837"></scales>
<clustering>
<clus scale="   22.918">  1  9  2 -1</clus>
<clus scale="   80.827">  5  6 -1 -1</clus>
<clus scale="   87.134">  2  5  1 -1</clus>
<clus scale="   91.512">  7  8 -1 -1</clus>
<clus scale="   22.918">  1  5  2 -1</clus>
</clustering>
</event>
<event>
 9    2  0.4653788E-005  0.1952474E+03  0.7546771E-02  0.1156143E+00
          2   -1    0    0  502    0 -0.00000000000E+00  0.00000000000E+00  0.25243874345E+03  0.25243874345E+03  0.00000000000E+00 0. -1.
         21   -1    0    0  501  502  0.00000000000E+00 -0.00000000000E+00 -0.47433399568E+03  0.47433399568E+03  0.00000000000E+00 0. -1.
         23    2    1    2    0    0  0.16039223402E+03 -0.54023059170E+01  0.13149248249E+03  0.22730020304E+03  0.92845332186E+02 0.  0.
         24    2    1    2    0    0 -0.25091803806E+03  0.54078796409E+01 -0.28619545415E+03  0.38673512527E+03  0.68316265654E+02 0.  0.
        -13    1    4    4    0    0 -0.69500633195E+02 -0.23175683417E+02 -0.11044699916E+03  0.13253674939E+03  0.00000000000E+00 0.  1.
         14    1    4    4    0    0 -0.18141740487E+03  0.28583563058E+02 -0.17574845499E+03  0.25419837587E+03  0.00000000000E+00 0. -1.
        -13    1    3    3    0    0  0.29858492408E+02 -0.40248035848E+02  0.31110864035E+02  0.58985759464E+02  0.00000000000E+00 0.  1.
         13    1    3    3    0    0  0.13053374161E+03  0.34845729931E+02  0.10038161845E+03  0.16831444358E+03  0.00000000000E+00 0. -1.
          1    1    1    2  501    0  0.90525804044E+02 -0.55737238797E-02 -0.67192280577E+02  0.11273741082E+03  0.00000000000E+00 0. -1.
<scales pt_clust_5="13000.00000" pt_clust_6="13000.00000" pt_clust_7="13000.00000" pt_clust_8="13000.00000" pt_clust_9="90.52580"></scales>
<clustering>
<clus scale="   68.316">  5  6 -1 -1</clus>
<clus scale="   90.526">  2  9  1 -1</clus>
<clus scale="   92.845">  7  8 -1 -1</clus>
<clus scale="  184.847">  2  5  1 -1</clus>
<clus scale="   90.526">  2  5  1 -1</clus>
</clustering>
</event>
<event>
 9    2  0.4653788E-005  0.5306036E+03  0.7546771E-02  0.1028698E+00
         21   -1    0    0  501  502  0.00000000000E+00  0.00000000000E+00  0.10792016183E+04  0.10792016183E+04  0.00000000000E+00 0. -1.
          2   -1    0    0  502    0 -0.00000000000E+00 -0.00000000000E+00 -0.19058073638E+04  0.19058073638E+04  0.00000000000E+00 0. -1.
         23    2    1    2    0    0  0.23238997320E+03  0.92402603742E+02  0.13520459548E+03  0.29895771860E+03  0.92477532688E+02 0.  0.
         24    2    1    2    0    0  0.60837312619E+02 -0.52911887738E+03 -0.16977904055E+04  0.17814132141E+04  0.85280791861E+02 0.  0.
        -11    1    4    4    0    0  0.42684040256E+02 -0.89307882508E+02 -0.29243515481E+03  0.30873312900E+03  0.00000000000E+00 0.  1.
         12    1    4    4    0    0  0.18153272363E+02 -0.43981099487E+03 -0.14053552507E+04  0.14726800852E+04  0.00000000000E+00 0. -1.
        -13    1    3    3    0    0  0.50311433186E+02 -0.14477655552E+02  0.46238412626E+02  0.69848647959E+02  0.00000000000E+00 0.  1.
         13    1    3    3    0    0  0.18207854001E+03  0.10688025929E+03  0.88966182850E+02  0.22910907064E+03  0.00000000000E+00 0. -1.
          1    1    1    2  501    0 -0.29322728581E+03  0.43671627364E+03  0.73598006454E+03  0.90463804928E+03  0.00000000000E+00 0. -1.
<scales pt_clust_5="13000.00000" pt_clust_6="13000.00000" pt_clust_7="13000.00000" pt_clust_8="13000.00000" pt_clust_9="523.70543"></scales>
<clustering>
<clus scale="   85.281">  5  6 -1 -1</clus>
<clus scale="   92.478">  7  8 -1 -1</clus>
<clus scale="  266.637">  2  7  1 -1</clus>
<clus scale="  523.705">  1  9  2 -1</clus>
<clus scale="  523.705">  1  5  2 -1</clus>
</clustering>
</event>
<event>
 9    2  0.4653788E-005  0.1154551E+03  0.7546771E-02  0.1254070E+00
         21   -1    0    0  501  502  0.00000000000E+00  0.00000000000E+00  0.56070230614E+02  0.56070230614E+02  0.00000000000E+00 0.  1.
          2   -1    0    0  502    0 -0.00000000000E+00 -0.00000000000E+00 -0.76047339944E+03  0.76047339944E+03  0.00000000000E+00 0. -1.
         24    2    1    2    0    0  0.15701607450E+02  0.71116918342E+02 -0.56287881905E+03  0.57334674414E+03  0.81177383124E+02 0.  0.
         23    2    1    2    0    0  0.52095632816E+02 -0.72159807146E+02 -0.11150147139E+03  0.16904213805E+03  0.90673444780E+02 0.  0.
        -11    1    3    3    0    0 -0.68992852355E+01  0.26926882620E+02 -0.43638191407E+02  0.51739239399E+02  0.00000000000E+00 0.  1.
         12    1    3    3    0    0  0.22600892686E+02  0.44190035723E+02 -0.51924062764E+03  0.52160750474E+03  0.00000000000E+00 0. -1.
        -11    1    4    4    0    0  0.41933793465E+02 -0.47516866810E+02 -0.10073361038E+02  0.64169839242E+02  0.00000000000E+00 0.  1.
         11    1    4    4    0    0  0.10161839351E+02 -0.24642940336E+02 -0.10142811035E+03  0.10487229881E+03  0.00000000000E+00 0. -1.
          1    1    1    2  501    0 -0.67797240266E+02  0.10428888033E+01 -0.30022878394E+02  0.74154747871E+02  0.00000000000E+00 0. -1.
<scales pt_clust_5="13000.00000" pt_clust_6="13000.00000" pt_clust_7="13000.00000" pt_clust_8="13000.00000" pt_clust_9="67.80526"></scales>
<clustering>
<clus scale="   67.805">  1  9  2 -1</clus>
<clus scale="   81.177">  5  6 -1 -1</clus>
<clus scale="   90.673">  7  8 -1 -1</clus>
<clus scale="  108.157">  2  5  1 -1</clus>
<clus scale="   67.805">  1  5  2 -1</clus>
</clustering>
</event>
<event>
 9    2  0.4653788E-005  0.2221891E+03  0.7546771E-02  0.1132261E+00
          2   -1    0    0  502    0 -0.00000000000E+00  0.00000000000E+00  0.11319323222E+04  0.11319323222E+04  0.00000000000E+00 0. -1.
         21   -1    0    0  501  502  0.00000000000E+00 -0.00000000000E+00 -0.42079140318E+02  0.42079140318E+02  0.00000000000E+00 0. -1.
         24    2    1    2    0    0  0.31868006314E+02  0.46991690003E+02  0.37652507643E+03  0.38907529010E+03  0.79904063929E+02 0.  0.
         23    2    1    2    0    0  0.55721251944E+02  0.67442365212E+02  0.56429325731E+03  0.57762380636E+03  0.87000292490E+02 0.  0.
        -13    1    3    3    0    0  0.28509147149E+02 -0.10011824767E+02  0.57255930658E+02  0.64739861769E+02  0.00000000000E+00 0.  1.
         14    1    3    3    0    0  0.33588591657E+01  0.57003514770E+02  0.31926914577E+03  0.32433542833E+03  0.00000000000E+00 0. -1.
        -11    1    4    4    0    0  0.73966681065E+02  0.49209162881E+02  0.50790053824E+03  0.51561183885E+03  0.00000000000E+00 0. -1.
         11    1    4    4    0    0 -0.18245429121E+02  0.18233202331E+02  0.56392719065E+02  0.62011967511E+02  0.00000000000E+00 0.  1.
          1    1    1    2  501    0 -0.87589258258E+02 -0.11443405522E+03  0.14903484814E+03  0.20731236605E+03  0.00000000000E+00 0. -1.
<scales pt_clust_5="13000.00000" pt_clust_6="13000.00000" pt_clust_7="13000.00000" pt_clust_8="13000.00000" pt_clust_9="144.10771"></scales>
<clustering>
<clus scale="   79.904">  5  6 -1 -1</clus>
<clus scale="   87.000">  7  8 -1 -1</clus>
<clus scale="   87.377">  5  7 -1 -1</clus>
<clus scale="  144.108">  2  9  1 -1</clus>
<clus scale="  144.108">  2  5  1 -1</clus>
</clustering>
</event>
<event>
 9    2  0.4653788E-005  0.9514098E+02  0.7546771E-02  0.1296784E+00
          2   -1    0    0  502    0 -0.00000000000E+00  0.00000000000E+00  0.30155841642E+03  0.30155841642E+03  0.00000000000E+00 0. -1.
         21   -1    0    0  501  502  0.00000000000E+00 -0.00000000000E+00 -0.28174673297E+03  0.28174673297E+03  0.00000000000E+00 0. -1.
         23    2    1    2    0    0  0.37316627684E+00  0.28615526124E+02  0.27727903608E+03  0.29321061515E+03  0.90938514400E+02 0.  0.
         24    2    1    2    0    0 -0.34317544113E+02 -0.85019154260E+01 -0.21420559068E+03  0.23154235094E+03  0.80485084320E+02 0.  0.
        -13    1    4    4    0    0 -0.12518460298E+01 -0.41269358678E+02 -0.10524560095E+03  0.11305469297E+03  0.00000000000E+00 0.  1.
         14    1    4    4    0    0 -0.33065698083E+02  0.32767443252E+02 -0.10895998973E+03  0.11848765796E+03  0.00000000000E+00 0. -1.
        -11    1    3    3    0    0  0.21554008741E+02 -0.23815505301E+02  0.53539793444E+02  0.62436071846E+02  0.00000000000E+00 0.  1.
         11    1    3    3    0    0 -0.21180842464E+02  0.52431031425E+02  0.22373924264E+03  0.23077454331E+03  0.00000000000E+00 0. -1.
          1    1    1    2  501    0  0.33944377836E+02 -0.20113610698E+02 -0.43261761951E+02  0.58552183299E+02  0.00000000000E+00 0. -1.
<scales pt_clust_5="13000.00000" pt_clust_6="13000.00000" pt_clust_7="13000.00000" pt_clust_8="13000.00000" pt_clust_9="39.45603"></scales>
<clustering>
<clus scale="   39.456">  2  9  1 -1</clus>
<clus scale="   80.485">  5  6 -1 -1</clus>
<clus scale="   85.205">  2  5  1 -1</clus>
<clus scale="   90.939">  7  8 -1 -1</clus>
<clus scale="   39.456">  2  5  1 -1</clus>
</clustering>
</event>
<event>
 9    2  0.4653788E-005  0.2486444E+03  0.7546771E-02  0.1114925E+00
         21   -1    0    0  501  502  0.00000000000E+00  0.00000000000E+00  0.23747351798E+03  0.23747351798E+03  0.00000000000E+00 0.  1.
          2   -1    0    0  502    0 -0.00000000000E+00 -0.00000000000E+00 -0.53761735825E+03  0.53761735825E+03  0.00000000000E+00 0. -1.
         24    2    1    2    0    0  0.46664624982E+01 -0.20727327201E+03 -0.95154920139E+02  0.24175350389E+03  0.80039444341E+02 0.  0.
         23    2    1    2    0    0 -0.23389915590E+00  0.28032363965E+03  0.20562036926E+02  0.29621032189E+03  0.93468496193E+02 0.  0.
        -11    1    3    3    0    0  0.30742859340E+02 -0.17431744006E+03 -0.59803261285E+02  0.18683715736E+03  0.00000000000E+00 0.  1.
         12    1    3    3    0    0 -0.26076396842E+02 -0.32955831952E+02 -0.35351658854E+02  0.54916346525E+02  0.00000000000E+00 0. -1.
        -13    1    4    4    0    0  0.30401105224E+02  0.61407124664E+02 -0.20195244612E+02  0.71434655898E+02  0.00000000000E+00 0. -1.
         13    1    4    4    0    0 -0.30635004380E+02  0.21891651498E+03  0.40757281538E+02  0.22477566600E+03  0.00000000000E+00 0.  1.
          1    1    1    2  501    0 -0.44325633423E+01 -0.73050367631E+02 -0.22555095706E+03  0.23712705046E+03  0.00000000000E+00 0. -1.
<scales pt_clust_5="13000.00000" pt_clust_6="13000.00000" pt_clust_7="13000.00000" pt_clust_8="13000.00000" pt_clust_9="73.18476"></scales>
<clustering>
<clus scale="   73.185">  1  9  2 -1</clus>
<clus scale="   80.039">  5  6 -1 -1</clus>
<clus scale="   93.468">  7  8 -1 -1</clus>
<clus scale="  243.914">  2  5  1 -1</clus>
<clus scale="   73.185">  1  5  2 -1</clus>
</clustering>
</event>
<event>
 9    2  0.4653788E-005  0.9501766E+02  0.7546771E-02  0.1297094E+00
         21   -1    0    0  501  502  0.00000000000E+00  0.00000000000E+00  0.70351605772E+02  0.70351605772E+02  0.00000000000E+00 0.  1.
         -3   -1    0    0    0  501 -0.00000000000E+00 -0.00000000000E+00 -0.36636823824E+03  0.36636823824E+03  0.00000000000E+00 0.  1.
         24    2    1    2    0    0  0.43471068861E+02  0.26793471847E+02 -0.18433570814E+03  0.20761307549E+03  0.80721198322E+02 0.  0.
         23    2    1    2    0    0  0.29034319932E+02 -0.16889488765E+02 -0.12117402572E+03  0.15531490407E+03  0.91166487002E+02 0.  0.
        -13    1    3    3    0    0  0.19855713123E+02  0.53240152930E+02 -0.85960744012E+02  0.10304374187E+03  0.00000000000E+00 0.  1.
         14    1    3    3    0    0  0.23615355738E+02 -0.26446681083E+02 -0.98374964130E+02  0.10456933362E+03  0.00000000000E+00 0. -1.
        -13    1    4    4    0    0 -0.19892560435E+02  0.25151669928E+02 -0.48477893123E+02  0.58124234038E+02  0.00000000000E+00 0. -1.
         13    1    4    4    0    0  0.48926880367E+02 -0.42041158693E+02 -0.72696132595E+02  0.97190670030E+02  0.00000000000E+00 0.  1.
         -4    1    1    2    0  502 -0.72505388793E+02 -0.99039830821E+01  0.94931013928E+01  0.73791864449E+02  0.00000000000E+00 0.  1.
<scales pt_clust_5="13000.00000" pt_clust_6="13000.00000" pt_clust_7="13000.00000" pt_clust_8="13000.00000" pt_clust_9="73.17869"></scales>
<clustering>
<clus scale="   73.179">  1  9  2 -1</clus>
<clus scale="   80.721">  5  6 -1 -1</clus>
<clus scale="   85.047">  2  5  1 -1</clus>
<clus scale="   91.166">  7  8 -1 -1</clus>
<clus scale="   73.179">  1  5  2 -1</clus>
</clustering>
</event>
<event>
 9    2  0.4653788E-005  0.9530163E+02  0.7546771E-02  0.1296589E+00
         -1   -1    0    0    0  501 -0.00000000000E+00  0.00000000000E+00  0.63806826785E+03  0.63806826785E+03  0.00000000000E+00 0.  1.
         21   -1    0    0  501  502  0.00000000000E+00 -0.00000000000E+00 -0.31776400364E+02  0.31776400364E+02  0.00000000000E+00 0.  1.
         24    2    1    2    0    0  0.24569745472E+02 -0.41589832858E+02  0.35709563104E+03  0.36923436303E+03  0.80519181196E+02 0.  0.
         23    2    1    2    0    0  0.14132029859E+02 -0.20559169726E+02  0.13128387890E+03  0.16181675347E+03  0.91251362278E+02 0.  0.
        -11    1    3    3    0    0  0.51959370566E+02 -0.41400397477E+02  0.25926334315E+03  0.26764015058E+03  0.00000000000E+00 0.  1.
         12    1    3    3    0    0 -0.27389625094E+02 -0.18943538189E+00  0.97832287890E+02  0.10159421245E+03  0.00000000000E+00 0. -1.
        -13    1    4    4    0    0  0.21004662887E+02  0.31477971751E+02  0.79677737742E+02  0.88207712023E+02  0.00000000000E+00 0. -1.
         13    1    4    4    0    0 -0.68726330279E+01 -0.52037141477E+02  0.51606141155E+02  0.73609041447E+02  0.00000000000E+00 0.  1.
         -2    1    1    2    0  502 -0.38701775332E+02  0.62149002584E+02  0.11791235754E+03  0.13879355171E+03  0.00000000000E+00 0.  1.
<scales pt_clust_5="13000.00000" pt_clust_6="13000.00000" pt_clust_7="13000.00000" pt_clust_8="13000.00000" pt_clust_9="73.21425"></scales>
<clustering>
<clus scale="   73.214">  2  9  1 -1</clus>
<clus scale="   80.519">  5  6 -1 -1</clus>
<clus scale="   85.082">  1  5  2 -1</clus>
<clus scale="   91.251">  7  8 -1 -1</clus>
<clus scale="   73.214">  2  5  1 -1</clus>
</clustering>
</event>
<event>
 9    2  0.4653788E-005  0.1305204E+03  0.7546771E-02  0.1243410E+00
         21   -1    0    0  501  502  0.00000000000E+00  0.00000000000E+00  0.39997601588E+03  0.39997601588E+03  0.00000000000E+00 0.  1.
         -1   -1    0    0    0  501 -0.00000000000E+00 -0.00000000000E+00 -0.77565367224E+02  0.77565367224E+02  0.00000000000E+00 0.  1.
         23    2    1    2    0    0 -0.68379213981E+01  0.13613339844E+02  0.14303713660E+03  0.17043375203E+03  0.91410946790E+02 0.  0.
         24    2    1    2    0    0 -0.52124823662E+02 -0.95149330000E+02  0.52146960986E+02  0.14489999164E+03  0.80661699676E+02 0.  0.
        -13    1    4    4    0    0 -0.72185065945E+02 -0.85651116445E+02  0.36749825144E+02  0.11788701006E+03  0.00000000000E+00 0.  1.
         14    1    4    4    0    0  0.20060242284E+02 -0.94982135551E+01  0.15397135842E+02  0.27012981571E+02  0.00000000000E+00 0. -1.
        -13    1    3    3    0    0 -0.17268244028E+02  0.48493143970E+02  0.10922966910E+03  0.12075138872E+03  0.00000000000E+00 0.  1.
         13    1    3    3    0    0  0.10430322630E+02 -0.34879804126E+02  0.33807467500E+02  0.49682363317E+02  0.00000000000E+00 0. -1.
         -2    1    1    2    0  502  0.58962745060E+02  0.81535990156E+02  0.12722655107E+03  0.16220763944E+03  0.00000000000E+00 0.  1.
<scales pt_clust_5="13000.00000" pt_clust_6="13000.00000" pt_clust_7="13000.00000" pt_clust_8="13000.00000" pt_clust_9="102.61214"></scales>
<clustering>
<clus scale="   80.662">  5  6 -1 -1</clus>
<clus scale="   91.411">  7  8 -1 -1</clus>
<clus scale="   92.672">  2  7  1 -1</clus>
<clus scale="  102.612">  1  9  2 -1</clus>
<clus scale="  102.612">  1  5  2 -1</clus>
</clustering>
</event>
<event>
 9    2  0.4653788E-005  0.1015232E+03  0.7546771E-02  0.1280685E+00
         -3   -1    0    0    0  501 -0.00000000000E+00  0.00000000000E+00  0.19154982468E+03  0.19154982468E+03  0.00000000000E+00 0.  1.
         21   -1    0    0  501  502  0.00000000000E+00 -0.00000000000E+00 -0.12579088742E+03  0.12579088742E+03  0.00000000000E+00 0. -1.
         23    2    1    2    0    0  0.12368391699E+02 -0.41363804823E+02  0.12707515839E+03  0.16272552694E+03  0.92019344585E+02 0.  0.
         24    2    1    2    0    0  0.19864933881E+02  0.46730985631E+02 -0.17922282154E+02  0.10029366228E+03  0.84612114257E+02 0.  0.
        -13    1    4    4    0    0 -0.20465606311E+02  0.34274094083E+02  0.19002924797E+02  0.44211601619E+02  0.00000000000E+00 0.  1.
         14    1    4    4    0    0  0.40330540193E+02  0.12456891549E+02 -0.36925206950E+02  0.56082060658E+02  0.00000000000E+00 0. -1.
        -11    1    3    3    0    0 -0.13640464051E+02 -0.63515310655E+02  0.65165796867E+02  0.92015422774E+02  0.00000000000E+00 0.  1.
         11    1    3    3    0    0  0.26008855750E+02  0.22151505832E+02  0.61909361519E+02  0.70710104170E+02  0.00000000000E+00 0. -1.
         -4    1    1    2    0  502 -0.32233325580E+02 -0.53671808081E+01 -0.43393938971E+02  0.54321522872E+02  0.00000000000E+00 0.  1.
<scales pt_clust_5="13000.00000" pt_clust_6="13000.00000" pt_clust_7="13000.00000" pt_clust_8="13000.00000" pt_clust_9="32.67712"></scales>
<clustering>
<clus scale="   32.677">  2  9  1 -1</clus>
<clus scale="   84.612">  5  6 -1 -1</clus>
<clus scale="   92.019">  7  8 -1 -1</clus>
<clus scale="   94.861">  2  5  1 -1</clus>
<clus scale="   32.677">  2  5  1 -1</clus>
</clustering>
</event>
<event>
 9    2  0.4653788E-005  0.9139181E+02  0.7546771E-02  0.1305655E+00
          2   -1    0    0  502    0 -0.00000000000E+00  0.00000000000E+00  0.13638639546E+03  0.13638639546E+03  0.00000000000E+00 0. -1.
         21   -1    0    0  501  502  0.00000000000E+00 -0.00000000000E+00 -0.18923562935E+03  0.18923562935E+03  0.00000000000E+00 0. -1.
         23    2    1    2    0    0  0.15728662433E+02 -0.45437792554E+01  0.56397877747E+02  0.10779403817E+03  0.90392462619E+02 0.  0.
         24    2    1    2    0    0  0.40469651670E+02  0.48308746842E+02 -0.10485760374E+03  0.14646349494E+03  0.80528942384E+02 0.  0.
        -13    1    4    4    0    0  0.22802476640E+02 -0.15516321218E+02 -0.72637124777E+01  0.28521407469E+02  0.00000000000E+00 0.  1.
         14    1    4    4    0    0  0.17667175030E+02  0.63825068059E+02 -0.97593891261E+02  0.11794208747E+03  0.00000000000E+00 0. -1.
        -13    1    3    3    0    0 -0.25971526306E+02  0.28572395859E+02  0.23913101297E+02  0.45417379905E+02  0.00000000000E+00 0.  1.
         13    1    3    3    0    0  0.41700188739E+02 -0.33116175114E+02  0.32484776450E+02  0.62376658263E+02  0.00000000000E+00 0. -1.
          1    1    1    2  501    0 -0.56198314103E+02 -0.43764967586E+02 -0.43895078927E+01  0.71364491698E+02  0.00000000000E+00 0. -1.
<scales pt_clust_5="13000.00000" pt_clust_6="13000.00000" pt_clust_7="13000.00000" pt_clust_8="13000.00000" pt_clust_9="71.22940"></scales>
<clustering>
<clus scale="   71.229">  2  9  1 -1</clus>
<clus scale="   80.529">  5  6 -1 -1</clus>
<clus scale="   81.649">  2  5  1 -1</clus>
<clus scale="   90.392">  7  8 -1 -1</clus>
<clus scale="   71.229">  2  5  1 -1</clus>
</clustering>
</event>
<event>
 9    2  0.4653788E-005  0.9866860E+02  0.7546771E-02  0.1289185E+00
         21   -1    0    0  501  502  0.00000000000E+00  0.00000000000E+00  0.28684168779E+03  0.28684168779E+03  0.00000000000E+00 0. -1.
          2   -1    0    0  502    0 -0.00000000000E+00 -0.00000000000E+00 -0.15435450295E+03  0.15435450295E+03  0.00000000000E+00 0. -1.
         24    2    1    2    0    0  0.61661432791E+02 -0.22968434679E+02 -0.48442663541E+02  0.11351286130E+03  0.78795918320E+02 0.  0.
         23    2    1    2    0    0 -0.54868543345E+01 -0.54400889550E+02 -0.17698003289E+02  0.10724145715E+03  0.90542522927E+02 0.  0.
        -13    1    3    3    0    0  0.51513405103E+02  0.36749448133E+01 -0.63031237712E+02  0.81486643397E+02  0.00000000000E+00 0.  1.
         14    1    3    3    0    0  0.10148027688E+02 -0.26643379492E+02  0.14588574171E+02  0.32026217901E+02  0.00000000000E+00 0. -1.
        -11    1    4    4    0    0 -0.13341962049E+02 -0.78045063353E+02 -0.21484844995E+02  0.82040468243E+02  0.00000000000E+00 0.  1.
         11    1    4    4    0    0  0.78551077143E+01  0.23644173803E+02  0.37868417065E+01  0.25200988912E+02  0.00000000000E+00 0. -1.
          1    1    1    2  501    0 -0.56174578456E+02  0.77369324229E+02  0.19862785167E+03  0.22044187229E+03  0.00000000000E+00 0. -1.
<scales pt_clust_5="13000.00000" pt_clust_6="13000.00000" pt_clust_7="13000.00000" pt_clust_8="13000.00000" pt_clust_9="95.61169"></scales>
<clustering>
<clus scale="   78.796">  5  6 -1 -1</clus>
<clus scale="   90.543">  7  8 -1 -1</clus>
<clus scale="   95.612">  1  9  2 -1</clus>
<clus scale="   88.013">  2  5  1 -1</clus>
<clus scale="   95.612">  1  5  2 -1</clus>
</clustering>
</event>
<event>
 9    2  0.4653788E-005  0.1085328E+03  0.7546771E-02  0.1265892E+00
          2   -1    0    0  502    0 -0.00000000000E+00  0.00000000000E+00  0.11457620233E+04  0.11457620233E+04  0.00000000000E+00 0. -1.
         21   -1    0    0  501  502  0.00000000000E+00 -0.00000000000E+00 -0.18040558483E+02  0.18040558483E+02  0.00000000000E+00 0. -1.
         24    2    1    2    0    0  0.38625969440E+02 -0.63589037112E+02  0.65557747756E+03  0.66469975951E+03  0.80674717566E+02 0.  0.
         23    2    1    2    0    0 -0.23400629498E+02  0.46789011182E+02  0.46394471625E+03  0.47499307543E+03  0.87389478436E+02 0.  0.
        -11    1    3    3    0    0  0.10576789913E+02 -0.24718549569E+02  0.46305247671E+02  0.53544851663E+02  0.00000000000E+00 0.  1.
         12    1    3    3    0    0  0.28049179528E+02 -0.38870487542E+02  0.60927222989E+03  0.61115490785E+03  0.00000000000E+00 0. -1.
        -11    1    4    4    0    0  0.30582229473E+02  0.61595746728E+01  0.97418449555E+02  0.10229158046E+03  0.00000000000E+00 0. -1.
         11    1    4    4    0    0 -0.53982858970E+02  0.40629436510E+02  0.36652626670E+03  0.37270149497E+03  0.00000000000E+00 0.  1.
          1    1    1    2  501    0 -0.15225339943E+02  0.16800025929E+02  0.81992710015E+01  0.24109746837E+02  0.00000000000E+00 0. -1.
<scales pt_clust_5="13000.00000" pt_clust_6="13000.00000" pt_clust_7="13000.00000" pt_clust_8="13000.00000" pt_clust_9="22.67271"></scales>
<clustering>
<clus scale="   22.673">  2  9  1 -1</clus>
<clus scale="   80.675">  5  6 -1 -1</clus>
<clus scale="   87.389">  7  8 -1 -1</clus>
<clus scale="  103.203">  1  5  2 -1</clus>
<clus scale="   22.673">  2  5  1 -1</clus>
</clustering>
</event>
<event>
 9    2  0.4653788E-005  0.1659724E+03  0.7546771E-02  0.1183800E+00
         21   -1    0    0  501  502  0.00000000000E+00  0.00000000000E+00  0.19444572496E+02  0.19444572496E+02  0.00000000000E+00 0. -1.
          2   -1    0    0  502    0 -0.00000000000E+00 -0.00000000000E+00 -0.22498614962E+04  0.22498614962E+04  0.00000000000E+00 0. -1.
         24    2    1    2    0    0 -0.18161988256E+01  0.15084688950E+03 -0.16500400503E+04  0.16588529414E+04  0.80017692050E+02 0.  0.
         23    2    1    2    0    0 -0.10585337939E+02 -0.10428202277E+03 -0.39154357802E+03  0.41556829366E+03  0.91672479777E+02 0.  0.
        -13    1    3    3    0    0  0.18735630891E+02  0.11788954345E+02 -0.98425361412E+02  0.10088386927E+03  0.00000000000E+00 0.  1.
         14    1    3    3    0    0 -0.20551829717E+02  0.13905793515E+03 -0.15516146888E+04  0.15579690721E+04  0.00000000000E+00 0. -1.
        -13    1    4    4    0    0  0.20036715339E+02 -0.20605875809E+02 -0.24200348759E+02  0.37572981776E+02  0.00000000000E+00 0. -1.
         13    1    4    4    0    0 -0.30622053278E+02 -0.83676146958E+02 -0.36734322927E+03  0.37799531188E+03  0.00000000000E+00 0.  1.
          1    1    1    2  501    0  0.12401536765E+02 -0.46564866732E+02 -0.18883329542E+03  0.19488483365E+03  0.00000000000E+00 0. -1.
<scales pt_clust_5="13000.00000" pt_clust_6="13000.00000" pt_clust_7="13000.00000" pt_clust_8="13000.00000" pt_clust_9="48.18802"></scales>
<clustering>
<clus scale="   48.188">  1  9  2 -1</clus>
<clus scale="   80.018">  5  6 -1 -1</clus>
<clus scale="   91.672">  7  8 -1 -1</clus>
<clus scale="  159.831">  2  5  1 -1</clus>
<clus scale="   48.188">  1  5  2 -1</clus>
</clustering>
</event>
<event>
 9    2  0.4653788E-005  0.1027322E+03  0.7546771E-02  0.1283495E+00
          2   -1    0    0  502    0 -0.00000000000E+00  0.00000000000E+00  0.34810968354E+03  0.34810968354E+03  0.00000000000E+00 0. -1.
         21   -1    0    0  501  502  0.00000000000E+00 -0.00000000000E+00 -0.30651896899E+03  0.30651896899E+03  0.00000000000E+00 0. -1.
         23    2    1    2    0    0 -0.30808067210E+01 -0.33780455092E+02  0.32502112996E+03  0.34100855111E+03  0.97455048584E+02 0.  0.
         24    2    1    2    0    0 -0.27283670115E+02  0.86253900960E+01 -0.13268678564E+03  0.15780475985E+03  0.80484552184E+02 0.  0.
        -11    1    4    4    0    0 -0.69351283282E+01  0.33442827506E+02 -0.11738038060E+03  0.12224840476E+03  0.00000000000E+00 0.  1.
         12    1    4    4    0    0 -0.20348541787E+02 -0.24817437410E+02 -0.15306405039E+02  0.35556355095E+02  0.00000000000E+00 0. -1.
        -13    1    3    3    0    0 -0.25485739216E+01 -0.66654065118E+02  0.25614602554E+03  0.26468858310E+03  0.00000000000E+00 0. -1.
         13    1    3    3    0    0 -0.53223279944E+00  0.32873610025E+02  0.68875104422E+02  0.76319968009E+02  0.00000000000E+00 0.  1.
          1    1    1    2  501    0  0.30364476836E+02  0.25155064996E+02 -0.15074362977E+03  0.15581534156E+03  0.00000000000E+00 0. -1.
<scales pt_clust_5="13000.00000" pt_clust_6="13000.00000" pt_clust_7="13000.00000" pt_clust_8="13000.00000" pt_clust_9="39.43068"></scales>
<clustering>
<clus scale="   39.431">  2  9  1 -1</clus>
<clus scale="   80.485">  5  6 -1 -1</clus>
<clus scale="   86.800">  2  5  1 -1</clus>
<clus scale="   97.455">  7  8 -1 -1</clus>
<clus scale="   39.431">  2  5  1 -1</clus>
</clustering>
</event>
<event>
 9    2  0.4653788E-005  0.1032589E+03  0.7546771E-02  0.1278340E+00
         21   -1    0    0  501  502  0.00000000000E+00  0.00000000000E+00  0.16327772413E+03  0.16327772413E+03  0.00000000000E+00 0.  1.
          2   -1    0    0  502    0 -0.00000000000E+00 -0.00000000000E+00 -0.27076366410E+03  0.27076366410E+03  0.00000000000E+00 0. -1.
         23    2    1    2    0    0 -0.45353267688E+02  0.24769607221E+02 -0.22814270905E+03  0.25109773286E+03  0.91271701118E+02 0.  0.
         24    2    1    2    0    0  0.26148773390E+02  0.18369631675E+02  0.96300628798E+02  0.12981147960E+03  0.80969175682E+02 0.  0.
        -13    1    4    4    0    0  0.49483491725E+02  0.15159948942E+02  0.92441829650E+02  0.10594305959E+03  0.00000000000E+00 0.  1.
         14    1    4    4    0    0 -0.23334718334E+02  0.32096827328E+01  0.38587991478E+01  0.23868420012E+02  0.00000000000E+00 0. -1.
        -11    1    3    3    0    0 -0.13263236415E+01 -0.26614747148E+02 -0.23401624610E+02  0.35464629345E+02  0.00000000000E+00 0.  1.
         11    1    3    3    0    0 -0.44026944046E+02  0.51384354369E+02 -0.20474108444E+03  0.21563310352E+03  0.00000000000E+00 0. -1.
          1    1    1    2  501    0  0.19204494297E+02 -0.43139238895E+02  0.24356140280E+02  0.53132175779E+02  0.00000000000E+00 0. -1.
<scales pt_clust_5="13000.00000" pt_clust_6="13000.00000" pt_clust_7="13000.00000" pt_clust_8="13000.00000" pt_clust_9="47.22083"></scales>
<clustering>
<clus scale="   47.221">  1  9  2 -1</clus>
<clus scale="   80.969">  5  6 -1 -1</clus>
<clus scale="   91.272">  7  8 -1 -1</clus>
<clus scale="   94.276">  1  5  2 -1</clus>
<clus scale="   47.221">  1  5  2 -1</clus>
</clustering>
</event>
<event>
 9    2  0.4653788E-005  0.1642773E+03  0.7546771E-02  0.1185806E+00
         21   -1    0    0  501  502  0.00000000000E+00  0.00000000000E+00  0.13321986451E+03  0.13321986451E+03  0.00000000000E+00 0.  1.
          2   -1    0    0  502    0 -0.00000000000E+00 -0.00000000000E+00 -0.93091358703E+03  0.93091358703E+03  0.00000000000E+00 0. -1.
         23    2    1    2    0    0  0.12041027036E+03 -0.80149112699E+02 -0.39384260049E+03  0.42942542059E+03  0.91496909311E+02 0.  0.
         24    2    1    2    0    0 -0.31574390069E+02  0.10215539313E+03  0.71305584468E+02  0.15081756222E+03  0.78922647217E+02 0.  0.
        -13    1    4    4    0    0 -0.11500228470E+02  0.39799302990E+02  0.74487373021E+02  0.85232672802E+02  0.00000000000E+00 0.  1.
         14    1    4    4    0    0 -0.20074161599E+02  0.62356090143E+02 -0.31817885535E+01  0.65584889420E+02  0.00000000000E+00 0. -1.
        -11    1    3    3    0    0  0.77088555685E+02 -0.85949736637E+02 -0.34536755060E+03  0.36415484022E+03  0.00000000000E+00 0.  1.
         11    1    3    3    0    0  0.43321714674E+02  0.58006239380E+01 -0.48475049887E+02  0.65270580371E+02  0.00000000000E+00 0. -1.
          1    1    1    2  501    0 -0.88835880289E+02 -0.22006280434E+02 -0.47515670649E+03  0.48389046873E+03  0.00000000000E+00 0. -1.
<scales pt_clust_5="13000.00000" pt_clust_6="13000.00000" pt_clust_7="13000.00000" pt_clust_8="13000.00000" pt_clust_9="91.52103"></scales>
<clustering>
<clus scale="   78.923">  5  6 -1 -1</clus>
<clus scale="   91.497">  7  8 -1 -1</clus>
<clus scale="   91.521">  1  9  2 -1</clus>
<clus scale="  157.620">  1  5  2 -1</clus>
<clus scale="   91.521">  1  5  2 -1</clus>
</clustering>
</event>
<event>
 9    2  0.4653788E-005  0.1207992E+03  0.7546771E-02  0.1252080E+00
         -3   -1    0    0    0  501 -0.00000000000E+00  0.00000000000E+00  0.13021999218E+03  0.13021999218E+03  0.00000000000E+00 0.  1.
         21   -1    0    0  501  502  0.00000000000E+00 -0.00000000000E+00 -0.43073791439E+03  0.43073791439E+03  0.00000000000E+00 0. -1.
         23    2    1    2    0    0  0.38184645052E+02  0.43215571694E+02  0.88431060069E+02  0.14894575056E+03  0.10506727117E+03 0.  0.
         24    2    1    2    0    0 -0.57107122421E+02 -0.57179112612E+02 -0.31877459101E+03  0.33800211739E+03  0.78086600241E+02 0.  0.
        -11    1    4    4    0    0 -0.70810183276E+02 -0.60234838218E+02 -0.22922906808E+03  0.24736265572E+03  0.00000000000E+00 0.  1.
         12    1    4    4    0    0  0.13703060855E+02  0.30557256063E+01 -0.89545522927E+02  0.90639461672E+02  0.00000000000E+00 0. -1.
        -13    1    3    3    0    0 -0.19113573475E+02  0.45857624984E+02  0.75119712629E+02  0.90062321121E+02  0.00000000000E+00 0.  1.
         13    1    3    3    0    0  0.57298218528E+02 -0.26420532904E+01  0.13311347439E+02  0.58883429441E+02  0.00000000000E+00 0. -1.
         -4    1    1    2    0  502  0.18922477368E+02  0.13963540918E+02 -0.70174391278E+02  0.74010038616E+02  0.00000000000E+00 0.  1.
<scales pt_clust_5="13000.00000" pt_clust_6="13000.00000" pt_clust_7="13000.00000" pt_clust_8="13000.00000" pt_clust_9="23.51682"></scales>
<clustering>
<clus scale="   23.517">  2  9  1 -1</clus>
<clus scale="   78.087">  5  6 -1 -1</clus>
<clus scale="   98.239">  2  5  1 -1</clus>
<clus scale="  105.067">  7  8 -1 -1</clus>
<clus scale="   23.517">  2  5  1 -1</clus>
</clustering>
</event>
<event>
 9    2  0.4653788E-005  0.1068145E+03  0.7546771E-02  0.1273285E+00
         21   -1    0    0  501  502  0.00000000000E+00  0.00000000000E+00  0.21967228414E+03  0.21967228414E+03  0.00000000000E+00 0. -1.
         -1   -1    0    0    0  501 -0.00000000000E+00 -0.00000000000E+00 -0.15574493094E+03  0.15574493094E+03  0.00000000000E+00 0.  1.
         23    2    1    2    0    0 -0.70086278514E+01  0.39039900916E+02  0.45077392803E+01  0.10046684876E+03  0.92195624938E+02 0.  0.
         24    2    1    2    0    0  0.71574125243E+02 -0.75281227832E+02  0.12224532507E+03  0.17784626131E+03  0.76780560636E+02 0.  0.
        -13    1    4    4    0    0  0.53585623702E+02 -0.63941001801E+02  0.39301093581E+02  0.92219557228E+02  0.00000000000E+00 0.  1.
         14    1    4    4    0    0  0.17988501542E+02 -0.11340226031E+02  0.82944231490E+02  0.85626704080E+02  0.00000000000E+00 0. -1.
        -11    1    3    3    0    0 -0.25402639952E+02 -0.49640166221E+01  0.35243845513E+02  0.43727156598E+02  0.00000000000E+00 0. -1.
         11    1    3    3    0    0  0.18394012101E+02  0.44003917538E+02 -0.30736106233E+02  0.56739692158E+02  0.00000000000E+00 0.  1.
         -2    1    1    2    0  502 -0.64565497392E+02  0.36241326916E+02 -0.62825711150E+02  0.97104105019E+02  0.00000000000E+00 0.  1.
<scales pt_clust_5="13000.00000" pt_clust_6="13000.00000" pt_clust_7="13000.00000" pt_clust_8="13000.00000" pt_clust_9="74.04149"></scales>
<clustering>
<clus scale="   74.041">  1  9  2 -1</clus>
<clus scale="   76.781">  5  6 -1 -1</clus>
<clus scale="   92.196">  7  8 -1 -1</clus>
<clus scale="   93.833">  1  5  2 -1</clus>
<clus scale="   74.041">  1  5  2 -1</clus>
</clustering>
</event>
<event>
 9    2  0.4653788E-005  0.1912682E+03  0.7546771E-02  0.1176684E+00
          2   -1    0    0  502    0 -0.00000000000E+00  0.00000000000E+00  0.81160213501E+03  0.81160213501E+03  0.00000000000E+00 0. -1.
         21   -1    0    0  501  502  0.00000000000E+00 -0.00000000000E+00 -0.81122706415E+02  0.81122706415E+02  0.00000000000E+00 0. -1.
         23    2    1    2    0    0  0.60437021560E+02  0.55697190318E+02  0.12553009993E+03  0.17542579055E+03  0.90893296878E+02 0.  0.
         24    2    1    2    0    0  0.33233545722E+02  0.12149128509E+03  0.41506906684E+03  0.44121130246E+03  0.80749503150E+02 0.  0.
        -13    1    4    4    0    0 -0.20599443038E+02  0.58541971739E+01  0.46494389385E+02  0.51189226623E+02  0.00000000000E+00 0.  1.
         14    1    4    4    0    0  0.53832988760E+02  0.11563708792E+03  0.36857467745E+03  0.39002207584E+03  0.00000000000E+00 0. -1.
        -11    1    3    3    0    0  0.53444530720E+02 -0.87346023102E+01  0.36505826215E+02  0.65309160835E+02  0.00000000000E+00 0. -1.
         11    1    3    3    0    0  0.69924908405E+01  0.64431792628E+02  0.89024273710E+02  0.11011662971E+03  0.00000000000E+00 0.  1.
          1    1    1    2  501    0 -0.93670567282E+02 -0.17718847541E+03  0.18988026183E+03  0.27608774842E+03  0.00000000000E+00 0. -1.
<scales pt_clust_5="13000.00000" pt_clust_6="13000.00000" pt_clust_7="13000.00000" pt_clust_8="13000.00000" pt_clust_9="173.38695"></scales>
<clustering>
<clus scale="   80.750">  5  6 -1 -1</clus>
<clus scale="   90.893">  7  8 -1 -1</clus>
<clus scale="  122.541">  1  7  2 -1</clus>
<clus scale="  173.387">  2  9  1 -1</clus>
<clus scale="  173.387">  2  5  1 -1</clus>
</clustering>
</event>
<event>
 9    2  0.4653788E-005  0.1533287E+03  0.7546771E-02  0.1197858E+00
         21   -1    0    0  501  502  0.00000000000E+00  0.00000000000E+00  0.14467072841E+03  0.14467072841E+03  0.00000000000E+00 0.  1.
         -3   -1    0    0    0  501 -0.00000000000E+00 -0.00000000000E+00 -0.27059771489E+03  0.27059771489E+03  0.00000000000E+00 0.  1.
         23    2    1    2    0    0  0.34408438894E+02 -0.11949512142E+03 -0.10371096306E+03  0.18555822757E+03  0.90624871039E+02 0.  0.
         24    2    1    2    0    0 -0.63005309304E+02  0.10790816461E+03 -0.75845912621E+02  0.16783773734E+03  0.82480680306E+02 0.  0.
        -13    1    4    4    0    0 -0.54578181128E+02  0.41636530354E+02 -0.25915320333E+01  0.68695666191E+02  0.00000000000E+00 0.  1.
         14    1    4    4    0    0 -0.84271281766E+01  0.66271634258E+02 -0.73254380587E+02  0.99142071149E+02  0.00000000000E+00 0. -1.
        -13    1    3    3    0    0 -0.17574978735E+02 -0.21029780447E+02 -0.59958850346E+02  0.65925679959E+02  0.00000000000E+00 0.  1.
         13    1    3    3    0    0  0.51983417629E+02 -0.98465340977E+02 -0.43752112709E+02  0.11963254761E+03  0.00000000000E+00 0. -1.
         -4    1    1    2    0  502  0.28596870410E+02  0.11586956811E+02  0.53629889202E+02  0.61872478383E+02  0.00000000000E+00 0.  1.
<scales pt_clust_5="13000.00000" pt_clust_6="13000.00000" pt_clust_7="13000.00000" pt_clust_8="13000.00000" pt_clust_9="30.85512"></scales>
<clustering>
<clus scale="   30.855">  1  9  2 -1</clus>
<clus scale="   82.481">  5  6 -1 -1</clus>
<clus scale="   90.625">  7  8 -1 -1</clus>
<clus scale="  148.660">  1  5  2 -1</clus>
<clus scale="   30.855">  1  5  2 -1</clus>
</clustering>
</event>
<event>
 9    2  0.4653788E-005  0.9518989E+02  0.7546771E-02  0.1297888E+00
         -3   -1    0    0    0  501 -0.00000000000E+00  0.00000000000E+00  0.32930557695E+03  0.32930557695E+03  0.00000000000E+00 0.  1.
         21   -1    0    0  501  502  0.00000000000E+00 -0.00000000000E+00 -0.10345665558E+03  0.10345665558E+03  0.00000000000E+00 0.  1.
         23    2    1    2    0    0 -0.14691848730E+02  0.26249755511E+02  0.25705080192E+03  0.27451080751E+03  0.91521410570E+02 0.  0.
         24    2    1    2    0    0  0.38059421008E+02  0.29979349809E+02 -0.29392729182E+02  0.97333211415E+02  0.79136215307E+02 0.  0.
        -13    1    4    4    0    0  0.14528945721E+02  0.55885118479E+02 -0.19833984314E+02  0.61054268196E+02  0.00000000000E+00 0.  1.
         14    1    4    4    0    0  0.23530475287E+02 -0.25905768670E+02 -0.95587448683E+01  0.36278943219E+02  0.00000000000E+00 0. -1.
        -13    1    3    3    0    0 -0.37771953279E+02 -0.19159664081E+02  0.83326147140E+02  0.93472241758E+02  0.00000000000E+00 0.  1.
         13    1    3    3    0    0  0.23080104549E+02  0.45409419593E+02  0.17372465478E+03  0.18103856576E+03  0.00000000000E+00 0. -1.
         -4    1    1    2    0  502 -0.23367572278E+02 -0.56229105321E+02 -0.18091513624E+01  0.60918213598E+02  0.00000000000E+00 0.  1.
<scales pt_clust_5="13000.00000" pt_clust_6="13000.00000" pt_clust_7="13000.00000" pt_clust_8="13000.00000" pt_clust_9="60.89134"></scales>
<clustering>
<clus scale="   60.891">  2  9  1 -1</clus>
<clus scale="   79.136">  5  6 -1 -1</clus>
<clus scale="   83.352">  2  5  1 -1</clus>
<clus scale="   91.521">  7  8 -1 -1</clus>
<clus scale="   60.891">  2  5  1 -1</clus>
</clustering>
</event>
<event>
 9    2  0.4653788E-005  0.1384860E+03  0.7546771E-02  0.1241976E+00
         -1   -1    0    0    0  501 -0.00000000000E+00  0.00000000000E+00  0.46763648911E+03  0.46763648911E+03  0.00000000000E+00 0.  1.
         21   -1    0    0  501  502  0.00000000000E+00 -0.00000000000E+00 -0.61478406324E+02  0.61478406324E+02  0.00000000000E+00 0.  1.
         23    2    1    2    0    0  0.11229735679E+02 -0.40767555681E+01  0.10281685087E+03  0.13019050260E+03  0.78965405367E+02 0.  0.
         24    2    1    2    0    0  0.10585358819E+03 -0.11974928950E+02  0.11729849812E+03  0.17852008230E+03  0.82231995391E+02 0.  0.
        -13    1    4    4    0    0  0.99799330018E+02 -0.11218443825E+01  0.12786652103E+03  0.16220669532E+03  0.00000000000E+00 0.  1.
         14    1    4    4    0    0  0.60542581753E+01 -0.10853084567E+02 -0.10568022905E+02  0.16313386981E+02  0.00000000000E+00 0. -1.
        -13    1    3    3    0    0  0.25367912501E+02  0.32003143905E+02  0.47351031104E+02  0.62528812168E+02  0.00000000000E+00 0. -1.
         13    1    3    3    0    0 -0.14138176821E+02 -0.36079899473E+02  0.55465819764E+02  0.67661690430E+02  0.00000000000E+00 0.  1.
         -2    1    1    2    0  502 -0.11708332387E+03  0.16051684518E+02  0.18604273380E+03  0.22040431054E+03  0.00000000000E+00 0.  1.
<scales pt_clust_5="13000.00000" pt_clust_6="13000.00000" pt_clust_7="13000.00000" pt_clust_8="13000.00000" pt_clust_9="111.42844"></scales>
<clustering>
<clus scale="   78.965">  7  8 -1 -1</clus>
<clus scale="   79.864">  1  7  2 -1</clus>
<clus scale="   82.232">  5  6 -1 -1</clus>
<clus scale="  111.428">  2  9  1 -1</clus>
<clus scale="  111.428">  2  5  1 -1</clus>
</clustering>
</event>
<event>
 9    2  0.4653788E-005  0.5732298E+03  0.7546771E-02  0.9962557E-01
          2   -1    0    0  502    0 -0.00000000000E+00  0.00000000000E+00  0.18202345291E+04  0.18202345291E+04  0.00000000000E+00 0. -1.
         21   -1    0    0  501  502  0.00000000000E+00 -0.00000000000E+00 -0.16034132759E+03  0.16034132759E+03  0.00000000000E+00 0. -1.
         24    2    1    2    0    0  0.51996305614E+02  0.45899884252E+03  0.71582524825E+03  0.85608840404E+03  0.84249725599E+02 0.  0.
         23    2    1    2    0    0  0.17913514884E+02  0.42567092835E+02  0.20424869427E+03  0.22794503509E+03  0.90047534696E+02 0.  0.
        -11    1    3    3    0    0 -0.19160877603E+02  0.17693077269E+03  0.29437429409E+03  0.34398817215E+03  0.00000000000E+00 0.  1.
         12    1    3    3    0    0  0.71157183217E+02  0.28206806984E+03  0.42145095416E+03  0.51210023190E+03  0.00000000000E+00 0. -1.
        -11    1    4    4    0    0  0.50448077840E+02  0.46216965343E+02  0.14123183105E+03  0.15693134341E+03  0.00000000000E+00 0. -1.
         11    1    4    4    0    0 -0.32534562957E+02 -0.36498725088E+01  0.63016863218E+02  0.71013691680E+02  0.00000000000E+00 0.  1.
          1    1    1    2  501    0 -0.69909820497E+02 -0.50156593536E+03  0.73981925896E+03  0.89654241754E+03  0.00000000000E+00 0. -1.
<scales pt_clust_5="13000.00000" pt_clust_6="13000.00000" pt_clust_7="13000.00000" pt_clust_8="13000.00000" pt_clust_9="506.41462"></scales>
<clustering>
<clus scale="   84.250">  5  6 -1 -1</clus>
<clus scale="   90.048">  7  8 -1 -1</clus>
<clus scale="   94.058">  5  7 -1 -1</clus>
<clus scale="  506.415">  2  9  1 -1</clus>
<clus scale="  506.415">  2  5  1 -1</clus>
</clustering>
</event>
<event>
 9    2  0.4653788E-005  0.1041212E+03  0.7546771E-02  0.1276669E+00
         -1   -1    0    0    0  501 -0.00000000000E+00  0.00000000000E+00  0.12433844032E+03  0.12433844032E+03  0.00000000000E+00 0.  1.
         21   -1    0    0  501  502  0.00000000000E+00 -0.00000000000E+00 -0.29001008271E+03  0.29001008271E+03  0.00000000000E+00 0.  1.
         23    2    1    2    0    0 -0.12474977480E+02 -0.41122812087E+02  0.51606616669E+02  0.11390269358E+03  0.91999293382E+02 0.  0.
         24    2    1    2    0    0  0.90122706240E+02  0.41161820889E+02 -0.11693520675E+03  0.17356833164E+03  0.81459962509E+02 0.  0.
        -13    1    4    4    0    0  0.10398714252E+03  0.43079767418E+02 -0.11183857020E+03  0.15867280156E+03  0.00000000000E+00 0.  1.
         14    1    4    4    0    0 -0.13864436282E+02 -0.19179465293E+01 -0.50966365553E+01  0.14895530084E+02  0.00000000000E+00 0. -1.
        -13    1    3    3    0    0 -0.30422315531E+02 -0.16219611774E+02 -0.17222765564E+02  0.38538509858E+02  0.00000000000E+00 0.  1.
         13    1    3    3    0    0  0.17947338051E+02 -0.24903200313E+02  0.68829382233E+02  0.75364183719E+02  0.00000000000E+00 0. -1.
         -2    1    1    2    0  502 -0.77647728760E+02 -0.39008801571E-01 -0.10034305231E+03  0.12687749781E+03  0.00000000000E+00 0.  1.
<scales pt_clust_5="13000.00000" pt_clust_6="13000.00000" pt_clust_7="13000.00000" pt_clust_8="13000.00000" pt_clust_9="77.64774"></scales>
<clustering>
<clus scale="   77.648">  2  9  1 -1</clus>
<clus scale="   81.460">  5  6 -1 -1</clus>
<clus scale="   91.999">  7  8 -1 -1</clus>
<clus scale="   94.937">  2  5  1 -1</clus>
<clus scale="   77.648">  2  5  1 -1</clus>
</clustering>
</event>
<event>
 9    2  0.4653788E-005  0.9622290E+02  0.7546771E-02  0.1289801E+00
         21   -1    0    0  501  502  0.00000000000E+00  0.00000000000E+00  0.57060636075E+03  0.57060636075E+03  0.00000000000E+00 0.  1.
         -1   -1    0    0    0  501 -0.00000000000E+00 -0.00000000000E+00 -0.76920095419E+02  0.76920095419E+02  0.00000000000E+00 0.  1.
         23    2    1    2    0    0  0.37836436072E+02  0.12466996898E+02 -0.15074949602E+02  0.10252499046E+03  0.93258231041E+02 0.  0.
         24    2    1    2    0    0  0.49495468048E+02  0.21781354904E+02  0.19863009356E+03  0.22099355914E+03  0.80374189473E+02 0.  0.
        -13    1    4    4    0    0  0.49997944318E+02 -0.15843326037E+02  0.73263921252E+02  0.90102206262E+02  0.00000000000E+00 0.  1.
         14    1    4    4    0    0 -0.50247627071E+00  0.37624680941E+02  0.12536617231E+03  0.13089135287E+03  0.00000000000E+00 0. -1.
        -13    1    3    3    0    0  0.58289670694E+02  0.65941241984E+01 -0.39048458034E+02  0.70469498781E+02  0.00000000000E+00 0.  1.
         13    1    3    3    0    0 -0.20453234622E+02  0.58728726995E+01  0.23973508432E+02  0.32055491679E+02  0.00000000000E+00 0. -1.
         -2    1    1    2    0  502 -0.87331904120E+02 -0.34248351802E+02  0.31013112137E+03  0.32400790657E+03  0.00000000000E+00 0.  1.
<scales pt_clust_5="13000.00000" pt_clust_6="13000.00000" pt_clust_7="13000.00000" pt_clust_8="13000.00000" pt_clust_9="93.80731"></scales>
<clustering>
<clus scale="   80.374">  5  6 -1 -1</clus>
<clus scale="   93.258">  7  8 -1 -1</clus>
<clus scale="   93.807">  1  9  2 -1</clus>
<clus scale="   93.807">  1  5  2 -1</clus>
<clus scale="   93.807">  1  5  2 -1</clus>
</clustering>
</event>
<event>
 9    2  0.4653788E-005  0.1081412E+03  0.7546771E-02  0.1267771E+00
         21   -1    0    0  501  502  0.00000000000E+00  0.00000000000E+00  0.32673039550E+03  0.32673039550E+03  0.00000000000E+00 0.  1.
         -3   -1    0    0    0  501 -0.00000000000E+00 -0.00000000000E+00 -0.51745237841E+02  0.51745237841E+02  0.00000000000E+00 0.  1.
         24    2    1    2    0    0  0.56162666045E+02  0.30999284152E+02  0.55216240672E+02  0.11752453895E+03  0.81535166321E+02 0.  0.
         23    2    1    2    0    0 -0.31081759290E+02 -0.36367225712E+02  0.20964663057E+03  0.23337706018E+03  0.90688983021E+02 0.  0.
        -11    1    3    3    0    0  0.39947840952E+02  0.56225649433E+02  0.21155515995E+02  0.72143672681E+02  0.00000000000E+00 0.  1.
         12    1    3    3    0    0  0.16214825093E+02 -0.25226365281E+02  0.34060724677E+02  0.45380866272E+02  0.00000000000E+00 0. -1.
        -13    1    4    4    0    0  0.56088844958E+01  0.23203666128E+02  0.19685903681E+02  0.30941953894E+02  0.00000000000E+00 0. -1.
         13    1    4    4    0    0 -0.36690643786E+02 -0.59570891840E+02  0.18996072689E+03  0.20243510628E+03  0.00000000000E+00 0.  1.
         -4    1    1    2    0  502 -0.25080906755E+02  0.53679415603E+01  0.10122286416E+02  0.27574034208E+02  0.00000000000E+00 0.  1.
<scales pt_clust_5="13000.00000" pt_clust_6="13000.00000" pt_clust_7="13000.00000" pt_clust_8="13000.00000" pt_clust_9="25.64892"></scales>
<clustering>
<clus scale="   25.649">  1  9  2 -1</clus>
<clus scale="   81.535">  5  6 -1 -1</clus>
<clus scale="   90.689">  7  8 -1 -1</clus>
<clus scale="  100.588">  2  5  1 -1</clus>
<clus scale="   25.649">  1  5  2 -1</clus>
</clustering>
</event>
<event>
 9    2  0.4653788E-005  0.1078079E+03  0.7546771E-02  0.1269626E+00
          2   -1    0    0  502    0 -0.00000000000E+00  0.00000000000E+00  0.69226196154E+03  0.69226196154E+03  0.00000000000E+00 0. -1.
         21   -1    0    0  501  502  0.00000000000E+00 -0.00000000000E+00 -0.49611157442E+02  0.49611157442E+02  0.00000000000E+00 0. -1.
         24    2    1    2    0    0 -0.57988900613E+02  0.12721123327E+02  0.43866441470E+03  0.45025528637E+03  0.82333557001E+02 0.  0.
         23    2    1    2    0    0 -0.30645054317E+01 -0.68262623752E+02  0.74115791577E+02  0.13773882547E+03  0.93859770334E+02 0.  0.
        -11    1    3    3    0    0  0.32417803102E+00  0.27161014377E+02  0.49336007576E+02  0.56319334485E+02  0.00000000000E+00 0.  1.
         12    1    3    3    0    0 -0.58313078644E+02 -0.14439891049E+02  0.38932840712E+03  0.39393595189E+03  0.00000000000E+00 0. -1.
        -11    1    4    4    0    0  0.31637420512E+02 -0.44731717518E+01  0.53391090651E+02  0.62221734170E+02  0.00000000000E+00 0.  1.
         11    1    4    4    0    0 -0.34701925944E+02 -0.63789452000E+02  0.20724700926E+02  0.75517091305E+02  0.00000000000E+00 0. -1.
          1    1    1    2  501    0  0.61053406045E+02  0.55541500424E+02  0.12987059782E+03  0.15387900714E+03  0.00000000000E+00 0. -1.
<scales pt_clust_5="13000.00000" pt_clust_6="13000.00000" pt_clust_7="13000.00000" pt_clust_8="13000.00000" pt_clust_9="82.53712"></scales>
<clustering>
<clus scale="   82.334">  5  6 -1 -1</clus>
<clus scale="   82.537">  2  9  1 -1</clus>
<clus scale="   93.860">  7  8 -1 -1</clus>
<clus scale="   97.937">  1  5  2 -1</clus>
<clus scale="   82.537">  2  5  1 -1</clus>
</clustering>
</event>
<event>
 9    2  0.4653788E-005  0.8579434E+02  0.7546771E-02  0.1316174E+00
         21   -1    0    0  501  502  0.00000000000E+00  0.00000000000E+00  0.19993991934E+03  0.19993991934E+03  0.00000000000E+00 0. -1.
          2   -1    0    0  502    0 -0.00000000000E+00 -0.00000000000E+00 -0.35812951981E+03  0.35812951981E+03  0.00000000000E+00 0. -1.
         24    2    1    2    0    0  0.17155323597E+02  0.52053013435E+01 -0.19733868340E+03  0.21426709814E+03  0.81525659092E+02 0.  0.
         23    2    1    2    0    0  0.21092484332E+02  0.42716053764E+01 -0.13713578947E+03  0.16316717608E+03  0.85756417184E+02 0.  0.
        -13    1    3    3    0    0  0.67773748222E+01 -0.38105717981E+02 -0.83817244789E+02  0.92321769244E+02  0.00000000000E+00 0.  1.
         14    1    3    3    0    0  0.10377948775E+02  0.43311019325E+02 -0.11352143861E+03  0.12194532890E+03  0.00000000000E+00 0. -1.
        -13    1    4    4    0    0  0.25759646558E+02 -0.37200606555E+02 -0.85865771977E+02  0.97058617938E+02  0.00000000000E+00 0.  1.
         13    1    4    4    0    0 -0.46671622263E+01  0.41472211931E+02 -0.51270017491E+02  0.66108558139E+02  0.00000000000E+00 0. -1.
          1    1    1    2  501    0 -0.38247807930E+02 -0.94769067199E+01  0.17628487240E+03  0.18063516493E+03  0.00000000000E+00 0. -1.
<scales pt_clust_5="13000.00000" pt_clust_6="13000.00000" pt_clust_7="13000.00000" pt_clust_8="13000.00000" pt_clust_9="39.40440"></scales>
<clustering>
<clus scale="   39.404">  1  9  2 -1</clus>
<clus scale="   81.526">  5  6 -1 -1</clus>
<clus scale="   81.566">  2  5  1 -1</clus>
<clus scale="   85.756">  7  8 -1 -1</clus>
<clus scale="   39.404">  1  5  2 -1</clus>
</clustering>
</event>
<event>
 9    2  0.4653788E-005  0.9731925E+02  0.7546771E-02  0.1292591E+00
         21   -1    0    0  501  502  0.00000000000E+00  0.00000000000E+00  0.21958095821E+03  0.21958095821E+03  0.00000000000E+00 0.  1.
          2   -1    0    0  502    0 -0.00000000000E+00 -0.00000000000E+00 -0.59419854533E+02  0.59419854533E+02  0.00000000000E+00 0. -1.
         23    2    1    2    0    0 -0.38932491619E+01  0.27333563441E+02  0.29632180465E+02  0.99907958994E+02  0.91330460810E+02 0.  0.
         24    2    1    2    0    0 -0.11117605719E+02 -0.42212026357E+02  0.68226549122E+02  0.11330318708E+03  0.79229375054E+02 0.  0.
        -11    1    4    4    0    0 -0.65071357026E+01 -0.36308079474E+02  0.86238293281E+02  0.93795856402E+02  0.00000000000E+00 0.  1.
         12    1    4    4    0    0 -0.46104700164E+01 -0.59039468830E+01 -0.18011744159E+02  0.19507330679E+02  0.00000000000E+00 0. -1.
        -13    1    3    3    0    0  0.28879399588E+02 -0.15516909998E+02  0.32130411172E+02  0.45903785667E+02  0.00000000000E+00 0.  1.
         13    1    3    3    0    0 -0.32772648750E+02  0.42850473439E+02 -0.24982307072E+01  0.54004173327E+02  0.00000000000E+00 0. -1.
          1    1    1    2  501    0  0.15010854881E+02  0.14878462916E+02  0.62302374089E+02  0.65789666666E+02  0.00000000000E+00 0. -1.
<scales pt_clust_5="13000.00000" pt_clust_6="13000.00000" pt_clust_7="13000.00000" pt_clust_8="13000.00000" pt_clust_9="21.13515"></scales>
<clustering>
<clus scale="   21.135">  1  9  2 -1</clus>
<clus scale="   79.229">  5  6 -1 -1</clus>
<clus scale="   86.064">  1  5  2 -1</clus>
<clus scale="   91.330">  7  8 -1 -1</clus>
<clus scale="   21.135">  1  5  2 -1</clus>
</clustering>
</event>
<event>
 9    2  0.4653788E-005  0.2584342E+03  0.7546771E-02  0.1145192E+00
         21   -1    0    0  501  502  0.00000000000E+00  0.00000000000E+00  0.33485184124E+03  0.33485184124E+03  0.00000000000E+00 0.  1.
          4   -1    0    0  502    0 -0.00000000000E+00 -0.00000000000E+00 -0.38155242990E+03  0.38155242990E+03  0.00000000000E+00 0. -1.
         23    2    1    2    0    0 -0.48252742546E+02  0.59152235968E+01 -0.95231892740E+02  0.14049409296E+03  0.91138135420E+02 0.  0.
         24    2    1    2    0    0  0.24164733113E+03 -0.91990321874E+02  0.18148647436E+03  0.32593524595E+03  0.80254546387E+02 0.  0.
        -11    1    4    4    0    0  0.23797033484E+03 -0.10275923459E+03  0.17162059145E+03  0.31087452126E+03  0.00000000000E+00 0.  1.
         12    1    4    4    0    0  0.36769962940E+01  0.10768912713E+02  0.98658829115E+01  0.15060724697E+02  0.00000000000E+00 0. -1.
        -11    1    3    3    0    0 -0.66688744145E+02 -0.21379785010E+02 -0.69844836045E+02  0.98907961888E+02  0.00000000000E+00 0.  1.
         11    1    3    3    0    0  0.18436001599E+02  0.27295008606E+02 -0.25387056695E+02  0.41586131071E+02  0.00000000000E+00 0. -1.
          3    1    1    2  501    0 -0.19339458859E+03  0.86075098277E+02 -0.13295517028E+03  0.24997493223E+03  0.00000000000E+00 0. -1.
<scales pt_clust_5="13000.00000" pt_clust_6="13000.00000" pt_clust_7="13000.00000" pt_clust_8="13000.00000" pt_clust_9="245.65731"></scales>
<clustering>
<clus scale="   80.255">  5  6 -1 -1</clus>
<clus scale="   91.138">  7  8 -1 -1</clus>
<clus scale="  103.293">  2  7  1 -1</clus>
<clus scale="  245.657">  1  9  2 -1</clus>
<clus scale="  245.657">  1  5  2 -1</clus>
</clustering>
</event>
<event>
 9    2  0.4653788E-005  0.1635569E+03  0.7546771E-02  0.1198519E+00
         21   -1    0    0  501  502  0.00000000000E+00  0.00000000000E+00  0.82198720108E+03  0.82198720108E+03  0.00000000000E+00 0.  1.
         -1   -1    0    0    0  501 -0.00000000000E+00 -0.00000000000E+00 -0.12815180617E+03  0.12815180617E+03  0.00000000000E+00 0.  1.
         23    2    1    2    0    0  0.70758879659E+02 -0.34668277505E+02 -0.58446952638E+02  0.13412993492E+03  0.91466303372E+02 0.  0.
         24    2    1    2    0    0 -0.15064231616E+03 -0.69459730755E+02  0.45342605383E+03  0.48960580974E+03  0.81245929270E+02 0.  0.
        -13    1    4    4    0    0 -0.93801498323E+02 -0.12708736233E+01  0.19577276503E+03  0.21708825794E+03  0.00000000000E+00 0.  1.
         14    1    4    4    0    0 -0.56840817838E+02 -0.68188857131E+02  0.25765328880E+03  0.27251755180E+03  0.00000000000E+00 0. -1.
        -11    1    3    3    0    0 -0.16837760956E+01 -0.44826004863E+02 -0.36283162304E+02  0.57694659031E+02  0.00000000000E+00 0.  1.
         11    1    3    3    0    0  0.72442655754E+02  0.10157727358E+02 -0.22163790334E+02  0.76435275886E+02  0.00000000000E+00 0. -1.
         -2    1    1    2    0  502  0.79883436502E+02  0.10412800826E+03  0.29885629372E+03  0.32640326259E+03  0.00000000000E+00 0.  1.
<scales pt_clust_5="13000.00000" pt_clust_6="13000.00000" pt_clust_7="13000.00000" pt_clust_8="13000.00000" pt_clust_9="141.95057"></scales>
<clustering>
<clus scale="   81.246">  5  6 -1 -1</clus>
<clus scale="   91.466">  7  8 -1 -1</clus>
<clus scale="  120.726">  2  7  1 -1</clus>
<clus scale="  141.951">  1  9  2 -1</clus>
<clus scale="  141.951">  1  5  2 -1</clus>
</clustering>
</event>
<event>
 9    2  0.4653788E-005  0.2826816E+03  0.7546771E-02  0.1133844E+00
         21   -1    0    0  501  502  0.00000000000E+00  0.00000000000E+00  0.97674988781E+02  0.97674988781E+02  0.00000000000E+00 0. -1.
          2   -1    0    0  502    0 -0.00000000000E+00 -0.00000000000E+00 -0.15323718171E+04  0.15323718171E+04  0.00000000000E+00 0. -1.
         23    2    1    2    0    0 -0.25584106650E+02 -0.43000800475E+02 -0.40347210785E+03  0.41661144307E+03  0.90949091950E+02 0.  0.
         24    2    1    2    0    0  0.19915053568E+03 -0.16937276544E+03 -0.82762255471E+03  0.87184836263E+03  0.82537293423E+02 0.  0.
        -13    1    4    4    0    0  0.24592566025E+02  0.66805666935E+01 -0.60161548041E+02  0.65336330917E+02  0.00000000000E+00 0.  1.
         14    1    4    4    0    0  0.17455796966E+03 -0.17605333213E+03 -0.76746100667E+03  0.80651203171E+03  0.00000000000E+00 0. -1.
        -11    1    3    3    0    0 -0.31601082127E+02 -0.69061900157E+02 -0.26959203642E+03  0.28008577356E+03  0.00000000000E+00 0.  1.
         11    1    3    3    0    0  0.60169754768E+01  0.26061099681E+02 -0.13388007143E+03  0.13652566951E+03  0.00000000000E+00 0. -1.
          1    1    1    2  501    0 -0.17356642903E+03  0.21237356592E+03 -0.20360216571E+03  0.34158700015E+03  0.00000000000E+00 0. -1.
<scales pt_clust_5="13000.00000" pt_clust_6="13000.00000" pt_clust_7="13000.00000" pt_clust_8="13000.00000" pt_clust_9="270.36359"></scales>
<clustering>
<clus scale="   82.537">  5  6 -1 -1</clus>
<clus scale="   90.949">  7  8 -1 -1</clus>
<clus scale="  103.804">  2  7  1 -1</clus>
<clus scale="  270.364">  1  9  2 -1</clus>
<clus scale="  270.364">  1  5  2 -1</clus>
</clustering>
</event>
<event>
 9    2  0.4653788E-005  0.9572443E+02  0.7546771E-02  0.1294721E+00
          2   -1    0    0  502    0 -0.00000000000E+00  0.00000000000E+00  0.66129383304E+02  0.66129383304E+02  0.00000000000E+00 0. -1.
         21   -1    0    0  501  502  0.00000000000E+00 -0.00000000000E+00 -0.34694649858E+03  0.34694649858E+03  0.00000000000E+00 0.  1.
         23    2    1    2    0    0 -0.14564116484E+02 -0.57409086317E+00 -0.30050393526E+02  0.97169643210E+02  0.91249495018E+02 0.  0.
         24    2    1    2    0    0  0.16710062689E+02  0.73559637667E+02 -0.10600607833E+03  0.15377314825E+03  0.81967347103E+02 0.  0.
        -11    1    4    4    0    0  0.31586305646E+02 -0.49416848793E+00 -0.52274074646E+02  0.61077964824E+02  0.00000000000E+00 0.  1.
         12    1    4    4    0    0 -0.14876242957E+02  0.74053806155E+02 -0.53732003681E+02  0.92695183424E+02  0.00000000000E+00 0. -1.
        -11    1    3    3    0    0 -0.12940399519E+02  0.43803940161E+02 -0.26050828568E+02  0.52582171716E+02  0.00000000000E+00 0.  1.
         11    1    3    3    0    0 -0.16237169653E+01 -0.44378031024E+02 -0.39995649583E+01  0.44587471494E+02  0.00000000000E+00 0. -1.
          1    1    1    2  501    0 -0.21459462043E+01 -0.72985546804E+02 -0.14476064342E+03  0.16213309043E+03  0.00000000000E+00 0. -1.
<scales pt_clust_5="13000.00000" pt_clust_6="13000.00000" pt_clust_7="13000.00000" pt_clust_8="13000.00000" pt_clust_9="73.01709"></scales>
<clustering>
<clus scale="   73.017">  2  9  1 -1</clus>
<clus scale="   81.967">  5  6 -1 -1</clus>
<clus scale="   86.921">  2  5  1 -1</clus>
<clus scale="   91.249">  7  8 -1 -1</clus>
<clus scale="   73.017">  2  5  1 -1</clus>
</clustering>
</event>
<event>
 9    2  0.4653788E-005  0.1261940E+03  0.7546771E-02  0.1247036E+00
         21   -1    0    0  501  502  0.00000000000E+00  0.00000000000E+00  0.79297130284E+02  0.79297130284E+02  0.00000000000E+00 0. -1.
          2   -1    0    0  502    0 -0.00000000000E+00 -0.00000000000E+00 -0.61961043992E+03  0.61961043992E+03  0.00000000000E+00 0. -1.
         23    2    1    2    0    0 -0.42156939362E+00 -0.28004288534E+02 -0.12369222802E+03  0.15615497129E+03  0.91105377934E+02 0.  0.
         24    2    1    2    0    0  0.40024048100E+02 -0.63628994734E+02 -0.42836858699E+03  0.44223882471E+03  0.80155838005E+02 0.  0.
        -11    1    4    4    0    0  0.21263206081E+02  0.14496337665E+02 -0.61355064011E+02  0.66533537545E+02  0.00000000000E+00 0.  1.
         12    1    4    4    0    0  0.18760842019E+02 -0.78125332399E+02 -0.36701352298E+03  0.37570528716E+03  0.00000000000E+00 0. -1.
        -13    1    3    3    0    0  0.42773361928E+02  0.15206351647E+01 -0.50758768197E+02  0.66395220993E+02  0.00000000000E+00 0.  1.
         13    1    3    3    0    0 -0.43194931321E+02 -0.29524923698E+02 -0.72933459820E+02  0.89759750292E+02  0.00000000000E+00 0. -1.
          1    1    1    2  501    0 -0.39602478707E+02  0.91633283268E+02  0.11747505372E+02  0.10051377420E+03  0.00000000000E+00 0. -1.
<scales pt_clust_5="13000.00000" pt_clust_6="13000.00000" pt_clust_7="13000.00000" pt_clust_8="13000.00000" pt_clust_9="97.46772"></scales>
<clustering>
<clus scale="   80.156">  5  6 -1 -1</clus>
<clus scale="   91.105">  7  8 -1 -1</clus>
<clus scale="   95.313">  2  7  1 -1</clus>
<clus scale="   97.468">  1  9  2 -1</clus>
<clus scale="   97.468">  1  5  2 -1</clus>
</clustering>
</event>
<event>
 9    2  0.4653788E-005  0.9610164E+02  0.7546771E-02  0.1293674E+00
         21   -1    0    0  501  502  0.00000000000E+00  0.00000000000E+00  0.20923852048E+02  0.20923852048E+02  0.00000000000E+00 0.  1.
         -1   -1    0    0    0  501 -0.00000000000E+00 -0.00000000000E+00 -0.13660134823E+04  0.13660134823E+04  0.00000000000E+00 0.  1.
         24    2    1    2    0    0 -0.48247914136E+02  0.12225127468E+02 -0.63296417259E+03  0.64005821360E+03  0.80954048990E+02 0.  0.
         23    2    1    2    0    0 -0.25168906236E+02  0.34861137934E+02 -0.16502398980E+03  0.19286904680E+03  0.90093169693E+02 0.  0.
        -11    1    3    3    0    0 -0.69912834845E+02  0.14669299449E+02 -0.42588705266E+03  0.43183651356E+03  0.00000000000E+00 0.  1.
         12    1    3    3    0    0  0.21664920708E+02 -0.24441719816E+01 -0.20707711994E+03  0.20822170004E+03  0.00000000000E+00 0. -1.
        -13    1    4    4    0    0 -0.15944580681E+02  0.65643581413E+02 -0.10696282021E+03  0.12650831728E+03  0.00000000000E+00 0.  1.
         13    1    4    4    0    0 -0.92243255550E+01 -0.30782443478E+02 -0.58061169590E+02  0.66360729521E+02  0.00000000000E+00 0. -1.
         -2    1    1    2    0  502  0.73416820372E+02 -0.47086265402E+02 -0.54710146787E+03  0.55401007396E+03  0.00000000000E+00 0.  1.
<scales pt_clust_5="13000.00000" pt_clust_6="13000.00000" pt_clust_7="13000.00000" pt_clust_8="13000.00000" pt_clust_9="87.21900"></scales>
<clustering>
<clus scale="   80.954">  5  6 -1 -1</clus>
<clus scale="   87.219">  1  9  2 -1</clus>
<clus scale="   87.592">  2  5  1 -1</clus>
<clus scale="   90.093">  7  8 -1 -1</clus>
<clus scale="   87.219">  1  5  2 -1</clus>
</clustering>
</event>
<event>
 9    2  0.4653788E-005  0.2190320E+03  0.7546771E-02  0.1135630E+00
         21   -1    0    0  501  502  0.00000000000E+00  0.00000000000E+00  0.81598501180E+03  0.81598501180E+03  0.00000000000E+00 0. -1.
          2   -1    0    0  502    0 -0.00000000000E+00 -0.00000000000E+00 -0.11256316299E+03  0.11256316299E+03  0.00000000000E+00 0. -1.
         24    2    1    2    0    0  0.87130008230E+02  0.17202614653E+03  0.10387698909E+03  0.23146169676E+03  0.74829504765E+02 0.  0.
         23    2    1    2    0    0 -0.75167948436E+01 -0.23639328515E+03  0.44359778724E+03  0.51053653379E+03  0.89052052328E+02 0.  0.
        -11    1    3    3    0    0  0.35861522413E+02  0.17051371601E+02  0.39445097224E+02  0.55970650865E+02  0.00000000000E+00 0.  1.
         12    1    3    3    0    0  0.51268485818E+02  0.15497477493E+03  0.64431891867E+02  0.17549104590E+03  0.00000000000E+00 0. -1.
        -13    1    4    4    0    0  0.82677814322E+01 -0.19991565257E+03  0.41755194725E+03  0.46301647163E+03  0.00000000000E+00 0. -1.
         13    1    4    4    0    0 -0.15784576276E+02 -0.36477632577E+02  0.26045839991E+02  0.47520062157E+02  0.00000000000E+00 0.  1.
          1    1    1    2  501    0 -0.79613213387E+02  0.64367138619E+02  0.15594707248E+03  0.18654994424E+03  0.00000000000E+00 0. -1.
<scales pt_clust_5="13000.00000" pt_clust_6="13000.00000" pt_clust_7="13000.00000" pt_clust_8="13000.00000" pt_clust_9="102.37867"></scales>
<clustering>
<clus scale="   74.830">  5  6 -1 -1</clus>
<clus scale="   89.052">  7  8 -1 -1</clus>
<clus scale="  102.379">  1  9  2 -1</clus>
<clus scale="  213.645">  2  5  1 -1</clus>
<clus scale="  102.379">  1  5  2 -1</clus>
</clustering>
</event>
<event>
 9    2  0.4653788E-005  0.9644662E+02  0.7546771E-02  0.1293263E+00
         21   -1    0    0  501  502  0.00000000000E+00  0.00000000000E+00  0.16549861497E+03  0.16549861497E+03  0.00000000000E+00 0.  1.
          2   -1    0    0  502    0 -0.00000000000E+00 -0.00000000000E+00 -0.17714521984E+03  0.17714521984E+03  0.00000000000E+00 0. -1.
         23    2    1    2    0    0  0.27536542210E+02  0.26717969927E+02 -0.13657718537E+03  0.16798371722E+03  0.89961606336E+02 0.  0.
         24    2    1    2    0    0 -0.38403987975E+00 -0.22944110491E+02  0.55767992096E+02  0.10026277870E+03  0.80099788751E+02 0.  0.
        -13    1    4    4    0    0 -0.32595573964E+02 -0.17981147861E+02  0.56501979853E+02  0.67662891216E+02  0.00000000000E+00 0.  1.
         14    1    4    4    0    0  0.32211534084E+02 -0.49629626308E+01 -0.73398775658E+00  0.32599887487E+02  0.00000000000E+00 0. -1.
        -11    1    3    3    0    0 -0.65848903802E+01  0.46823900075E+02 -0.34617051870E+02  0.58601865838E+02  0.00000000000E+00 0.  1.
         11    1    3    3    0    0  0.34121432591E+02 -0.20105930148E+02 -0.10196013350E+03  0.10938185138E+03  0.00000000000E+00 0. -1.
          1    1    1    2  501    0 -0.27152502331E+02 -0.37738594359E+01  0.69162588408E+02  0.74397338885E+02  0.00000000000E+00 0. -1.
<scales pt_clust_5="13000.00000" pt_clust_6="13000.00000" pt_clust_7="13000.00000" pt_clust_8="13000.00000" pt_clust_9="27.41351"></scales>
<clustering>
<clus scale="   27.414">  1  9  2 -1</clus>
<clus scale="   80.100">  5  6 -1 -1</clus>
<clus scale="   87.320">  1  5  2 -1</clus>
<clus scale="   89.962">  7  8 -1 -1</clus>
<clus scale="   27.414">  1  5  2 -1</clus>
</clustering>
</event>
<event>
 9    2  0.4653788E-005  0.2159609E+03  0.7546771E-02  0.1153933E+00
         -1   -1    0    0    0  501 -0.00000000000E+00  0.00000000000E+00  0.42253022401E+03  0.42253022401E+03  0.00000000000E+00 0.  1.
         21   -1    0    0  501  502  0.00000000000E+00 -0.00000000000E+00 -0.29960164814E+03  0.29960164814E+03  0.00000000000E+00 0.  1.
         24    2    1    2    0    0 -0.10622115989E+03  0.55265263598E+02 -0.12113967013E+03  0.18808030106E+03  0.79763373784E+02 0.  0.
         23    2    1    2    0    0 -0.11553039857E+03 -0.31614051491E+02  0.26983334258E+03  0.30955886805E+03  0.93112506007E+02 0.  0.
        -11    1    3    3    0    0 -0.11788728609E+03  0.58292060441E+02 -0.10732362888E+03  0.16974609818E+03  0.00000000000E+00 0.  1.
         12    1    3    3    0    0  0.11666126191E+02 -0.30267968425E+01 -0.13816041246E+02  0.18334202877E+02  0.00000000000E+00 0. -1.
        -13    1    4    4    0    0 -0.10254765339E+03 -0.29790981824E+01  0.25486261167E+03  0.27473595882E+03  0.00000000000E+00 0.  1.
         13    1    4    4    0    0 -0.12982745177E+02 -0.28634953308E+02  0.14970730915E+02  0.34822909233E+02  0.00000000000E+00 0. -1.
         -2    1    1    2    0  502  0.22175155846E+03 -0.23651212108E+02 -0.25765096582E+02  0.22449270304E+03  0.00000000000E+00 0.  1.
<scales pt_clust_5="13000.00000" pt_clust_6="13000.00000" pt_clust_7="13000.00000" pt_clust_8="13000.00000" pt_clust_9="194.85676"></scales>
<clustering>
<clus scale="   79.763">  5  6 -1 -1</clus>
<clus scale="   93.113">  7  8 -1 -1</clus>
<clus scale="  143.873">  1  5  2 -1</clus>
<clus scale="  194.857">  2  9  1 -1</clus>
<clus scale="  194.857">  2  5  1 -1</clus>
</clustering>
</event>
<event>
 9    2  0.4653788E-005  0.1585613E+03  0.7546771E-02  0.1192342E+00
          2   -1    0    0  502    0 -0.00000000000E+00  0.00000000000E+00  0.52581005266E+03  0.52581005266E+03  0.00000000000E+00 0. -1.
         21   -1    0    0  501  502  0.00000000000E+00 -0.00000000000E+00 -0.13225720475E+03  0.13225720475E+03  0.00000000000E+00 0. -1.
         23    2    1    2    0    0  0.16856126587E+02 -0.13395398622E+03  0.39372261461E+03  0.42619255589E+03  0.91623130361E+02 0.  0.
         24    2    1    2    0    0 -0.16719711636E+02  0.11355689810E+03  0.71978230706E+02  0.15689874977E+03  0.79130487930E+02 0.  0.
        -11    1    4    4    0    0 -0.26277829177E+02  0.25708951043E+02 -0.81024086038E+01  0.37644700758E+02  0.00000000000E+00 0.  1.
         12    1    4    4    0    0  0.95581175409E+01  0.87847947061E+02  0.80080639310E+02  0.11925404901E+03  0.00000000000E+00 0. -1.
        -13    1    3    3    0    0 -0.18738384124E+02 -0.12192961087E+03  0.26907008477E+03  0.29600112764E+03  0.00000000000E+00 0.  1.
         13    1    3    3    0    0  0.35594510712E+02 -0.12024375350E+02  0.12465252984E+03  0.13019142825E+03  0.00000000000E+00 0. -1.
          1    1    1    2  501    0 -0.13641495173E+00  0.20397088114E+02 -0.72147997403E+02  0.74975951756E+02  0.00000000000E+00 0. -1.
<scales pt_clust_5="13000.00000" pt_clust_6="13000.00000" pt_clust_7="13000.00000" pt_clust_8="13000.00000" pt_clust_9="20.39754"></scales>
<clustering>
<clus scale="   20.398">  2  9  1 -1</clus>
<clus scale="   79.130">  5  6 -1 -1</clus>
<clus scale="   91.623">  7  8 -1 -1</clus>
<clus scale="  151.686">  2  5  1 -1</clus>
<clus scale="   20.398">  2  5  1 -1</clus>
</clustering>
</event>
<event>
 9    2  0.4653788E-005  0.9471185E+02  0.7546771E-02  0.1297457E+00
          2   -1    0    0  502    0 -0.00000000000E+00  0.00000000000E+00  0.10531204954E+04  0.10531204954E+04  0.00000000000E+00 0. -1.
         21   -1    0    0  501  502  0.00000000000E+00 -0.00000000000E+00 -0.44896014519E+02  0.44896014519E+02  0.00000000000E+00 0. -1.
         24    2    1    2    0    0  0.30247365237E+02  0.26882262241E+01  0.74131152557E+03  0.74622817544E+03  0.79947371482E+02 0.  0.
         23    2    1    2    0    0 -0.27480576704E+02  0.21141688018E+02  0.29761191477E+03  0.31282750743E+03  0.89922436170E+02 0.  0.
        -13    1    3    3    0    0  0.21038294986E+02  0.37071307544E+02  0.24819350690E+03  0.25182714025E+03  0.00000000000E+00 0.  1.
         14    1    3    3    0    0  0.92090702515E+01 -0.34383081320E+02  0.49311801868E+03  0.49440103519E+03  0.00000000000E+00 0. -1.
        -13    1    4    4    0    0 -0.37820854020E+02 -0.20144897904E+02  0.22165240272E+03  0.22575655370E+03  0.00000000000E+00 0.  1.
         13    1    4    4    0    0  0.10340277316E+02  0.41286585923E+02  0.75959512050E+02  0.87070953728E+02  0.00000000000E+00 0. -1.
          1    1    1    2  501    0 -0.27667885337E+01 -0.23829914242E+02 -0.30698959465E+02  0.38960827042E+02  0.00000000000E+00 0. -1.
<scales pt_clust_5="13000.00000" pt_clust_6="13000.00000" pt_clust_7="13000.00000" pt_clust_8="13000.00000" pt_clust_9="23.99000"></scales>
<clustering>
<clus scale="   23.990">  2  9  1 -1</clus>
<clus scale="   79.947">  5  6 -1 -1</clus>
<clus scale="   85.299">  1  5  2 -1</clus>
<clus scale="   89.922">  7  8 -1 -1</clus>
<clus scale="   23.990">  2  5  1 -1</clus>
</clustering>
</event>
<event>
 9    2  0.4653788E-005  0.2349273E+03  0.7546771E-02  0.1150869E+00
          2   -1    0    0  502    0 -0.00000000000E+00  0.00000000000E+00  0.69186042604E+03  0.69186042604E+03  0.00000000000E+00 0. -1.
         21   -1    0    0  501  502  0.00000000000E+00 -0.00000000000E+00 -0.43542714479E+03  0.43542714479E+03  0.00000000000E+00 0.  1.
         23    2    1    2    0    0 -0.40106133510E+02 -0.67965467299E+02  0.48637407234E+03  0.50099286602E+03  0.90588668528E+02 0.  0.
         24    2    1    2    0    0  0.20503247953E+03 -0.85904304759E+02 -0.30739681289E+03  0.38780772052E+03  0.80524283766E+02 0.  0.
        -11    1    4    4    0    0  0.66988641264E+02 -0.22583938838E+02 -0.16547871289E+03  0.17994642750E+03  0.00000000000E+00 0.  1.
         12    1    4    4    0    0  0.13804383827E+03 -0.63320365921E+02 -0.14191810000E+03  0.20786129301E+03  0.00000000000E+00 0. -1.
        -11    1    3    3    0    0  0.22674520833E+02 -0.43654832063E+02  0.14721221549E+03  0.15521377081E+03  0.00000000000E+00 0.  1.
         11    1    3    3    0    0 -0.62780654343E+02 -0.24310635236E+02  0.33916185685E+03  0.34577909521E+03  0.00000000000E+00 0. -1.
          1    1    1    2  501    0 -0.16492634602E+03  0.15386977206E+03  0.77456021795E+02  0.23848698430E+03  0.00000000000E+00 0. -1.
<scales pt_clust_5="13000.00000" pt_clust_6="13000.00000" pt_clust_7="13000.00000" pt_clust_8="13000.00000" pt_clust_9="220.69598"></scales>
<clustering>
<clus scale="   80.524">  5  6 -1 -1</clus>
<clus scale="   90.589">  7  8 -1 -1</clus>
<clus scale="  120.142">  1  7  2 -1</clus>
<clus scale="  220.696">  2  9  1 -1</clus>
<clus scale="  220.696">  2  5  1 -1</clus>
</clustering>
</event>
<event>
 9    2  0.4653788E-005  0.9353259E+02  0.7546771E-02  0.1310215E+00
         21   -1    0    0  501  502  0.00000000000E+00  0.00000000000E+00  0.11616160872E+03  0.11616160872E+03  0.00000000000E+00 0. -1.
          2   -1    0    0  502    0 -0.00000000000E+00 -0.00000000000E+00 -0.22384671707E+03  0.22384671707E+03  0.00000000000E+00 0. -1.
         24    2    1    2    0    0  0.15626478490E+02  0.12047499318E+02 -0.71192688755E+02  0.10015119192E+03  0.67620509022E+02 0.  0.
         23    2    1    2    0    0  0.24954731821E+02 -0.37178869913E+02  0.69604535888E+02  0.12351718208E+03  0.91688035452E+02 0.  0.
        -11    1    3    3    0    0  0.25470754730E+02  0.25962428727E+02 -0.11610237924E+02  0.38178589243E+02  0.00000000000E+00 0.  1.
         12    1    3    3    0    0 -0.98442762405E+01 -0.13914929409E+02 -0.59582450830E+02  0.61972602673E+02  0.00000000000E+00 0. -1.
        -11    1    4    4    0    0  0.24297525424E+02 -0.60180259485E+02  0.18522565002E+02  0.67491620130E+02  0.00000000000E+00 0. -1.
         11    1    4    4    0    0  0.65720639724E+00  0.23001389573E+02  0.51081970885E+02  0.56025561952E+02  0.00000000000E+00 0.  1.
          1    1    1    2  501    0 -0.40581210311E+02  0.25131370595E+02 -0.10609695548E+03  0.11633995178E+03  0.00000000000E+00 0. -1.
<scales pt_clust_5="13000.00000" pt_clust_6="13000.00000" pt_clust_7="13000.00000" pt_clust_8="13000.00000" pt_clust_9="47.73283"></scales>
<clustering>
<clus scale="   47.733">  1  9  2 -1</clus>
<clus scale="   67.621">  5  6 -1 -1</clus>
<clus scale="   70.101">  2  5  1 -1</clus>
<clus scale="   91.688">  7  8 -1 -1</clus>
<clus scale="   47.733">  1  5  2 -1</clus>
</clustering>
</event>
<event>
 9    2  0.4653788E-005  0.9543078E+02  0.7546771E-02  0.1296715E+00
          2   -1    0    0  502    0 -0.00000000000E+00  0.00000000000E+00  0.60599746917E+03  0.60599746917E+03  0.00000000000E+00 0. -1.
         21   -1    0    0  501  502  0.00000000000E+00 -0.00000000000E+00 -0.38632418203E+02  0.38632418203E+02  0.00000000000E+00 0.  1.
         24    2    1    2    0    0 -0.56045236233E+01  0.12508422111E+02  0.35019198144E+03  0.35955236078E+03  0.80346779481E+02 0.  0.
         23    2    1    2    0    0  0.24191475245E+02 -0.68744164729E+02  0.18120866553E+03  0.21578559435E+03  0.91737967104E+02 0.  0.
        -13    1    3    3    0    0  0.19129590651E+02 -0.27573161357E+02  0.12078647337E+03  0.12536184673E+03  0.00000000000E+00 0.  1.
         14    1    3    3    0    0 -0.24734114274E+02  0.40081583467E+02  0.22940550807E+03  0.23419051405E+03  0.00000000000E+00 0. -1.
        -11    1    4    4    0    0  0.19451731625E+02  0.59079515751E+01  0.64331537711E+00  0.20339311928E+02  0.00000000000E+00 0.  1.
         11    1    4    4    0    0  0.47397436196E+01 -0.74652116304E+02  0.18056535015E+03  0.19544628242E+03  0.00000000000E+00 0. -1.
          1    1    1    2  501    0 -0.18586951621E+02  0.56235742618E+02  0.35964404007E+02  0.69291932243E+02  0.00000000000E+00 0. -1.
<scales pt_clust_5="13000.00000" pt_clust_6="13000.00000" pt_clust_7="13000.00000" pt_clust_8="13000.00000" pt_clust_9="59.22781"></scales>
<clustering>
<clus scale="   59.228">  2  9  1 -1</clus>
<clus scale="   80.347">  5  6 -1 -1</clus>
<clus scale="   84.539">  1  5  2 -1</clus>
<clus scale="   91.738">  7  8 -1 -1</clus>
<clus scale="   59.228">  2  5  1 -1</clus>
</clustering>
</event>
<event>
 9    2  0.4653788E-005  0.1036668E+03  0.7546771E-02  0.1277081E+00
          2   -1    0    0  502    0 -0.00000000000E+00  0.00000000000E+00  0.46052506712E+03  0.46052506712E+03  0.00000000000E+00 0. -1.
         21   -1    0    0  501  502  0.00000000000E+00 -0.00000000000E+00 -0.30093256848E+02  0.30093256848E+02  0.00000000000E+00 0.  1.
         23    2    1    2    0    0 -0.44744872189E+02 -0.26473126552E+02  0.16606773993E+03  0.19603258280E+03  0.90262668115E+02 0.  0.
         24    2    1    2    0    0  0.30821790156E+02  0.41985933768E+02  0.14836850784E+03  0.17673214589E+03  0.80673638132E+02 0.  0.
        -13    1    4    4    0    0  0.57394904713E+02  0.23259000788E+02  0.11177389233E+03  0.12778325090E+03  0.00000000000E+00 0.  1.
         14    1    4    4    0    0 -0.26573114557E+02  0.18726932980E+02  0.36594615505E+02  0.48948894983E+02  0.00000000000E+00 0. -1.
        -13    1    3    3    0    0 -0.59317160370E+02  0.22045998131E+01  0.56904202580E+02  0.82228182796E+02  0.00000000000E+00 0.  1.
         13    1    3    3    0    0  0.14572288181E+02 -0.28677726366E+02  0.10916353735E+03  0.11380440000E+03  0.00000000000E+00 0. -1.
          1    1    1    2  501    0  0.13923082033E+02 -0.15512807215E+02  0.11599556251E+03  0.11785359529E+03  0.00000000000E+00 0. -1.
<scales pt_clust_5="13000.00000" pt_clust_6="13000.00000" pt_clust_7="13000.00000" pt_clust_8="13000.00000" pt_clust_9="20.84466"></scales>
<clustering>
<clus scale="   20.845">  2  9  1 -1</clus>
<clus scale="   80.674">  5  6 -1 -1</clus>
<clus scale="   90.263">  7  8 -1 -1</clus>
<clus scale="   95.434">  2  5  1 -1</clus>
<clus scale="   20.845">  2  5  1 -1</clus>
</clustering>
</event>
<event>
 9    2  0.4653788E-005  0.1764551E+03  0.7546771E-02  0.1189048E+00
         21   -1    0    0  501  502  0.00000000000E+00  0.00000000000E+00  0.21142297142E+03  0.21142297142E+03  0.00000000000E+00 0. -1.
          2   -1    0    0  502    0 -0.00000000000E+00 -0.00000000000E+00 -0.25157393464E+03  0.25157393464E+03  0.00000000000E+00 0. -1.
         24    2    1    2    0    0 -0.73540598045E+02 -0.44467776988E+02  0.27089929705E+02  0.12142059858E+03  0.81384855573E+02 0.  0.
         23    2    1    2    0    0  0.91757301110E+02 -0.11114116291E+03 -0.58571083356E+02  0.18466500756E+03  0.99492878189E+02 0.  0.
        -11    1    3    3    0    0  0.12639854460E+02 -0.24429577830E+02 -0.36640530737E+01  0.27748792381E+02  0.00000000000E+00 0.  1.
         12    1    3    3    0    0 -0.86180452505E+02 -0.20038199158E+02  0.30753982779E+02  0.93671806197E+02  0.00000000000E+00 0. -1.
        -11    1    4    4    0    0  0.92654408377E+02 -0.44635585537E+02 -0.58161397164E+02  0.11815211808E+03  0.00000000000E+00 0. -1.
         11    1    4    4    0    0 -0.89710726652E+00 -0.66505577371E+02 -0.40968619197E+00  0.66512889470E+02  0.00000000000E+00 0.  1.
          1    1    1    2  501    0 -0.18216703065E+02  0.15560893990E+03 -0.86698095697E+01  0.15691129992E+03  0.00000000000E+00 0. -1.
<scales pt_clust_5="13000.00000" pt_clust_6="13000.00000" pt_clust_7="13000.00000" pt_clust_8="13000.00000" pt_clust_9="145.73110"></scales>
<clustering>
<clus scale="   81.385">  5  6 -1 -1</clus>
<clus scale="   99.493">  7  8 -1 -1</clus>
<clus scale="  118.360">  2  5  1 -1</clus>
<clus scale="  145.731">  1  9  2 -1</clus>
<clus scale="  145.731">  1  5  2 -1</clus>
</clustering>
</event>
<event>
 9    2  0.4653788E-005  0.8756240E+02  0.7546771E-02  0.1313088E+00
         21   -1    0    0  501  502  0.00000000000E+00  0.00000000000E+00  0.35439104271E+03  0.35439104271E+03  0.00000000000E+00 0. -1.
          2   -1    0    0  502    0 -0.00000000000E+00 -0.00000000000E+00 -0.18929435709E+03  0.18929435709E+03  0.00000000000E+00 0. -1.
         23    2    1    2    0    0 -0.63830149078E+01  0.18884183653E+02 -0.16027063346E+03  0.18242258544E+03  0.84817265079E+02 0.  0.
         24    2    1    2    0    0  0.45207891019E+02 -0.30530411435E+02  0.12689998218E+03  0.15869852965E+03  0.78139352460E+02 0.  0.
        -11    1    4    4    0    0 -0.85817456067E+01 -0.21851477128E+02  0.89709739328E+02  0.92730635394E+02  0.00000000000E+00 0.  1.
         12    1    4    4    0    0  0.53789636626E+02 -0.86789343075E+01  0.37190242850E+02  0.65967894254E+02  0.00000000000E+00 0. -1.
        -13    1    3    3    0    0  0.33746178190E+02 -0.96976825961E+00 -0.31818479414E+02  0.46391385247E+02  0.00000000000E+00 0. -1.
         13    1    3    3    0    0 -0.40129193098E+02  0.19853951913E+02 -0.12845215405E+03  0.13603120019E+03  0.00000000000E+00 0.  1.
          1    1    1    2  501    0 -0.38824876111E+02  0.11646227782E+02  0.19846733690E+03  0.20256428471E+03  0.00000000000E+00 0. -1.
<scales pt_clust_5="13000.00000" pt_clust_6="13000.00000" pt_clust_7="13000.00000" pt_clust_8="13000.00000" pt_clust_9="40.53401"></scales>
<clustering>
<clus scale="   40.534">  1  9  2 -1</clus>
<clus scale="   78.139">  5  6 -1 -1</clus>
<clus scale="   81.111">  1  5  2 -1</clus>
<clus scale="   84.817">  7  8 -1 -1</clus>
<clus scale="   40.534">  1  5  2 -1</clus>
</clustering>
</event>
<event>
 9    2  0.4653788E-005  0.1090506E+03  0.7546771E-02  0.1266654E+00
         21   -1    0    0  501  502  0.00000000000E+00  0.00000000000E+00  0.30667992497E+03  0.30667992497E+03  0.00000000000E+00 0.  1.
         -1   -1    0    0    0  501 -0.00000000000E+00 -0.00000000000E+00 -0.23189128975E+03  0.23189128975E+03  0.00000000000E+00 0.  1.
         23    2    1    2    0    0  0.37653180207E+02 -0.39893461935E+02 -0.16743266982E+03  0.19862133850E+03  0.91692349182E+02 0.  0.
         24    2    1    2    0    0 -0.66477438543E+02  0.42063547026E+02  0.18577193401E+02  0.11444547315E+03  0.81018901410E+02 0.  0.
        -13    1    4    4    0    0 -0.53720172897E+02  0.61077795155E+02 -0.51089174125E+01  0.81501258114E+02  0.00000000000E+00 0.  1.
         14    1    4    4    0    0 -0.12757265646E+02 -0.19014248129E+02  0.23686110814E+02  0.32944215033E+02  0.00000000000E+00 0. -1.
        -11    1    3    3    0    0 -0.17992438145E+02 -0.47269487151E+02 -0.74316610386E+02  0.89894887647E+02  0.00000000000E+00 0. -1.
         11    1    3    3    0    0  0.55645618353E+02  0.73760252159E+01 -0.93116059434E+02  0.10872645085E+03  0.00000000000E+00 0.  1.
         -2    1    1    2    0  502  0.28824258335E+02 -0.21700850915E+01  0.22364411164E+03  0.22550440308E+03  0.00000000000E+00 0.  1.
<scales pt_clust_5="13000.00000" pt_clust_6="13000.00000" pt_clust_7="13000.00000" pt_clust_8="13000.00000" pt_clust_9="28.90583"></scales>
<clustering>
<clus scale="   28.906">  1  9  2 -1</clus>
<clus scale="   81.019">  5  6 -1 -1</clus>
<clus scale="   91.692">  7  8 -1 -1</clus>
<clus scale="  100.243">  1  5  2 -1</clus>
<clus scale="   28.906">  1  5  2 -1</clus>
</clustering>
</event>
<event>
 9    2  0.4653788E-005  0.1256448E+03  0.7546771E-02  0.1236481E+00
         21   -1    0    0  501  502  0.00000000000E+00  0.00000000000E+00  0.67189568921E+02  0.67189568921E+02  0.00000000000E+00 0. -1.
         -1   -1    0    0    0  501 -0.00000000000E+00 -0.00000000000E+00 -0.64924127082E+03  0.64924127082E+03  0.00000000000E+00 0.  1.
         24    2    1    2    0    0  0.94328966484E+02  0.15158849411E+02 -0.54671115603E+03  0.56083603354E+03  0.80723130227E+02 0.  0.
         23    2    1    2    0    0 -0.49717335770E+02 -0.14616386409E+02 -0.39747300685E+02  0.11076277135E+03  0.89459998759E+02 0.  0.
        -11    1    3    3    0    0  0.91031342358E+02  0.35616542774E+02 -0.36198154918E+03  0.37494784351E+03  0.00000000000E+00 0.  1.
         12    1    3    3    0    0  0.32976241256E+01 -0.20457693363E+02 -0.18472960686E+03  0.18588819003E+03  0.00000000000E+00 0. -1.
        -11    1    4    4    0    0  0.18468985791E+02 -0.28344446671E+02 -0.13120552477E+02  0.36285809768E+02  0.00000000000E+00 0.  1.
         11    1    4    4    0    0 -0.68186321561E+02  0.13728060261E+02 -0.26626748207E+02  0.74476961583E+02  0.00000000000E+00 0. -1.
         -2    1    1    2    0  502 -0.44611630714E+02 -0.54246300172E+00  0.44067548143E+01  0.44832034853E+02  0.00000000000E+00 0.  1.
<scales pt_clust_5="13000.00000" pt_clust_6="13000.00000" pt_clust_7="13000.00000" pt_clust_8="13000.00000" pt_clust_9="44.61493"></scales>
<clustering>
<clus scale="   44.615">  1  9  2 -1</clus>
<clus scale="   80.723">  5  6 -1 -1</clus>
<clus scale="   89.460">  7  8 -1 -1</clus>
<clus scale="  119.582">  2  5  1 -1</clus>
<clus scale="   44.615">  1  5  2 -1</clus>
</clustering>
</event>
<event>
 9    2  0.4653788E-005  0.9448118E+02  0.7546771E-02  0.1292657E+00
         21   -1    0    0  501  502  0.00000000000E+00  0.00000000000E+00  0.57696296311E+02  0.57696296311E+02  0.00000000000E+00 0. -1.
         -1   -1    0    0    0  501 -0.00000000000E+00 -0.00000000000E+00 -0.29790690887E+03  0.29790690887E+03  0.00000000000E+00 0.  1.
         23    2    1    2    0    0  0.85787750271E+01 -0.10983613133E+02 -0.14622984820E+03  0.17299075254E+03  0.91369561778E+02 0.  0.
         24    2    1    2    0    0 -0.39237646951E+02  0.12130405418E+02 -0.10963796605E+03  0.14816786634E+03  0.90810205063E+02 0.  0.
        -11    1    4    4    0    0 -0.61435430765E+01 -0.38337508686E+02 -0.50188011611E+02  0.63453480623E+02  0.00000000000E+00 0.  1.
         12    1    4    4    0    0 -0.33094103874E+02  0.50467914104E+02 -0.59449954437E+02  0.84714385719E+02  0.00000000000E+00 0. -1.
        -11    1    3    3    0    0  0.41528684246E+01  0.35358381702E+02 -0.26063653717E+02  0.44122279155E+02  0.00000000000E+00 0.  1.
         11    1    3    3    0    0  0.44259066024E+01 -0.46341994835E+02 -0.12016619449E+03  0.12886847338E+03  0.00000000000E+00 0. -1.
         -2    1    1    2    0  502  0.30658871924E+02 -0.11467922848E+01  0.15657201697E+02  0.34444586297E+02  0.00000000000E+00 0.  1.
<scales pt_clust_5="13000.00000" pt_clust_6="13000.00000" pt_clust_7="13000.00000" pt_clust_8="13000.00000" pt_clust_9="30.68031"></scales>
<clustering>
<clus scale="   30.680">  1  9  2 -1</clus>
<clus scale="   90.810">  5  6 -1 -1</clus>
<clus scale="   91.370">  7  8 -1 -1</clus>
<clus scale="   93.940">  1  5  2 -1</clus>
<clus scale="   30.680">  1  5  2 -1</clus>
</clustering>
</event>
<event>
 9    2  0.4653788E-005  0.1540351E+03  0.7546771E-02  0.1215259E+00
         21   -1    0    0  501  502  0.00000000000E+00  0.00000000000E+00  0.31406991531E+03  0.31406991531E+03  0.00000000000E+00 0. -1.
          2   -1    0    0  502    0 -0.00000000000E+00 -0.00000000000E+00 -0.27968091745E+03  0.27968091745E+03  0.00000000000E+00 0. -1.
         23    2    1    2    0    0  0.15996331026E+02  0.40568100523E+02 -0.72200841348E+02  0.12407013996E+03  0.90987827498E+02 0.  0.
         24    2    1    2    0    0  0.11567362603E+03 -0.22157736534E+02 -0.13325329795E+03  0.19545332447E+03  0.81081487322E+02 0.  0.
        -11    1    4    4    0    0  0.30536160417E+02 -0.23154300835E+02 -0.12122603682E+01  0.38341209102E+02  0.00000000000E+00 0.  1.
         12    1    4    4    0    0  0.85137465615E+02  0.99656430045E+00 -0.13204103758E+03  0.15711211537E+03  0.00000000000E+00 0. -1.
        -11    1    3    3    0    0 -0.35855438152E+02  0.32141107632E+02 -0.30506422668E+02  0.57002675980E+02  0.00000000000E+00 0.  1.
         11    1    3    3    0    0  0.51851769178E+02  0.84269928912E+01 -0.41694418680E+02  0.67067463983E+02  0.00000000000E+00 0. -1.
          1    1    1    2  501    0 -0.13166995706E+03 -0.18410363988E+02  0.23984313715E+03  0.27422736832E+03  0.00000000000E+00 0. -1.
<scales pt_clust_5="13000.00000" pt_clust_6="13000.00000" pt_clust_7="13000.00000" pt_clust_8="13000.00000" pt_clust_9="130.96794"></scales>
<clustering>
<clus scale="   81.081">  5  6 -1 -1</clus>
<clus scale="   90.988">  7  8 -1 -1</clus>
<clus scale="  100.898">  2  7  1 -1</clus>
<clus scale="  130.968">  1  9  2 -1</clus>
<clus scale="  130.968">  1  5  2 -1</clus>
</clustering>
</event>
<event>
 9    2  0.4653788E-005  0.1794221E+03  0.7546771E-02  0.1194412E+00
         21   -1    0    0  501  502  0.00000000000E+00  0.00000000000E+00  0.41422052239E+02  0.41422052239E+02  0.00000000000E+00 0. -1.
          2   -1    0    0  502    0 -0.00000000000E+00 -0.00000000000E+00 -0.12797156196E+04  0.12797156196E+04  0.00000000000E+00 0. -1.
         24    2    1    2    0    0  0.13425181457E+01  0.59457219122E+02 -0.47533476030E+03  0.48574735192E+03  0.80438748622E+02 0.  0.
         23    2    1    2    0    0  0.14191335063E+03 -0.93023624700E+02 -0.39591631113E+03  0.43995493792E+03  0.89542325981E+02 0.  0.
        -13    1    3    3    0    0 -0.31066864943E+02  0.21575519231E+02 -0.96526747605E+02  0.10367288040E+03  0.00000000000E+00 0.  1.
         14    1    3    3    0    0  0.32409383088E+02  0.37881699891E+02 -0.37880801270E+03  0.38207447151E+03  0.00000000000E+00 0. -1.
        -11    1    4    4    0    0  0.92910767118E+02 -0.79845187623E+01 -0.17769579135E+03  0.20067874190E+03  0.00000000000E+00 0. -1.
         11    1    4    4    0    0  0.49002583510E+02 -0.85039105938E+02 -0.21822051978E+03  0.23927619602E+03  0.00000000000E+00 0.  1.
          1    1    1    2  501    0 -0.14325586877E+03  0.33566405578E+02 -0.36704249589E+03  0.39543538197E+03  0.00000000000E+00 0. -1.
<scales pt_clust_5="13000.00000" pt_clust_6="13000.00000" pt_clust_7="13000.00000" pt_clust_8="13000.00000" pt_clust_9="155.48152"></scales>
<clustering>
<clus scale="   80.439">  5  6 -1 -1</clus>
<clus scale="   89.542">  7  8 -1 -1</clus>
<clus scale="  100.037">  2  5  1 -1</clus>
<clus scale="  155.482">  1  9  2 -1</clus>
<clus scale="  155.482">  1  5  2 -1</clus>
</clustering>
</event>
<event>
 9    2  0.4653788E-005  0.9742299E+02  0.7546771E-02  0.1286830E+00
         -3   -1    0    0    0  501 -0.00000000000E+00  0.00000000000E+00  0.12692018512E+03  0.12692018512E+03  0.00000000000E+00 0.  1.
         21   -1    0    0  501  502  0.00000000000E+00 -0.00000000000E+00 -0.18863084554E+03  0.18863084554E+03  0.00000000000E+00 0.  1.
         23    2    1    2    0    0  0.37038016291E+02  0.10027701763E+02  0.71785895895E+02  0.12207699685E+03  0.90979167155E+02 0.  0.
         24    2    1    2    0    0  0.38331841914E+01  0.73970609700E+01 -0.73255863560E+02  0.11862072093E+03  0.92924937859E+02 0.  0.
        -11    1    4    4    0    0  0.31563913131E+02  0.30486237801E+02 -0.69696737526E+02  0.82360952697E+02  0.00000000000E+00 0.  1.
         12    1    4    4    0    0 -0.27730728939E+02 -0.23089176831E+02 -0.35591260339E+01  0.36259768234E+02  0.00000000000E+00 0. -1.
        -13    1    3    3    0    0  0.62160063521E+02  0.49184744900E+01  0.73496557923E+02  0.96383654812E+02  0.00000000000E+00 0.  1.
         13    1    3    3    0    0 -0.25122047230E+02  0.51092272732E+01 -0.17106620288E+01  0.25693342035E+02  0.00000000000E+00 0. -1.
         -4    1    1    2    0  502 -0.40871200483E+02 -0.17424762733E+02 -0.60240692759E+02  0.74853312881E+02  0.00000000000E+00 0.  1.
<scales pt_clust_5="13000.00000" pt_clust_6="13000.00000" pt_clust_7="13000.00000" pt_clust_8="13000.00000" pt_clust_9="44.43059"></scales>
<clustering>
<clus scale="   44.431">  2  9  1 -1</clus>
<clus scale="   90.979">  7  8 -1 -1</clus>
<clus scale="   92.925">  5  6 -1 -1</clus>
<clus scale="   95.569">  1  7  2 -1</clus>
<clus scale="   44.431">  2  5  1 -1</clus>
</clustering>
</event>
<event>
 9    2  0.4653788E-005  0.9665025E+02  0.7546771E-02  0.1288096E+00
         21   -1    0    0  501  502  0.00000000000E+00  0.00000000000E+00  0.82922177048E+02  0.82922177048E+02  0.00000000000E+00 0. -1.
          2   -1    0    0  502    0 -0.00000000000E+00 -0.00000000000E+00 -0.36231668412E+03  0.36231668412E+03  0.00000000000E+00 0. -1.
         24    2    1    2    0    0  0.55468413103E+02 -0.26407891454E+02 -0.19253564812E+03  0.21943563429E+03  0.85486257460E+02 0.  0.
         23    2    1    2    0    0 -0.23632708596E+02 -0.63710657938E+02 -0.74782234802E+02  0.12946678582E+03  0.80942653387E+02 0.  0.
        -13    1    3    3    0    0 -0.20234846774E+02 -0.17960504242E+02 -0.71244185691E+02  0.76208678846E+02  0.00000000000E+00 0.  1.
         14    1    3    3    0    0  0.75703259877E+02 -0.84473872125E+01 -0.12129146243E+03  0.14322695544E+03  0.00000000000E+00 0. -1.
        -11    1    4    4    0    0  0.28135087740E+02 -0.94749546091E+01 -0.13412655331E+02  0.32576943534E+02  0.00000000000E+00 0.  1.
         11    1    4    4    0    0 -0.51767796336E+02 -0.54235703329E+02 -0.61369579471E+02  0.96889842282E+02  0.00000000000E+00 0. -1.
          1    1    1    2  501    0 -0.31835704507E+02  0.90118549392E+02 -0.12076624149E+02  0.96336441064E+02  0.00000000000E+00 0. -1.
<scales pt_clust_5="13000.00000" pt_clust_6="13000.00000" pt_clust_7="13000.00000" pt_clust_8="13000.00000" pt_clust_9="95.57649"></scales>
<clustering>
<clus scale="   80.943">  7  8 -1 -1</clus>
<clus scale="   85.486">  5  6 -1 -1</clus>
<clus scale="   95.576">  1  9  2 -1</clus>
<clus scale="   95.576">  1  7  2 -1</clus>
<clus scale="   95.576">  1  5  2 -1</clus>
</clustering>
</event>
<event>
 9    2  0.4653788E-005  0.1062695E+03  0.7546771E-02  0.1270586E+00
         21   -1    0    0  501  502  0.00000000000E+00  0.00000000000E+00  0.65218298464E+02  0.65218298464E+02  0.00000000000E+00 0.  1.
          4   -1    0    0  502    0 -0.00000000000E+00 -0.00000000000E+00 -0.41084905935E+03  0.41084905935E+03  0.00000000000E+00 0. -1.
         24    2    1    2    0    0  0.50813852984E+02 -0.17475511628E+02 -0.84383947440E+02  0.12945207429E+03  0.82156848707E+02 0.  0.
         23    2    1    2    0    0  0.10970050581E+02  0.93480968369E+02 -0.14306356747E+03  0.19311818315E+03  0.89265978233E+02 0.  0.
        -11    1    3    3    0    0  0.51862498873E+02 -0.45701311519E+02 -0.67109074978E+02  0.96342911562E+02  0.00000000000E+00 0.  1.
         12    1    3    3    0    0 -0.10486458894E+01  0.28225799890E+02 -0.17274872462E+02  0.33109162723E+02  0.00000000000E+00 0. -1.
        -11    1    4    4    0    0 -0.38753239603E+02  0.52482670916E+02 -0.74209791789E+02  0.98809602385E+02  0.00000000000E+00 0.  1.
         11    1    4    4    0    0  0.49723290184E+02  0.40998297453E+02 -0.68853775677E+02  0.94308580765E+02  0.00000000000E+00 0. -1.
          3    1    1    2  501    0 -0.61783903564E+02 -0.76005456741E+02 -0.11818324598E+03  0.15349710038E+03  0.00000000000E+00 0. -1.
<scales pt_clust_5="13000.00000" pt_clust_6="13000.00000" pt_clust_7="13000.00000" pt_clust_8="13000.00000" pt_clust_9="97.94942"></scales>
<clustering>
<clus scale="   82.157">  5  6 -1 -1</clus>
<clus scale="   89.266">  7  8 -1 -1</clus>
<clus scale="   97.949">  1  9  2 -1</clus>
<clus scale="  100.372">  2  5  1 -1</clus>
<clus scale="   97.949">  1  5  2 -1</clus>
</clustering>
</event>
<event>
 9    2  0.4653788E-005  0.1014240E+03  0.7546771E-02  0.1280291E+00
          2   -1    0    0  502    0 -0.00000000000E+00  0.00000000000E+00  0.39576697507E+03  0.39576697507E+03  0.00000000000E+00 0. -1.
         21   -1    0    0  501  502  0.00000000000E+00 -0.00000000000E+00 -0.10032796293E+03  0.10032796293E+03  0.00000000000E+00 0. -1.
         24    2    1    2    0    0 -0.21516911723E+02 -0.34537915323E+02  0.26721205827E+03  0.28310644216E+03  0.84208838162E+02 0.  0.
         23    2    1    2    0    0  0.27601333236E+02  0.55878036553E+02  0.93355269017E+02  0.14418356584E+03  0.90495888518E+02 0.  0.
        -13    1    3    3    0    0 -0.49067109888E+02 -0.12885783630E+01  0.11880596652E+03  0.12854609830E+03  0.00000000000E+00 0.  1.
         14    1    3    3    0    0  0.27550198165E+02 -0.33249336960E+02  0.14840609175E+03  0.15456034387E+03  0.00000000000E+00 0. -1.
        -11    1    4    4    0    0 -0.10478161095E+02  0.17949371167E+02 -0.13353421435E+02  0.24703960194E+02  0.00000000000E+00 0.  1.
         11    1    4    4    0    0  0.38079494331E+02  0.37928665386E+02  0.10670869045E+03  0.11947960564E+03  0.00000000000E+00 0. -1.
          1    1    1    2  501    0 -0.60844215129E+01 -0.21340121230E+02 -0.65128315145E+02  0.68804930004E+02  0.00000000000E+00 0. -1.
<scales pt_clust_5="13000.00000" pt_clust_6="13000.00000" pt_clust_7="13000.00000" pt_clust_8="13000.00000" pt_clust_9="22.19056"></scales>
<clustering>
<clus scale="   22.191">  2  9  1 -1</clus>
<clus scale="   84.209">  5  6 -1 -1</clus>
<clus scale="   90.496">  7  8 -1 -1</clus>
<clus scale="   95.856">  1  5  2 -1</clus>
<clus scale="   22.191">  2  5  1 -1</clus>
</clustering>
</event>
<event>
 9    2  0.4653788E-005  0.1471917E+03  0.7546771E-02  0.1218315E+00
          2   -1    0    0  502    0 -0.00000000000E+00  0.00000000000E+00  0.88387354635E+02  0.88387354635E+02  0.00000000000E+00 0. -1.
         21   -1    0    0  501  502  0.00000000000E+00 -0.00000000000E+00 -0.72964883241E+03  0.72964883241E+03  0.00000000000E+00 0.  1.
         23    2    1    2    0    0 -0.33086269140E+02  0.41888284727E+02 -0.46979403632E+03  0.48214058402E+03  0.94359825109E+02 0.  0.
         24    2    1    2    0    0 -0.61476015918E+02  0.64129774740E+02 -0.65799954917E+01  0.11824973349E+03  0.77767439128E+02 0.  0.
        -11    1    4    4    0    0 -0.55400229230E+02  0.30153465334E+02 -0.36237233887E+02  0.72743068331E+02  0.00000000000E+00 0.  1.
         12    1    4    4    0    0 -0.60757866883E+01  0.33976309406E+02  0.29657238395E+02  0.45506665160E+02  0.00000000000E+00 0. -1.
        -13    1    3    3    0    0  0.27418493571E+02 -0.68777749891E+01 -0.84975893511E+02  0.89554341360E+02  0.00000000000E+00 0. -1.
         13    1    3    3    0    0 -0.60504762710E+02  0.48766059717E+02 -0.38481814281E+03  0.39258624266E+03  0.00000000000E+00 0.  1.
          1    1    1    2  501    0  0.94562285058E+02 -0.10601805947E+03 -0.16488744596E+03  0.21764586953E+03  0.00000000000E+00 0. -1.
<scales pt_clust_5="13000.00000" pt_clust_6="13000.00000" pt_clust_7="13000.00000" pt_clust_8="13000.00000" pt_clust_9="124.97045"></scales>
<clustering>
<clus scale="   77.767">  5  6 -1 -1</clus>
<clus scale="   94.360">  7  8 -1 -1</clus>
<clus scale="  108.412">  1  7  2 -1</clus>
<clus scale="  124.970">  2  9  1 -1</clus>
<clus scale="  124.970">  2  5  1 -1</clus>
</clustering>
</event>
<event>
 9    2  0.4653788E-005  0.2137508E+03  0.7546771E-02  0.1147797E+00
         21   -1    0    0  501  502  0.00000000000E+00  0.00000000000E+00  0.54670918899E+03  0.54670918899E+03  0.00000000000E+00 0.  1.
         -1   -1    0    0    0  501 -0.00000000000E+00 -0.00000000000E+00 -0.23647576376E+03  0.23647576376E+03  0.00000000000E+00 0.  1.
         23    2    1    2    0    0 -0.13456349879E+03 -0.53734682417E+02  0.27929387849E+03  0.32777957514E+03  0.91867448078E+02 0.  0.
         24    2    1    2    0    0  0.58392568939E+02  0.23136071838E+03 -0.28172908732E+02  0.25329822385E+03  0.80179818554E+02 0.  0.
        -13    1    4    4    0    0  0.76704806815E+02  0.19461144488E+03 -0.33663325758E+02  0.21187369202E+03  0.00000000000E+00 0.  1.
         14    1    4    4    0    0 -0.18312237876E+02  0.36749273499E+02  0.54904170252E+01  0.41424531836E+02  0.00000000000E+00 0. -1.
        -11    1    3    3    0    0 -0.11434367123E+03 -0.53921847884E+02  0.28034552772E+03  0.30753155243E+03  0.00000000000E+00 0.  1.
         11    1    3    3    0    0 -0.20219827562E+02  0.18716546783E+00 -0.10516492281E+01  0.20248022710E+02  0.00000000000E+00 0. -1.
         -2    1    1    2    0  502  0.76170929854E+02 -0.17762603596E+03  0.59112455469E+02  0.20210715376E+03  0.00000000000E+00 0.  1.
<scales pt_clust_5="13000.00000" pt_clust_6="13000.00000" pt_clust_7="13000.00000" pt_clust_8="13000.00000" pt_clust_9="198.14286"></scales>
<clustering>
<clus scale="   80.180">  5  6 -1 -1</clus>
<clus scale="   91.867">  7  8 -1 -1</clus>
<clus scale="  171.565">  2  7  1 -1</clus>
<clus scale="  198.143">  1  9  2 -1</clus>
<clus scale="  198.143">  1  5  2 -1</clus>
</clustering>
</event>
<event>
 9    2  0.4653788E-005  0.1775785E+03  0.7546771E-02  0.1171206E+00
         -1   -1    0    0    0  501 -0.00000000000E+00  0.00000000000E+00  0.21583845556E+03  0.21583845556E+03  0.00000000000E+00 0.  1.
         21   -1    0    0  501  502  0.00000000000E+00 -0.00000000000E+00 -0.27365123548E+03  0.27365123548E+03  0.00000000000E+00 0.  1.
         24    2    1    2    0    0 -0.12839444757E+03  0.46677286377E+02  0.23814797513E+02  0.16059270365E+03  0.80987459850E+02 0.  0.
         23    2    1    2    0    0  0.19221485622E+03  0.24747950234E+02 -0.18742220743E+02  0.21431436623E+03  0.89556489121E+02 0.  0.
        -11    1    3    3    0    0 -0.10322592488E+03  0.39441581002E+02 -0.17295603161E+02  0.11184975533E+03  0.00000000000E+00 0.  1.
         12    1    3    3    0    0 -0.25168522693E+02  0.72357053754E+01  0.41110400674E+02  0.48742948315E+02  0.00000000000E+00 0. -1.
        -11    1    4    4    0    0  0.77535830946E+02 -0.33863566128E+02 -0.10578723097E+02  0.85266966486E+02  0.00000000000E+00 0. -1.
         11    1    4    4    0    0  0.11467902527E+03  0.58611516362E+02 -0.81634976456E+01  0.12904739975E+03  0.00000000000E+00 0.  1.
         -2    1    1    2    0  502 -0.63820408643E+02 -0.71425236611E+02 -0.62885356689E+02  0.11458262115E+03  0.00000000000E+00 0.  1.
<scales pt_clust_5="13000.00000" pt_clust_6="13000.00000" pt_clust_7="13000.00000" pt_clust_8="13000.00000" pt_clust_9="95.78418"></scales>
<clustering>
<clus scale="   80.987">  5  6 -1 -1</clus>
<clus scale="   89.556">  7  8 -1 -1</clus>
<clus scale="   95.784">  2  9  1 -1</clus>
<clus scale="  173.415">  1  5  2 -1</clus>
<clus scale="   95.784">  2  5  1 -1</clus>
</clustering>
</event>
<event>
 9    2  0.4653788E-005  0.1185835E+03  0.7546771E-02  0.1249335E+00
          2   -1    0    0  502    0 -0.00000000000E+00  0.00000000000E+00  0.35135524098E+02  0.35135524098E+02  0.00000000000E+00 0. -1.
         21   -1    0    0  501  502  0.00000000000E+00 -0.00000000000E+00 -0.94771057193E+03  0.94771057193E+03  0.00000000000E+00 0. -1.
         24    2    1    2    0    0  0.18857151685E+02 -0.50767055735E+02 -0.13506934416E+03  0.16633540918E+03  0.80565839515E+02 0.  0.
         23    2    1    2    0    0 -0.66337861126E+02  0.10958935104E+03 -0.37364463229E+03  0.40563571174E+03  0.92301038559E+02 0.  0.
        -11    1    3    3    0    0  0.89666628318E+01 -0.56865816875E+02 -0.14170649734E+03  0.15295376281E+03  0.00000000000E+00 0.  1.
         12    1    3    3    0    0  0.98904888531E+01  0.60987611397E+01  0.66371531750E+01  0.13381646366E+02  0.00000000000E+00 0. -1.
        -11    1    4    4    0    0 -0.76609165415E+02  0.48481606461E+02 -0.27072385918E+03  0.28550103033E+03  0.00000000000E+00 0.  1.
         11    1    4    4    0    0  0.10271304289E+02  0.61107744582E+02 -0.10292077310E+03  0.12013468140E+03  0.00000000000E+00 0. -1.
          1    1    1    2  501    0  0.47480709441E+02 -0.58822295307E+02 -0.40386107138E+03  0.41087497511E+03  0.00000000000E+00 0. -1.
<scales pt_clust_5="13000.00000" pt_clust_6="13000.00000" pt_clust_7="13000.00000" pt_clust_8="13000.00000" pt_clust_9="75.59418"></scales>
<clustering>
<clus scale="   75.594">  2  9  1 -1</clus>
<clus scale="   80.566">  5  6 -1 -1</clus>
<clus scale="   92.301">  7  8 -1 -1</clus>
<clus scale="  109.697">  1  5  2 -1</clus>
<clus scale="   75.594">  2  5  1 -1</clus>
</clustering>
</event>
<event>
 9    2  0.4653788E-005  0.3058347E+03  0.7546771E-02  0.1128691E+00
          2   -1    0    0  502    0 -0.00000000000E+00  0.00000000000E+00  0.70957347420E+03  0.70957347420E+03  0.00000000000E+00 0. -1.
         21   -1    0    0  501  502  0.00000000000E+00 -0.00000000000E+00 -0.18969809292E+03  0.18969809292E+03  0.00000000000E+00 0. -1.
         23    2    1    2    0    0  0.69154994998E+01  0.16704906083E+02  0.17831827367E+03  0.20111296321E+03  0.91225759655E+02 0.  0.
         24    2    1    2    0    0  0.20634847274E+03  0.19746647300E+03  0.23285586650E+03  0.37696261812E+03  0.79411968462E+02 0.  0.
        -13    1    4    4    0    0  0.85801495928E+02  0.64995253801E+02  0.42878301652E+02  0.11586556206E+03  0.00000000000E+00 0.  1.
         14    1    4    4    0    0  0.12054697681E+03  0.13247121920E+03  0.18997756485E+03  0.26109705606E+03  0.00000000000E+00 0. -1.
        -11    1    3    3    0    0 -0.31132596318E+02  0.37424206564E+02  0.10889028715E+03  0.11927658792E+03  0.00000000000E+00 0. -1.
         11    1    3    3    0    0  0.38048095818E+02 -0.20719300480E+02  0.69427986519E+02  0.81836375285E+02  0.00000000000E+00 0.  1.
          1    1    1    2  501    0 -0.21326397224E+03 -0.21417137908E+03  0.10870124110E+03  0.32119598579E+03  0.00000000000E+00 0. -1.
<scales pt_clust_5="13000.00000" pt_clust_6="13000.00000" pt_clust_7="13000.00000" pt_clust_8="13000.00000" pt_clust_9="295.34485"></scales>
<clustering>
<clus scale="   79.412">  5  6 -1 -1</clus>
<clus scale="   91.226">  7  8 -1 -1</clus>
<clus scale="   93.000">  1  7  2 -1</clus>
<clus scale="  295.345">  2  9  1 -1</clus>
<clus scale="  295.345">  2  5  1 -1</clus>
</clustering>
</event>
<event>
 9    2  0.4653788E-005  0.1408428E+03  0.7546771E-02  0.1214563E+00
          2   -1    0    0  502    0 -0.00000000000E+00  0.00000000000E+00  0.29694541463E+02  0.29694541463E+02  0.00000000000E+00 0. -1.
         21   -1    0    0  501  502  0.00000000000E+00 -0.00000000000E+00 -0.78771137806E+03  0.78771137806E+03  0.00000000000E+00 0. -1.
         24    2    1    2    0    0 -0.89281220675E+02  0.71787439658E+02 -0.29368232371E+03  0.32536401248E+03  0.80547256342E+02 0.  0.
         23    2    1    2    0    0  0.62140225582E+02 -0.77057005794E+02 -0.37356434798E+03  0.39715447489E+03  0.91554164659E+02 0.  0.
        -11    1    3    3    0    0 -0.16835340096E+02 -0.17053893544E+02 -0.34982859893E+02  0.42403590030E+02  0.00000000000E+00 0.  1.
         12    1    3    3    0    0 -0.72445880579E+02  0.88841333202E+02 -0.25869946381E+03  0.28296042245E+03  0.00000000000E+00 0. -1.
        -11    1    4    4    0    0  0.13161021149E+02 -0.66500159592E+02 -0.30374372336E+03  0.31121653746E+03  0.00000000000E+00 0. -1.
         11    1    4    4    0    0  0.48979204433E+02 -0.10556846202E+02 -0.69820624617E+02  0.85937937435E+02  0.00000000000E+00 0.  1.
          1    1    1    2  501    0  0.27140995093E+02  0.52695661361E+01 -0.90770164912E+02  0.94887432150E+02  0.00000000000E+00 0. -1.
<scales pt_clust_5="13000.00000" pt_clust_6="13000.00000" pt_clust_7="13000.00000" pt_clust_8="13000.00000" pt_clust_9="27.64782"></scales>
<clustering>
<clus scale="   27.648">  2  9  1 -1</clus>
<clus scale="   80.547">  5  6 -1 -1</clus>
<clus scale="   91.554">  7  8 -1 -1</clus>
<clus scale="  133.949">  1  5  2 -1</clus>
<clus scale="   27.648">  2  5  1 -1</clus>
</clustering>
</event>
<event>
 9    2  0.4653788E-005  0.1360077E+03  0.7546771E-02  0.1222072E+00
         21   -1    0    0  501  502  0.00000000000E+00  0.00000000000E+00  0.28604135863E+03  0.28604135863E+03  0.00000000000E+00 0.  1.
          4   -1    0    0  502    0 -0.00000000000E+00 -0.00000000000E+00 -0.21074974558E+03  0.21074974558E+03  0.00000000000E+00 0. -1.
         24    2    1    2    0    0  0.54497036574E-01  0.10985270973E+03 -0.11419390988E+03  0.17704367683E+03  0.78972106758E+02 0.  0.
         23    2    1    2    0    0 -0.55104868281E+02 -0.71261358149E+02  0.11894644688E+02  0.12985704894E+03  0.92771994226E+02 0.  0.
        -11    1    3    3    0    0  0.90279806274E+01  0.10910911171E+03 -0.65617857127E+02  0.12764014207E+03  0.00000000000E+00 0.  1.
         12    1    3    3    0    0 -0.89734835909E+01  0.74359801961E+00 -0.48576052755E+02  0.49403534762E+02  0.00000000000E+00 0. -1.
        -13    1    4    4    0    0 -0.35239861808E+02  0.12115495861E+02  0.22441295744E+02  0.43499940861E+02  0.00000000000E+00 0.  1.
         13    1    4    4    0    0 -0.19865006473E+02 -0.83376854010E+02 -0.10546651055E+02  0.86357108076E+02  0.00000000000E+00 0. -1.
          3    1    1    2  501    0  0.55050371245E+02 -0.38591351585E+02  0.17759087824E+03  0.18989037845E+03  0.00000000000E+00 0. -1.
<scales pt_clust_5="13000.00000" pt_clust_6="13000.00000" pt_clust_7="13000.00000" pt_clust_8="13000.00000" pt_clust_9="67.22972"></scales>
<clustering>
<clus scale="   67.230">  1  9  2 -1</clus>
<clus scale="   78.972">  5  6 -1 -1</clus>
<clus scale="   92.772">  7  8 -1 -1</clus>
<clus scale="  126.996">  2  5  1 -1</clus>
<clus scale="   67.230">  1  5  2 -1</clus>
</clustering>
</event>
<event>
 9    2  0.4653788E-005  0.1130816E+03  0.7546771E-02  0.1257516E+00
         21   -1    0    0  501  502  0.00000000000E+00  0.00000000000E+00  0.14447376699E+03  0.14447376699E+03  0.00000000000E+00 0.  1.
          2   -1    0    0  502    0 -0.00000000000E+00 -0.00000000000E+00 -0.24848173724E+03  0.24848173724E+03  0.00000000000E+00 0. -1.
         23    2    1    2    0    0 -0.34656445009E+02  0.49440098285E+02 -0.18604698013E+03  0.21560922000E+03  0.90710883772E+02 0.  0.
         24    2    1    2    0    0 -0.70731145322E+01 -0.55292819972E+02  0.43444965997E+02  0.12020513694E+03  0.97234176025E+02 0.  0.
        -13    1    4    4    0    0  0.10289185706E+02 -0.72688175955E+02  0.56256430713E+02  0.92489049421E+02  0.00000000000E+00 0.  1.
         14    1    4    4    0    0 -0.17362300238E+02  0.17395355983E+02 -0.12811464716E+02  0.27716087522E+02  0.00000000000E+00 0. -1.
        -13    1    3    3    0    0  0.15862873271E+01 -0.25538134440E+02 -0.47768109084E+02  0.54189527251E+02  0.00000000000E+00 0.  1.
         13    1    3    3    0    0 -0.36242732336E+02  0.74978232725E+02 -0.13827887104E+03  0.16141969275E+03  0.00000000000E+00 0. -1.
          1    1    1    2  501    0  0.41729559542E+02  0.58527216869E+01  0.38594043882E+02  0.57141147292E+02  0.00000000000E+00 0. -1.
<scales pt_clust_5="13000.00000" pt_clust_6="13000.00000" pt_clust_7="13000.00000" pt_clust_8="13000.00000" pt_clust_9="42.13799"></scales>
<clustering>
<clus scale="   42.138">  1  9  2 -1</clus>
<clus scale="   90.711">  7  8 -1 -1</clus>
<clus scale="   97.234">  5  6 -1 -1</clus>
<clus scale="  107.524">  2  7  1 -1</clus>
<clus scale="   42.138">  1  5  2 -1</clus>
</clustering>
</event>
<event>
 9    2  0.4653788E-005  0.9856722E+02  0.7546771E-02  0.1289420E+00
         21   -1    0    0  501  502  0.00000000000E+00  0.00000000000E+00  0.30723358616E+02  0.30723358616E+02  0.00000000000E+00 0.  1.
          2   -1    0    0  502    0 -0.00000000000E+00 -0.00000000000E+00 -0.79427506237E+03  0.79427506237E+03  0.00000000000E+00 0. -1.
         24    2    1    2    0    0  0.42195364592E+02 -0.14532080592E+02 -0.31229166392E+03  0.32518197461E+03  0.78902491051E+02 0.  0.
         23    2    1    2    0    0 -0.24898686692E+02 -0.28091915067E+02 -0.82451440939E+02  0.12815024844E+03  0.90637441335E+02 0.  0.
        -11    1    3    3    0    0  0.53574985490E+02  0.12112275784E+02 -0.13853928297E+03  0.14903059827E+03  0.00000000000E+00 0.  1.
         12    1    3    3    0    0 -0.11379620898E+02 -0.26644356377E+02 -0.17375238095E+03  0.17615137633E+03  0.00000000000E+00 0. -1.
        -13    1    4    4    0    0 -0.33057168170E+02  0.20078646588E+02 -0.66183851934E+02  0.76656576189E+02  0.00000000000E+00 0. -1.
         13    1    4    4    0    0  0.81584814772E+01 -0.48170561654E+02 -0.16267589005E+02  0.51493672253E+02  0.00000000000E+00 0.  1.
          1    1    1    2  501    0 -0.17296677900E+02  0.42623995659E+02 -0.36880859889E+03  0.37166619794E+03  0.00000000000E+00 0. -1.
<scales pt_clust_5="13000.00000" pt_clust_6="13000.00000" pt_clust_7="13000.00000" pt_clust_8="13000.00000" pt_clust_9="45.99981"></scales>
<clustering>
<clus scale="   46.000">  1  9  2 -1</clus>
<clus scale="   78.902">  5  6 -1 -1</clus>
<clus scale="   87.897">  2  5  1 -1</clus>
<clus scale="   90.637">  7  8 -1 -1</clus>
<clus scale="   46.000">  1  5  2 -1</clus>
</clustering>
</event>
<event>
 9    2  0.4653788E-005  0.1274773E+03  0.7546771E-02  0.1234663E+00
         21   -1    0    0  501  502  0.00000000000E+00  0.00000000000E+00  0.36950382281E+02  0.36950382281E+02  0.00000000000E+00 0.  1.
          2   -1    0    0  502    0 -0.00000000000E+00 -0.00000000000E+00 -0.80274518581E+03  0.80274518581E+03  0.00000000000E+00 0. -1.
         23    2    1    2    0    0 -0.70834067633E+02 -0.46168337376E+02 -0.55472756180E+03  0.56859281987E+03  0.91794043787E+02 0.  0.
         24    2    1    2    0    0  0.10128638849E+03  0.31752924948E+02 -0.14190932170E+03  0.19417443183E+03  0.79361663630E+02 0.  0.
        -11    1    4    4    0    0  0.86115436288E+02  0.14686639112E+01 -0.58408781330E+02  0.10406541730E+03  0.00000000000E+00 0.  1.
         12    1    4    4    0    0  0.15170952199E+02  0.30284261037E+02 -0.83500540374E+02  0.90109014532E+02  0.00000000000E+00 0. -1.
        -13    1    3    3    0    0  0.22144697408E+02 -0.90788398934E+01 -0.13398735039E+03  0.13610812989E+03  0.00000000000E+00 0.  1.
         13    1    3    3    0    0 -0.92978765042E+02 -0.37089497482E+02 -0.42074021141E+03  0.43248468998E+03  0.00000000000E+00 0. -1.
          1    1    1    2  501    0 -0.30452320853E+02  0.14415412427E+02 -0.69157920024E+02  0.76928316392E+02  0.00000000000E+00 0. -1.
<scales pt_clust_5="13000.00000" pt_clust_6="13000.00000" pt_clust_7="13000.00000" pt_clust_8="13000.00000" pt_clust_9="33.69196"></scales>
<clustering>
<clus scale="   33.692">  1  9  2 -1</clus>
<clus scale="   79.362">  5  6 -1 -1</clus>
<clus scale="   91.794">  7  8 -1 -1</clus>
<clus scale="  118.839">  1  5  2 -1</clus>
<clus scale="   33.692">  1  5  2 -1</clus>
</clustering>
</event>
<event>
 9    2  0.4653788E-005  0.9797747E+02  0.7546771E-02  0.1289110E+00
         21   -1    0    0  501  502  0.00000000000E+00  0.00000000000E+00  0.88968106515E+02  0.88968106515E+02  0.00000000000E+00 0. -1.
          2   -1    0    0  502    0 -0.00000000000E+00 -0.00000000000E+00 -0.32384096238E+03  0.32384096238E+03  0.00000000000E+00 0. -1.
         23    2    1    2    0    0  0.42000579001E+02 -0.22789883595E+02 -0.16173873357E+03  0.19115404871E+03  0.89983470533E+02 0.  0.
         24    2    1    2    0    0 -0.75876352461E+01  0.37060414251E+02 -0.12744197640E+03  0.15579728138E+03  0.81242162847E+02 0.  0.
        -13    1    4    4    0    0 -0.37379609297E+02  0.41746096040E+02 -0.10183610192E+03  0.11623494905E+03  0.00000000000E+00 0.  1.
         14    1    4    4    0    0  0.29791974051E+02 -0.46856817888E+01 -0.25605874473E+02  0.39562332328E+02  0.00000000000E+00 0. -1.
        -13    1    3    3    0    0  0.40437368775E+02  0.11880070645E+02 -0.14790604286E+03  0.15379373975E+03  0.00000000000E+00 0. -1.
         13    1    3    3    0    0  0.15632102260E+01 -0.34669954240E+02 -0.13832690716E+02  0.37360308960E+02  0.00000000000E+00 0.  1.
          1    1    1    2  501    0 -0.34412943755E+02 -0.14270530656E+02  0.54307854106E+02  0.65857738806E+02  0.00000000000E+00 0. -1.
<scales pt_clust_5="13000.00000" pt_clust_6="13000.00000" pt_clust_7="13000.00000" pt_clust_8="13000.00000" pt_clust_9="37.25451"></scales>
<clustering>
<clus scale="   37.255">  1  9  2 -1</clus>
<clus scale="   81.242">  5  6 -1 -1</clus>
<clus scale="   89.983">  7  8 -1 -1</clus>
<clus scale="   90.016">  1  5  2 -1</clus>
<clus scale="   37.255">  1  5  2 -1</clus>
</clustering>
</event>
<event>
 9    2  0.4653788E-005  0.1181447E+03  0.7546771E-02  0.1249295E+00
          2   -1    0    0  502    0 -0.00000000000E+00  0.00000000000E+00  0.66973033376E+03  0.66973033376E+03  0.00000000000E+00 0. -1.
         21   -1    0    0  501  502  0.00000000000E+00 -0.00000000000E+00 -0.36279021744E+02  0.36279021744E+02  0.00000000000E+00 0.  1.
         24    2    1    2    0    0  0.55730826275E+02  0.74371844971E+02  0.36470510030E+03  0.38516588545E+03  0.81889271616E+02 0.  0.
         23    2    1    2    0    0  0.81724203445E+01 -0.56138765907E+02  0.14670550756E+03  0.18188303119E+03  0.91326784640E+02 0.  0.
        -11    1    3    3    0    0 -0.10385546132E+02  0.46681017048E+02  0.98749706559E+02  0.10972001398E+03  0.00000000000E+00 0.  1.
         12    1    3    3    0    0  0.66116372407E+02  0.27690827923E+02  0.26595539374E+03  0.27544587147E+03  0.00000000000E+00 0. -1.
        -13    1    4    4    0    0  0.42234530629E+02 -0.81465034606E+01  0.34343519553E+02  0.55041788047E+02  0.00000000000E+00 0.  1.
         13    1    4    4    0    0 -0.34062110285E+02 -0.47992262446E+02  0.11236198801E+03  0.12684124314E+03  0.00000000000E+00 0. -1.
          1    1    1    2  501    0 -0.63903246620E+02 -0.18233079064E+02  0.12204070415E+03  0.13896043887E+03  0.00000000000E+00 0. -1.
<scales pt_clust_5="13000.00000" pt_clust_6="13000.00000" pt_clust_7="13000.00000" pt_clust_8="13000.00000" pt_clust_9="66.45352"></scales>
<clustering>
<clus scale="   66.454">  2  9  1 -1</clus>
<clus scale="   81.889">  5  6 -1 -1</clus>
<clus scale="   91.327">  7  8 -1 -1</clus>
<clus scale="  111.011">  1  5  2 -1</clus>
<clus scale="   66.454">  2  5  1 -1</clus>
</clustering>
</event>
<event>
 9    2  0.4653788E-005  0.1277039E+03  0.7546771E-02  0.1234113E+00
         21   -1    0    0  501  502  0.00000000000E+00  0.00000000000E+00  0.34618421036E+02  0.34618421036E+02  0.00000000000E+00 0.  1.
          2   -1    0    0  502    0 -0.00000000000E+00 -0.00000000000E+00 -0.82888697109E+03  0.82888697109E+03  0.00000000000E+00 0. -1.
         24    2    1    2    0    0 -0.11837049044E+02 -0.89501231812E+02 -0.60635267210E+03  0.61819366235E+03  0.79682212446E+02 0.  0.
         23    2    1    2    0    0 -0.15389129933E+02  0.86121038569E+02 -0.13115046595E+03  0.18226410866E+03  0.91466398112E+02 0.  0.
        -13    1    3    3    0    0  0.30398975357E+02 -0.21556527538E+02 -0.13275930844E+03  0.13789059271E+03  0.00000000000E+00 0.  1.
         14    1    3    3    0    0 -0.42236024400E+02 -0.67944704274E+02 -0.47359336366E+03  0.48030306963E+03  0.00000000000E+00 0. -1.
        -13    1    4    4    0    0  0.18409133406E+02  0.83912244812E+02 -0.11793488447E+03  0.14590681272E+03  0.00000000000E+00 0.  1.
         13    1    4    4    0    0 -0.33798263338E+02  0.22087937573E+01 -0.13215581474E+02  0.36357295942E+02  0.00000000000E+00 0. -1.
          1    1    1    2  501    0  0.27226178976E+02  0.33801932425E+01 -0.56765412011E+02  0.63047621119E+02  0.00000000000E+00 0. -1.
<scales pt_clust_5="13000.00000" pt_clust_6="13000.00000" pt_clust_7="13000.00000" pt_clust_8="13000.00000" pt_clust_9="27.43521"></scales>
<clustering>
<clus scale="   27.435">  1  9  2 -1</clus>
<clus scale="   79.682">  5  6 -1 -1</clus>
<clus scale="   91.466">  7  8 -1 -1</clus>
<clus scale="  119.547">  2  5  1 -1</clus>
<clus scale="   27.435">  1  5  2 -1</clus>
</clustering>
</event>
<event>
 9    2  0.4653788E-005  0.1464174E+03  0.7546771E-02  0.1205926E+00
          2   -1    0    0  502    0 -0.00000000000E+00  0.00000000000E+00  0.15540188177E+04  0.15540188177E+04  0.00000000000E+00 0. -1.
         21   -1    0    0  501  502  0.00000000000E+00 -0.00000000000E+00 -0.25623205241E+02  0.25623205241E+02  0.00000000000E+00 0.  1.
         24    2    1    2    0    0 -0.38467007675E+02 -0.75929053338E+02  0.30219096880E+03  0.32467163567E+03  0.82748761736E+02 0.  0.
         23    2    1    2    0    0  0.35983974792E+02  0.14888930606E+03  0.62923813184E+03  0.65355673580E+03  0.87936957244E+02 0.  0.
        -11    1    3    3    0    0  0.22095804624E+01 -0.74859792737E+02  0.22893037091E+03  0.24086922912E+03  0.00000000000E+00 0.  1.
         12    1    3    3    0    0 -0.40676588137E+02 -0.10692606012E+01  0.73260597890E+02  0.83802406552E+02  0.00000000000E+00 0. -1.
        -11    1    4    4    0    0  0.41936296045E+02  0.74208470162E+02  0.46883496993E+03  0.47652049169E+03  0.00000000000E+00 0. -1.
         11    1    4    4    0    0 -0.59523212535E+01  0.74680835902E+02  0.16040316191E+03  0.17703624412E+03  0.00000000000E+00 0.  1.
          1    1    1    2  501    0  0.24830328830E+01 -0.72960252726E+02  0.59696651179E+03  0.60141365143E+03  0.00000000000E+00 0. -1.
<scales pt_clust_5="13000.00000" pt_clust_6="13000.00000" pt_clust_7="13000.00000" pt_clust_8="13000.00000" pt_clust_9="73.00253"></scales>
<clustering>
<clus scale="   73.003">  2  9  1 -1</clus>
<clus scale="   82.749">  5  6 -1 -1</clus>
<clus scale="   87.937">  7  8 -1 -1</clus>
<clus scale="  143.361">  1  5  2 -1</clus>
<clus scale="   73.003">  2  5  1 -1</clus>
</clustering>
</event>
<event>
 9    2  0.4653788E-005  0.1150990E+03  0.7546771E-02  0.1254900E+00
          2   -1    0    0  502    0 -0.00000000000E+00  0.00000000000E+00  0.22105352916E+03  0.22105352916E+03  0.00000000000E+00 0. -1.
         21   -1    0    0  501  502  0.00000000000E+00 -0.00000000000E+00 -0.10128630919E+03  0.10128630919E+03  0.00000000000E+00 0.  1.
         23    2    1    2    0    0  0.53258412017E+02 -0.31303789055E+02  0.68449413126E+02  0.13037366440E+03  0.92171495338E+02 0.  0.
         24    2    1    2    0    0 -0.76312798460E+02  0.37187028927E+02 -0.17135746879E+02  0.11949544700E+03  0.82334741781E+02 0.  0.
        -13    1    4    4    0    0 -0.64237332592E+02  0.40870701359E+02 -0.45325845053E+02  0.88607456560E+02  0.00000000000E+00 0.  1.
         14    1    4    4    0    0 -0.12075465867E+02 -0.36836724327E+01  0.28190098174E+02  0.30887990443E+02  0.00000000000E+00 0. -1.
        -13    1    3    3    0    0 -0.26303353155E+02 -0.56415001316E+01  0.21905238478E+02  0.34691964253E+02  0.00000000000E+00 0.  1.
         13    1    3    3    0    0  0.79561765172E+02 -0.25662288924E+02  0.46544174648E+02  0.95681700150E+02  0.00000000000E+00 0. -1.
          1    1    1    2  501    0  0.23054386443E+02 -0.58832398714E+01  0.68453553725E+02  0.72470726940E+02  0.00000000000E+00 0. -1.
<scales pt_clust_5="13000.00000" pt_clust_6="13000.00000" pt_clust_7="13000.00000" pt_clust_8="13000.00000" pt_clust_9="23.79323"></scales>
<clustering>
<clus scale="   23.793">  2  9  1 -1</clus>
<clus scale="   82.335">  5  6 -1 -1</clus>
<clus scale="   92.171">  7  8 -1 -1</clus>
<clus scale="  107.383">  2  5  1 -1</clus>
<clus scale="   23.793">  2  5  1 -1</clus>
</clustering>
</event>
<event>
 9    2  0.4653788E-005  0.8805133E+02  0.7546771E-02  0.1311450E+00
         21   -1    0    0  501  502  0.00000000000E+00  0.00000000000E+00  0.54166347416E+03  0.54166347416E+03  0.00000000000E+00 0. -1.
         -1   -1    0    0    0  501 -0.00000000000E+00 -0.00000000000E+00 -0.35205855584E+02  0.35205855584E+02  0.00000000000E+00 0.  1.
         23    2    1    2    0    0 -0.14956509421E+02  0.26275093802E+01  0.66823617290E+02  0.11117135460E+03  0.87538981461E+02 0.  0.
         24    2    1    2    0    0 -0.28872715642E+02 -0.23742863010E+02  0.17556016075E+03  0.19718009421E+03  0.81616556269E+02 0.  0.
        -11    1    4    4    0    0 -0.42931526280E+02 -0.43734923069E+01  0.37835667142E+02  0.57391472291E+02  0.00000000000E+00 0.  1.
         12    1    4    4    0    0  0.14058810639E+02 -0.19369370703E+02  0.13772449361E+03  0.13978862191E+03  0.00000000000E+00 0. -1.
        -13    1    3    3    0    0 -0.69418028890E+01  0.22755078965E+02  0.81567228793E+02  0.84965846427E+02  0.00000000000E+00 0.  1.
         13    1    3    3    0    0 -0.80147065322E+01 -0.20127569584E+02 -0.14743611504E+02  0.26205508168E+02  0.00000000000E+00 0. -1.
         -2    1    1    2    0  502  0.43829225063E+02  0.21115353630E+02  0.26407384054E+03  0.26851788094E+03  0.00000000000E+00 0.  1.
<scales pt_clust_5="13000.00000" pt_clust_6="13000.00000" pt_clust_7="13000.00000" pt_clust_8="13000.00000" pt_clust_9="48.65038"></scales>
<clustering>
<clus scale="   48.650">  1  9  2 -1</clus>
<clus scale="   81.617">  5  6 -1 -1</clus>
<clus scale="   82.166">  1  5  2 -1</clus>
<clus scale="   87.539">  7  8 -1 -1</clus>
<clus scale="   48.650">  1  5  2 -1</clus>
</clustering>
</event>
<event>
 9    2  0.4653788E-005  0.8213722E+02  0.7546771E-02  0.1325796E+00
         21   -1    0    0  501  502  0.00000000000E+00  0.00000000000E+00  0.15738044557E+02  0.15738044557E+02  0.00000000000E+00 0.  1.
          2   -1    0    0  502    0 -0.00000000000E+00 -0.00000000000E+00 -0.10382834411E+04  0.10382834411E+04  0.00000000000E+00 0. -1.
         23    2    1    2    0    0  0.31737453785E+02  0.24591647056E+02 -0.37965888582E+03  0.38913791491E+03  0.75335464183E+02 0.  0.
         24    2    1    2    0    0  0.26651605438E+02 -0.54123843689E+01 -0.18787408146E+03  0.20573932637E+03  0.79324636497E+02 0.  0.
        -13    1    4    4    0    0  0.18975136691E+02  0.22352158701E+02 -0.20190872420E+02  0.35599805338E+02  0.00000000000E+00 0.  1.
         14    1    4    4    0    0  0.76764687470E+01 -0.27764543070E+02 -0.16768320904E+03  0.17013952104E+03  0.00000000000E+00 0. -1.
        -11    1    3    3    0    0  0.14726188368E+02  0.50995517055E+02 -0.26444279659E+03  0.26971725205E+03  0.00000000000E+00 0. -1.
         11    1    3    3    0    0  0.17011265417E+02 -0.26403869999E+02 -0.11521608923E+03  0.11942066287E+03  0.00000000000E+00 0.  1.
          1    1    1    2  501    0 -0.58389059223E+02 -0.19179262687E+02 -0.45501242924E+03  0.45914424435E+03  0.00000000000E+00 0. -1.
<scales pt_clust_5="13000.00000" pt_clust_6="13000.00000" pt_clust_7="13000.00000" pt_clust_8="13000.00000" pt_clust_9="61.45836"></scales>
<clustering>
<clus scale="   61.458">  1  9  2 -1</clus>
<clus scale="   75.335">  7  8 -1 -1</clus>
<clus scale="   78.291">  2  7  1 -1</clus>
<clus scale="   79.325">  5  6 -1 -1</clus>
<clus scale="   61.458">  1  5  2 -1</clus>
</clustering>
</event>
<event>
 9    2  0.4653788E-005  0.2392031E+03  0.7546771E-02  0.1121098E+00
          2   -1    0    0  502    0 -0.00000000000E+00  0.00000000000E+00  0.15926591036E+04  0.15926591036E+04  0.00000000000E+00 0. -1.
         21   -1    0    0  501  502  0.00000000000E+00 -0.00000000000E+00 -0.49885848183E+02  0.49885848183E+02  0.00000000000E+00 0. -1.
         24    2    1    2    0    0  0.23305470209E+03 -0.24337980436E+02  0.76368325433E+03  0.80290224916E+03  0.80827453848E+02 0.  0.
         23    2    1    2    0    0 -0.19402185937E+03  0.54559298931E+02  0.40141749214E+03  0.45875766103E+03  0.93281238951E+02 0.  0.
        -13    1    3    3    0    0  0.16445589982E+02 -0.22545670118E+02  0.13769797736E+03  0.14049732253E+03  0.00000000000E+00 0.  1.
         14    1    3    3    0    0  0.21660911211E+03 -0.17923103177E+01  0.62598527698E+03  0.66240492663E+03  0.00000000000E+00 0. -1.
        -11    1    4    4    0    0 -0.61367807779E+02  0.74562129126E+01  0.22347105446E+03  0.23186400136E+03  0.00000000000E+00 0.  1.
         11    1    4    4    0    0 -0.13265405159E+03  0.47103086019E+02  0.17794643768E+03  0.22689365967E+03  0.00000000000E+00 0. -1.
          1    1    1    2  501    0 -0.39032842727E+02 -0.30221318496E+02  0.37767250897E+03  0.38088504163E+03  0.00000000000E+00 0. -1.
<scales pt_clust_5="13000.00000" pt_clust_6="13000.00000" pt_clust_7="13000.00000" pt_clust_8="13000.00000" pt_clust_9="49.36490"></scales>
<clustering>
<clus scale="   49.365">  2  9  1 -1</clus>
<clus scale="   80.827">  5  6 -1 -1</clus>
<clus scale="   93.281">  7  8 -1 -1</clus>
<clus scale="  234.627">  1  5  2 -1</clus>
<clus scale="   49.365">  2  5  1 -1</clus>
</clustering>
</event>
<event>
 9    2  0.4653788E-005  0.1575860E+03  0.7546771E-02  0.1197655E+00
         21   -1    0    0  501  502  0.00000000000E+00  0.00000000000E+00  0.59408305177E+02  0.59408305177E+02  0.00000000000E+00 0. -1.
          2   -1    0    0  502    0 -0.00000000000E+00 -0.00000000000E+00 -0.11001959473E+04  0.11001959473E+04  0.00000000000E+00 0. -1.
         24    2    1    2    0    0 -0.10795788547E+03  0.32039483753E+02 -0.32682716582E+03  0.35458914757E+03  0.78968561458E+02 0.  0.
         23    2    1    2    0    0  0.24560918546E+02  0.12141164318E+03 -0.14951842751E+03  0.21417068470E+03  0.90384159016E+02 0.  0.
        -11    1    3    3    0    0 -0.37966924400E+02 -0.26211225647E+02 -0.12203751867E+03  0.13046712867E+03  0.00000000000E+00 0.  1.
         12    1    3    3    0    0 -0.69990961067E+02  0.58250709400E+02 -0.20478964715E+03  0.22412201890E+03  0.00000000000E+00 0. -1.
        -11    1    4    4    0    0  0.51026454398E+02  0.82962820357E+02 -0.63399094678E+02  0.11621520475E+03  0.00000000000E+00 0. -1.
         11    1    4    4    0    0 -0.26465535852E+02  0.38448822826E+02 -0.86119332832E+02  0.97955479949E+02  0.00000000000E+00 0.  1.
          1    1    1    2  501    0  0.83396966922E+02 -0.15345112694E+03 -0.56444204881E+03  0.59084442023E+03  0.00000000000E+00 0. -1.
<scales pt_clust_5="13000.00000" pt_clust_6="13000.00000" pt_clust_7="13000.00000" pt_clust_8="13000.00000" pt_clust_9="129.08936"></scales>
<clustering>
<clus scale="   78.969">  5  6 -1 -1</clus>
<clus scale="   90.384">  7  8 -1 -1</clus>
<clus scale="  137.541">  2  5  1 -1</clus>
<clus scale="  129.089">  1  9  2 -1</clus>
<clus scale="  129.089">  1  5  2 -1</clus>
</clustering>
</event>
<event>
 9    2  0.4653788E-005  0.9410993E+02  0.7546771E-02  0.1302336E+00
         -1   -1    0    0    0  501 -0.00000000000E+00  0.00000000000E+00  0.31819008720E+03  0.31819008720E+03  0.00000000000E+00 0.  1.
         21   -1    0    0  501  502  0.00000000000E+00 -0.00000000000E+00 -0.46125434261E+02  0.46125434261E+02  0.00000000000E+00 0.  1.
         24    2    1    2    0    0  0.65351910197E+01  0.21853180412E+02  0.20750470670E+03  0.22261955347E+03  0.77336873925E+02 0.  0.
         23    2    1    2    0    0  0.13052025487E+02 -0.67751158739E+01  0.69500916420E+02  0.11648842415E+03  0.92319651285E+02 0.  0.
        -11    1    3    3    0    0  0.13292376258E+02  0.46672356160E+02  0.17239802285E+03  0.17909794633E+03  0.00000000000E+00 0.  1.
         12    1    3    3    0    0 -0.67571852382E+01 -0.24819175748E+02  0.35106683841E+02  0.43521607133E+02  0.00000000000E+00 0. -1.
        -11    1    4    4    0    0  0.37104329232E+02 -0.38078311094E+02  0.47501603301E+02  0.71295801698E+02  0.00000000000E+00 0. -1.
         11    1    4    4    0    0 -0.24052303745E+02  0.31303195220E+02  0.21999313119E+02  0.45192622453E+02  0.00000000000E+00 0.  1.
         -2    1    1    2    0  502 -0.19587216507E+02 -0.15078064538E+02 -0.49409701732E+01  0.25207543850E+02  0.00000000000E+00 0.  1.
<scales pt_clust_5="13000.00000" pt_clust_6="13000.00000" pt_clust_7="13000.00000" pt_clust_8="13000.00000" pt_clust_9="24.71856"></scales>
<clustering>
<clus scale="   24.719">  2  9  1 -1</clus>
<clus scale="   77.337">  5  6 -1 -1</clus>
<clus scale="   79.465">  1  5  2 -1</clus>
<clus scale="   92.320">  7  8 -1 -1</clus>
<clus scale="   24.719">  2  5  1 -1</clus>
</clustering>
</event>
<event>
 9    2  0.4653788E-005  0.1396633E+03  0.7546771E-02  0.1216198E+00
         21   -1    0    0  501  502  0.00000000000E+00  0.00000000000E+00  0.81723551020E+02  0.81723551020E+02  0.00000000000E+00 0.  1.
          2   -1    0    0  502    0 -0.00000000000E+00 -0.00000000000E+00 -0.30223333879E+03  0.30223333879E+03  0.00000000000E+00 0. -1.
         24    2    1    2    0    0 -0.79917019532E+02 -0.78004132735E+02 -0.17914088086E+03  0.22559962784E+03  0.79576140599E+02 0.  0.
         23    2    1    2    0    0  0.75826702873E+02  0.57597325216E+02 -0.40158771711E+02  0.13750941051E+03  0.90713672026E+02 0.  0.
        -13    1    3    3    0    0 -0.30816858253E+02 -0.12719294844E+02 -0.56156212064E+01  0.33808200417E+02  0.00000000000E+00 0.  1.
         14    1    3    3    0    0 -0.49100161279E+02 -0.65284837890E+02 -0.17352525965E+03  0.19179142742E+03  0.00000000000E+00 0. -1.
        -13    1    4    4    0    0  0.54636815406E+02 -0.76323284987E+01  0.49980753555E+01  0.55393273900E+02  0.00000000000E+00 0.  1.
         13    1    4    4    0    0  0.21189887467E+02  0.65229653715E+02 -0.45156847066E+02  0.82116136609E+02  0.00000000000E+00 0. -1.
          1    1    1    2  501    0  0.40903166590E+01  0.20406807519E+02 -0.12101352052E+01  0.20847851465E+02  0.00000000000E+00 0. -1.
<scales pt_clust_5="13000.00000" pt_clust_6="13000.00000" pt_clust_7="13000.00000" pt_clust_8="13000.00000" pt_clust_9="20.81270"></scales>
<clustering>
<clus scale="   20.813">  1  9  2 -1</clus>
<clus scale="   79.576">  5  6 -1 -1</clus>
<clus scale="   90.714">  7  8 -1 -1</clus>
<clus scale="  132.700">  2  5  1 -1</clus>
<clus scale="   20.813">  1  5  2 -1</clus>
</clustering>
</event>
<event>
 9    2  0.4653788E-005  0.1104224E+03  0.7546771E-02  0.1263773E+00
         21   -1    0    0  501  502  0.00000000000E+00  0.00000000000E+00  0.81109772636E+03  0.81109772636E+03  0.00000000000E+00 0. -1.
         -3   -1    0    0    0  501 -0.00000000000E+00 -0.00000000000E+00 -0.30056627373E+02  0.30056627373E+02  0.00000000000E+00 0.  1.
         23    2    1    2    0    0  0.10883474965E+02  0.56968466256E+02  0.12862933596E+03  0.16844283854E+03  0.91997976123E+02 0.  0.
         24    2    1    2    0    0 -0.25950363618E+02 -0.57581985312E+01  0.33809307599E+03  0.35389222520E+03  0.10112467948E+03 0.  0.
        -11    1    4    4    0    0 -0.23083413430E+02  0.13480081455E+02  0.15879376927E+02  0.31091979403E+02  0.00000000000E+00 0.  1.
         12    1    4    4    0    0 -0.28669501881E+01 -0.19238279986E+02  0.32221369907E+03  0.32280024580E+03  0.00000000000E+00 0. -1.
        -11    1    3    3    0    0  0.51334110976E+01 -0.24411314374E+02  0.45979873734E+02  0.52310734726E+02  0.00000000000E+00 0. -1.
         11    1    3    3    0    0  0.57500638670E+01  0.81379780630E+02  0.82649462228E+02  0.11613210381E+03  0.00000000000E+00 0.  1.
         -4    1    1    2    0  502  0.15066888654E+02 -0.51210267725E+02  0.31431868703E+03  0.31881928999E+03  0.00000000000E+00 0.  1.
<scales pt_clust_5="13000.00000" pt_clust_6="13000.00000" pt_clust_7="13000.00000" pt_clust_8="13000.00000" pt_clust_9="53.38073"></scales>
<clustering>
<clus scale="   53.381">  1  9  2 -1</clus>
<clus scale="   91.998">  7  8 -1 -1</clus>
<clus scale="  101.125">  5  6 -1 -1</clus>
<clus scale="  102.130">  2  7  1 -1</clus>
<clus scale="   53.381">  1  5  2 -1</clus>
</clustering>
</event>
<event>
 9    2  0.4653788E-005  0.9641230E+02  0.7546771E-02  0.1294251E+00
         -1   -1    0    0    0  501 -0.00000000000E+00  0.00000000000E+00  0.30869894079E+03  0.30869894079E+03  0.00000000000E+00 0.  1.
         21   -1    0    0  501  502  0.00000000000E+00 -0.00000000000E+00 -0.57912675452E+02  0.57912675452E+02  0.00000000000E+00 0.  1.
         24    2    1    2    0    0  0.44237740126E+02 -0.23055949265E+02  0.17138107786E+03  0.19547065506E+03  0.79679035468E+02 0.  0.
         23    2    1    2    0    0 -0.13601977718E+01  0.12133097059E+01  0.82616896940E+02  0.12291337967E+03  0.90988048582E+02 0.  0.
        -13    1    3    3    0    0  0.17059029303E+02  0.15494515047E+02  0.64551794125E+01  0.23932401019E+02  0.00000000000E+00 0.  1.
         14    1    3    3    0    0  0.27178710823E+02 -0.38550464312E+02  0.16492589844E+03  0.17153825404E+03  0.00000000000E+00 0. -1.
        -11    1    4    4    0    0  0.39253804795E+02 -0.15318706132E+02  0.20449098858E+02  0.46836840121E+02  0.00000000000E+00 0.  1.
         11    1    4    4    0    0 -0.40614002566E+02  0.16532015838E+02  0.62167798082E+02  0.76076539554E+02  0.00000000000E+00 0. -1.
         -2    1    1    2    0  502 -0.42877542354E+02  0.21842639559E+02 -0.32117094539E+01  0.48227581516E+02  0.00000000000E+00 0.  1.
<scales pt_clust_5="13000.00000" pt_clust_6="13000.00000" pt_clust_7="13000.00000" pt_clust_8="13000.00000" pt_clust_9="48.12052"></scales>
<clustering>
<clus scale="   48.121">  2  9  1 -1</clus>
<clus scale="   79.679">  5  6 -1 -1</clus>
<clus scale="   85.821">  1  5  2 -1</clus>
<clus scale="   90.988">  7  8 -1 -1</clus>
<clus scale="   48.121">  2  5  1 -1</clus>
</clustering>
</event>
<event>
 9    2  0.4653788E-005  0.1074254E+03  0.7546771E-02  0.1270721E+00
          2   -1    0    0  502    0 -0.00000000000E+00  0.00000000000E+00  0.48697528240E+02  0.48697528240E+02  0.00000000000E+00 0. -1.
         21   -1    0    0  501  502  0.00000000000E+00 -0.00000000000E+00 -0.36176080552E+03  0.36176080552E+03  0.00000000000E+00 0. -1.
         23    2    1    2    0    0 -0.54512677443E+02  0.35047702015E+01 -0.57114642884E+02  0.12146762299E+03  0.92240910598E+02 0.  0.
         24    2    1    2    0    0  0.54979780369E+02  0.29236847049E+02 -0.18541463471E+03  0.21122647222E+03  0.79752531785E+02 0.  0.
        -11    1    4    4    0    0 -0.68552591460E+01 -0.20037234795E+02 -0.51934829195E+02  0.56086645823E+02  0.00000000000E+00 0.  1.
         12    1    4    4    0    0  0.61835039515E+02  0.49274081844E+02 -0.13347980552E+03  0.15513982640E+03  0.00000000000E+00 0. -1.
        -11    1    3    3    0    0 -0.50827952263E+02 -0.37646463558E+02 -0.21157591000E+02  0.66696181350E+02  0.00000000000E+00 0. -1.
         11    1    3    3    0    0 -0.36847251799E+01  0.41151233760E+02 -0.35957051884E+02  0.54771441644E+02  0.00000000000E+00 0.  1.
          1    1    1    2  501    0 -0.46710292636E+00 -0.32741617251E+02 -0.70533999680E+02  0.77764238543E+02  0.00000000000E+00 0. -1.
<scales pt_clust_5="13000.00000" pt_clust_6="13000.00000" pt_clust_7="13000.00000" pt_clust_8="13000.00000" pt_clust_9="32.74495"></scales>
<clustering>
<clus scale="   32.745">  2  9  1 -1</clus>
<clus scale="   79.753">  5  6 -1 -1</clus>
<clus scale="   92.241">  7  8 -1 -1</clus>
<clus scale="   96.914">  2  5  1 -1</clus>
<clus scale="   32.745">  2  5  1 -1</clus>
</clustering>
</event>
<event>
 9    2  0.4653788E-005  0.9958584E+02  0.7546771E-02  0.1287495E+00
          2   -1    0    0  502    0 -0.00000000000E+00  0.00000000000E+00  0.28971268852E+03  0.28971268852E+03  0.00000000000E+00 0. -1.
         21   -1    0    0  501  502  0.00000000000E+00 -0.00000000000E+00 -0.64099942638E+02  0.64099942638E+02  0.00000000000E+00 0.  1.
         24    2    1    2    0    0 -0.46061532238E+02 -0.34307274319E+02  0.99355063931E+02  0.13980824558E+03  0.79851505810E+02 0.  0.
         23    2    1    2    0    0  0.20924645359E+02 -0.27414212522E+02  0.42972224219E+02  0.10733727495E+03  0.92115681120E+02 0.  0.
        -13    1    3    3    0    0 -0.26034964064E+02 -0.58670958861E+02  0.80886440270E+02  0.10326043282E+03  0.00000000000E+00 0.  1.
         14    1    3    3    0    0 -0.20026568173E+02  0.24363684542E+02  0.18468623660E+02  0.36547812755E+02  0.00000000000E+00 0. -1.
        -13    1    4    4    0    0  0.64716114264E+01 -0.48596586926E+02 -0.85693526135E+01  0.49768904142E+02  0.00000000000E+00 0.  1.
         13    1    4    4    0    0  0.14453033932E+02  0.21182374404E+02  0.51541576833E+02  0.57568370810E+02  0.00000000000E+00 0. -1.
          1    1    1    2  501    0  0.25136886879E+02  0.61721486841E+02  0.83285457735E+02  0.10666711063E+03  0.00000000000E+00 0. -1.
<scales pt_clust_5="13000.00000" pt_clust_6="13000.00000" pt_clust_7="13000.00000" pt_clust_8="13000.00000" pt_clust_9="66.64390"></scales>
<clustering>
<clus scale="   66.644">  2  9  1 -1</clus>
<clus scale="   79.852">  5  6 -1 -1</clus>
<clus scale="   88.365">  1  5  2 -1</clus>
<clus scale="   92.116">  7  8 -1 -1</clus>
<clus scale="   66.644">  2  5  1 -1</clus>
</clustering>
</event>
<event>
 9    2  0.4653788E-005  0.1203211E+03  0.7546771E-02  0.1247959E+00
          2   -1    0    0  502    0 -0.00000000000E+00  0.00000000000E+00  0.71912306710E+03  0.71912306710E+03  0.00000000000E+00 0. -1.
         21   -1    0    0  501  502  0.00000000000E+00 -0.00000000000E+00 -0.11793883114E+03  0.11793883114E+03  0.00000000000E+00 0. -1.
         23    2    1    2    0    0  0.10271037605E+03 -0.27852823047E+02  0.57778363947E+03  0.59419189511E+03  0.88909353106E+02 0.  0.
         24    2    1    2    0    0 -0.39681006218E+02 -0.26673692038E+00  0.10694415804E+03  0.13450516662E+03  0.71273652257E+02 0.  0.
        -13    1    4    4    0    0 -0.29100912440E+02  0.27675583942E+02  0.25052472303E+02  0.47333153496E+02  0.00000000000E+00 0.  1.
         14    1    4    4    0    0 -0.10580093778E+02 -0.27942320863E+02  0.81891685737E+02  0.87172013126E+02  0.00000000000E+00 0. -1.
        -13    1    3    3    0    0  0.57345376975E+01 -0.34423493096E+02  0.84489189206E+02  0.91412717344E+02  0.00000000000E+00 0.  1.
         13    1    3    3    0    0  0.96975838349E+02  0.65706700498E+01  0.49329445027E+03  0.50277917776E+03  0.00000000000E+00 0. -1.
          1    1    1    2  501    0 -0.63029369829E+02  0.28119559967E+02 -0.83543561556E+02  0.10836483651E+03  0.00000000000E+00 0. -1.
<scales pt_clust_5="13000.00000" pt_clust_6="13000.00000" pt_clust_7="13000.00000" pt_clust_8="13000.00000" pt_clust_9="69.01747"></scales>
<clustering>
<clus scale="   69.017">  2  9  1 -1</clus>
<clus scale="   71.274">  5  6 -1 -1</clus>
<clus scale="   88.909">  7  8 -1 -1</clus>
<clus scale="  107.946">  2  5  1 -1</clus>
<clus scale="   69.017">  2  5  1 -1</clus>
</clustering>
</event>
<event>
 9    2  0.4653788E-005  0.1348446E+03  0.7546771E-02  0.1222694E+00
          2   -1    0    0  502    0 -0.00000000000E+00  0.00000000000E+00  0.65832681271E+03  0.65832681271E+03  0.00000000000E+00 0. -1.
         21   -1    0    0  501  502  0.00000000000E+00 -0.00000000000E+00 -0.76149261526E+02  0.76149261526E+02  0.00000000000E+00 0.  1.
         24    2    1    2    0    0 -0.53526069515E+02 -0.76242946419E+02  0.17155152358E+03  0.21153365427E+03  0.81477203269E+02 0.  0.
         23    2    1    2    0    0 -0.47272046059E+02  0.14260333955E+03  0.13328159884E+03  0.22047937421E+03  0.90976981008E+02 0.  0.
        -13    1    3    3    0    0 -0.33830058320E+00 -0.34063160912E+02  0.87857932389E+01  0.35179589842E+02  0.00000000000E+00 0.  1.
         14    1    3    3    0    0 -0.53187768932E+02 -0.42179785507E+02  0.16276573034E+03  0.17635406443E+03  0.00000000000E+00 0. -1.
        -11    1    4    4    0    0 -0.57928958753E+02  0.87854043440E+02  0.41586806303E+02  0.11315281556E+03  0.00000000000E+00 0.  1.
         11    1    4    4    0    0  0.10656912694E+02  0.54749296105E+02  0.91694792541E+02  0.10732655865E+03  0.00000000000E+00 0. -1.
          1    1    1    2  501    0  0.10079811557E+03 -0.66360393126E+02  0.27734442877E+03  0.30246304575E+03  0.00000000000E+00 0. -1.
<scales pt_clust_5="13000.00000" pt_clust_6="13000.00000" pt_clust_7="13000.00000" pt_clust_8="13000.00000" pt_clust_9="120.68130"></scales>
<clustering>
<clus scale="   81.477">  5  6 -1 -1</clus>
<clus scale="   90.977">  7  8 -1 -1</clus>
<clus scale="  120.681">  2  9  1 -1</clus>
<clus scale="  128.627">  1  5  2 -1</clus>
<clus scale="  120.681">  2  5  1 -1</clus>
</clustering>
</event>
<event>
 9    2  0.4653788E-005  0.9885434E+02  0.7546771E-02  0.1287349E+00
         21   -1    0    0  501  502  0.00000000000E+00  0.00000000000E+00  0.16020685401E+03  0.16020685401E+03  0.00000000000E+00 0.  1.
          2   -1    0    0  502    0 -0.00000000000E+00 -0.00000000000E+00 -0.34825948515E+03  0.34825948515E+03  0.00000000000E+00 0. -1.
         24    2    1    2    0    0 -0.88433908169E+01 -0.43207864014E+02 -0.29654877550E+03  0.31035415527E+03  0.80208480649E+02 0.  0.
         23    2    1    2    0    0 -0.16968305473E+02  0.29863395274E+02  0.11069430273E+02  0.96444671244E+02  0.89438786647E+02 0.  0.
        -13    1    3    3    0    0  0.30738403266E+02 -0.43160565265E+01 -0.62069927042E+02  0.69398513113E+02  0.00000000000E+00 0.  1.
         14    1    3    3    0    0 -0.39581794083E+02 -0.38891807487E+02 -0.23447884846E+03  0.24095564216E+03  0.00000000000E+00 0. -1.
        -13    1    4    4    0    0  0.29963364072E+02 -0.89444850479E+01 -0.86304728091E+01  0.32439051469E+02  0.00000000000E+00 0. -1.
         13    1    4    4    0    0 -0.46931669545E+02  0.38807880322E+02  0.19699903082E+02  0.64005619775E+02  0.00000000000E+00 0.  1.
          1    1    1    2  501    0  0.25811696290E+02  0.13344468740E+02  0.97426714086E+02  0.10166751265E+03  0.00000000000E+00 0. -1.
<scales pt_clust_5="13000.00000" pt_clust_6="13000.00000" pt_clust_7="13000.00000" pt_clust_8="13000.00000" pt_clust_9="29.05716"></scales>
<clustering>
<clus scale="   29.057">  1  9  2 -1</clus>
<clus scale="   80.208">  5  6 -1 -1</clus>
<clus scale="   89.439">  7  8 -1 -1</clus>
<clus scale="   90.589">  2  5  1 -1</clus>
<clus scale="   29.057">  1  5  2 -1</clus>
</clustering>
</event>
<event>
 9    2  0.4653788E-005  0.9555938E+02  0.7546771E-02  0.1297462E+00
          2   -1    0    0  502    0 -0.00000000000E+00  0.00000000000E+00  0.33251216508E+03  0.33251216508E+03  0.00000000000E+00 0. -1.
         21   -1    0    0  501  502  0.00000000000E+00 -0.00000000000E+00 -0.12775769444E+03  0.12775769444E+03  0.00000000000E+00 0. -1.
         24    2    1    2    0    0 -0.17607741940E+02 -0.82357467177E+01  0.17132114661E+03  0.19056417493E+03  0.81153615991E+02 0.  0.
         23    2    1    2    0    0 -0.82043420265E+01  0.60089534218E+01 -0.97777267540E+02  0.13596174407E+03  0.93924347506E+02 0.  0.
        -11    1    3    3    0    0 -0.36880783512E+02 -0.21701363799E+02  0.45093568320E+02  0.62165676117E+02  0.00000000000E+00 0.  1.
         12    1    3    3    0    0  0.19273041572E+02  0.13465617081E+02  0.12622757829E+03  0.12839849881E+03  0.00000000000E+00 0. -1.
        -11    1    4    4    0    0  0.41050616896E+02  0.36780474227E+01 -0.25498906382E+02  0.48465197896E+02  0.00000000000E+00 0.  1.
         11    1    4    4    0    0 -0.49254958923E+02  0.23309059991E+01 -0.72278361157E+02  0.87496546176E+02  0.00000000000E+00 0. -1.
          1    1    1    2  501    0  0.25812083966E+02  0.22267932959E+01  0.13121059157E+03  0.13374394052E+03  0.00000000000E+00 0. -1.
<scales pt_clust_5="13000.00000" pt_clust_6="13000.00000" pt_clust_7="13000.00000" pt_clust_8="13000.00000" pt_clust_9="25.90797"></scales>
<clustering>
<clus scale="   25.908">  2  9  1 -1</clus>
<clus scale="   81.154">  5  6 -1 -1</clus>
<clus scale="   83.040">  1  5  2 -1</clus>
<clus scale="   93.924">  7  8 -1 -1</clus>
<clus scale="   25.908">  2  5  1 -1</clus>
</clustering>
</event>
<event>
 9    2  0.4653788E-005  0.3154739E+03  0.7546771E-02  0.1077751E+00
         21   -1    0    0  501  502  0.00000000000E+00  0.00000000000E+00  0.78003066451E+03  0.78003066451E+03  0.00000000000E+00 0.  1.
         -3   -1    0    0    0  501 -0.00000000000E+00 -0.00000000000E+00 -0.10682323557E+03  0.10682323557E+03  0.00000000000E+00 0.  1.
         24    2    1    2    0    0  0.15280488530E+03 -0.49311959932E+02  0.36892457815E+03  0.41031098451E+03  0.80428585011E+02 0.  0.
         23    2    1    2    0    0  0.76820953886E+02  0.51746862545E+02  0.15935225897E+03  0.20499396747E+03  0.89722837224E+02 0.  0.
        -13    1    3    3    0    0  0.46433319418E+02 -0.54896788074E+02  0.12625723378E+03  0.14529487112E+03  0.00000000000E+00 0.  1.
         14    1    3    3    0    0  0.10637156588E+03  0.55848281425E+01  0.24266734437E+03  0.26501611339E+03  0.00000000000E+00 0. -1.
        -11    1    4    4    0    0  0.14565786423E+02  0.49387021915E+02  0.25727886936E+02  0.57560092372E+02  0.00000000000E+00 0.  1.
         11    1    4    4    0    0  0.62255167463E+02  0.23598406307E+01  0.13362437204E+03  0.14743387510E+03  0.00000000000E+00 0. -1.
         -4    1    1    2    0  502 -0.22962583918E+03 -0.24349026136E+01  0.14493059182E+03  0.27154894810E+03  0.00000000000E+00 0.  1.
<scales pt_clust_5="13000.00000" pt_clust_6="13000.00000" pt_clust_7="13000.00000" pt_clust_8="13000.00000" pt_clust_9="229.63886"></scales>
<clustering>
<clus scale="   80.429">  5  6 -1 -1</clus>
<clus scale="   89.723">  7  8 -1 -1</clus>
<clus scale="  128.388">  5  7 -1 -1</clus>
<clus scale="  229.639">  1  9  2 -1</clus>
<clus scale="  229.639">  1  5  2 -1</clus>
</clustering>
</event>
<event>
 9    2  0.4653788E-005  0.9358941E+02  0.7546771E-02  0.1301227E+00
         21   -1    0    0  501  502  0.00000000000E+00  0.00000000000E+00  0.44839819387E+02  0.44839819387E+02  0.00000000000E+00 0. -1.
          2   -1    0    0  502    0 -0.00000000000E+00 -0.00000000000E+00 -0.41976884096E+03  0.41976884096E+03  0.00000000000E+00 0. -1.
         24    2    1    2    0    0 -0.47857133715E+01  0.90296042382E+01 -0.17659816191E+03  0.19424395037E+03  0.80245651982E+02 0.  0.
         23    2    1    2    0    0 -0.53009348963E+02 -0.64617574397E+01 -0.18131854806E+03  0.21006311951E+03  0.91642527897E+02 0.  0.
        -11    1    3    3    0    0 -0.26466166854E+02 -0.10189570547E+02 -0.15633965836E+03  0.15889107625E+03  0.00000000000E+00 0.  1.
         12    1    3    3    0    0  0.21680453482E+02  0.19219174785E+02 -0.20258503545E+02  0.35352874119E+02  0.00000000000E+00 0. -1.
        -11    1    4    4    0    0 -0.70343815401E+02  0.16682562605E+02 -0.97372493568E+02  0.12127638997E+03  0.00000000000E+00 0. -1.
         11    1    4    4    0    0  0.17334466438E+02 -0.23144320045E+02 -0.83946054493E+02  0.88786729538E+02  0.00000000000E+00 0.  1.
          1    1    1    2  501    0  0.57795062334E+02 -0.25678467985E+01 -0.17012311612E+02  0.60301590475E+02  0.00000000000E+00 0. -1.
<scales pt_clust_5="13000.00000" pt_clust_6="13000.00000" pt_clust_7="13000.00000" pt_clust_8="13000.00000" pt_clust_9="57.85208"></scales>
<clustering>
<clus scale="   57.852">  1  9  2 -1</clus>
<clus scale="   80.246">  5  6 -1 -1</clus>
<clus scale="   82.462">  2  5  1 -1</clus>
<clus scale="   91.643">  7  8 -1 -1</clus>
<clus scale="   57.852">  1  5  2 -1</clus>
</clustering>
</event>
<event>
 9    2  0.4653788E-005  0.1782421E+03  0.7546771E-02  0.1180882E+00
         21   -1    0    0  501  502  0.00000000000E+00  0.00000000000E+00  0.68719093136E+02  0.68719093136E+02  0.00000000000E+00 0. -1.
          2   -1    0    0  502    0 -0.00000000000E+00 -0.00000000000E+00 -0.90701761382E+03  0.90701761382E+03  0.00000000000E+00 0. -1.
         23    2    1    2    0    0  0.27314705317E+02  0.99151884826E+02 -0.32442171438E+03  0.35245778608E+03  0.91650710924E+02 0.  0.
         24    2    1    2    0    0  0.11685823838E+03 -0.14215352930E+03 -0.26506429268E+03  0.33251673961E+03  0.80279692918E+02 0.  0.
        -13    1    4    4    0    0  0.28448855574E+02 -0.89788000400E+02 -0.94702098464E+02  0.13356537670E+03  0.00000000000E+00 0.  1.
         14    1    4    4    0    0  0.88409382804E+02 -0.52365528905E+02 -0.17036219422E+03  0.19895136291E+03  0.00000000000E+00 0. -1.
        -11    1    3    3    0    0 -0.10308819360E+02  0.38729757528E+02 -0.31397089713E+02  0.50912111695E+02  0.00000000000E+00 0. -1.
         11    1    3    3    0    0  0.37623524677E+02  0.60422127298E+02 -0.29302462467E+03  0.30154567438E+03  0.00000000000E+00 0.  1.
          1    1    1    2  501    0 -0.14417294369E+03  0.43001644479E+02 -0.24881251362E+03  0.29076218127E+03  0.00000000000E+00 0. -1.
<scales pt_clust_5="13000.00000" pt_clust_6="13000.00000" pt_clust_7="13000.00000" pt_clust_8="13000.00000" pt_clust_9="159.13972"></scales>
<clustering>
<clus scale="   80.280">  5  6 -1 -1</clus>
<clus scale="   91.651">  7  8 -1 -1</clus>
<clus scale="  137.757">  2  7  1 -1</clus>
<clus scale="  159.140">  1  9  2 -1</clus>
<clus scale="  159.140">  1  5  2 -1</clus>
</clustering>
</event>
<event>
 9    2  0.4653788E-005  0.8507250E+02  0.7546771E-02  0.1318929E+00
         21   -1    0    0  501  502  0.00000000000E+00  0.00000000000E+00  0.31257903659E+03  0.31257903659E+03  0.00000000000E+00 0. -1.
          4   -1    0    0  502    0 -0.00000000000E+00 -0.00000000000E+00 -0.19088228705E+03  0.19088228705E+03  0.00000000000E+00 0. -1.
         23    2    1    2    0    0 -0.53390134413E+01 -0.24184276661E+01 -0.12725960511E+03  0.15293842428E+03  0.84621514243E+02 0.  0.
         24    2    1    2    0    0 -0.39400953254E+02  0.23477683302E+02 -0.51803639776E+01  0.91620159653E+02  0.79144050650E+02 0.  0.
        -13    1    4    4    0    0  0.23607553060E+02  0.13020959633E+02 -0.65131694952E+01  0.27735957314E+02  0.00000000000E+00 0.  1.
         14    1    4    4    0    0 -0.63008506314E+02  0.10456723668E+02  0.13328055176E+01  0.63884202338E+02  0.00000000000E+00 0. -1.
        -13    1    3    3    0    0  0.24963615128E+01 -0.35887322985E+02 -0.10734482468E+03  0.11321238076E+03  0.00000000000E+00 0.  1.
         13    1    3    3    0    0 -0.78353749541E+01  0.33468895319E+02 -0.19914780432E+02  0.39726043526E+02  0.00000000000E+00 0. -1.
          3    1    1    2  501    0  0.44739966695E+02 -0.21059255636E+02  0.25413671863E+03  0.25890273970E+03  0.00000000000E+00 0. -1.
<scales pt_clust_5="13000.00000" pt_clust_6="13000.00000" pt_clust_7="13000.00000" pt_clust_8="13000.00000" pt_clust_9="49.44853"></scales>
<clustering>
<clus scale="   49.449">  1  9  2 -1</clus>
<clus scale="   79.144">  5  6 -1 -1</clus>
<clus scale="   79.626">  1  5  2 -1</clus>
<clus scale="   84.622">  7  8 -1 -1</clus>
<clus scale="   49.449">  1  5  2 -1</clus>
</clustering>
</event>
<event>
 9    2  0.4653788E-005  0.2099894E+03  0.7546771E-02  0.1160667E+00
         21   -1    0    0  501  502  0.00000000000E+00  0.00000000000E+00  0.15249012254E+03  0.15249012254E+03  0.00000000000E+00 0. -1.
          2   -1    0    0  502    0 -0.00000000000E+00 -0.00000000000E+00 -0.50256473536E+03  0.50256473536E+03  0.00000000000E+00 0. -1.
         23    2    1    2    0    0  0.64031479276E+00 -0.95105837045E+02 -0.50555769198E+02  0.14293283809E+03  0.93959460205E+02 0.  0.
         24    2    1    2    0    0  0.14747274819E+03  0.16909515123E+03 -0.11937722641E+03  0.26745305919E+03  0.83299670182E+02 0.  0.
        -13    1    4    4    0    0  0.26129995191E+02  0.28249125445E+02  0.11424404470E+02  0.40141085618E+02  0.00000000000E+00 0.  1.
         14    1    4    4    0    0  0.12134275300E+03  0.14084602579E+03 -0.13080163088E+03  0.22731197357E+03  0.00000000000E+00 0. -1.
        -13    1    3    3    0    0 -0.77443561239E+01 -0.44722034569E+02  0.24935250688E+02  0.51786119323E+02  0.00000000000E+00 0. -1.
         13    1    3    3    0    0  0.83846709166E+01 -0.50383802476E+02 -0.75491019886E+02  0.91146718766E+02  0.00000000000E+00 0.  1.
          1    1    1    2  501    0 -0.14811306299E+03 -0.73989314188E+02 -0.18014161722E+03  0.24466896063E+03  0.00000000000E+00 0. -1.
<scales pt_clust_5="13000.00000" pt_clust_6="13000.00000" pt_clust_7="13000.00000" pt_clust_8="13000.00000" pt_clust_9="192.76082"></scales>
<clustering>
<clus scale="   83.300">  5  6 -1 -1</clus>
<clus scale="   93.959">  7  8 -1 -1</clus>
<clus scale="  133.693">  2  7  1 -1</clus>
<clus scale="  192.761">  1  9  2 -1</clus>
<clus scale="  192.761">  1  5  2 -1</clus>
</clustering>
</event>
<event>
 9    2  0.4653788E-005  0.1340284E+03  0.7546771E-02  0.1222755E+00
         -1   -1    0    0    0  501 -0.00000000000E+00  0.00000000000E+00  0.94288200526E+02  0.94288200526E+02  0.00000000000E+00 0.  1.
         21   -1    0    0  501  502  0.00000000000E+00 -0.00000000000E+00 -0.28602977201E+03  0.28602977201E+03  0.00000000000E+00 0.  1.
         24    2    1    2    0    0 -0.78997325381E+02 -0.93321513259E+02 -0.30543614857E+02  0.14975499086E+03  0.80895998817E+02 0.  0.
         23    2    1    2    0    0  0.30883728632E+02  0.81477390616E+02 -0.11083361711E+03  0.15991053566E+03  0.75464686159E+02 0.  0.
        -11    1    3    3    0    0 -0.81158154852E+02 -0.95485839393E+02 -0.46381717137E+02  0.13362430658E+03  0.00000000000E+00 0.  1.
         12    1    3    3    0    0  0.21608294701E+01  0.21643261343E+01  0.15838102280E+02  0.16130684283E+02  0.00000000000E+00 0. -1.
        -13    1    4    4    0    0  0.68423486045E+01  0.63454996113E+02 -0.11300837954E+03  0.12978539252E+03  0.00000000000E+00 0.  1.
         13    1    4    4    0    0  0.24041380028E+02  0.18022394504E+02  0.21747624313E+01  0.30125143135E+02  0.00000000000E+00 0. -1.
         -2    1    1    2    0  502  0.48113596750E+02  0.11844122643E+02 -0.50364339524E+02  0.70652446023E+02  0.00000000000E+00 0.  1.
<scales pt_clust_5="13000.00000" pt_clust_6="13000.00000" pt_clust_7="13000.00000" pt_clust_8="13000.00000" pt_clust_9="49.54999"></scales>
<clustering>
<clus scale="   49.550">  2  9  1 -1</clus>
<clus scale="   75.465">  7  8 -1 -1</clus>
<clus scale="   80.896">  5  6 -1 -1</clus>
<clus scale="  130.822">  2  7  1 -1</clus>
<clus scale="   49.550">  2  5  1 -1</clus>
</clustering>
</event>
<event>
 9    2  0.4653788E-005  0.1857846E+03  0.7546771E-02  0.1187769E+00
         21   -1    0    0  501  502  0.00000000000E+00  0.00000000000E+00  0.98354786616E+02  0.98354786616E+02  0.00000000000E+00 0. -1.
          2   -1    0    0  502    0 -0.00000000000E+00 -0.00000000000E+00 -0.60181765340E+03  0.60181765340E+03  0.00000000000E+00 0. -1.
         24    2    1    2    0    0  0.64397134326E+02 -0.12961535620E+02 -0.21920167363E+03  0.24276076859E+03  0.81045818697E+02 0.  0.
         23    2    1    2    0    0  0.58236529680E+02 -0.13018815916E+03 -0.12437266024E+03  0.21023725200E+03  0.91600727822E+02 0.  0.
        -11    1    3    3    0    0  0.28485345188E+02  0.29889270113E+02 -0.51636324767E+02  0.66114245015E+02  0.00000000000E+00 0.  1.
         12    1    3    3    0    0  0.35911789138E+02 -0.42850805733E+02 -0.16756534887E+03  0.17664652358E+03  0.00000000000E+00 0. -1.
        -13    1    4    4    0    0  0.79276638825E+02 -0.98317520797E+02 -0.11523831252E+03  0.17097072566E+03  0.00000000000E+00 0. -1.
         13    1    4    4    0    0 -0.21040109145E+02 -0.31870638363E+02 -0.91343477180E+01  0.39266526339E+02  0.00000000000E+00 0.  1.
          1    1    1    2  501    0 -0.12263366401E+03  0.14314969478E+03 -0.15988853291E+03  0.24717441943E+03  0.00000000000E+00 0. -1.
<scales pt_clust_5="13000.00000" pt_clust_6="13000.00000" pt_clust_7="13000.00000" pt_clust_8="13000.00000" pt_clust_9="161.63310"></scales>
<clustering>
<clus scale="   81.046">  5  6 -1 -1</clus>
<clus scale="   91.601">  7  8 -1 -1</clus>
<clus scale="  104.324">  2  5  1 -1</clus>
<clus scale="  161.633">  1  9  2 -1</clus>
<clus scale="  161.633">  1  5  2 -1</clus>
</clustering>
</event>
<event>
 9    2  0.4653788E-005  0.1008406E+03  0.7546771E-02  0.1286768E+00
          2   -1    0    0  502    0 -0.00000000000E+00  0.00000000000E+00  0.13864249095E+04  0.13864249095E+04  0.00000000000E+00 0. -1.
         21   -1    0    0  501  502  0.00000000000E+00 -0.00000000000E+00 -0.15153284000E+02  0.15153284000E+02  0.00000000000E+00 0. -1.
         24    2    1    2    0    0 -0.46182626354E+02  0.16818395130E+02  0.10056018160E+04  0.10096484345E+04  0.75757874771E+02 0.  0.
         23    2    1    2    0    0  0.15093770369E+02 -0.59878013094E+01  0.33178116023E+03  0.34468296779E+03  0.91999643109E+02 0.  0.
        -13    1    3    3    0    0 -0.13670034832E+02  0.22554799633E+02  0.99217657651E+02  0.10266319900E+03  0.00000000000E+00 0.  1.
         14    1    3    3    0    0 -0.32512591521E+02 -0.57364045038E+01  0.90638415834E+03  0.90698523551E+03  0.00000000000E+00 0. -1.
        -13    1    4    4    0    0  0.90064337197E+01  0.42540074726E+02  0.13087954251E+03  0.13791384432E+03  0.00000000000E+00 0.  1.
         13    1    4    4    0    0  0.60873366494E+01 -0.48527876036E+02  0.20090161772E+03  0.20676912348E+03  0.00000000000E+00 0. -1.
          1    1    1    2  501    0  0.31088855984E+02 -0.10830593820E+02  0.33888649278E+02  0.47246791201E+02  0.00000000000E+00 0. -1.
<scales pt_clust_5="13000.00000" pt_clust_6="13000.00000" pt_clust_7="13000.00000" pt_clust_8="13000.00000" pt_clust_9="32.92140"></scales>
<clustering>
<clus scale="   32.921">  2  9  1 -1</clus>
<clus scale="   75.758">  5  6 -1 -1</clus>
<clus scale="   86.279">  1  5  2 -1</clus>
<clus scale="   92.000">  7  8 -1 -1</clus>
<clus scale="   32.921">  2  5  1 -1</clus>
</clustering>
</event>
<event>
 9    2  0.4653788E-005  0.1035453E+03  0.7546771E-02  0.1279776E+00
         21   -1    0    0  501  502  0.00000000000E+00  0.00000000000E+00  0.26414531587E+03  0.26414531587E+03  0.00000000000E+00 0.  1.
          2   -1    0    0  502    0 -0.00000000000E+00 -0.00000000000E+00 -0.21745020993E+03  0.21745020993E+03  0.00000000000E+00 0. -1.
         23    2    1    2    0    0  0.36325656110E+02 -0.28413120907E+02 -0.18673812960E+03  0.21323078032E+03  0.92029223055E+02 0.  0.
         24    2    1    2    0    0 -0.64367244451E+02  0.26058215726E+02  0.17914716083E+03  0.20721857503E+03  0.77612240257E+02 0.  0.
        -13    1    4    4    0    0 -0.56842143551E+02  0.26474455561E+02  0.18645755011E+03  0.19671894691E+03  0.00000000000E+00 0.  1.
         14    1    4    4    0    0 -0.75251008992E+01 -0.41623983587E+00 -0.73103892800E+01  0.10499628116E+02  0.00000000000E+00 0. -1.
        -13    1    3    3    0    0 -0.17726837781E+02  0.22142760919E+02 -0.42212143329E+02  0.50856736852E+02  0.00000000000E+00 0.  1.
         13    1    3    3    0    0  0.54052493891E+02 -0.50555881826E+02 -0.14452598627E+03  0.16237404346E+03  0.00000000000E+00 0. -1.
          1    1    1    2  501    0  0.28041588340E+02  0.23549051812E+01  0.54286074712E+02  0.61146170467E+02  0.00000000000E+00 0. -1.
<scales pt_clust_5="13000.00000" pt_clust_6="13000.00000" pt_clust_7="13000.00000" pt_clust_8="13000.00000" pt_clust_9="28.14030"></scales>
<clustering>
<clus scale="   28.140">  1  9  2 -1</clus>
<clus scale="   77.612">  5  6 -1 -1</clus>
<clus scale="   90.972">  1  5  2 -1</clus>
<clus scale="   92.029">  7  8 -1 -1</clus>
<clus scale="   28.140">  1  5  2 -1</clus>
</clustering>
</event>
<event>
 9    2  0.4653788E-005  0.9200178E+02  0.7546771E-02  0.1309217E+00
         -1   -1    0    0    0  501 -0.00000000000E+00  0.00000000000E+00  0.69593649406E+02  0.69593649406E+02  0.00000000000E+00 0.  1.
         21   -1    0    0  501  502  0.00000000000E+00 -0.00000000000E+00 -0.24320416521E+03  0.24320416521E+03  0.00000000000E+00 0.  1.
         24    2    1    2    0    0 -0.29824616451E+01  0.20822644793E+02 -0.66827915805E+01  0.77324365126E+02  0.74107490345E+02 0.  0.
         23    2    1    2    0    0  0.25715567677E+02  0.27409951683E+02 -0.58747014399E+02  0.11486564107E+03  0.91270520575E+02 0.  0.
        -13    1    3    3    0    0 -0.45030563538E+01  0.21474794694E+02  0.31893686769E+02  0.38712421513E+02  0.00000000000E+00 0.  1.
         14    1    3    3    0    0  0.15205947087E+01 -0.65214990108E+00 -0.38576478349E+02  0.38611943613E+02  0.00000000000E+00 0. -1.
        -11    1    4    4    0    0  0.27187225658E+02  0.52049211974E+02 -0.91022165924E+01  0.59423194571E+02  0.00000000000E+00 0.  1.
         11    1    4    4    0    0 -0.14716579810E+01 -0.24639260291E+02 -0.49644797807E+02  0.55442446502E+02  0.00000000000E+00 0. -1.
         -2    1    1    2    0  502 -0.22733106032E+02 -0.48232596476E+02 -0.10818070982E+03  0.12060780841E+03  0.00000000000E+00 0.  1.
<scales pt_clust_5="13000.00000" pt_clust_6="13000.00000" pt_clust_7="13000.00000" pt_clust_8="13000.00000" pt_clust_9="53.32145"></scales>
<clustering>
<clus scale="   53.321">  2  9  1 -1</clus>
<clus scale="   74.107">  5  6 -1 -1</clus>
<clus scale="   75.006">  1  5  2 -1</clus>
<clus scale="   91.271">  7  8 -1 -1</clus>
<clus scale="   53.321">  2  5  1 -1</clus>
</clustering>
</event>
<event>
 9    2  0.4653788E-005  0.1110185E+03  0.7546771E-02  0.1262741E+00
         21   -1    0    0  501  502  0.00000000000E+00  0.00000000000E+00  0.93186535601E+02  0.93186535601E+02  0.00000000000E+00 0. -1.
          4   -1    0    0  502    0 -0.00000000000E+00 -0.00000000000E+00 -0.31169774232E+03  0.31169774232E+03  0.00000000000E+00 0. -1.
         24    2    1    2    0    0  0.10779099701E+02 -0.99701684756E+02 -0.11925256269E+03  0.17512295247E+03  0.79939100831E+02 0.  0.
         23    2    1    2    0    0 -0.53577857491E+02  0.81268258722E+01 -0.59424695146E+02  0.12111312283E+03  0.90556402402E+02 0.  0.
        -13    1    3    3    0    0 -0.23349961335E+02 -0.12425529300E+02 -0.42756845920E+01  0.26793580415E+02  0.00000000000E+00 0.  1.
         14    1    3    3    0    0  0.34129061036E+02 -0.87276155456E+02 -0.11497687810E+03  0.14832937206E+03  0.00000000000E+00 0. -1.
        -11    1    4    4    0    0 -0.38980138072E+02 -0.38714990266E+02 -0.41599631538E+02  0.68911762272E+02  0.00000000000E+00 0. -1.
         11    1    4    4    0    0 -0.14597719419E+02  0.46841816138E+02 -0.17825063608E+02  0.52201360557E+02  0.00000000000E+00 0.  1.
          3    1    1    2  501    0  0.42798757790E+02  0.91574858884E+02 -0.39833948880E+02  0.10864820261E+03  0.00000000000E+00 0. -1.
<scales pt_clust_5="13000.00000" pt_clust_6="13000.00000" pt_clust_7="13000.00000" pt_clust_8="13000.00000" pt_clust_9="101.08258"></scales>
<clustering>
<clus scale="   79.939">  5  6 -1 -1</clus>
<clus scale="   90.556">  7  8 -1 -1</clus>
<clus scale="  101.083">  1  9  2 -1</clus>
<clus scale="  102.542">  2  5  1 -1</clus>
<clus scale="  101.083">  1  5  2 -1</clus>
</clustering>
</event>
<event>
 9    2  0.4653788E-005  0.1568762E+03  0.7546771E-02  0.1216846E+00
         21   -1    0    0  501  502  0.00000000000E+00  0.00000000000E+00  0.64786418209E+03  0.64786418209E+03  0.00000000000E+00 0. -1.
          4   -1    0    0  502    0 -0.00000000000E+00 -0.00000000000E+00 -0.98174250754E+02  0.98174250754E+02  0.00000000000E+00 0. -1.
         24    2    1    2    0    0 -0.43900303376E+02 -0.37750275347E+01  0.14890836236E+02  0.93556296690E+02  0.81176081312E+02 0.  0.
         23    2    1    2    0    0  0.28002260873E+02 -0.12494569790E+03  0.72798535240E+02  0.17262143739E+03  0.90016553343E+02 0.  0.
        -13    1    3    3    0    0 -0.35126840689E+02  0.21136961914E+02  0.39882224139E+02  0.57194911469E+02  0.00000000000E+00 0.  1.
         14    1    3    3    0    0 -0.87734626876E+01 -0.24911989449E+02 -0.24991387903E+02  0.36361385221E+02  0.00000000000E+00 0. -1.
        -11    1    4    4    0    0  0.45113828663E+02 -0.72284189129E+02  0.53774204397E+01  0.85376684085E+02  0.00000000000E+00 0.  1.
         11    1    4    4    0    0 -0.17111567790E+02 -0.52661508766E+02  0.67421114800E+02  0.87244753302E+02  0.00000000000E+00 0. -1.
          3    1    1    2  501    0  0.15898042503E+02  0.12872072543E+03  0.46200055986E+03  0.47986069877E+03  0.00000000000E+00 0. -1.
<scales pt_clust_5="13000.00000" pt_clust_6="13000.00000" pt_clust_7="13000.00000" pt_clust_8="13000.00000" pt_clust_9="128.48018"></scales>
<clustering>
<clus scale="   81.176">  5  6 -1 -1</clus>
<clus scale="   90.017">  7  8 -1 -1</clus>
<clus scale="   92.364">  2  5  1 -1</clus>
<clus scale="  128.480">  1  9  2 -1</clus>
<clus scale="  128.480">  1  5  2 -1</clus>
</clustering>
</event>
<event>
 9    2  0.4653788E-005  0.9138299E+02  0.7546771E-02  0.1302819E+00
         -1   -1    0    0    0  501 -0.00000000000E+00  0.00000000000E+00  0.10955916595E+03  0.10955916595E+03  0.00000000000E+00 0.  1.
         21   -1    0    0  501  502  0.00000000000E+00 -0.00000000000E+00 -0.19600276396E+03  0.19600276396E+03  0.00000000000E+00 0. -1.
         23    2    1    2    0    0 -0.16831651150E+02  0.64302500185E+01  0.67156809295E+02  0.11381385158E+03  0.90104956474E+02 0.  0.
         24    2    1    2    0    0 -0.53355317196E+01 -0.15304413015E+02 -0.94003060830E+02  0.12754544230E+03  0.84667416696E+02 0.  0.
        -13    1    4    4    0    0 -0.23557782564E+02 -0.23602596255E+02 -0.20202414563E+01  0.33408577414E+02  0.00000000000E+00 0.  1.
         14    1    4    4    0    0  0.18222250844E+02  0.82981832402E+01 -0.91982819374E+02  0.94136864888E+02  0.00000000000E+00 0. -1.
        -11    1    3    3    0    0 -0.44160525248E+02  0.86162561518E+01  0.73028299813E+02  0.85776013161E+02  0.00000000000E+00 0.  1.
         11    1    3    3    0    0  0.27328874098E+02 -0.21860061333E+01 -0.58714905187E+01  0.28037838419E+02  0.00000000000E+00 0. -1.
         -2    1    1    2    0  502  0.22167182869E+02  0.88741629961E+01 -0.59597346473E+02  0.64202636020E+02  0.00000000000E+00 0.  1.
<scales pt_clust_5="13000.00000" pt_clust_6="13000.00000" pt_clust_7="13000.00000" pt_clust_8="13000.00000" pt_clust_9="23.87749"></scales>
<clustering>
<clus scale="   23.877">  2  9  1 -1</clus>
<clus scale="   84.667">  5  6 -1 -1</clus>
<clus scale="   86.026">  2  5  1 -1</clus>
<clus scale="   90.105">  7  8 -1 -1</clus>
<clus scale="   23.877">  2  5  1 -1</clus>
</clustering>
</event>
<event>
 9    2  0.4653788E-005  0.1065724E+03  0.7546771E-02  0.1271652E+00
         -3   -1    0    0    0  501 -0.00000000000E+00  0.00000000000E+00  0.12846856252E+03  0.12846856252E+03  0.00000000000E+00 0.  1.
         21   -1    0    0  501  502  0.00000000000E+00 -0.00000000000E+00 -0.11450283972E+03  0.11450283972E+03  0.00000000000E+00 0. -1.
         24    2    1    2    0    0 -0.18610499374E+02  0.46060248354E+02  0.23186140610E+02  0.96679024348E+02  0.79632527695E+02 0.  0.
         23    2    1    2    0    0 -0.14815531526E+01 -0.69364654190E+02  0.40037222659E+00  0.11405349598E+03  0.90522866705E+02 0.  0.
        -13    1    3    3    0    0  0.13461463866E+02  0.48192808709E+02  0.36451043502E+02  0.61906674867E+02  0.00000000000E+00 0.  1.
         14    1    3    3    0    0 -0.32071963239E+02 -0.21325603556E+01 -0.13264902892E+02  0.34772349481E+02  0.00000000000E+00 0. -1.
        -11    1    4    4    0    0  0.51399867389E+01 -0.36348227940E+02 -0.44653421115E+02  0.57806065039E+02  0.00000000000E+00 0. -1.
         11    1    4    4    0    0 -0.66215398914E+01 -0.33016426250E+02  0.45053793342E+02  0.56247430940E+02  0.00000000000E+00 0.  1.
         -4    1    1    2    0  502  0.20092052526E+02  0.23304405836E+02 -0.96207900323E+01  0.32238881912E+02  0.00000000000E+00 0.  1.
<scales pt_clust_5="13000.00000" pt_clust_6="13000.00000" pt_clust_7="13000.00000" pt_clust_8="13000.00000" pt_clust_9="30.76989"></scales>
<clustering>
<clus scale="   30.770">  2  9  1 -1</clus>
<clus scale="   79.633">  5  6 -1 -1</clus>
<clus scale="   90.523">  7  8 -1 -1</clus>
<clus scale="   97.492">  1  5  2 -1</clus>
<clus scale="   30.770">  2  5  1 -1</clus>
</clustering>
</event>
<event>
 9    2  0.4653788E-005  0.1628904E+03  0.7546771E-02  0.1216859E+00
         21   -1    0    0  501  502  0.00000000000E+00  0.00000000000E+00  0.41574643753E+02  0.41574643753E+02  0.00000000000E+00 0.  1.
          4   -1    0    0  502    0 -0.00000000000E+00 -0.00000000000E+00 -0.91189114514E+03  0.91189114514E+03  0.00000000000E+00 0. -1.
         24    2    1    2    0    0  0.64200771050E+01 -0.16420635467E+02 -0.23546723476E+03  0.24949652057E+03  0.80578163754E+02 0.  0.
         23    2    1    2    0    0  0.12477051008E+03 -0.36392118098E+02 -0.27868683825E+03  0.32075675222E+03  0.91249514174E+02 0.  0.
        -11    1    3    3    0    0 -0.28542760442E+02 -0.22257777294E+02 -0.18048419327E+03  0.18407781465E+03  0.00000000000E+00 0.  1.
         12    1    3    3    0    0  0.34962837547E+02  0.58371418272E+01 -0.54983041483E+02  0.65418705924E+02  0.00000000000E+00 0. -1.
        -11    1    4    4    0    0  0.92997075523E+02 -0.66868665543E+02 -0.20893266897E+03  0.23827029746E+03  0.00000000000E+00 0.  1.
         11    1    4    4    0    0  0.31773434557E+02  0.30476547446E+02 -0.69754169280E+02  0.82486454765E+02  0.00000000000E+00 0. -1.
          3    1    1    2  501    0 -0.13119058719E+03  0.52812753565E+02 -0.35616242838E+03  0.38321251610E+03  0.00000000000E+00 0. -1.
<scales pt_clust_5="13000.00000" pt_clust_6="13000.00000" pt_clust_7="13000.00000" pt_clust_8="13000.00000" pt_clust_9="134.93272"></scales>
<clustering>
<clus scale="   80.578">  5  6 -1 -1</clus>
<clus scale="   82.485">  2  5  1 -1</clus>
<clus scale="   91.250">  7  8 -1 -1</clus>
<clus scale="  134.933">  1  9  2 -1</clus>
<clus scale="  134.933">  1  5  2 -1</clus>
</clustering>
</event>
<event>
 9    2  0.4653788E-005  0.1165572E+03  0.7546771E-02  0.1252349E+00
          2   -1    0    0  502    0 -0.00000000000E+00  0.00000000000E+00  0.52434684036E+03  0.52434684036E+03  0.00000000000E+00 0. -1.
         21   -1    0    0  501  502  0.00000000000E+00 -0.00000000000E+00 -0.11094868914E+03  0.11094868914E+03  0.00000000000E+00 0.  1.
         23    2    1    2    0    0  0.66636010178E+02 -0.20356424671E+02  0.43366896441E+03  0.44877630484E+03  0.92068774374E+02 0.  0.
         24    2    1    2    0    0 -0.71035434459E+02  0.72776066544E+02 -0.27268341191E+02  0.13345191658E+03  0.81996724313E+02 0.  0.
        -11    1    4    4    0    0 -0.39604266745E+02  0.86549226483E+02 -0.27712898422E+02  0.99132594479E+02  0.00000000000E+00 0.  1.
         12    1    4    4    0    0 -0.31431167714E+02 -0.13773159939E+02  0.44455723065E+00  0.34319322104E+02  0.00000000000E+00 0. -1.
        -13    1    3    3    0    0 -0.97138948645E+01 -0.34265038276E+02  0.18047819796E+03  0.18395877946E+03  0.00000000000E+00 0. -1.
         13    1    3    3    0    0  0.76349905042E+02  0.13908613605E+02  0.25319076645E+03  0.26481752538E+03  0.00000000000E+00 0.  1.
          1    1    1    2  501    0  0.43994242810E+01 -0.52419641873E+02  0.69975279971E+01  0.53067308073E+02  0.00000000000E+00 0. -1.
<scales pt_clust_5="13000.00000" pt_clust_6="13000.00000" pt_clust_7="13000.00000" pt_clust_8="13000.00000" pt_clust_9="52.60393"></scales>
<clustering>
<clus scale="   52.604">  2  9  1 -1</clus>
<clus scale="   81.997">  5  6 -1 -1</clus>
<clus scale="   92.069">  7  8 -1 -1</clus>
<clus scale="  108.777">  2  5  1 -1</clus>
<clus scale="   52.604">  2  5  1 -1</clus>
</clustering>
</event>
<event>
 9    2  0.4653788E-005  0.1061457E+03  0.7546771E-02  0.1272093E+00
         -1   -1    0    0    0  501 -0.00000000000E+00  0.00000000000E+00  0.15588333111E+03  0.15588333111E+03  0.00000000000E+00 0.  1.
         21   -1    0    0  501  502  0.00000000000E+00 -0.00000000000E+00 -0.15738320733E+03  0.15738320733E+03  0.00000000000E+00 0. -1.
         23    2    1    2    0    0 -0.49593342978E+02 -0.52944894868E+02  0.80661688839E+02  0.14130625596E+03  0.90545504402E+02 0.  0.
         24    2    1    2    0    0  0.28817821548E+00  0.97331302412E+01 -0.65412069793E+02  0.10429344078E+03  0.80644690113E+02 0.  0.
        -11    1    4    4    0    0 -0.11731144690E+01 -0.31218303919E+02 -0.55192630364E+01  0.31724138469E+02  0.00000000000E+00 0.  1.
         12    1    4    4    0    0  0.14612926845E+01  0.40951434161E+02 -0.59892806757E+02  0.72569302307E+02  0.00000000000E+00 0. -1.
        -11    1    3    3    0    0  0.25576708475E+01 -0.62804294933E+02  0.46516592490E+02  0.78196640075E+02  0.00000000000E+00 0.  1.
         11    1    3    3    0    0 -0.52151013826E+02  0.98594000648E+01  0.34145096349E+02  0.63109615887E+02  0.00000000000E+00 0. -1.
         -2    1    1    2    0  502  0.49305164763E+02  0.43211764627E+02 -0.16749495256E+02  0.67666841701E+02  0.00000000000E+00 0.  1.
<scales pt_clust_5="13000.00000" pt_clust_6="13000.00000" pt_clust_7="13000.00000" pt_clust_8="13000.00000" pt_clust_9="65.56109"></scales>
<clustering>
<clus scale="   65.561">  2  9  1 -1</clus>
<clus scale="   80.645">  5  6 -1 -1</clus>
<clus scale="   90.546">  7  8 -1 -1</clus>
<clus scale="   97.837">  2  5  1 -1</clus>
<clus scale="   65.561">  2  5  1 -1</clus>
</clustering>
</event>
<event>
 9    2  0.4653788E-005  0.1124753E+03  0.7546771E-02  0.1259914E+00
         21   -1    0    0  501  502  0.00000000000E+00  0.00000000000E+00  0.32794563982E+02  0.32794563982E+02  0.00000000000E+00 0. -1.
         -3   -1    0    0    0  501 -0.00000000000E+00 -0.00000000000E+00 -0.55009230258E+03  0.55009230258E+03  0.00000000000E+00 0.  1.
         23    2    1    2    0    0  0.28541635368E+02  0.67818797193E+02 -0.32242520182E+03  0.34303098303E+03  0.91094623048E+02 0.  0.
         24    2    1    2    0    0 -0.30052344937E+02 -0.41815172728E+02 -0.88588172827E+02  0.13042628630E+03  0.80693864004E+02 0.  0.
        -13    1    4    4    0    0  0.98024038009E+00 -0.41232226125E+02 -0.90370362921E+02  0.99337102016E+02  0.00000000000E+00 0.  1.
         14    1    4    4    0    0 -0.31032585317E+02 -0.58294660271E+00  0.17821900944E+01  0.31089184289E+02  0.00000000000E+00 0. -1.
        -13    1    3    3    0    0  0.26269993072E+02  0.14207600409E+02 -0.20144511942E+02  0.36024572263E+02  0.00000000000E+00 0. -1.
         13    1    3    3    0    0  0.22716422965E+01  0.53611196783E+02 -0.30228068987E+03  0.30700641076E+03  0.00000000000E+00 0.  1.
         -4    1    1    2    0  502  0.15107095685E+01 -0.26003624465E+02 -0.10628436396E+03  0.10942959723E+03  0.00000000000E+00 0.  1.
<scales pt_clust_5="13000.00000" pt_clust_6="13000.00000" pt_clust_7="13000.00000" pt_clust_8="13000.00000" pt_clust_9="26.04748"></scales>
<clustering>
<clus scale="   26.047">  1  9  2 -1</clus>
<clus scale="   80.694">  5  6 -1 -1</clus>
<clus scale="   91.095">  7  8 -1 -1</clus>
<clus scale="  104.230">  1  5  2 -1</clus>
<clus scale="   26.047">  1  5  2 -1</clus>
</clustering>
</event>
<event>
 9    2  0.4653788E-005  0.1122562E+03  0.7546771E-02  0.1259741E+00
         21   -1    0    0  501  502  0.00000000000E+00  0.00000000000E+00  0.52850486793E+02  0.52850486793E+02  0.00000000000E+00 0. -1.
         -1   -1    0    0    0  501 -0.00000000000E+00 -0.00000000000E+00 -0.36355705896E+03  0.36355705896E+03  0.00000000000E+00 0.  1.
         23    2    1    2    0    0  0.88442149957E+01 -0.57102400265E+02 -0.21181026167E+03  0.23793864612E+03  0.91718635580E+02 0.  0.
         24    2    1    2    0    0  0.87928798845E+01  0.80899892897E+02 -0.91623765776E+02  0.14796844590E+03  0.82931532724E+02 0.  0.
        -11    1    4    4    0    0  0.28331606628E+02  0.36896581167E+02 -0.88181205794E+02  0.99699361539E+02  0.00000000000E+00 0.  1.
         12    1    4    4    0    0 -0.19538726743E+02  0.44003311730E+02 -0.34425599824E+01  0.48269084363E+02  0.00000000000E+00 0. -1.
        -11    1    3    3    0    0  0.24810518997E+02 -0.73276732069E+02 -0.19465018361E+03  0.20946058172E+03  0.00000000000E+00 0.  1.
         11    1    3    3    0    0 -0.15966304001E+02  0.16174331804E+02 -0.17160078063E+02  0.28478064399E+02  0.00000000000E+00 0. -1.
         -2    1    1    2    0  502 -0.17637094880E+02 -0.23797492633E+02 -0.72725447219E+01  0.30500453737E+02  0.00000000000E+00 0.  1.
<scales pt_clust_5="13000.00000" pt_clust_6="13000.00000" pt_clust_7="13000.00000" pt_clust_8="13000.00000" pt_clust_9="29.62073"></scales>
<clustering>
<clus scale="   29.621">  1  9  2 -1</clus>
<clus scale="   82.932">  5  6 -1 -1</clus>
<clus scale="   91.719">  7  8 -1 -1</clus>
<clus scale="  105.199">  1  5  2 -1</clus>
<clus scale="   29.621">  1  5  2 -1</clus>
</clustering>
</event>
<event>
 9    2  0.4653788E-005  0.3426900E+03  0.7546771E-02  0.1083038E+00
         21   -1    0    0  501  502  0.00000000000E+00  0.00000000000E+00  0.46592631286E+03  0.46592631286E+03  0.00000000000E+00 0. -1.
          2   -1    0    0  502    0 -0.00000000000E+00 -0.00000000000E+00 -0.46296463055E+03  0.46296463055E+03  0.00000000000E+00 0. -1.
         23    2    1    2    0    0  0.69300299842E+02 -0.18149787247E+03 -0.41170886356E+02  0.21740687979E+03  0.88468639797E+02 0.  0.
         24    2    1    2    0    0  0.27589411554E+03  0.21083630434E+03  0.73490012106E+02  0.36380348107E+03  0.79891681317E+02 0.  0.
        -11    1    4    4    0    0  0.46377345201E+02  0.29539195418E+02  0.42867713957E+02  0.69721324670E+02  0.00000000000E+00 0.  1.
         12    1    4    4    0    0  0.22951677034E+03  0.18129710892E+03  0.30622298149E+02  0.29408215640E+03  0.00000000000E+00 0. -1.
        -13    1    3    3    0    0  0.44991269543E+02 -0.16804818272E+03 -0.59799639123E+02  0.18395761167E+03  0.00000000000E+00 0. -1.
         13    1    3    3    0    0  0.24309030300E+02 -0.13449689751E+02  0.18628752767E+02  0.33449268126E+02  0.00000000000E+00 0.  1.
          1    1    1    2  501    0 -0.34519441539E+03 -0.29338431865E+02 -0.29357443439E+02  0.34768058255E+03  0.00000000000E+00 0. -1.
<scales pt_clust_5="13000.00000" pt_clust_6="13000.00000" pt_clust_7="13000.00000" pt_clust_8="13000.00000" pt_clust_9="333.24749"></scales>
<clustering>
<clus scale="   79.892">  5  6 -1 -1</clus>
<clus scale="   88.469">  7  8 -1 -1</clus>
<clus scale="  213.473">  2  7  1 -1</clus>
<clus scale="  333.247">  1  9  2 -1</clus>
<clus scale="  333.247">  1  5  2 -1</clus>
</clustering>
</event>
<event>
 9    2  0.4653788E-005  0.9364372E+02  0.7546771E-02  0.1295469E+00
         21   -1    0    0  501  502  0.00000000000E+00  0.00000000000E+00  0.12085080275E+02  0.12085080275E+02  0.00000000000E+00 0.  1.
         -3   -1    0    0    0  501 -0.00000000000E+00 -0.00000000000E+00 -0.18124083744E+04  0.18124083744E+04  0.00000000000E+00 0.  1.
         24    2    1    2    0    0  0.34860803642E+02 -0.42795991891E+02 -0.65951785044E+03  0.66788244791E+03  0.89757432150E+02 0.  0.
         23    2    1    2    0    0  0.43835471238E+01 -0.36118201528E+02 -0.49004175182E+03  0.49990639155E+03  0.91878952008E+02 0.  0.
        -11    1    3    3    0    0  0.34825654044E+02 -0.62095340354E+02 -0.32034225985E+03  0.32815822543E+03  0.00000000000E+00 0.  1.
         12    1    3    3    0    0  0.35149598193E-01  0.19299348463E+02 -0.33917559059E+03  0.33972422248E+03  0.00000000000E+00 0. -1.
        -13    1    4    4    0    0  0.35792532758E+02  0.14269313052E+02 -0.16068069621E+03  0.16523620920E+03  0.00000000000E+00 0.  1.
         13    1    4    4    0    0 -0.31408985634E+02 -0.50387514580E+02 -0.32936105561E+03  0.33467018235E+03  0.00000000000E+00 0. -1.
         -4    1    1    2    0  502 -0.39244350766E+02  0.78914193420E+02 -0.65076369189E+03  0.65670461524E+03  0.00000000000E+00 0.  1.
<scales pt_clust_5="13000.00000" pt_clust_6="13000.00000" pt_clust_7="13000.00000" pt_clust_8="13000.00000" pt_clust_9="88.13386"></scales>
<clustering>
<clus scale="   88.134">  1  9  2 -1</clus>
<clus scale="   89.757">  5  6 -1 -1</clus>
<clus scale="   91.563">  2  5  1 -1</clus>
<clus scale="   91.879">  7  8 -1 -1</clus>
<clus scale="   88.134">  1  5  2 -1</clus>
</clustering>
</event>
<event>
 9    2  0.4653788E-005  0.1027318E+03  0.7546771E-02  0.1280026E+00
         21   -1    0    0  501  502  0.00000000000E+00  0.00000000000E+00  0.46684010875E+02  0.46684010875E+02  0.00000000000E+00 0. -1.
          4   -1    0    0  502    0 -0.00000000000E+00 -0.00000000000E+00 -0.51959198753E+03  0.51959198753E+03  0.00000000000E+00 0. -1.
         23    2    1    2    0    0 -0.23377062157E+02 -0.39435342137E+02 -0.28635252476E+03  0.30349577407E+03  0.89500185471E+02 0.  0.
         24    2    1    2    0    0  0.76141504675E+02  0.27110580299E+02 -0.64887824503E+02  0.12959239567E+03  0.77789761207E+02 0.  0.
        -11    1    4    4    0    0  0.57780190137E+02  0.48812981392E+02 -0.23167296868E+02  0.79107402743E+02  0.00000000000E+00 0.  1.
         12    1    4    4    0    0  0.18361314538E+02 -0.21702401092E+02 -0.41720527635E+02  0.50484992927E+02  0.00000000000E+00 0. -1.
        -11    1    3    3    0    0 -0.78765725044E+01  0.24683270935E+02 -0.34488691768E+02  0.43136691092E+02  0.00000000000E+00 0.  1.
         11    1    3    3    0    0 -0.15500489653E+02 -0.64118613071E+02 -0.25186383299E+03  0.26035908298E+03  0.00000000000E+00 0. -1.
          3    1    1    2  501    0 -0.52764442517E+02  0.12324761837E+02 -0.12166762740E+03  0.13318782867E+03  0.00000000000E+00 0. -1.
<scales pt_clust_5="13000.00000" pt_clust_6="13000.00000" pt_clust_7="13000.00000" pt_clust_8="13000.00000" pt_clust_9="54.18477"></scales>
<clustering>
<clus scale="   54.185">  1  9  2 -1</clus>
<clus scale="   77.790">  5  6 -1 -1</clus>
<clus scale="   89.500">  7  8 -1 -1</clus>
<clus scale="   92.708">  1  5  2 -1</clus>
<clus scale="   54.185">  1  5  2 -1</clus>
</clustering>
</event>
<event>
 9    2  0.4653788E-005  0.1000511E+03  0.7546771E-02  0.1290653E+00
          2   -1    0    0  502    0 -0.00000000000E+00  0.00000000000E+00  0.29064934122E+03  0.29064934122E+03  0.00000000000E+00 0. -1.
         21   -1    0    0  501  502  0.00000000000E+00 -0.00000000000E+00 -0.56498093939E+02  0.56498093939E+02  0.00000000000E+00 0. -1.
         24    2    1    2    0    0  0.16081150967E+02 -0.18425551051E+02  0.10671378111E+03  0.13228217772E+03  0.74247148875E+02 0.  0.
         23    2    1    2    0    0 -0.67326708543E+02 -0.15391437239E+01  0.10305252310E+03  0.15470445910E+03  0.93693076056E+02 0.  0.
        -11    1    3    3    0    0 -0.12125212712E+02 -0.17265972481E+02  0.10138052939E+03  0.10355262589E+03  0.00000000000E+00 0.  1.
         12    1    3    3    0    0  0.28206363680E+02 -0.11595785705E+01  0.53332517162E+01  0.28729551830E+02  0.00000000000E+00 0. -1.
        -11    1    4    4    0    0 -0.89241643849E+02  0.98832053549E+01  0.72469044454E+02  0.11538418934E+03  0.00000000000E+00 0. -1.
         11    1    4    4    0    0  0.21914935306E+02 -0.11422349079E+02  0.30583478645E+02  0.39320269759E+02  0.00000000000E+00 0.  1.
          1    1    1    2  501    0  0.51245557575E+02  0.19964694775E+02  0.24384943077E+02  0.60160798346E+02  0.00000000000E+00 0. -1.
<scales pt_clust_5="13000.00000" pt_clust_6="13000.00000" pt_clust_7="13000.00000" pt_clust_8="13000.00000" pt_clust_9="54.99724"></scales>
<clustering>
<clus scale="   54.997">  2  9  1 -1</clus>
<clus scale="   74.247">  5  6 -1 -1</clus>
<clus scale="   82.125">  1  5  2 -1</clus>
<clus scale="   93.693">  7  8 -1 -1</clus>
<clus scale="   54.997">  2  5  1 -1</clus>
</clustering>
</event>
<event>
 9    2  0.4653788E-005  0.1554983E+03  0.7546771E-02  0.1195726E+00
         -1   -1    0    0    0  501 -0.00000000000E+00  0.00000000000E+00  0.16345487056E+04  0.16345487056E+04  0.00000000000E+00 0.  1.
         21   -1    0    0  501  502  0.00000000000E+00 -0.00000000000E+00 -0.21022766629E+02  0.21022766629E+02  0.00000000000E+00 0.  1.
         23    2    1    2    0    0  0.15277294740E+02  0.98749012240E+02  0.55637043332E+03  0.57279375639E+03  0.92519539148E+02 0.  0.
         24    2    1    2    0    0  0.31102681191E+01 -0.15482876012E+03  0.80010677364E+03  0.81904093188E+03  0.81704223479E+02 0.  0.
        -13    1    4    4    0    0  0.25360012899E+02 -0.13347511434E+03  0.72873284457E+03  0.74128961625E+03  0.00000000000E+00 0.  1.
         14    1    4    4    0    0 -0.22249744780E+02 -0.21353645780E+02  0.71373929075E+02  0.77751315632E+02  0.00000000000E+00 0. -1.
        -11    1    3    3    0    0 -0.23025020635E+02 -0.34988252373E+01  0.56014280168E+02  0.60662945329E+02  0.00000000000E+00 0. -1.
         11    1    3    3    0    0  0.38302315375E+02  0.10224783748E+03  0.50035615316E+03  0.51213081106E+03  0.00000000000E+00 0.  1.
         -2    1    1    2    0  502 -0.18387562859E+02  0.56079747883E+02  0.25704873196E+03  0.26373678393E+03  0.00000000000E+00 0.  1.
<scales pt_clust_5="13000.00000" pt_clust_6="13000.00000" pt_clust_7="13000.00000" pt_clust_8="13000.00000" pt_clust_9="59.01732"></scales>
<clustering>
<clus scale="   59.017">  2  9  1 -1</clus>
<clus scale="   81.704">  5  6 -1 -1</clus>
<clus scale="   92.520">  7  8 -1 -1</clus>
<clus scale="  149.317">  2  5  1 -1</clus>
<clus scale="   59.017">  2  5  1 -1</clus>
</clustering>
</event>
<event>
 9    2  0.4653788E-005  0.9193998E+02  0.7546771E-02  0.1303578E+00
          2   -1    0    0  502    0 -0.00000000000E+00  0.00000000000E+00  0.48812933199E+03  0.48812933199E+03  0.00000000000E+00 0. -1.
         21   -1    0    0  501  502  0.00000000000E+00 -0.00000000000E+00 -0.29991811347E+02  0.29991811347E+02  0.00000000000E+00 0.  1.
         23    2    1    2    0    0  0.19590556382E+02 -0.29459605772E+02  0.26580605874E+03  0.28199125175E+03  0.87261371346E+02 0.  0.
         24    2    1    2    0    0  0.29363174682E+02  0.27902606422E+02  0.12158261955E+03  0.15008170319E+03  0.78111668678E+02 0.  0.
        -11    1    4    4    0    0  0.51282389735E+02  0.16982773939E+02  0.47080199626E+02  0.71657820958E+02  0.00000000000E+00 0.  1.
         12    1    4    4    0    0 -0.21919215053E+02  0.10919832483E+02  0.74502419926E+02  0.78423882235E+02  0.00000000000E+00 0. -1.
        -11    1    3    3    0    0  0.22325904206E+02 -0.59727418663E+02  0.17855837106E+03  0.18960195783E+03  0.00000000000E+00 0. -1.
         11    1    3    3    0    0 -0.27353478238E+01  0.30267812891E+02  0.87247687678E+02  0.92389293915E+02  0.00000000000E+00 0.  1.
          1    1    1    2  501    0 -0.48953731064E+02  0.15569993501E+01  0.70748842354E+02  0.86048188398E+02  0.00000000000E+00 0. -1.
<scales pt_clust_5="13000.00000" pt_clust_6="13000.00000" pt_clust_7="13000.00000" pt_clust_8="13000.00000" pt_clust_9="48.97849"></scales>
<clustering>
<clus scale="   48.978">  2  9  1 -1</clus>
<clus scale="   78.112">  5  6 -1 -1</clus>
<clus scale="   83.306">  2  5  1 -1</clus>
<clus scale="   87.261">  7  8 -1 -1</clus>
<clus scale="   48.978">  2  5  1 -1</clus>
</clustering>
</event>
<event>
 9    2  0.4653788E-005  0.1016213E+03  0.7546771E-02  0.1282989E+00
         21   -1    0    0  501  502  0.00000000000E+00  0.00000000000E+00  0.30943041878E+02  0.30943041878E+02  0.00000000000E+00 0. -1.
          2   -1    0    0  502    0 -0.00000000000E+00 -0.00000000000E+00 -0.16970563202E+04  0.16970563202E+04  0.00000000000E+00 0. -1.
         24    2    1    2    0    0  0.16504000572E+02 -0.45716743617E+02 -0.14787416239E+04  0.14816113558E+04  0.78313577875E+02 0.  0.
         23    2    1    2    0    0 -0.30297833850E+02 -0.12665088699E+02 -0.90249457830E+02  0.13223272065E+03  0.90896449680E+02 0.  0.
        -13    1    3    3    0    0 -0.18166280314E+02 -0.15475471341E+02 -0.13572933677E+03  0.13781130873E+03  0.00000000000E+00 0.  1.
         14    1    3    3    0    0  0.34670280887E+02 -0.30241272276E+02 -0.13430122872E+04  0.13438000470E+04  0.00000000000E+00 0. -1.
        -11    1    4    4    0    0 -0.46115844933E+02 -0.30937382546E+02 -0.92574870955E+02  0.10795322841E+03  0.00000000000E+00 0. -1.
         11    1    4    4    0    0  0.15818011083E+02  0.18272293847E+02  0.23254131254E+01  0.24279492237E+02  0.00000000000E+00 0.  1.
          1    1    1    2  501    0  0.13793833278E+02  0.58381832316E+02 -0.97122196547E+02  0.11415528566E+03  0.00000000000E+00 0. -1.
<scales pt_clust_5="13000.00000" pt_clust_6="13000.00000" pt_clust_7="13000.00000" pt_clust_8="13000.00000" pt_clust_9="59.98923"></scales>
<clustering>
<clus scale="   59.989">  1  9  2 -1</clus>
<clus scale="   78.314">  5  6 -1 -1</clus>
<clus scale="   90.541">  2  5  1 -1</clus>
<clus scale="   90.896">  7  8 -1 -1</clus>
<clus scale="   59.989">  1  5  2 -1</clus>
</clustering>
</event>
<event>
 9    2  0.4653788E-005  0.9704027E+02  0.7546771E-02  0.1294596E+00
         21   -1    0    0  501  502  0.00000000000E+00  0.00000000000E+00  0.46052897946E+02  0.46052897946E+02  0.00000000000E+00 0.  1.
          2   -1    0    0  502    0 -0.00000000000E+00 -0.00000000000E+00 -0.56754123870E+03  0.56754123870E+03  0.00000000000E+00 0. -1.
         23    2    1    2    0    0 -0.34474180057E+02 -0.14167032024E+01 -0.18890274015E+03  0.21416306392E+03  0.94821393010E+02 0.  0.
         24    2    1    2    0    0 -0.15715916276E+02 -0.22013343928E+02 -0.28085007918E+02  0.89933699839E+02  0.81041503945E+02 0.  0.
        -11    1    4    4    0    0 -0.14467193145E+02 -0.23110382938E+02  0.24899036400E+02  0.36923589894E+02  0.00000000000E+00 0.  1.
         12    1    4    4    0    0 -0.12487231310E+01  0.10970390098E+01 -0.52984044318E+02  0.53010109944E+02  0.00000000000E+00 0. -1.
        -13    1    3    3    0    0 -0.52764252157E+02 -0.34259859134E+02 -0.10883468060E+03  0.12570915621E+03  0.00000000000E+00 0.  1.
         13    1    3    3    0    0  0.18290072099E+02  0.32843155932E+02 -0.80068059548E+02  0.88453907708E+02  0.00000000000E+00 0. -1.
          1    1    1    2  501    0  0.50190096333E+02  0.23430047131E+02 -0.30450059269E+03  0.30949737289E+03  0.00000000000E+00 0. -1.
<scales pt_clust_5="13000.00000" pt_clust_6="13000.00000" pt_clust_7="13000.00000" pt_clust_8="13000.00000" pt_clust_9="55.38967"></scales>
<clustering>
<clus scale="   55.390">  1  9  2 -1</clus>
<clus scale="   81.042">  5  6 -1 -1</clus>
<clus scale="   83.627">  1  5  2 -1</clus>
<clus scale="   94.821">  7  8 -1 -1</clus>
<clus scale="   55.390">  1  5  2 -1</clus>
</clustering>
</event>
<event>
 9    2  0.4653788E-005  0.1031263E+03  0.7546771E-02  0.1280326E+00
         21   -1    0    0  501  502  0.00000000000E+00  0.00000000000E+00  0.14009512941E+03  0.14009512941E+03  0.00000000000E+00 0. -1.
          2   -1    0    0  502    0 -0.00000000000E+00 -0.00000000000E+00 -0.32785909834E+03  0.32785909834E+03  0.00000000000E+00 0. -1.
         23    2    1    2    0    0  0.39490224193E+02 -0.17275078353E+02 -0.27220916663E+03  0.29125864645E+03  0.94211796475E+02 0.  0.
         24    2    1    2    0    0 -0.46351579834E+02 -0.27684310007E+02  0.22470301634E+02  0.99823528205E+02  0.80900756203E+02 0.  0.
        -13    1    4    4    0    0 -0.45277739956E+02  0.19330739884E+02  0.18633738328E+02  0.52639979522E+02  0.00000000000E+00 0.  1.
         14    1    4    4    0    0 -0.10738398770E+01 -0.47015049891E+02  0.38365633064E+01  0.47183548683E+02  0.00000000000E+00 0. -1.
        -11    1    3    3    0    0 -0.66064231463E+01 -0.29863713622E+02 -0.25084588936E+02  0.39556577458E+02  0.00000000000E+00 0.  1.
         11    1    3    3    0    0  0.46096647339E+02  0.12588635269E+02 -0.24712457770E+03  0.25170206899E+03  0.00000000000E+00 0. -1.
          1    1    1    2  501    0  0.68613556403E+01  0.44959388359E+02  0.61974896071E+02  0.76872053088E+02  0.00000000000E+00 0. -1.
<scales pt_clust_5="13000.00000" pt_clust_6="13000.00000" pt_clust_7="13000.00000" pt_clust_8="13000.00000" pt_clust_9="45.47994"></scales>
<clustering>
<clus scale="   45.480">  1  9  2 -1</clus>
<clus scale="   80.901">  5  6 -1 -1</clus>
<clus scale="   91.127">  1  5  2 -1</clus>
<clus scale="   94.212">  7  8 -1 -1</clus>
<clus scale="   45.480">  1  5  2 -1</clus>
</clustering>
</event>
<event>
 9    2  0.4653788E-005  0.1196100E+03  0.7546771E-02  0.1253601E+00
          2   -1    0    0  502    0 -0.00000000000E+00  0.00000000000E+00  0.46151831853E+03  0.46151831853E+03  0.00000000000E+00 0. -1.
         21   -1    0    0  501  502  0.00000000000E+00 -0.00000000000E+00 -0.11100071612E+03  0.11100071612E+03  0.00000000000E+00 0.  1.
         24    2    1    2    0    0 -0.38071567913E+02  0.36467159435E+02  0.33059400949E+03  0.34443608727E+03  0.81021732276E+02 0.  0.
         23    2    1    2    0    0  0.34676822552E+01 -0.10228947756E+03  0.36738119436E+02  0.15184165432E+03  0.10597658481E+03 0.  0.
        -13    1    3    3    0    0  0.25303960434E+02  0.63727731592E+01  0.10439502031E+03  0.10760679773E+03  0.00000000000E+00 0.  1.
         14    1    3    3    0    0 -0.63375528347E+02  0.30094386276E+02  0.22619898918E+03  0.23682928954E+03  0.00000000000E+00 0. -1.
        -13    1    4    4    0    0  0.11838114427E+02  0.20490803792E+02  0.11080045391E+02  0.26130086091E+02  0.00000000000E+00 0. -1.
         13    1    4    4    0    0 -0.83704321714E+01 -0.12278028135E+03  0.25658074045E+02  0.12571156823E+03  0.00000000000E+00 0.  1.
          1    1    1    2  501    0  0.34603885658E+02  0.65822318121E+02 -0.16814526520E+02  0.76241293060E+02  0.00000000000E+00 0. -1.
<scales pt_clust_5="13000.00000" pt_clust_6="13000.00000" pt_clust_7="13000.00000" pt_clust_8="13000.00000" pt_clust_9="74.36401"></scales>
<clustering>
<clus scale="   74.364">  2  9  1 -1</clus>
<clus scale="   81.022">  5  6 -1 -1</clus>
<clus scale="   98.184">  1  5  2 -1</clus>
<clus scale="  105.977">  7  8 -1 -1</clus>
<clus scale="   74.364">  2  5  1 -1</clus>
</clustering>
</event>
<event>
 9    2  0.8189866E-005  0.1007965E+03  0.7546771E-02  0.1284781E+00
          2   -1    0    0  502    0 -0.00000000000E+00  0.00000000000E+00  0.80249857318E+03  0.80249857318E+03  0.00000000000E+00 0. -1.
         21   -1    0    0  501  502  0.00000000000E+00 -0.00000000000E+00 -0.21712318873E+03  0.21712318873E+03  0.00000000000E+00 0. -1.
         24    2    1    2    0    0  0.36270089685E+02  0.26199191625E+02  0.67446886481E+03  0.68066364674E+03  0.79955195939E+02 0.  0.
         23    2    1    2    0    0 -0.17089442756E+02 -0.53239433217E+01  0.10609498181E+03  0.14172168605E+03  0.92241518343E+02 0.  0.
        -13    1    3    3    0    0 -0.66158692527E+01 -0.20303357322E+02  0.78694516582E+02  0.81540315088E+02  0.00000000000E+00 0.  1.
         14    1    3    3    0    0  0.42885958938E+02  0.46502548946E+02  0.59577434822E+03  0.59912333166E+03  0.00000000000E+00 0. -1.
        -11    1    4    4    0    0  0.32246044787E+02  0.20550639210E+02  0.41926549135E+02  0.56744794464E+02  0.00000000000E+00 0. -1.
         11    1    4    4    0    0 -0.49335487543E+02 -0.25874582532E+02  0.64168432673E+02  0.84976891589E+02  0.00000000000E+00 0.  1.
          1    1    1    2  501    0 -0.19180646929E+02 -0.20875248303E+02 -0.19518846216E+03  0.19723642911E+03  0.00000000000E+00 0. -1.
<scales pt_clust_5="13000.00000" pt_clust_6="13000.00000" pt_clust_7="13000.00000" pt_clust_8="13000.00000" pt_clust_9="28.34913"></scales>
<clustering>
<clus scale="   28.349">  2  9  1 -1</clus>
<clus scale="   79.955">  5  6 -1 -1</clus>
<clus scale="   89.690">  1  5  2 -1</clus>
<clus scale="   92.242">  7  8 -1 -1</clus>
<clus scale="   28.349">  2  5  1 -1</clus>
</clustering>
</event>
<event>
 9    2  0.4653788E-005  0.1549954E+03  0.7546771E-02  0.1195698E+00
          2   -1    0    0  502    0 -0.00000000000E+00  0.00000000000E+00  0.74082944922E+03  0.74082944922E+03  0.00000000000E+00 0. -1.
         21   -1    0    0  501  502  0.00000000000E+00 -0.00000000000E+00 -0.87112879564E+02  0.87112879564E+02  0.00000000000E+00 0.  1.
         24    2    1    2    0    0  0.11841712403E+03  0.58223352633E+02  0.59592869973E+03  0.61552827679E+03  0.79570536688E+02 0.  0.
         23    2    1    2    0    0 -0.86167807301E+02 -0.77066024631E+02  0.83448515752E+02  0.16709812256E+03  0.87143930441E+02 0.  0.
        -13    1    3    3    0    0  0.10497310152E+03  0.13967908552E+02  0.36695788478E+03  0.38193264290E+03  0.00000000000E+00 0.  1.
         14    1    3    3    0    0  0.13444022514E+02  0.44255444081E+02  0.22897081495E+03  0.23359563389E+03  0.00000000000E+00 0. -1.
        -13    1    4    4    0    0 -0.23977160083E+02 -0.14748402582E+01 -0.14957157427E+02  0.28298337721E+02  0.00000000000E+00 0.  1.
         13    1    4    4    0    0 -0.62190647217E+02 -0.75591184373E+02  0.98405673179E+02  0.13879978483E+03  0.00000000000E+00 0. -1.
          1    1    1    2  501    0 -0.32249316733E+02  0.18842671998E+02 -0.25660645819E+02  0.45315929447E+02  0.00000000000E+00 0. -1.
<scales pt_clust_5="13000.00000" pt_clust_6="13000.00000" pt_clust_7="13000.00000" pt_clust_8="13000.00000" pt_clust_9="37.35057"></scales>
<clustering>
<clus scale="   37.351">  2  9  1 -1</clus>
<clus scale="   79.571">  5  6 -1 -1</clus>
<clus scale="   87.144">  7  8 -1 -1</clus>
<clus scale="  150.867">  1  5  2 -1</clus>
<clus scale="   37.351">  2  5  1 -1</clus>
</clustering>
</event>
<event>
 9    2  0.4653788E-005  0.1017456E+03  0.7546771E-02  0.1285110E+00
          2   -1    0    0  502    0 -0.00000000000E+00  0.00000000000E+00  0.27627357316E+03  0.27627357316E+03  0.00000000000E+00 0. -1.
         21   -1    0    0  501  502  0.00000000000E+00 -0.00000000000E+00 -0.73616289705E+02  0.73616289705E+02  0.00000000000E+00 0.  1.
         23    2    1    2    0    0  0.27920909969E+02 -0.35553778201E+02  0.70340858675E+02  0.12745648206E+03  0.96195998158E+02 0.  0.
         24    2    1    2    0    0 -0.38360101746E+02 -0.30459185695E+02  0.26954707551E+02  0.97662472399E+02  0.80075856890E+02 0.  0.
        -13    1    4    4    0    0 -0.42032681967E+02 -0.47189326014E+02 -0.28801603499E+01  0.63260368056E+02  0.00000000000E+00 0.  1.
         14    1    4    4    0    0  0.36725802202E+01  0.16730140318E+02  0.29834867901E+02  0.34402104343E+02  0.00000000000E+00 0. -1.
        -13    1    3    3    0    0  0.98641849562E+01  0.24007686375E+02 -0.82236055951E+01  0.27226803686E+02  0.00000000000E+00 0.  1.
         13    1    3    3    0    0  0.18056725013E+02 -0.59561464576E+02  0.78564464270E+02  0.10022967837E+03  0.00000000000E+00 0. -1.
          1    1    1    2  501    0  0.10439191777E+02  0.66012963896E+02  0.10536171723E+03  0.12477090841E+03  0.00000000000E+00 0. -1.
<scales pt_clust_5="13000.00000" pt_clust_6="13000.00000" pt_clust_7="13000.00000" pt_clust_8="13000.00000" pt_clust_9="66.83332"></scales>
<clustering>
<clus scale="   66.833">  2  9  1 -1</clus>
<clus scale="   80.076">  5  6 -1 -1</clus>
<clus scale="   86.664">  2  5  1 -1</clus>
<clus scale="   96.196">  7  8 -1 -1</clus>
<clus scale="   66.833">  2  5  1 -1</clus>
</clustering>
</event>
<event>
 9    2  0.4653788E-005  0.2061074E+03  0.7546771E-02  0.1145432E+00
          2   -1    0    0  502    0 -0.00000000000E+00  0.00000000000E+00  0.80280014116E+03  0.80280014116E+03  0.00000000000E+00 0. -1.
         21   -1    0    0  501  502  0.00000000000E+00 -0.00000000000E+00 -0.70478104848E+02  0.70478104848E+02  0.00000000000E+00 0.  1.
         23    2    1    2    0    0 -0.16680265988E+03  0.77139188620E+02  0.45282950897E+03  0.49713983321E+03  0.91213309376E+02 0.  0.
         24    2    1    2    0    0  0.14938328744E+03 -0.11708861746E+03  0.24355634218E+03  0.31965123899E+03  0.82656589976E+02 0.  0.
        -11    1    4    4    0    0  0.80868494934E+02 -0.78889197461E+02  0.80543346184E+02  0.13874598936E+03  0.00000000000E+00 0.  1.
         12    1    4    4    0    0  0.68514792508E+02 -0.38199419998E+02  0.16301299599E+03  0.18090524963E+03  0.00000000000E+00 0. -1.
        -11    1    3    3    0    0 -0.13318040169E+03  0.15436179666E+02  0.27536434806E+03  0.30626919404E+03  0.00000000000E+00 0.  1.
         11    1    3    3    0    0 -0.33622258189E+02  0.61703008954E+02  0.17746516092E+03  0.19087063918E+03  0.00000000000E+00 0. -1.
          1    1    1    2  501    0  0.17419372436E+02  0.39949428838E+02  0.35936185162E+02  0.56487173806E+02  0.00000000000E+00 0. -1.
<scales pt_clust_5="13000.00000" pt_clust_6="13000.00000" pt_clust_7="13000.00000" pt_clust_8="13000.00000" pt_clust_9="43.58201"></scales>
<clustering>
<clus scale="   43.582">  2  9  1 -1</clus>
<clus scale="   82.657">  5  6 -1 -1</clus>
<clus scale="   91.213">  7  8 -1 -1</clus>
<clus scale="  202.466">  2  5  1 -1</clus>
<clus scale="   43.582">  2  5  1 -1</clus>
</clustering>
</event>
<event>
 9    2  0.4653788E-005  0.9080276E+02  0.7546771E-02  0.1304737E+00
         -1   -1    0    0    0  501 -0.00000000000E+00  0.00000000000E+00  0.31649675247E+03  0.31649675247E+03  0.00000000000E+00 0.  1.
         21   -1    0    0  501  502  0.00000000000E+00 -0.00000000000E+00 -0.11421774275E+03  0.11421774275E+03  0.00000000000E+00 0.  1.
         23    2    1    2    0    0  0.15918689117E+02 -0.18206110342E+02  0.19415656010E+03  0.21505375152E+03  0.89255134826E+02 0.  0.
         24    2    1    2    0    0 -0.18311815350E+02 -0.66418744957E+02  0.54592882257E+02  0.11908644952E+03  0.80339451102E+02 0.  0.
        -11    1    4    4    0    0 -0.44901520694E+02 -0.40038177116E+02  0.55168977478E+02  0.81626088130E+02  0.00000000000E+00 0.  1.
         12    1    4    4    0    0  0.26589705344E+02 -0.26380567841E+02 -0.57609522059E+00  0.37460361392E+02  0.00000000000E+00 0. -1.
        -13    1    3    3    0    0  0.29486629208E+02 -0.43136361768E+02  0.16978324962E+03  0.17764165858E+03  0.00000000000E+00 0.  1.
         13    1    3    3    0    0 -0.13567940091E+02  0.24930251425E+02  0.24373310480E+02  0.37412092941E+02  0.00000000000E+00 0. -1.
         -2    1    1    2    0  502  0.23931262325E+01  0.84624855300E+02 -0.46470432639E+02  0.96574294185E+02  0.00000000000E+00 0.  1.
<scales pt_clust_5="13000.00000" pt_clust_6="13000.00000" pt_clust_7="13000.00000" pt_clust_8="13000.00000" pt_clust_9="84.65869"></scales>
<clustering>
<clus scale="   80.339">  5  6 -1 -1</clus>
<clus scale="   84.659">  2  9  1 -1</clus>
<clus scale="   84.659">  2  5  1 -1</clus>
<clus scale="   89.255">  7  8 -1 -1</clus>
<clus scale="   84.659">  2  5  1 -1</clus>
</clustering>
</event>
<event>
 9    2  0.4653788E-005  0.1012350E+03  0.7546771E-02  0.1286544E+00
          2   -1    0    0  502    0 -0.00000000000E+00  0.00000000000E+00  0.20933049358E+03  0.20933049358E+03  0.00000000000E+00 0. -1.
         21   -1    0    0  501  502  0.00000000000E+00 -0.00000000000E+00 -0.10539268782E+03  0.10539268782E+03  0.00000000000E+00 0. -1.
         23    2    1    2    0    0 -0.54587443404E+02 -0.42645570193E+01  0.96903041394E+02  0.14808069682E+03  0.97671479542E+02 0.  0.
         24    2    1    2    0    0 -0.17327148560E+01  0.12657546158E+02  0.49044646184E+02  0.95880682279E+02  0.81391106022E+02 0.  0.
        -11    1    4    4    0    0  0.30576406945E+02  0.20578551996E+02  0.50574806037E+02  0.62579585087E+02  0.00000000000E+00 0.  1.
         12    1    4    4    0    0 -0.32309121801E+02 -0.79210058383E+01 -0.15301598537E+01  0.33301097192E+02  0.00000000000E+00 0. -1.
        -11    1    3    3    0    0 -0.34934526382E+02  0.22292391812E+02 -0.42599437456E+01  0.41659560571E+02  0.00000000000E+00 0.  1.
         11    1    3    3    0    0 -0.19652917022E+02 -0.26556948831E+02  0.10116298514E+03  0.10642113625E+03  0.00000000000E+00 0. -1.
          1    1    1    2  501    0  0.56320158260E+02 -0.83929891387E+01 -0.42009881823E+02  0.70761802294E+02  0.00000000000E+00 0. -1.
<scales pt_clust_5="13000.00000" pt_clust_6="13000.00000" pt_clust_7="13000.00000" pt_clust_8="13000.00000" pt_clust_9="56.94210"></scales>
<clustering>
<clus scale="   56.942">  2  9  1 -1</clus>
<clus scale="   81.391">  5  6 -1 -1</clus>
<clus scale="   85.635">  2  5  1 -1</clus>
<clus scale="   97.671">  7  8 -1 -1</clus>
<clus scale="   56.942">  2  5  1 -1</clus>
</clustering>
</event>
<event>
 9    2  0.4653788E-005  0.1006780E+03  0.7546771E-02  0.1283711E+00
         -3   -1    0    0    0  501 -0.00000000000E+00  0.00000000000E+00  0.22457090361E+03  0.22457090361E+03  0.00000000000E+00 0.  1.
         21   -1    0    0  501  502  0.00000000000E+00 -0.00000000000E+00 -0.78857550131E+02  0.78857550131E+02  0.00000000000E+00 0.  1.
         23    2    1    2    0    0 -0.95824212124E+01  0.48630656798E+02  0.10199013868E+03  0.14510009076E+03  0.90527809944E+02 0.  0.
         24    2    1    2    0    0  0.51555541493E+02 -0.15264264662E+02  0.39225390390E+02  0.10452046975E+03  0.80591101932E+02 0.  0.
        -11    1    4    4    0    0  0.52042288281E+02 -0.23624833558E+02  0.59549257987E+02  0.82538758513E+02  0.00000000000E+00 0.  1.
         12    1    4    4    0    0 -0.48674678748E+00  0.83605688965E+01 -0.20323867596E+02  0.21981711234E+02  0.00000000000E+00 0. -1.
        -13    1    3    3    0    0 -0.35815056976E+02 -0.10984452047E+02  0.29782588200E+02  0.47857904810E+02  0.00000000000E+00 0. -1.
         13    1    3    3    0    0  0.26232635764E+02  0.59615108845E+02  0.72207550476E+02  0.97242185946E+02  0.00000000000E+00 0.  1.
         -4    1    1    2    0  502 -0.41973120281E+02 -0.33366392137E+02  0.44978244146E+01  0.53807893239E+02  0.00000000000E+00 0.  1.
<scales pt_clust_5="13000.00000" pt_clust_6="13000.00000" pt_clust_7="13000.00000" pt_clust_8="13000.00000" pt_clust_9="53.61958"></scales>
<clustering>
<clus scale="   53.620">  2  9  1 -1</clus>
<clus scale="   80.591">  5  6 -1 -1</clus>
<clus scale="   90.528">  7  8 -1 -1</clus>
<clus scale="   91.846">  2  5  1 -1</clus>
<clus scale="   53.620">  2  5  1 -1</clus>
</clustering>
</event>
<event>
 9    2  0.4653788E-005  0.1969951E+03  0.7546771E-02  0.1153075E+00
         21   -1    0    0  501  502  0.00000000000E+00  0.00000000000E+00  0.48840824891E+03  0.48840824891E+03  0.00000000000E+00 0.  1.
         -1   -1    0    0    0  501 -0.00000000000E+00 -0.00000000000E+00 -0.13947265970E+03  0.13947265970E+03  0.00000000000E+00 0.  1.
         24    2    1    2    0    0  0.16887860433E+03  0.94737014075E+02  0.11009646072E+03  0.23936096479E+03  0.87620522511E+02 0.  0.
         23    2    1    2    0    0 -0.71195008374E+02 -0.14637233394E+03  0.19004028429E+03  0.26773245121E+03  0.95245820991E+02 0.  0.
        -11    1    3    3    0    0  0.16963428053E+03  0.10336053815E+03  0.91205291559E+02  0.21858086647E+03  0.00000000000E+00 0.  1.
         12    1    3    3    0    0 -0.75567620384E+00 -0.86235240706E+01  0.18891169160E+02  0.20780098319E+02  0.00000000000E+00 0. -1.
        -13    1    4    4    0    0  0.23185660250E+02 -0.35021171523E+02  0.51846752920E+02  0.66724381484E+02  0.00000000000E+00 0. -1.
         13    1    4    4    0    0 -0.94380668624E+02 -0.11135116242E+03  0.13819353137E+03  0.20100806972E+03  0.00000000000E+00 0.  1.
         -2    1    1    2    0  502 -0.97683595957E+02  0.51635319867E+02  0.48798844207E+02  0.12078749262E+03  0.00000000000E+00 0.  1.
<scales pt_clust_5="13000.00000" pt_clust_6="13000.00000" pt_clust_7="13000.00000" pt_clust_8="13000.00000" pt_clust_9="110.49119"></scales>
<clustering>
<clus scale="   87.621">  5  6 -1 -1</clus>
<clus scale="   95.246">  7  8 -1 -1</clus>
<clus scale="  110.491">  1  9  2 -1</clus>
<clus scale="  193.424">  2  5  1 -1</clus>
<clus scale="  110.491">  1  5  2 -1</clus>
</clustering>
</event>
<event>
 9    2  0.4653788E-005  0.1389145E+03  0.7546771E-02  0.1228464E+00
         21   -1    0    0  501  502  0.00000000000E+00  0.00000000000E+00  0.36884204885E+02  0.36884204885E+02  0.00000000000E+00 0. -1.
          2   -1    0    0  502    0 -0.00000000000E+00 -0.00000000000E+00 -0.96373588221E+03  0.96373588221E+03  0.00000000000E+00 0. -1.
         24    2    1    2    0    0 -0.70846046013E+02 -0.38594858975E+02 -0.37943138554E+03  0.39351696223E+03  0.66171729983E+02 0.  0.
         23    2    1    2    0    0 -0.48873892697E+02  0.84259797367E+02 -0.24936616501E+03  0.28267375997E+03  0.90733673375E+02 0.  0.
        -11    1    3    3    0    0 -0.47555395189E+02  0.10856230336E+02 -0.20489598666E+03  0.21062226543E+03  0.00000000000E+00 0.  1.
         12    1    3    3    0    0 -0.23290650824E+02 -0.49451089311E+02 -0.17453539889E+03  0.18289469679E+03  0.00000000000E+00 0. -1.
        -13    1    4    4    0    0  0.23141507224E+02  0.36424518783E+02 -0.11569039968E+03  0.12347689461E+03  0.00000000000E+00 0.  1.
         13    1    4    4    0    0 -0.72015399921E+02  0.47835278584E+02 -0.13367576534E+03  0.15919686536E+03  0.00000000000E+00 0. -1.
          1    1    1    2  501    0  0.11971993871E+03 -0.45664938392E+02 -0.29805412677E+03  0.32442936489E+03  0.00000000000E+00 0. -1.
<scales pt_clust_5="13000.00000" pt_clust_6="13000.00000" pt_clust_7="13000.00000" pt_clust_8="13000.00000" pt_clust_9="105.18860"></scales>
<clustering>
<clus scale="   66.172">  5  6 -1 -1</clus>
<clus scale="   90.734">  7  8 -1 -1</clus>
<clus scale="  104.343">  2  5  1 -1</clus>
<clus scale="  105.189">  1  9  2 -1</clus>
<clus scale="  105.189">  1  5  2 -1</clus>
</clustering>
</event>
<event>
 9    2  0.4653788E-005  0.1099029E+03  0.7546771E-02  0.1262753E+00
          2   -1    0    0  502    0 -0.00000000000E+00  0.00000000000E+00  0.26069652607E+03  0.26069652607E+03  0.00000000000E+00 0. -1.
         21   -1    0    0  501  502  0.00000000000E+00 -0.00000000000E+00 -0.26116222332E+03  0.26116222332E+03  0.00000000000E+00 0. -1.
         23    2    1    2    0    0 -0.37481580288E+02 -0.45772863546E+02  0.96056508718E+02  0.14067691575E+03  0.84042357530E+02 0.  0.
         24    2    1    2    0    0  0.20478389375E+02  0.85007136846E+02  0.11559434558E+03  0.16479822025E+03  0.78427182300E+02 0.  0.
        -13    1    4    4    0    0  0.17765740169E+02  0.42789993753E+02  0.11332839946E+03  0.12243337459E+03  0.00000000000E+00 0.  1.
         14    1    4    4    0    0  0.27126492062E+01  0.42217143093E+02  0.22659461200E+01  0.42364845668E+02  0.00000000000E+00 0. -1.
        -11    1    3    3    0    0 -0.22926310141E+02 -0.69329519159E+01  0.96263762908E+02  0.99198757896E+02  0.00000000000E+00 0. -1.
         11    1    3    3    0    0 -0.14555270147E+02 -0.38839911630E+02 -0.20725418992E+00  0.41478157852E+02  0.00000000000E+00 0.  1.
          1    1    1    2  501    0  0.17003190913E+02 -0.39234273300E+02 -0.21211655155E+03  0.21638361339E+03  0.00000000000E+00 0. -1.
<scales pt_clust_5="13000.00000" pt_clust_6="13000.00000" pt_clust_7="13000.00000" pt_clust_8="13000.00000" pt_clust_9="42.76022"></scales>
<clustering>
<clus scale="   42.760">  2  9  1 -1</clus>
<clus scale="   78.427">  5  6 -1 -1</clus>
<clus scale="   84.042">  7  8 -1 -1</clus>
<clus scale="  105.671">  2  5  1 -1</clus>
<clus scale="   42.760">  2  5  1 -1</clus>
</clustering>
</event>
<event>
 9    2  0.4653788E-005  0.9178634E+02  0.7546771E-02  0.1305697E+00
         21   -1    0    0  501  502  0.00000000000E+00  0.00000000000E+00  0.44722247324E+02  0.44722247324E+02  0.00000000000E+00 0.  1.
         -1   -1    0    0    0  501 -0.00000000000E+00 -0.00000000000E+00 -0.27514457384E+03  0.27514457384E+03  0.00000000000E+00 0.  1.
         23    2    1    2    0    0  0.46806707171E+02 -0.14822401639E+02 -0.17489628587E+03  0.19406323280E+03  0.68273392247E+02 0.  0.
         24    2    1    2    0    0 -0.25187670441E+02  0.11746069191E+02 -0.58313961939E+02  0.10378952296E+03  0.81236432927E+02 0.  0.
        -13    1    4    4    0    0  0.34823147186E+01 -0.31831857133E+02 -0.12537833983E+02  0.34388819772E+02  0.00000000000E+00 0.  1.
         14    1    4    4    0    0 -0.28669985160E+02  0.43577926324E+02 -0.45776127956E+02  0.69400703184E+02  0.00000000000E+00 0. -1.
        -11    1    3    3    0    0  0.56536418804E+02  0.72414193338E+01 -0.96860549531E+02  0.11238670233E+03  0.00000000000E+00 0.  1.
         11    1    3    3    0    0 -0.97297116336E+01 -0.22063820973E+02 -0.78035736336E+02  0.81676530472E+02  0.00000000000E+00 0. -1.
         -2    1    1    2    0  502 -0.21619036730E+02  0.30763324482E+01  0.27879212933E+01  0.22014065403E+02  0.00000000000E+00 0.  1.
<scales pt_clust_5="13000.00000" pt_clust_6="13000.00000" pt_clust_7="13000.00000" pt_clust_8="13000.00000" pt_clust_9="21.83682"></scales>
<clustering>
<clus scale="   21.837">  1  9  2 -1</clus>
<clus scale="   68.273">  7  8 -1 -1</clus>
<clus scale="   80.540">  2  7  1 -1</clus>
<clus scale="   81.236">  5  6 -1 -1</clus>
<clus scale="   21.837">  1  5  2 -1</clus>
</clustering>
</event>
<event>
 9    2  0.4653788E-005  0.9441371E+02  0.7546771E-02  0.1307559E+00
         21   -1    0    0  501  502  0.00000000000E+00  0.00000000000E+00  0.13237178295E+03  0.13237178295E+03  0.00000000000E+00 0. -1.
          2   -1    0    0  502    0 -0.00000000000E+00 -0.00000000000E+00 -0.14575087415E+03  0.14575087415E+03  0.00000000000E+00 0. -1.
         23    2    1    2    0    0  0.15809257840E+02  0.19010441198E+02 -0.37844376059E+02  0.10160345556E+03  0.90993053995E+02 0.  0.
         24    2    1    2    0    0 -0.44929713771E+02  0.18106875427E+02  0.71959226080E+02  0.10957616157E+03  0.66949733746E+02 0.  0.
        -11    1    4    4    0    0 -0.60505356898E+02  0.24533300944E+02  0.61805853068E+02  0.89904085235E+02  0.00000000000E+00 0.  1.
         12    1    4    4    0    0  0.15575643126E+02 -0.64264255172E+01  0.10153373013E+02  0.19672076333E+02  0.00000000000E+00 0. -1.
        -13    1    3    3    0    0 -0.34359651104E+02  0.24385333498E+02 -0.77083251331E+01  0.42832795731E+02  0.00000000000E+00 0. -1.
         13    1    3    3    0    0  0.50168908944E+02 -0.53748923003E+01 -0.30136050926E+02  0.58770659833E+02  0.00000000000E+00 0.  1.
          1    1    1    2  501    0  0.29120455931E+02 -0.37117316625E+02 -0.47493941223E+02  0.66943039966E+02  0.00000000000E+00 0. -1.
<scales pt_clust_5="13000.00000" pt_clust_6="13000.00000" pt_clust_7="13000.00000" pt_clust_8="13000.00000" pt_clust_9="47.17731"></scales>
<clustering>
<clus scale="   47.177">  1  9  2 -1</clus>
<clus scale="   66.950">  5  6 -1 -1</clus>
<clus scale="   71.530">  1  5  2 -1</clus>
<clus scale="   90.993">  7  8 -1 -1</clus>
<clus scale="   47.177">  1  5  2 -1</clus>
</clustering>
</event>
<event>
 9    2  0.4653788E-005  0.1770066E+03  0.7546771E-02  0.1172052E+00
         21   -1    0    0  501  502  0.00000000000E+00  0.00000000000E+00  0.22908114964E+03  0.22908114964E+03  0.00000000000E+00 0. -1.
         -1   -1    0    0    0  501 -0.00000000000E+00 -0.00000000000E+00 -0.52858931424E+03  0.52858931424E+03  0.00000000000E+00 0.  1.
         24    2    1    2    0    0 -0.11277435514E+03  0.96903916508E+02 -0.44137753771E+03  0.47277519658E+03  0.81202410691E+02 0.  0.
         23    2    1    2    0    0  0.11727458088E+03 -0.13822114559E+03  0.10219204717E+03  0.22743523210E+03  0.91788658793E+02 0.  0.
        -11    1    3    3    0    0 -0.22990967825E+02  0.32812501687E+02 -0.23854293776E+03  0.24188422442E+03  0.00000000000E+00 0.  1.
         12    1    3    3    0    0 -0.89783387313E+02  0.64091414821E+02 -0.20283459995E+03  0.23089097216E+03  0.00000000000E+00 0. -1.
        -11    1    4    4    0    0  0.11863010861E+03 -0.85014674005E+02  0.93963445324E+02  0.17357916500E+03  0.00000000000E+00 0. -1.
         11    1    4    4    0    0 -0.13555277314E+01 -0.53206471590E+02  0.82286018477E+01  0.53856067094E+02  0.00000000000E+00 0.  1.
         -2    1    1    2    0  502 -0.45002257435E+01  0.41317229087E+02  0.39677325932E+02  0.57460035192E+02  0.00000000000E+00 0.  1.
<scales pt_clust_5="13000.00000" pt_clust_6="13000.00000" pt_clust_7="13000.00000" pt_clust_8="13000.00000" pt_clust_9="41.56159"></scales>
<clustering>
<clus scale="   41.562">  1  9  2 -1</clus>
<clus scale="   81.202">  5  6 -1 -1</clus>
<clus scale="   91.789">  7  8 -1 -1</clus>
<clus scale="  171.756">  2  5  1 -1</clus>
<clus scale="   41.562">  1  5  2 -1</clus>
</clustering>
</event>
<event>
 9    2  0.4653788E-005  0.1335380E+03  0.7546771E-02  0.1225104E+00
         -3   -1    0    0    0  501 -0.00000000000E+00  0.00000000000E+00  0.52754338684E+03  0.52754338684E+03  0.00000000000E+00 0.  1.
         21   -1    0    0  501  502  0.00000000000E+00 -0.00000000000E+00 -0.15213035062E+03  0.15213035062E+03  0.00000000000E+00 0.  1.
         24    2    1    2    0    0  0.57680247090E+02 -0.71025915773E+02  0.37651083009E+03  0.39602269325E+03  0.81864991122E+02 0.  0.
         23    2    1    2    0    0 -0.63572294557E+02  0.92708712069E+02  0.10203436339E+03  0.17809962668E+03  0.93124238434E+02 0.  0.
        -11    1    3    3    0    0  0.62872509279E+02 -0.60481142894E+02  0.18921517310E+03  0.20835859186E+03  0.00000000000E+00 0.  1.
         12    1    3    3    0    0 -0.51922621884E+01 -0.10544772879E+02  0.18729565699E+03  0.18766410139E+03  0.00000000000E+00 0. -1.
        -11    1    4    4    0    0 -0.11238426657E+02  0.88755357374E+02  0.83680377100E+02  0.12249988248E+03  0.00000000000E+00 0.  1.
         11    1    4    4    0    0 -0.52333867900E+02  0.39533546945E+01  0.18353986291E+02  0.55599744203E+02  0.00000000000E+00 0. -1.
         -4    1    1    2    0  502  0.58920474664E+01 -0.21682796296E+02 -0.10313215727E+03  0.10555141753E+03  0.00000000000E+00 0.  1.
<scales pt_clust_5="13000.00000" pt_clust_6="13000.00000" pt_clust_7="13000.00000" pt_clust_8="13000.00000" pt_clust_9="22.46909"></scales>
<clustering>
<clus scale="   22.469">  2  9  1 -1</clus>
<clus scale="   81.865">  5  6 -1 -1</clus>
<clus scale="   93.124">  7  8 -1 -1</clus>
<clus scale="  125.945">  1  5  2 -1</clus>
<clus scale="   22.469">  2  5  1 -1</clus>
</clustering>
</event>
<event>
 9    2  0.4653788E-005  0.1579363E+03  0.7546771E-02  0.1212015E+00
         -1   -1    0    0    0  501 -0.00000000000E+00  0.00000000000E+00  0.10387502887E+03  0.10387502887E+03  0.00000000000E+00 0.  1.
         21   -1    0    0  501  502  0.00000000000E+00 -0.00000000000E+00 -0.49185844578E+03  0.49185844578E+03  0.00000000000E+00 0.  1.
         23    2    1    2    0    0 -0.14666227465E+02 -0.40921288764E+02 -0.92192438881E+02  0.13621503990E+03  0.90362830895E+02 0.  0.
         24    2    1    2    0    0 -0.17494050350E+01  0.14775809174E+03 -0.30831631184E+03  0.35070455949E+03  0.78097540348E+02 0.  0.
        -13    1    4    4    0    0 -0.21218272201E+02  0.11170485999E+03 -0.27605516646E+03  0.29855425930E+03  0.00000000000E+00 0.  1.
         14    1    4    4    0    0  0.19468867166E+02  0.36053231747E+02 -0.32261145385E+02  0.52150300187E+02  0.00000000000E+00 0. -1.
        -11    1    3    3    0    0 -0.32429605783E+02 -0.51792846690E+02 -0.25269716068E+02  0.66126672755E+02  0.00000000000E+00 0.  1.
         11    1    3    3    0    0  0.17763378319E+02  0.10871557926E+02 -0.66922722812E+02  0.70088367149E+02  0.00000000000E+00 0. -1.
         -2    1    1    2    0  502  0.16415632500E+02 -0.10683680297E+03  0.12525333811E+02  0.10881387525E+03  0.00000000000E+00 0.  1.
<scales pt_clust_5="13000.00000" pt_clust_6="13000.00000" pt_clust_7="13000.00000" pt_clust_8="13000.00000" pt_clust_9="137.27593"></scales>
<clustering>
<clus scale="   78.098">  5  6 -1 -1</clus>
<clus scale="   90.363">  7  8 -1 -1</clus>
<clus scale="  100.275">  1  7  2 -1</clus>
<clus scale="  137.276">  2  9  1 -1</clus>
<clus scale="  137.276">  2  5  1 -1</clus>
</clustering>
</event>
<event>
 9    2  0.4653788E-005  0.9061413E+02  0.7546771E-02  0.1303996E+00
         21   -1    0    0  501  502  0.00000000000E+00  0.00000000000E+00  0.35246336649E+02  0.35246336649E+02  0.00000000000E+00 0.  1.
          2   -1    0    0  502    0 -0.00000000000E+00 -0.00000000000E+00 -0.64502501798E+03  0.64502501798E+03  0.00000000000E+00 0. -1.
         24    2    1    2    0    0  0.13966137694E+02 -0.39315248542E+02 -0.38243146676E+03  0.39317377040E+03  0.81185252286E+02 0.  0.
         23    2    1    2    0    0 -0.37320524196E+02 -0.20476377187E+02 -0.19024084358E+03  0.21295347695E+03  0.85705899631E+02 0.  0.
        -11    1    3    3    0    0  0.12578981805E+02 -0.61221439603E+02 -0.20297055613E+03  0.21237547435E+03  0.00000000000E+00 0.  1.
         12    1    3    3    0    0  0.13871558897E+01  0.21906191061E+02 -0.17946091063E+03  0.18079829604E+03  0.00000000000E+00 0. -1.
        -13    1    4    4    0    0  0.21028840185E+01 -0.26544829941E+02 -0.10147857991E+02  0.28496124993E+02  0.00000000000E+00 0.  1.
         13    1    4    4    0    0 -0.39423408214E+02  0.60684527539E+01 -0.18009298559E+03  0.18445735196E+03  0.00000000000E+00 0. -1.
          1    1    1    2  501    0  0.23354386501E+02  0.59791625729E+02 -0.37106370989E+02  0.74144107278E+02  0.00000000000E+00 0. -1.
<scales pt_clust_5="13000.00000" pt_clust_6="13000.00000" pt_clust_7="13000.00000" pt_clust_8="13000.00000" pt_clust_9="64.19086"></scales>
<clustering>
<clus scale="   64.191">  1  9  2 -1</clus>
<clus scale="   81.185">  5  6 -1 -1</clus>
<clus scale="   85.706">  7  8 -1 -1</clus>
<clus scale="   86.351">  2  5  1 -1</clus>
<clus scale="   64.191">  1  5  2 -1</clus>
</clustering>
</event>
<event>
 9    2  0.4653788E-005  0.1282197E+03  0.7546771E-02  0.1244318E+00
         21   -1    0    0  501  502  0.00000000000E+00  0.00000000000E+00  0.70251213225E+02  0.70251213225E+02  0.00000000000E+00 0.  1.
          2   -1    0    0  502    0 -0.00000000000E+00 -0.00000000000E+00 -0.38803931322E+03  0.38803931322E+03  0.00000000000E+00 0. -1.
         24    2    1    2    0    0 -0.65671059847E+01 -0.51474475945E+02 -0.12688179149E+03  0.15909205156E+03  0.80737496262E+02 0.  0.
         23    2    1    2    0    0  0.28201172376E+02 -0.60859299410E+02 -0.81476298160E+02  0.14088916664E+03  0.93339218261E+02 0.  0.
        -13    1    3    3    0    0 -0.41177748348E+02 -0.37796687829E+02 -0.56495334481E+02  0.79472758779E+02  0.00000000000E+00 0.  1.
         14    1    3    3    0    0  0.34610642363E+02 -0.13677788116E+02 -0.70386457007E+02  0.79619292778E+02  0.00000000000E+00 0. -1.
        -13    1    4    4    0    0  0.29095764605E+02  0.87406325644E+01  0.40159223468E+01  0.30644572241E+02  0.00000000000E+00 0. -1.
         13    1    4    4    0    0 -0.89459222888E+00 -0.69599931975E+02 -0.85492220507E+02  0.11024459440E+03  0.00000000000E+00 0.  1.
          1    1    1    2  501    0 -0.21634066391E+02  0.11233377536E+03 -0.10943001035E+03  0.15830930825E+03  0.00000000000E+00 0. -1.
<scales pt_clust_5="13000.00000" pt_clust_6="13000.00000" pt_clust_7="13000.00000" pt_clust_8="13000.00000" pt_clust_9="87.90961"></scales>
<clustering>
<clus scale="   80.737">  5  6 -1 -1</clus>
<clus scale="   93.339">  7  8 -1 -1</clus>
<clus scale="   95.975">  2  5  1 -1</clus>
<clus scale="   87.910">  1  9  2 -1</clus>
<clus scale="   87.910">  1  5  2 -1</clus>
</clustering>
</event>
<event>
 9    2  0.4653788E-005  0.9202515E+02  0.7546771E-02  0.1299382E+00
         -1   -1    0    0    0  501 -0.00000000000E+00  0.00000000000E+00  0.23994722452E+03  0.23994722452E+03  0.00000000000E+00 0.  1.
         21   -1    0    0  501  502  0.00000000000E+00 -0.00000000000E+00 -0.19770958070E+03  0.19770958070E+03  0.00000000000E+00 0.  1.
         23    2    1    2    0    0  0.11671833179E+01 -0.12845832989E+02  0.18122383910E+03  0.20307363348E+03  0.90721789088E+02 0.  0.
         24    2    1    2    0    0  0.67401645303E+02  0.26238221236E+02 -0.59610791020E+02  0.12884058278E+03  0.88402620556E+02 0.  0.
        -11    1    4    4    0    0  0.55200510002E+02 -0.54249635624E+01 -0.73580750824E+02  0.92144741717E+02  0.00000000000E+00 0.  1.
         12    1    4    4    0    0  0.12201135301E+02  0.31663184799E+02  0.13969959804E+02  0.36695841061E+02  0.00000000000E+00 0. -1.
        -11    1    3    3    0    0  0.44133382679E+02 -0.47075188261E+01  0.63360912317E+02  0.77359688532E+02  0.00000000000E+00 0.  1.
         11    1    3    3    0    0 -0.42966199361E+02 -0.81383141624E+01  0.11786292678E+03  0.12571394495E+03  0.00000000000E+00 0. -1.
         -2    1    1    2    0  502 -0.68568828621E+02 -0.13392388248E+02 -0.79375404255E+02  0.10574258897E+03  0.00000000000E+00 0.  1.
<scales pt_clust_5="13000.00000" pt_clust_6="13000.00000" pt_clust_7="13000.00000" pt_clust_8="13000.00000" pt_clust_9="69.86444"></scales>
<clustering>
<clus scale="   69.864">  2  9  1 -1</clus>
<clus scale="   88.403">  5  6 -1 -1</clus>
<clus scale="   89.740">  2  5  1 -1</clus>
<clus scale="   90.722">  7  8 -1 -1</clus>
<clus scale="   69.864">  2  5  1 -1</clus>
</clustering>
</event>
<event>
 9    2  0.4653788E-005  0.1082478E+03  0.7546771E-02  0.1264424E+00
         21   -1    0    0  501  502  0.00000000000E+00  0.00000000000E+00  0.26921029353E+03  0.26921029353E+03  0.00000000000E+00 0. -1.
          2   -1    0    0  502    0 -0.00000000000E+00 -0.00000000000E+00 -0.13091939396E+03  0.13091939396E+03  0.00000000000E+00 0. -1.
         24    2    1    2    0    0 -0.17184085130E+02 -0.40747415794E+02 -0.28392070771E+02  0.10575015480E+03  0.91767864105E+02 0.  0.
         23    2    1    2    0    0 -0.22053026229E+02  0.87356201827E+02  0.12024602636E+02  0.12815335982E+03  0.90339640251E+02 0.  0.
        -13    1    3    3    0    0 -0.12613936190E+01 -0.69095245003E+02 -0.22718664128E+02  0.72745320782E+02  0.00000000000E+00 0.  1.
         14    1    3    3    0    0 -0.15922691511E+02  0.28347829208E+02 -0.56734066434E+01  0.33004834021E+02  0.00000000000E+00 0. -1.
        -13    1    4    4    0    0 -0.50311791662E+02  0.84996917048E+02  0.47866283304E+01  0.98887128074E+02  0.00000000000E+00 0. -1.
         13    1    4    4    0    0  0.28258765433E+02  0.23592847785E+01  0.72379743054E+01  0.29266231744E+02  0.00000000000E+00 0.  1.
          1    1    1    2  501    0  0.39237111358E+02 -0.46608786033E+02  0.15465836770E+03  0.16622617286E+03  0.00000000000E+00 0. -1.
<scales pt_clust_5="13000.00000" pt_clust_6="13000.00000" pt_clust_7="13000.00000" pt_clust_8="13000.00000" pt_clust_9="60.92561"></scales>
<clustering>
<clus scale="   60.926">  1  9  2 -1</clus>
<clus scale="   90.340">  7  8 -1 -1</clus>
<clus scale="   91.768">  5  6 -1 -1</clus>
<clus scale="  107.040">  1  7  2 -1</clus>
<clus scale="   60.926">  1  5  2 -1</clus>
</clustering>
</event>
<event>
 9    2  0.4653788E-005  0.3083849E+03  0.7546771E-02  0.1081345E+00
          2   -1    0    0  502    0 -0.00000000000E+00  0.00000000000E+00  0.19164015950E+04  0.19164015950E+04  0.00000000000E+00 0. -1.
         21   -1    0    0  501  502  0.00000000000E+00 -0.00000000000E+00 -0.78374805257E+02  0.78374805257E+02  0.00000000000E+00 0. -1.
         24    2    1    2    0    0 -0.26373225825E+03  0.23977194868E+03  0.91792503316E+03  0.98789600037E+03  0.79415676226E+02 0.  0.
         23    2    1    2    0    0  0.15373909581E+03 -0.17818349069E+03  0.40257746503E+03  0.47422382545E+03  0.86223867574E+02 0.  0.
        -11    1    3    3    0    0 -0.29725427256E+02  0.49813638522E+02  0.92722395946E+02  0.10937295058E+03  0.00000000000E+00 0.  1.
         12    1    3    3    0    0 -0.23400683100E+03  0.18995831016E+03  0.82520263721E+03  0.87852304979E+03  0.00000000000E+00 0. -1.
        -13    1    4    4    0    0  0.58558721624E+02 -0.98265861938E+02  0.12139456603E+03  0.16679911319E+03  0.00000000000E+00 0.  1.
         13    1    4    4    0    0  0.95180374184E+02 -0.79917628756E+02  0.28118289901E+03  0.30742471226E+03  0.00000000000E+00 0. -1.
          1    1    1    2  501    0  0.10999316245E+03 -0.61588457988E+02  0.51752429160E+03  0.53265657448E+03  0.00000000000E+00 0. -1.
<scales pt_clust_5="13000.00000" pt_clust_6="13000.00000" pt_clust_7="13000.00000" pt_clust_8="13000.00000" pt_clust_9="126.06209"></scales>
<clustering>
<clus scale="   79.416">  5  6 -1 -1</clus>
<clus scale="   86.224">  7  8 -1 -1</clus>
<clus scale="  126.062">  2  9  1 -1</clus>
<clus scale="  306.551">  1  5  2 -1</clus>
<clus scale="  126.062">  2  5  1 -1</clus>
</clustering>
</event>
<event>
 9    2  0.4653788E-005  0.1293980E+03  0.7546771E-02  0.1243051E+00
          2   -1    0    0  502    0 -0.00000000000E+00  0.00000000000E+00  0.65985220290E+03  0.65985220290E+03  0.00000000000E+00 0. -1.
         21   -1    0    0  501  502  0.00000000000E+00 -0.00000000000E+00 -0.52819465005E+02  0.52819465005E+02  0.00000000000E+00 0.  1.
         23    2    1    2    0    0  0.43125189233E+02 -0.40431332785E+01  0.49017375811E+02  0.10760778155E+03  0.85443564100E+02 0.  0.
         24    2    1    2    0    0  0.67949129524E+02  0.38411693849E+02  0.33428603231E+03  0.35292599701E+03  0.81957705786E+02 0.  0.
        -13    1    4    4    0    0  0.73172093507E+02  0.51887027564E+02  0.32098965401E+03  0.33328782888E+03  0.00000000000E+00 0.  1.
         14    1    4    4    0    0 -0.52229639837E+01 -0.13475333716E+02  0.13296378305E+02  0.19638168131E+02  0.00000000000E+00 0. -1.
        -11    1    3    3    0    0  0.57553568493E+02 -0.30621816723E+02  0.37755692093E+02  0.75336586007E+02  0.00000000000E+00 0.  1.
         11    1    3    3    0    0 -0.14428379260E+02  0.26578683445E+02  0.11261683719E+02  0.32271195545E+02  0.00000000000E+00 0. -1.
          1    1    1    2  501    0 -0.11107431876E+03 -0.34368560570E+02  0.22372932977E+03  0.25213788934E+03  0.00000000000E+00 0. -1.
<scales pt_clust_5="13000.00000" pt_clust_6="13000.00000" pt_clust_7="13000.00000" pt_clust_8="13000.00000" pt_clust_9="100.13384"></scales>
<clustering>
<clus scale="   81.958">  5  6 -1 -1</clus>
<clus scale="   85.444">  7  8 -1 -1</clus>
<clus scale="   95.795">  1  7  2 -1</clus>
<clus scale="  100.134">  2  9  1 -1</clus>
<clus scale="  100.134">  2  5  1 -1</clus>
</clustering>
</event>
<event>
 9    2  0.4653788E-005  0.9766595E+02  0.7546771E-02  0.1291400E+00
         -1   -1    0    0    0  501 -0.00000000000E+00  0.00000000000E+00  0.94448337066E+02  0.94448337066E+02  0.00000000000E+00 0.  1.
         21   -1    0    0  501  502  0.00000000000E+00 -0.00000000000E+00 -0.32286764673E+03  0.32286764673E+03  0.00000000000E+00 0. -1.
         23    2    1    2    0    0 -0.17199574945E+02 -0.34374781440E+02  0.44170446490E+02  0.10880685562E+03  0.91708519286E+02 0.  0.
         24    2    1    2    0    0  0.20131950726E+01 -0.55680189960E+01 -0.24436565749E+03  0.25729728203E+03  0.80325967096E+02 0.  0.
        -11    1    4    4    0    0 -0.26578844414E+01 -0.38987779394E+02 -0.18434112773E+03  0.18843768907E+03  0.00000000000E+00 0.  1.
         12    1    4    4    0    0  0.46710795140E+01  0.33419760398E+02 -0.60024529757E+02  0.68859592951E+02  0.00000000000E+00 0. -1.
        -13    1    3    3    0    0  0.23609011139E+02 -0.50525270259E+01 -0.17084876505E+02  0.29577126999E+02  0.00000000000E+00 0. -1.
         13    1    3    3    0    0 -0.40808586085E+02 -0.29322254414E+02  0.61255322995E+02  0.79229728621E+02  0.00000000000E+00 0.  1.
         -2    1    1    2    0  502  0.15186379873E+02  0.39942800436E+02 -0.28224098665E+02  0.51211846147E+02  0.00000000000E+00 0.  1.
<scales pt_clust_5="13000.00000" pt_clust_6="13000.00000" pt_clust_7="13000.00000" pt_clust_8="13000.00000" pt_clust_9="42.73235"></scales>
<clustering>
<clus scale="   42.732">  2  9  1 -1</clus>
<clus scale="   80.326">  5  6 -1 -1</clus>
<clus scale="   87.066">  2  5  1 -1</clus>
<clus scale="   91.709">  7  8 -1 -1</clus>
<clus scale="   42.732">  2  5  1 -1</clus>
</clustering>
</event>
<event>
 9    2  0.4653788E-005  0.1508217E+03  0.7546771E-02  0.1202693E+00
         21   -1    0    0  501  502  0.00000000000E+00  0.00000000000E+00  0.82675829162E+02  0.82675829162E+02  0.00000000000E+00 0. -1.
         -1   -1    0    0    0  501 -0.00000000000E+00 -0.00000000000E+00 -0.65510980639E+03  0.65510980639E+03  0.00000000000E+00 0.  1.
         23    2    1    2    0    0  0.13709194101E+03  0.33746581658E+02 -0.38748303293E+03  0.42259231463E+03  0.92239533373E+02 0.  0.
         24    2    1    2    0    0 -0.68428618151E+02  0.52667804241E+02 -0.18519402305E+02  0.11548965003E+03  0.74421217517E+02 0.  0.
        -13    1    4    4    0    0 -0.28868187712E+02  0.62628500777E+02 -0.26578409516E+02  0.73906110869E+02  0.00000000000E+00 0.  1.
         14    1    4    4    0    0 -0.39560430438E+02 -0.99606965359E+01  0.80590072114E+01  0.41583539161E+02  0.00000000000E+00 0. -1.
        -11    1    3    3    0    0  0.10544457007E+03 -0.11695367931E+01 -0.16990128179E+03  0.19996592392E+03  0.00000000000E+00 0.  1.
         11    1    3    3    0    0  0.31647370932E+02  0.34916118451E+02 -0.21758175113E+03  0.22262639071E+03  0.00000000000E+00 0. -1.
         -2    1    1    2    0  502 -0.68663322855E+02 -0.86414385899E+02 -0.16643154200E+03  0.19970367089E+03  0.00000000000E+00 0.  1.
<scales pt_clust_5="13000.00000" pt_clust_6="13000.00000" pt_clust_7="13000.00000" pt_clust_8="13000.00000" pt_clust_9="110.37260"></scales>
<clustering>
<clus scale="   74.421">  5  6 -1 -1</clus>
<clus scale="   92.240">  7  8 -1 -1</clus>
<clus scale="  110.373">  1  9  2 -1</clus>
<clus scale="  140.633">  1  5  2 -1</clus>
<clus scale="  110.373">  1  5  2 -1</clus>
</clustering>
</event>
<event>
 9    2  0.4653788E-005  0.1065687E+03  0.7546771E-02  0.1270925E+00
          2   -1    0    0  502    0 -0.00000000000E+00  0.00000000000E+00  0.88147275038E+03  0.88147275038E+03  0.00000000000E+00 0. -1.
         21   -1    0    0  501  502  0.00000000000E+00 -0.00000000000E+00 -0.18141665825E+02  0.18141665825E+02  0.00000000000E+00 0. -1.
         24    2    1    2    0    0  0.49378575322E+02 -0.37379468563E+02  0.54139646128E+03  0.55072036876E+03  0.79670119350E+02 0.  0.
         23    2    1    2    0    0 -0.23163744535E+02  0.50526441569E+02  0.24359756122E+03  0.26524743636E+03  0.89033422419E+02 0.  0.
        -11    1    3    3    0    0  0.56478420560E+02 -0.56638003325E+02  0.44933360458E+03  0.45639715558E+03  0.00000000000E+00 0.  1.
         12    1    3    3    0    0 -0.70998452381E+01  0.19258534762E+02  0.92062856692E+02  0.94323213187E+02  0.00000000000E+00 0. -1.
        -13    1    4    4    0    0 -0.36864859023E+02  0.15190606171E+02  0.34448196935E+02  0.52692035629E+02  0.00000000000E+00 0.  1.
         13    1    4    4    0    0  0.13701114488E+02  0.35335835398E+02  0.20914936428E+03  0.21255540074E+03  0.00000000000E+00 0. -1.
          1    1    1    2  501    0 -0.26214830787E+02 -0.13146973006E+02  0.78337062062E+02  0.83646611078E+02  0.00000000000E+00 0. -1.
<scales pt_clust_5="13000.00000" pt_clust_6="13000.00000" pt_clust_7="13000.00000" pt_clust_8="13000.00000" pt_clust_9="29.32678"></scales>
<clustering>
<clus scale="   29.327">  2  9  1 -1</clus>
<clus scale="   79.670">  5  6 -1 -1</clus>
<clus scale="   89.033">  7  8 -1 -1</clus>
<clus scale="   98.880">  1  5  2 -1</clus>
<clus scale="   29.327">  2  5  1 -1</clus>
</clustering>
</event>
<event>
 9    2  0.4653788E-005  0.1229280E+03  0.7546771E-02  0.1243710E+00
         21   -1    0    0  501  502  0.00000000000E+00  0.00000000000E+00  0.54659541411E+02  0.54659541411E+02  0.00000000000E+00 0. -1.
          2   -1    0    0  502    0 -0.00000000000E+00 -0.00000000000E+00 -0.76368187880E+03  0.76368187880E+03  0.00000000000E+00 0. -1.
         24    2    1    2    0    0 -0.85840586893E+02  0.22690473020E+02 -0.47210231649E+03  0.48699832764E+03  0.80020684597E+02 0.  0.
         23    2    1    2    0    0  0.11031214493E+02 -0.80570411963E+02 -0.18321235379E+03  0.22257249435E+03  0.96739183804E+02 0.  0.
        -11    1    3    3    0    0 -0.57312616757E+02  0.52725998609E+02 -0.32216713410E+03  0.33144596733E+03  0.00000000000E+00 0.  1.
         12    1    3    3    0    0 -0.28527970136E+02 -0.30035525588E+02 -0.14993518239E+03  0.15555236031E+03  0.00000000000E+00 0. -1.
        -11    1    4    4    0    0  0.52638396882E+02 -0.36411888485E+02 -0.11218621180E+03  0.12916025924E+03  0.00000000000E+00 0.  1.
         11    1    4    4    0    0 -0.41607182388E+02 -0.44158523478E+02 -0.71026141991E+02  0.93412235110E+02  0.00000000000E+00 0. -1.
          1    1    1    2  501    0  0.74809372399E+02  0.57879938943E+02 -0.53707667105E+02  0.10877059822E+03  0.00000000000E+00 0. -1.
<scales pt_clust_5="13000.00000" pt_clust_6="13000.00000" pt_clust_7="13000.00000" pt_clust_8="13000.00000" pt_clust_9="94.58610"></scales>
<clustering>
<clus scale="   80.021">  5  6 -1 -1</clus>
<clus scale="   94.586">  1  9  2 -1</clus>
<clus scale="   96.739">  7  8 -1 -1</clus>
<clus scale="  110.255">  2  5  1 -1</clus>
<clus scale="   94.586">  1  5  2 -1</clus>
</clustering>
</event>
<event>
 9    2  0.4653788E-005  0.1313359E+03  0.7546771E-02  0.1227947E+00
         -1   -1    0    0    0  501 -0.00000000000E+00  0.00000000000E+00  0.20332288995E+03  0.20332288995E+03  0.00000000000E+00 0.  1.
         21   -1    0    0  501  502  0.00000000000E+00 -0.00000000000E+00 -0.20943713588E+03  0.20943713588E+03  0.00000000000E+00 0. -1.
         23    2    1    2    0    0 -0.56917743274E+02 -0.85276524982E+02  0.13266925453E+03  0.19033217241E+03  0.90074910748E+02 0.  0.
         24    2    1    2    0    0  0.22545715961E+02  0.53437608949E+02 -0.14456691144E+03  0.17521979608E+03  0.80240249850E+02 0.  0.
        -13    1    4    4    0    0 -0.19074524673E+02  0.53309737074E+02 -0.93908140071E+02  0.10965630091E+03  0.00000000000E+00 0.  1.
         14    1    4    4    0    0  0.41620240633E+02  0.12787187503E+00 -0.50658771368E+02  0.65563495164E+02  0.00000000000E+00 0. -1.
        -11    1    3    3    0    0 -0.19405460954E+02 -0.76577633731E+02  0.12950085739E+03  0.15169435707E+03  0.00000000000E+00 0.  1.
         11    1    3    3    0    0 -0.37512282320E+02 -0.86988912509E+01  0.31683971355E+01  0.38637815340E+02  0.00000000000E+00 0. -1.
         -2    1    1    2    0  502  0.34372027313E+02  0.31838916033E+02  0.57834109784E+01  0.47208057345E+02  0.00000000000E+00 0.  1.
<scales pt_clust_5="13000.00000" pt_clust_6="13000.00000" pt_clust_7="13000.00000" pt_clust_8="13000.00000" pt_clust_9="46.85248"></scales>
<clustering>
<clus scale="   46.852">  2  9  1 -1</clus>
<clus scale="   80.240">  5  6 -1 -1</clus>
<clus scale="   90.075">  7  8 -1 -1</clus>
<clus scale="  124.796">  2  5  1 -1</clus>
<clus scale="   46.852">  2  5  1 -1</clus>
</clustering>
</event>
<event>
 9    2  0.4653788E-005  0.1867685E+03  0.7546771E-02  0.1162548E+00
         21   -1    0    0  501  502  0.00000000000E+00  0.00000000000E+00  0.17069943644E+03  0.17069943644E+03  0.00000000000E+00 0. -1.
          2   -1    0    0  502    0 -0.00000000000E+00 -0.00000000000E+00 -0.49794318988E+03  0.49794318988E+03  0.00000000000E+00 0. -1.
         23    2    1    2    0    0 -0.88476491997E+02 -0.10989334521E+03 -0.20168832482E+03  0.26216130830E+03  0.90253721493E+02 0.  0.
         24    2    1    2    0    0  0.17466955226E+03  0.17793622770E+03 -0.34896211037E+02  0.26407987410E+03  0.79684884058E+02 0.  0.
        -13    1    4    4    0    0  0.33198439732E+02  0.32241695258E+02  0.24673281974E+02  0.52444581771E+02  0.00000000000E+00 0.  1.
         14    1    4    4    0    0  0.14147111253E+03  0.14569453244E+03 -0.59569493011E+02  0.21163529233E+03  0.00000000000E+00 0. -1.
        -13    1    3    3    0    0 -0.53938086341E+02 -0.10189575539E+03 -0.93898234082E+02  0.14869075455E+03  0.00000000000E+00 0.  1.
         13    1    3    3    0    0 -0.34538405656E+02 -0.79975898291E+01 -0.10779009074E+03  0.11347055376E+03  0.00000000000E+00 0. -1.
          1    1    1    2  501    0 -0.86193060264E+02 -0.68042882483E+02 -0.90659217586E+02  0.14240144391E+03  0.00000000000E+00 0. -1.
<scales pt_clust_5="13000.00000" pt_clust_6="13000.00000" pt_clust_7="13000.00000" pt_clust_8="13000.00000" pt_clust_9="109.81389"></scales>
<clustering>
<clus scale="   79.685">  5  6 -1 -1</clus>
<clus scale="   90.254">  7  8 -1 -1</clus>
<clus scale="  109.814">  1  9  2 -1</clus>
<clus scale="  181.897">  1  5  2 -1</clus>
<clus scale="  109.814">  1  5  2 -1</clus>
</clustering>
</event>
<event>
 9    2  0.4653788E-005  0.9752431E+02  0.7546771E-02  0.1292221E+00
         -1   -1    0    0    0  501 -0.00000000000E+00  0.00000000000E+00  0.75177978990E+02  0.75177978990E+02  0.00000000000E+00 0.  1.
         21   -1    0    0  501  502  0.00000000000E+00 -0.00000000000E+00 -0.18708708166E+03  0.18708708166E+03  0.00000000000E+00 0. -1.
         23    2    1    2    0    0 -0.23610858822E+02 -0.37481794379E+02 -0.25692437317E+02  0.10391341022E+03  0.90418681275E+02 0.  0.
         24    2    1    2    0    0 -0.59476268080E+01  0.28783268251E+02 -0.94944550722E+02  0.12632752808E+03  0.77976444152E+02 0.  0.
        -13    1    4    4    0    0 -0.34256568439E+02  0.29141835478E+02 -0.26363127459E+02  0.52132269715E+02  0.00000000000E+00 0.  1.
         14    1    4    4    0    0  0.28308941631E+02 -0.35856722708E+00 -0.68581423264E+02  0.74195258363E+02  0.00000000000E+00 0. -1.
        -13    1    3    3    0    0  0.25566643545E+01  0.28651715222E+02 -0.13412356024E+02  0.31738755677E+02  0.00000000000E+00 0. -1.
         13    1    3    3    0    0 -0.26167523177E+02 -0.66133509602E+02 -0.12280081292E+02  0.72174654540E+02  0.00000000000E+00 0.  1.
         -2    1    1    2    0  502  0.29558485630E+02  0.86985261285E+01  0.87278853699E+01  0.32024122355E+02  0.00000000000E+00 0.  1.
<scales pt_clust_5="13000.00000" pt_clust_6="13000.00000" pt_clust_7="13000.00000" pt_clust_8="13000.00000" pt_clust_9="30.81184"></scales>
<clustering>
<clus scale="   30.812">  2  9  1 -1</clus>
<clus scale="   77.976">  5  6 -1 -1</clus>
<clus scale="   86.115">  2  5  1 -1</clus>
<clus scale="   90.419">  7  8 -1 -1</clus>
<clus scale="   30.812">  2  5  1 -1</clus>
</clustering>
</event>
<event>
 9    2  0.4653788E-005  0.1610022E+03  0.7546771E-02  0.1191403E+00
         -1   -1    0    0    0  501 -0.00000000000E+00  0.00000000000E+00  0.37500970038E+02  0.37500970038E+02  0.00000000000E+00 0.  1.
         21   -1    0    0  501  502  0.00000000000E+00 -0.00000000000E+00 -0.81524662391E+03  0.81524662391E+03  0.00000000000E+00 0.  1.
         24    2    1    2    0    0 -0.11645270611E+03  0.61358924166E+02 -0.22620835123E+03  0.27308430526E+03  0.77965821225E+02 0.  0.
         23    2    1    2    0    0  0.93612717932E+02 -0.64938125433E+02 -0.50950688283E+03  0.53169421603E+03  0.10060404870E+03 0.  0.
        -13    1    3    3    0    0 -0.86789155310E+02  0.67613124045E+02 -0.12074414691E+03  0.16334944455E+03  0.00000000000E+00 0.  1.
         14    1    3    3    0    0 -0.29663550803E+02 -0.62541998785E+01 -0.10546420432E+03  0.10973486071E+03  0.00000000000E+00 0. -1.
        -13    1    4    4    0    0  0.26897812739E+02  0.26540711250E+02 -0.15532663699E+03  0.15985701687E+03  0.00000000000E+00 0.  1.
         13    1    4    4    0    0  0.66714905193E+02 -0.91478836683E+02 -0.35418024584E+03  0.37183719916E+03  0.00000000000E+00 0. -1.
         -2    1    1    2    0  502  0.22839988181E+02  0.35792012661E+01 -0.42030419811E+02  0.47969072655E+02  0.00000000000E+00 0.  1.
<scales pt_clust_5="13000.00000" pt_clust_6="13000.00000" pt_clust_7="13000.00000" pt_clust_8="13000.00000" pt_clust_9="23.11874"></scales>
<clustering>
<clus scale="   23.119">  2  9  1 -1</clus>
<clus scale="   77.966">  5  6 -1 -1</clus>
<clus scale="  100.604">  7  8 -1 -1</clus>
<clus scale="  147.916">  1  5  2 -1</clus>
<clus scale="   23.119">  2  5  1 -1</clus>
</clustering>
</event>
<event>
 9    2  0.4653788E-005  0.1446712E+03  0.7546771E-02  0.1220152E+00
          2   -1    0    0  502    0 -0.00000000000E+00  0.00000000000E+00  0.12343707040E+04  0.12343707040E+04  0.00000000000E+00 0. -1.
         21   -1    0    0  501  502  0.00000000000E+00 -0.00000000000E+00 -0.33932773071E+02  0.33932773071E+02  0.00000000000E+00 0. -1.
         23    2    1    2    0    0  0.62649856666E+02 -0.33059863740E+02  0.20524224590E+03  0.23279091691E+03  0.83959944982E+02 0.  0.
         24    2    1    2    0    0  0.46622250533E+02  0.11236429082E+03  0.39860437969E+03  0.42383390992E+03  0.77138599868E+02 0.  0.
        -11    1    4    4    0    0  0.43540286516E+02  0.40180563143E+02  0.96717647162E+02  0.11342194442E+03  0.00000000000E+00 0.  1.
         12    1    4    4    0    0  0.30819640173E+01  0.72183727675E+02  0.30188673253E+03  0.31041196549E+03  0.00000000000E+00 0. -1.
        -13    1    3    3    0    0  0.60896272413E+02 -0.14570032598E+01  0.65244814356E+02  0.89260095523E+02  0.00000000000E+00 0. -1.
         13    1    3    3    0    0  0.17535842524E+01 -0.31602860480E+02  0.13999743155E+03  0.14353082139E+03  0.00000000000E+00 0.  1.
          1    1    1    2  501    0 -0.10927210720E+03 -0.79304427078E+02  0.59659130534E+03  0.61167865025E+03  0.00000000000E+00 0. -1.
<scales pt_clust_5="13000.00000" pt_clust_6="13000.00000" pt_clust_7="13000.00000" pt_clust_8="13000.00000" pt_clust_9="122.39044"></scales>
<clustering>
<clus scale="   77.139">  5  6 -1 -1</clus>
<clus scale="   83.960">  7  8 -1 -1</clus>
<clus scale="  109.851">  1  7  2 -1</clus>
<clus scale="  122.390">  2  9  1 -1</clus>
<clus scale="  122.390">  2  5  1 -1</clus>
</clustering>
</event>
<event>
 9    2  0.4653788E-005  0.1085156E+03  0.7546771E-02  0.1267355E+00
         21   -1    0    0  501  502  0.00000000000E+00  0.00000000000E+00  0.13052314704E+03  0.13052314704E+03  0.00000000000E+00 0.  1.
         -1   -1    0    0    0  501 -0.00000000000E+00 -0.00000000000E+00 -0.37336353627E+03  0.37336353627E+03  0.00000000000E+00 0.  1.
         24    2    1    2    0    0  0.61308376746E+02  0.22187326882E+02 -0.25915924473E+03  0.27910706395E+03  0.80537224223E+02 0.  0.
         23    2    1    2    0    0 -0.46969309076E+02 -0.56877070426E+01 -0.77657548349E+02  0.12829433138E+03  0.90500136139E+02 0.  0.
        -11    1    3    3    0    0  0.75920189975E+02 -0.13230105271E+01 -0.18839099231E+03  0.20311767915E+03  0.00000000000E+00 0.  1.
         12    1    3    3    0    0 -0.14611813229E+02  0.23510337409E+02 -0.70768252422E+02  0.75989384797E+02  0.00000000000E+00 0. -1.
        -13    1    4    4    0    0 -0.40863513180E+02  0.37388889430E+02 -0.59092188930E+02  0.80991620275E+02  0.00000000000E+00 0.  1.
         13    1    4    4    0    0 -0.61057958965E+01 -0.43076596473E+02 -0.18565359419E+02  0.47302711101E+02  0.00000000000E+00 0. -1.
         -2    1    1    2    0  502 -0.14339067670E+02 -0.16499619839E+02  0.93976403850E+02  0.96485287982E+02  0.00000000000E+00 0.  1.
<scales pt_clust_5="13000.00000" pt_clust_6="13000.00000" pt_clust_7="13000.00000" pt_clust_8="13000.00000" pt_clust_9="21.85970"></scales>
<clustering>
<clus scale="   21.860">  1  9  2 -1</clus>
<clus scale="   80.537">  5  6 -1 -1</clus>
<clus scale="   90.500">  7  8 -1 -1</clus>
<clus scale="  100.357">  2  5  1 -1</clus>
<clus scale="   21.860">  1  5  2 -1</clus>
</clustering>
</event>
<event>
 9    2  0.4653788E-005  0.1519605E+03  0.7546771E-02  0.1199387E+00
         21   -1    0    0  501  502  0.00000000000E+00  0.00000000000E+00  0.20916081846E+02  0.20916081846E+02  0.00000000000E+00 0.  1.
          2   -1    0    0  502    0 -0.00000000000E+00 -0.00000000000E+00 -0.13338260954E+04  0.13338260954E+04  0.00000000000E+00 0. -1.
         23    2    1    2    0    0  0.12643755460E+03  0.21091582279E+02 -0.66612600578E+03  0.68438017382E+03  0.90670042964E+02 0.  0.
         24    2    1    2    0    0 -0.10736376448E+03 -0.46207818106E+02 -0.49846083354E+03  0.51872296232E+03  0.83355675803E+02 0.  0.
        -13    1    4    4    0    0 -0.22680399755E+02 -0.31292003145E+02 -0.56360038499E+02  0.68337719698E+02  0.00000000000E+00 0.  1.
         14    1    4    4    0    0 -0.84683364724E+02 -0.14915814961E+02 -0.44210079504E+03  0.45038524262E+03  0.00000000000E+00 0. -1.
        -13    1    3    3    0    0  0.43606667045E+02  0.41842298408E+02 -0.15866297281E+03  0.16978297408E+03  0.00000000000E+00 0.  1.
         13    1    3    3    0    0  0.82830887554E+02 -0.20750716128E+02 -0.50746303296E+03  0.51459719974E+03  0.00000000000E+00 0. -1.
          1    1    1    2  501    0 -0.19073790120E+02  0.25116235827E+02 -0.14832317428E+03  0.15163904115E+03  0.00000000000E+00 0. -1.
<scales pt_clust_5="13000.00000" pt_clust_6="13000.00000" pt_clust_7="13000.00000" pt_clust_8="13000.00000" pt_clust_9="31.53785"></scales>
<clustering>
<clus scale="   31.538">  1  9  2 -1</clus>
<clus scale="   83.356">  5  6 -1 -1</clus>
<clus scale="   90.670">  7  8 -1 -1</clus>
<clus scale="  147.713">  1  5  2 -1</clus>
<clus scale="   31.538">  1  5  2 -1</clus>
</clustering>
</event>
<event>
 9    2  0.4653788E-005  0.9884012E+02  0.7546771E-02  0.1289380E+00
         21   -1    0    0  501  502  0.00000000000E+00  0.00000000000E+00  0.13596997788E+04  0.13596997788E+04  0.00000000000E+00 0. -1.
         -3   -1    0    0    0  501 -0.00000000000E+00 -0.00000000000E+00 -0.62572056449E+02  0.62572056449E+02  0.00000000000E+00 0.  1.
         23    2    1    2    0    0 -0.15184659642E+02 -0.31507998971E+02 -0.72069372661E+01  0.98312335642E+02  0.91597202507E+02 0.  0.
         24    2    1    2    0    0  0.27190048976E+01  0.98506719472E+02  0.11258389798E+04  0.11328968690E+04  0.78936307276E+02 0.  0.
        -11    1    4    4    0    0  0.10208651000E+02  0.19403252476E+02  0.56422746262E+02  0.60532875842E+02  0.00000000000E+00 0.  1.
         12    1    4    4    0    0 -0.74896461024E+01  0.79103466996E+02  0.10694162335E+04  0.10723639932E+04  0.00000000000E+00 0. -1.
        -11    1    3    3    0    0 -0.53089913879E+02 -0.99851178838E+01 -0.85977910270E+01  0.54700672257E+02  0.00000000000E+00 0.  1.
         11    1    3    3    0    0  0.37905254237E+02 -0.21522881087E+02  0.13908537609E+01  0.43611663385E+02  0.00000000000E+00 0. -1.
         -4    1    1    2    0  502  0.12465654745E+02 -0.66998720500E+02  0.17849567982E+03  0.19106263059E+03  0.00000000000E+00 0.  1.
<scales pt_clust_5="13000.00000" pt_clust_6="13000.00000" pt_clust_7="13000.00000" pt_clust_8="13000.00000" pt_clust_9="68.14852"></scales>
<clustering>
<clus scale="   68.149">  1  9  2 -1</clus>
<clus scale="   78.936">  5  6 -1 -1</clus>
<clus scale="   87.237">  1  5  2 -1</clus>
<clus scale="   91.597">  7  8 -1 -1</clus>
<clus scale="   68.149">  1  5  2 -1</clus>
</clustering>
</event>
<event>
 9    2  0.4653788E-005  0.2467552E+03  0.7546771E-02  0.1116002E+00
          2   -1    0    0  502    0 -0.00000000000E+00  0.00000000000E+00  0.28652126270E+03  0.28652126270E+03  0.00000000000E+00 0. -1.
         21   -1    0    0  501  502  0.00000000000E+00 -0.00000000000E+00 -0.28151224205E+03  0.28151224205E+03  0.00000000000E+00 0. -1.
         24    2    1    2    0    0 -0.36834329443E+00  0.21425408890E+03 -0.34461648221E+02  0.23125012732E+03  0.79900349827E+02 0.  0.
         23    2    1    2    0    0  0.14677999876E+02 -0.24551818001E+03 -0.25272675232E+02  0.26347641821E+03  0.91030184245E+02 0.  0.
        -13    1    3    3    0    0  0.12835884808E+02  0.59230301433E+02  0.23804616904E+02  0.65112581984E+02  0.00000000000E+00 0.  1.
         14    1    3    3    0    0 -0.13204228102E+02  0.15502378746E+03 -0.58266265125E+02  0.16613754534E+03  0.00000000000E+00 0. -1.
        -13    1    4    4    0    0 -0.26889414534E+02 -0.64739712162E+02 -0.33716199206E+02  0.77788514793E+02  0.00000000000E+00 0.  1.
         13    1    4    4    0    0  0.41567414410E+02 -0.18077846785E+03  0.84435239746E+01  0.18568790342E+03  0.00000000000E+00 0. -1.
          1    1    1    2  501    0 -0.14309656582E+02  0.31264091112E+02  0.64743344106E+02  0.73306959223E+02  0.00000000000E+00 0. -1.
<scales pt_clust_5="13000.00000" pt_clust_6="13000.00000" pt_clust_7="13000.00000" pt_clust_8="13000.00000" pt_clust_9="34.38329"></scales>
<clustering>
<clus scale="   34.383">  2  9  1 -1</clus>
<clus scale="   79.900">  5  6 -1 -1</clus>
<clus scale="   91.030">  7  8 -1 -1</clus>
<clus scale="  242.870">  1  5  2 -1</clus>
<clus scale="   34.383">  2  5  1 -1</clus>
</clustering>
</event>
<event>
 9    2  0.4653788E-005  0.9510746E+02  0.7546771E-02  0.1298963E+00
         21   -1    0    0  501  502  0.00000000000E+00  0.00000000000E+00  0.41691079762E+03  0.41691079762E+03  0.00000000000E+00 0. -1.
          2   -1    0    0  502    0 -0.00000000000E+00 -0.00000000000E+00 -0.14156961123E+03  0.14156961123E+03  0.00000000000E+00 0. -1.
         24    2    1    2    0    0  0.27112659345E+02  0.16417406504E+01 -0.68025705676E+02  0.10856823594E+03  0.80135969539E+02 0.  0.
         23    2    1    2    0    0  0.18110911137E+02  0.36714571202E+02  0.68449834911E+00  0.10213695679E+03  0.93570960043E+02 0.  0.
        -11    1    3    3    0    0  0.19730899291E+02 -0.38140734896E+02 -0.25850013077E+02  0.50122322585E+02  0.00000000000E+00 0.  1.
         12    1    3    3    0    0  0.73817600547E+01  0.39782475546E+02 -0.42175692599E+02  0.58445913359E+02  0.00000000000E+00 0. -1.
        -11    1    4    4    0    0  0.17531973172E+02 -0.30000509371E+02  0.57797724212E+01  0.35225082187E+02  0.00000000000E+00 0. -1.
         11    1    4    4    0    0  0.57893796554E+00  0.66715080572E+02 -0.50952740721E+01  0.66911874602E+02  0.00000000000E+00 0.  1.
          1    1    1    2  501    0 -0.45223570483E+02 -0.38356311852E+02  0.34268239372E+03  0.34777521612E+03  0.00000000000E+00 0. -1.
<scales pt_clust_5="13000.00000" pt_clust_6="13000.00000" pt_clust_7="13000.00000" pt_clust_8="13000.00000" pt_clust_9="59.29906"></scales>
<clustering>
<clus scale="   59.299">  1  9  2 -1</clus>
<clus scale="   80.136">  5  6 -1 -1</clus>
<clus scale="   81.925">  2  5  1 -1</clus>
<clus scale="   93.571">  7  8 -1 -1</clus>
<clus scale="   59.299">  1  5  2 -1</clus>
</clustering>
</event>
<event>
 9    2  0.4653788E-005  0.1074368E+03  0.7546771E-02  0.1271842E+00
          2   -1    0    0  502    0 -0.00000000000E+00  0.00000000000E+00  0.99332138355E+03  0.99332138355E+03  0.00000000000E+00 0. -1.
         21   -1    0    0  501  502  0.00000000000E+00 -0.00000000000E+00 -0.22787822465E+02  0.22787822465E+02  0.00000000000E+00 0. -1.
         24    2    1    2    0    0  0.30890939711E+02 -0.39576688307E+02  0.59020370236E+03  0.59791998208E+03  0.81531161412E+02 0.  0.
         23    2    1    2    0    0  0.15732369661E+02  0.58235716583E+02  0.18887611168E+03  0.22025885847E+03  0.95921181349E+02 0.  0.
        -13    1    3    3    0    0 -0.18588328869E+01  0.22099945730E+02  0.82211733877E+02  0.85150643263E+02  0.00000000000E+00 0.  1.
         14    1    3    3    0    0  0.32749772598E+02 -0.61676634036E+02  0.50799196848E+03  0.51276933882E+03  0.00000000000E+00 0. -1.
        -13    1    4    4    0    0  0.42311740721E+02 -0.45656065503E+01  0.96232645903E+02  0.10522286018E+03  0.00000000000E+00 0. -1.
         13    1    4    4    0    0 -0.26579371060E+02  0.62801323133E+02  0.92643465779E+02  0.11503599830E+03  0.00000000000E+00 0.  1.
          1    1    1    2  501    0 -0.46623309372E+02 -0.18659028276E+02  0.19145374705E+03  0.19793036546E+03  0.00000000000E+00 0. -1.
<scales pt_clust_5="13000.00000" pt_clust_6="13000.00000" pt_clust_7="13000.00000" pt_clust_8="13000.00000" pt_clust_9="50.21847"></scales>
<clustering>
<clus scale="   50.218">  2  9  1 -1</clus>
<clus scale="   81.531">  5  6 -1 -1</clus>
<clus scale="   94.811">  1  5  2 -1</clus>
<clus scale="   95.921">  7  8 -1 -1</clus>
<clus scale="   50.218">  2  5  1 -1</clus>
</clustering>
</event>
<event>
 9    2  0.4653788E-005  0.1461199E+03  0.7546771E-02  0.1207451E+00
         21   -1    0    0  501  502  0.00000000000E+00  0.00000000000E+00  0.34260403037E+03  0.34260403037E+03  0.00000000000E+00 0.  1.
         -1   -1    0    0    0  501 -0.00000000000E+00 -0.00000000000E+00 -0.19013749623E+03  0.19013749623E+03  0.00000000000E+00 0.  1.
         23    2    1    2    0    0  0.34504143654E+02  0.81798019397E+02  0.42534925916E+02  0.13542847576E+03  0.93006452565E+02 0.  0.
         24    2    1    2    0    0  0.44129487522E+02 -0.18352377241E+03  0.15849448468E+03  0.25987313762E+03  0.82372078245E+02 0.  0.
        -11    1    4    4    0    0  0.41042015921E+02 -0.18765389235E+03  0.13245919426E+03  0.23333209923E+03  0.00000000000E+00 0.  1.
         12    1    4    4    0    0  0.30874716001E+01  0.41301199471E+01  0.26035290415E+02  0.26541038387E+02  0.00000000000E+00 0. -1.
        -11    1    3    3    0    0  0.50752362966E+02  0.56699135558E+02  0.63336076352E+02  0.99005317470E+02  0.00000000000E+00 0.  1.
         11    1    3    3    0    0 -0.16248219312E+02  0.25098883838E+02 -0.20801150435E+02  0.36423158295E+02  0.00000000000E+00 0. -1.
         -2    1    1    2    0  502 -0.78633631175E+02  0.10172575301E+03 -0.48562876456E+02  0.13743991322E+03  0.00000000000E+00 0.  1.
<scales pt_clust_5="13000.00000" pt_clust_6="13000.00000" pt_clust_7="13000.00000" pt_clust_8="13000.00000" pt_clust_9="128.57447"></scales>
<clustering>
<clus scale="   82.372">  5  6 -1 -1</clus>
<clus scale="   93.006">  7  8 -1 -1</clus>
<clus scale="  128.574">  1  9  2 -1</clus>
<clus scale="  139.592">  1  5  2 -1</clus>
<clus scale="  128.574">  1  5  2 -1</clus>
</clustering>
</event>
<event>
 9    2  0.4653788E-005  0.1613028E+03  0.7546771E-02  0.1206869E+00
          2   -1    0    0  502    0 -0.00000000000E+00  0.00000000000E+00  0.69746372926E+03  0.69746372926E+03  0.00000000000E+00 0. -1.
         21   -1    0    0  501  502  0.00000000000E+00 -0.00000000000E+00 -0.64112365980E+02  0.64112365980E+02  0.00000000000E+00 0. -1.
         23    2    1    2    0    0  0.54217416721E+01  0.52260583026E+02  0.10056797506E+03  0.14544418305E+03  0.90991916970E+02 0.  0.
         24    2    1    2    0    0 -0.13632873626E+03 -0.13995307284E+02  0.36453131801E+03  0.39954559755E+03  0.89287231770E+02 0.  0.
        -11    1    4    4    0    0 -0.60201477821E+02  0.10311455156E+02  0.63577515143E+02  0.88162602451E+02  0.00000000000E+00 0.  1.
         12    1    4    4    0    0 -0.76127258438E+02 -0.24306762440E+02  0.30095380287E+03  0.31138299510E+03  0.00000000000E+00 0. -1.
        -13    1    3    3    0    0 -0.34111663582E+02  0.44383924899E+02  0.28373575141E+02  0.62758251633E+02  0.00000000000E+00 0. -1.
         13    1    3    3    0    0  0.39533405254E+02  0.78766581267E+01  0.72194399923E+02  0.82685931418E+02  0.00000000000E+00 0.  1.
          1    1    1    2  501    0  0.13090699459E+03 -0.38265275742E+02  0.16825207021E+03  0.21658631464E+03  0.00000000000E+00 0. -1.
<scales pt_clust_5="13000.00000" pt_clust_6="13000.00000" pt_clust_7="13000.00000" pt_clust_8="13000.00000" pt_clust_9="134.33686"></scales>
<clustering>
<clus scale="   89.287">  5  6 -1 -1</clus>
<clus scale="   90.992">  7  8 -1 -1</clus>
<clus scale="  105.072">  1  7  2 -1</clus>
<clus scale="  134.337">  2  9  1 -1</clus>
<clus scale="  134.337">  2  5  1 -1</clus>
</clustering>
</event>
<event>
 9    2  0.4653788E-005  0.9003210E+02  0.7546771E-02  0.1307239E+00
          2   -1    0    0  502    0 -0.00000000000E+00  0.00000000000E+00  0.38354924275E+03  0.38354924275E+03  0.00000000000E+00 0. -1.
         21   -1    0    0  501  502  0.00000000000E+00 -0.00000000000E+00 -0.16542974551E+03  0.16542974551E+03  0.00000000000E+00 0. -1.
         23    2    1    2    0    0  0.11946980192E+02  0.10608737715E+02  0.33705913168E+03  0.34889047948E+03  0.88659081716E+02 0.  0.
         24    2    1    2    0    0  0.67123053826E+01 -0.24588955232E+02 -0.69036089142E+01  0.85652122810E+02  0.81479780086E+02 0.  0.
        -11    1    4    4    0    0 -0.19548727453E+02 -0.47791397787E+01 -0.36320077246E+02  0.41522776078E+02  0.00000000000E+00 0.  1.
         12    1    4    4    0    0  0.26261032836E+02 -0.19809815453E+02  0.29416468332E+02  0.44129346732E+02  0.00000000000E+00 0. -1.
        -11    1    3    3    0    0 -0.18315654443E+02 -0.32263919582E+02  0.12167029585E+03  0.12720096146E+03  0.00000000000E+00 0.  1.
         11    1    3    3    0    0  0.30262634635E+02  0.42872657297E+02  0.21538883583E+03  0.22168951802E+03  0.00000000000E+00 0. -1.
          1    1    1    2  501    0 -0.18659285575E+02  0.13980217517E+02 -0.11203602552E+03  0.11443638597E+03  0.00000000000E+00 0. -1.
<scales pt_clust_5="13000.00000" pt_clust_6="13000.00000" pt_clust_7="13000.00000" pt_clust_8="13000.00000" pt_clust_9="23.31556"></scales>
<clustering>
<clus scale="   23.316">  2  9  1 -1</clus>
<clus scale="   81.480">  5  6 -1 -1</clus>
<clus scale="   82.972">  2  5  1 -1</clus>
<clus scale="   88.659">  7  8 -1 -1</clus>
<clus scale="   23.316">  2  5  1 -1</clus>
</clustering>
</event>
<event>
 9    2  0.4653788E-005  0.9532895E+02  0.7546771E-02  0.1301912E+00
         -1   -1    0    0    0  501 -0.00000000000E+00  0.00000000000E+00  0.58707639656E+03  0.58707639656E+03  0.00000000000E+00 0.  1.
         21   -1    0    0  501  502  0.00000000000E+00 -0.00000000000E+00 -0.18768496397E+02  0.18768496397E+02  0.00000000000E+00 0. -1.
         23    2    1    2    0    0  0.19559121667E+01  0.23285074713E+02  0.25357953401E+03  0.27092054698E+03  0.92462654140E+02 0.  0.
         24    2    1    2    0    0  0.22563068324E+02 -0.18451504852E+02  0.16304949456E+03  0.18120049002E+03  0.73477410299E+02 0.  0.
        -13    1    4    4    0    0  0.30122904112E+02  0.17545602111E+02  0.11800259514E+03  0.12304409765E+03  0.00000000000E+00 0.  1.
         14    1    4    4    0    0 -0.75598357876E+01 -0.35997106962E+02  0.45046899417E+02  0.58156392373E+02  0.00000000000E+00 0. -1.
        -11    1    3    3    0    0  0.13377419837E+02 -0.29777412722E+02  0.15486141229E+03  0.15826467289E+03  0.00000000000E+00 0.  1.
         11    1    3    3    0    0 -0.11421507671E+02  0.53062487435E+02  0.98718121728E+02  0.11265587409E+03  0.00000000000E+00 0. -1.
         -2    1    1    2    0  502 -0.24518980491E+02 -0.48335698610E+01  0.15167887159E+03  0.15372385595E+03  0.00000000000E+00 0.  1.
<scales pt_clust_5="13000.00000" pt_clust_6="13000.00000" pt_clust_7="13000.00000" pt_clust_8="13000.00000" pt_clust_9="24.99089"></scales>
<clustering>
<clus scale="   24.991">  2  9  1 -1</clus>
<clus scale="   73.477">  5  6 -1 -1</clus>
<clus scale="   77.053">  2  5  1 -1</clus>
<clus scale="   92.463">  7  8 -1 -1</clus>
<clus scale="   24.991">  2  5  1 -1</clus>
</clustering>
</event>
<event>
 9    2  0.4653788E-005  0.1205188E+03  0.7546771E-02  0.1246723E+00
         21   -1    0    0  501  502  0.00000000000E+00  0.00000000000E+00  0.40410064670E+02  0.40410064670E+02  0.00000000000E+00 0. -1.
          2   -1    0    0  502    0 -0.00000000000E+00 -0.00000000000E+00 -0.70549125353E+03  0.70549125353E+03  0.00000000000E+00 0. -1.
         23    2    1    2    0    0  0.34339897394E+02  0.45860410249E+02 -0.18968664644E+03  0.21819369675E+03  0.91351298198E+02 0.  0.
         24    2    1    2    0    0 -0.45802508243E+02 -0.10495335540E+03 -0.18327598613E+03  0.22945166000E+03  0.77103181594E+02 0.  0.
        -11    1    4    4    0    0 -0.40571448051E+02 -0.29913391624E+02 -0.29861501235E+02  0.58588076017E+02  0.00000000000E+00 0.  1.
         12    1    4    4    0    0 -0.52310601921E+01 -0.75039963776E+02 -0.15341448490E+03  0.17086358398E+03  0.00000000000E+00 0. -1.
        -11    1    3    3    0    0 -0.31161259825E+02  0.13445835380E+02 -0.73104253609E+02  0.80598055179E+02  0.00000000000E+00 0.  1.
         11    1    3    3    0    0  0.65501157219E+02  0.32414574870E+02 -0.11658239283E+03  0.13759564157E+03  0.00000000000E+00 0. -1.
          1    1    1    2  501    0  0.11462610849E+02  0.59092945151E+02 -0.29211855629E+03  0.29825596145E+03  0.00000000000E+00 0. -1.
<scales pt_clust_5="13000.00000" pt_clust_6="13000.00000" pt_clust_7="13000.00000" pt_clust_8="13000.00000" pt_clust_9="60.19445"></scales>
<clustering>
<clus scale="   60.194">  1  9  2 -1</clus>
<clus scale="   77.103">  5  6 -1 -1</clus>
<clus scale="   91.351">  7  8 -1 -1</clus>
<clus scale="  110.112">  1  5  2 -1</clus>
<clus scale="   60.194">  1  5  2 -1</clus>
</clustering>
</event>
<event>
 9    2  0.4653788E-005  0.9179691E+02  0.7546771E-02  0.1303781E+00
         21   -1    0    0  501  502  0.00000000000E+00  0.00000000000E+00  0.20410850807E+03  0.20410850807E+03  0.00000000000E+00 0. -1.
         -1   -1    0    0    0  501 -0.00000000000E+00 -0.00000000000E+00 -0.57577535964E+02  0.57577535964E+02  0.00000000000E+00 0.  1.
         24    2    1    2    0    0 -0.27787596484E+02 -0.70186788717E+01  0.15812357586E+02  0.86786227493E+02  0.80376652447E+02 0.  0.
         23    2    1    2    0    0  0.56861841664E+01 -0.85561532719E+00  0.11876518990E+03  0.14856806203E+03  0.89074317030E+02 0.  0.
        -11    1    3    3    0    0 -0.47417513965E+02 -0.29220540483E+02  0.10419318758E+02  0.56664122866E+02  0.00000000000E+00 0.  1.
         12    1    3    3    0    0  0.19629917482E+02  0.22201861611E+02  0.53930388282E+01  0.30122104627E+02  0.00000000000E+00 0. -1.
        -13    1    4    4    0    0  0.29399809576E+02 -0.32540578167E+02  0.88416504597E+02  0.98695067332E+02  0.00000000000E+00 0. -1.
         13    1    4    4    0    0 -0.23713625410E+02  0.31684962840E+02  0.30348685305E+02  0.49872994696E+02  0.00000000000E+00 0.  1.
         -2    1    1    2    0  502  0.22101412317E+02  0.78742941989E+01  0.11953424613E+02  0.26331754509E+02  0.00000000000E+00 0.  1.
<scales pt_clust_5="13000.00000" pt_clust_6="13000.00000" pt_clust_7="13000.00000" pt_clust_8="13000.00000" pt_clust_9="23.46226"></scales>
<clustering>
<clus scale="   23.462">  1  9  2 -1</clus>
<clus scale="   80.377">  5  6 -1 -1</clus>
<clus scale="   83.384">  2  5  1 -1</clus>
<clus scale="   89.074">  7  8 -1 -1</clus>
<clus scale="   23.462">  1  5  2 -1</clus>
</clustering>
</event>
<event>
 9    2  0.4653788E-005  0.9600118E+02  0.7546771E-02  0.1295702E+00
         -1   -1    0    0    0  501 -0.00000000000E+00  0.00000000000E+00  0.11391449936E+03  0.11391449936E+03  0.00000000000E+00 0.  1.
         21   -1    0    0  501  502  0.00000000000E+00 -0.00000000000E+00 -0.10821247474E+03  0.10821247474E+03  0.00000000000E+00 0. -1.
         24    2    1    2    0    0  0.15178365570E+01 -0.25486199276E+02  0.35826764347E+02  0.89861008369E+02  0.78355558834E+02 0.  0.
         23    2    1    2    0    0 -0.18773444711E+02  0.43957473435E+02 -0.16976649650E+02  0.10377357632E+03  0.90532020917E+02 0.  0.
        -13    1    3    3    0    0  0.11854214173E+02  0.24238290043E+02 -0.12012001680E+01  0.27008516800E+02  0.00000000000E+00 0.  1.
         14    1    3    3    0    0 -0.10336377616E+02 -0.49724489319E+02  0.37027964515E+02  0.62852491569E+02  0.00000000000E+00 0. -1.
        -11    1    4    4    0    0  0.16692559925E+02  0.24862704739E+02  0.29661128037E+02  0.42149474020E+02  0.00000000000E+00 0.  1.
         11    1    4    4    0    0 -0.35466004635E+02  0.19094768697E+02 -0.46637777687E+02  0.61624102298E+02  0.00000000000E+00 0. -1.
         -2    1    1    2    0  502  0.17255608154E+02 -0.18471274159E+02 -0.13148090077E+02  0.28492389413E+02  0.00000000000E+00 0.  1.
<scales pt_clust_5="13000.00000" pt_clust_6="13000.00000" pt_clust_7="13000.00000" pt_clust_8="13000.00000" pt_clust_9="25.27734"></scales>
<clustering>
<clus scale="   25.277">  2  9  1 -1</clus>
<clus scale="   78.356">  5  6 -1 -1</clus>
<clus scale="   84.615">  1  5  2 -1</clus>
<clus scale="   90.532">  7  8 -1 -1</clus>
<clus scale="   25.277">  2  5  1 -1</clus>
</clustering>
</event>
<event>
 9    2  0.4653788E-005  0.1859212E+03  0.7546771E-02  0.1202255E+00
         21   -1    0    0  501  502  0.00000000000E+00  0.00000000000E+00  0.10505377256E+03  0.10505377256E+03  0.00000000000E+00 0. -1.
          2   -1    0    0  502    0 -0.00000000000E+00 -0.00000000000E+00 -0.59296832094E+03  0.59296832094E+03  0.00000000000E+00 0. -1.
         23    2    1    2    0    0 -0.29574411438E+00  0.19857508781E+01 -0.21149687667E+03  0.22466625963E+03  0.75762581159E+02 0.  0.
         24    2    1    2    0    0  0.10061039943E+01 -0.16884483147E+03 -0.23678903097E+03  0.30185397803E+03  0.80852888053E+02 0.  0.
        -13    1    4    4    0    0  0.25283357236E+01 -0.10565590282E+03 -0.79222402148E+02  0.13208236553E+03  0.00000000000E+00 0.  1.
         14    1    4    4    0    0 -0.15222317293E+01 -0.63188928656E+02 -0.15756662882E+03  0.16977161250E+03  0.00000000000E+00 0. -1.
        -11    1    3    3    0    0  0.37586249301E+02 -0.19400303586E+01 -0.10036481969E+03  0.10718949055E+03  0.00000000000E+00 0.  1.
         11    1    3    3    0    0 -0.37881993415E+02  0.39257812367E+01 -0.11113205698E+03  0.11747676908E+03  0.00000000000E+00 0. -1.
          1    1    1    2  501    0 -0.71035987992E+00  0.16685908060E+03 -0.39628640741E+02  0.17150185584E+03  0.00000000000E+00 0. -1.
<scales pt_clust_5="13000.00000" pt_clust_6="13000.00000" pt_clust_7="13000.00000" pt_clust_8="13000.00000" pt_clust_9="167.42013"></scales>
<clustering>
<clus scale="   75.763">  7  8 -1 -1</clus>
<clus scale="   75.789">  2  7  1 -1</clus>
<clus scale="   80.853">  5  6 -1 -1</clus>
<clus scale="  167.420">  1  9  2 -1</clus>
<clus scale="  167.420">  1  5  2 -1</clus>
</clustering>
</event>
<event>
 9    2  0.4653788E-005  0.1021027E+03  0.7546771E-02  0.1281762E+00
         -1   -1    0    0    0  501 -0.00000000000E+00  0.00000000000E+00  0.24318664367E+03  0.24318664367E+03  0.00000000000E+00 0.  1.
         21   -1    0    0  501  502  0.00000000000E+00 -0.00000000000E+00 -0.86328762852E+02  0.86328762852E+02  0.00000000000E+00 0. -1.
         24    2    1    2    0    0  0.58518730342E+02  0.17281275369E+02  0.45319216085E+02  0.11146365966E+03  0.81530557460E+02 0.  0.
         23    2    1    2    0    0 -0.91437777394E+01 -0.11879047106E+02 -0.14699579796E+01  0.94609376409E+02  0.93402638596E+02 0.  0.
        -11    1    3    3    0    0 -0.99369666088E-01 -0.27837027501E+02  0.13526230889E+02  0.30949457127E+02  0.00000000000E+00 0.  1.
         12    1    3    3    0    0  0.58618100008E+02  0.45118302869E+02  0.31792985196E+02  0.80514202536E+02  0.00000000000E+00 0. -1.
        -11    1    4    4    0    0 -0.25723658310E+02 -0.47222368635E+02 -0.98813781740E+01  0.54674494337E+02  0.00000000000E+00 0. -1.
         11    1    4    4    0    0  0.16579880570E+02  0.35343321529E+02  0.84114201944E+01  0.39934882073E+02  0.00000000000E+00 0.  1.
         -2    1    1    2    0  502 -0.49374952603E+02 -0.54022282629E+01  0.11300862272E+03  0.12344237045E+03  0.00000000000E+00 0.  1.
<scales pt_clust_5="13000.00000" pt_clust_6="13000.00000" pt_clust_7="13000.00000" pt_clust_8="13000.00000" pt_clust_9="49.66963"></scales>
<clustering>
<clus scale="   49.670">  2  9  1 -1</clus>
<clus scale="   81.531">  5  6 -1 -1</clus>
<clus scale="   91.368">  1  5  2 -1</clus>
<clus scale="   93.403">  7  8 -1 -1</clus>
<clus scale="   49.670">  2  5  1 -1</clus>
</clustering>
</event>
<event>
 9    2  0.4653788E-005  0.1119755E+03  0.7546771E-02  0.1260987E+00
         21   -1    0    0  501  502  0.00000000000E+00  0.00000000000E+00  0.44329144192E+02  0.44329144192E+02  0.00000000000E+00 0.  1.
          2   -1    0    0  502    0 -0.00000000000E+00 -0.00000000000E+00 -0.71793603051E+03  0.71793603051E+03  0.00000000000E+00 0. -1.
         23    2    1    2    0    0  0.56865726149E+02 -0.22056592965E+02 -0.46181830982E+03  0.47469001627E+03  0.91292147296E+02 0.  0.
         24    2    1    2    0    0 -0.92898661829E+02 -0.33259261219E+02 -0.12446094657E+03  0.17810218859E+03  0.80582395918E+02 0.  0.
        -11    1    4    4    0    0 -0.10016017965E+03 -0.26463152586E+02 -0.75624020740E+02  0.12826282605E+03  0.00000000000E+00 0.  1.
         12    1    4    4    0    0  0.72615178239E+01 -0.67961086330E+01 -0.48836925834E+02  0.49839362541E+02  0.00000000000E+00 0. -1.
        -11    1    3    3    0    0 -0.63960783458E+01  0.27493332694E+02 -0.91575958447E+02  0.95827706465E+02  0.00000000000E+00 0.  1.
         11    1    3    3    0    0  0.63261804495E+02 -0.49549925659E+02 -0.37024235137E+03  0.37886230981E+03  0.00000000000E+00 0. -1.
          1    1    1    2  501    0  0.36032935681E+02  0.55315854184E+02 -0.87327629922E+02  0.10947296984E+03  0.00000000000E+00 0. -1.
<scales pt_clust_5="13000.00000" pt_clust_6="13000.00000" pt_clust_7="13000.00000" pt_clust_8="13000.00000" pt_clust_9="66.01679"></scales>
<clustering>
<clus scale="   66.017">  1  9  2 -1</clus>
<clus scale="   80.582">  5  6 -1 -1</clus>
<clus scale="   91.292">  7  8 -1 -1</clus>
<clus scale="  103.430">  1  5  2 -1</clus>
<clus scale="   66.017">  1  5  2 -1</clus>
</clustering>
</event>
<event>
 9    2  0.4653788E-005  0.9350314E+02  0.7546771E-02  0.1298730E+00
         21   -1    0    0  501  502  0.00000000000E+00  0.00000000000E+00  0.36848008203E+02  0.36848008203E+02  0.00000000000E+00 0. -1.
          2   -1    0    0  502    0 -0.00000000000E+00 -0.00000000000E+00 -0.38511540933E+03  0.38511540933E+03  0.00000000000E+00 0. -1.
         24    2    1    2    0    0  0.82878435961E+01  0.25932058013E+02 -0.20871641578E+03  0.22588412202E+03  0.81975205890E+02 0.  0.
         23    2    1    2    0    0 -0.34051198388E+02 -0.16905078640E+02 -0.65223662567E+02  0.11689730439E+03  0.89250141843E+02 0.  0.
        -13    1    3    3    0    0  0.35021402554E+02 -0.14221178547E+02 -0.10173698206E+03  0.10853181134E+03  0.00000000000E+00 0.  1.
         14    1    3    3    0    0 -0.26733558958E+02  0.40153236561E+02 -0.10697943373E+03  0.11735231068E+03  0.00000000000E+00 0. -1.
        -11    1    4    4    0    0  0.23837850692E+02 -0.25361562502E+02 -0.94449653147E+01  0.36064655107E+02  0.00000000000E+00 0. -1.
         11    1    4    4    0    0 -0.57889049080E+02  0.84564838621E+01 -0.55778697252E+02  0.80832649281E+02  0.00000000000E+00 0.  1.
          1    1    1    2  501    0  0.25763354792E+02 -0.90269793729E+01 -0.74327322783E+02  0.79181991127E+02  0.00000000000E+00 0. -1.
<scales pt_clust_5="13000.00000" pt_clust_6="13000.00000" pt_clust_7="13000.00000" pt_clust_8="13000.00000" pt_clust_9="27.29904"></scales>
<clustering>
<clus scale="   27.299">  1  9  2 -1</clus>
<clus scale="   81.975">  5  6 -1 -1</clus>
<clus scale="   86.586">  2  5  1 -1</clus>
<clus scale="   89.250">  7  8 -1 -1</clus>
<clus scale="   27.299">  1  5  2 -1</clus>
</clustering>
</event>
<event>
 9    2  0.4653788E-005  0.1157816E+03  0.7546771E-02  0.1254058E+00
          2   -1    0    0  502    0 -0.00000000000E+00  0.00000000000E+00  0.65620626473E+03  0.65620626473E+03  0.00000000000E+00 0. -1.
         21   -1    0    0  501  502  0.00000000000E+00 -0.00000000000E+00 -0.58441621359E+02  0.58441621359E+02  0.00000000000E+00 0. -1.
         23    2    1    2    0    0  0.24234271563E+01  0.57630349108E+02  0.30143485795E+03  0.32037521853E+03  0.91924843885E+02 0.  0.
         24    2    1    2    0    0 -0.94924824385E+02 -0.96795435013E+02  0.15855256962E+03  0.22376468054E+03  0.80942179364E+02 0.  0.
        -13    1    4    4    0    0 -0.21515042252E+02 -0.48020438317E+02  0.13980991319E+02  0.54445639472E+02  0.00000000000E+00 0.  1.
         14    1    4    4    0    0 -0.73409782133E+02 -0.48774996696E+02  0.14457157830E+03  0.16931904107E+03  0.00000000000E+00 0. -1.
        -11    1    3    3    0    0  0.35593077303E+02 -0.49809458186E+01  0.76036940653E+02  0.84102873417E+02  0.00000000000E+00 0. -1.
         11    1    3    3    0    0 -0.33169650147E+02  0.62611294927E+02  0.22539791730E+03  0.23627234512E+03  0.00000000000E+00 0.  1.
          1    1    1    2  501    0  0.92501397229E+02  0.39165085905E+02  0.13777721579E+03  0.17050798701E+03  0.00000000000E+00 0. -1.
<scales pt_clust_5="13000.00000" pt_clust_6="13000.00000" pt_clust_7="13000.00000" pt_clust_8="13000.00000" pt_clust_9="100.45105"></scales>
<clustering>
<clus scale="   80.942">  5  6 -1 -1</clus>
<clus scale="   91.925">  7  8 -1 -1</clus>
<clus scale="  100.451">  2  9  1 -1</clus>
<clus scale="  107.270">  2  5  1 -1</clus>
<clus scale="  100.451">  2  5  1 -1</clus>
</clustering>
</event>
<event>
 9    2  0.4653788E-005  0.1591824E+03  0.7546771E-02  0.1191355E+00
          2   -1    0    0  502    0 -0.00000000000E+00  0.00000000000E+00  0.15522933115E+04  0.15522933115E+04  0.00000000000E+00 0. -1.
         21   -1    0    0  501  502  0.00000000000E+00 -0.00000000000E+00 -0.24726778724E+02  0.24726778724E+02  0.00000000000E+00 0.  1.
         23    2    1    2    0    0  0.15755898442E+03 -0.27152394002E+02  0.81652730098E+03  0.83712337824E+03  0.92177172210E+02 0.  0.
         24    2    1    2    0    0 -0.10145422625E+03 -0.16201535422E+02  0.40234476407E+03  0.42316404634E+03  0.81431266492E+02 0.  0.
        -13    1    4    4    0    0 -0.97642599939E+02 -0.39660061014E+02  0.29618298164E+03  0.31437454792E+03  0.00000000000E+00 0.  1.
         14    1    4    4    0    0 -0.38116263069E+01  0.23458525592E+02  0.10616178243E+03  0.10878949842E+03  0.00000000000E+00 0. -1.
        -13    1    3    3    0    0  0.30853228727E+02 -0.46243575556E+02  0.28479742377E+03  0.29017229811E+03  0.00000000000E+00 0. -1.
         13    1    3    3    0    0  0.12670575569E+03  0.19091181554E+02  0.53172987721E+03  0.54695108013E+03  0.00000000000E+00 0.  1.
          1    1    1    2  501    0 -0.56104758170E+02  0.43353929424E+02  0.30869446768E+03  0.31673266561E+03  0.00000000000E+00 0. -1.
<scales pt_clust_5="13000.00000" pt_clust_6="13000.00000" pt_clust_7="13000.00000" pt_clust_8="13000.00000" pt_clust_9="70.90354"></scales>
<clustering>
<clus scale="   70.904">  2  9  1 -1</clus>
<clus scale="   81.431">  5  6 -1 -1</clus>
<clus scale="   92.177">  7  8 -1 -1</clus>
<clus scale="  153.211">  2  5  1 -1</clus>
<clus scale="   70.904">  2  5  1 -1</clus>
</clustering>
</event>
<event>
 9    2  0.4653788E-005  0.1833705E+03  0.7546771E-02  0.1193110E+00
         21   -1    0    0  501  502  0.00000000000E+00  0.00000000000E+00  0.35956093362E+02  0.35956093362E+02  0.00000000000E+00 0. -1.
          2   -1    0    0  502    0 -0.00000000000E+00 -0.00000000000E+00 -0.17692605869E+04  0.17692605869E+04  0.00000000000E+00 0. -1.
         23    2    1    2    0    0  0.75693590845E+01 -0.28271859428E+02 -0.12695850758E+03  0.15942734970E+03  0.91880487336E+02 0.  0.
         24    2    1    2    0    0  0.14889039984E+03  0.82533652143E+02 -0.99939827130E+03  0.10166553809E+04  0.76230596881E+02 0.  0.
        -13    1    4    4    0    0  0.52325448726E+02  0.32875424441E+02 -0.18495282601E+03  0.19500331783E+03  0.00000000000E+00 0.  1.
         14    1    4    4    0    0  0.96564951112E+02  0.49658227702E+02 -0.81444544529E+03  0.82165206305E+03  0.00000000000E+00 0. -1.
        -11    1    3    3    0    0  0.24032581728E+02 -0.41636973628E+01 -0.12791391405E+03  0.13021855001E+03  0.00000000000E+00 0.  1.
         11    1    3    3    0    0 -0.16463222643E+02 -0.24108162065E+02  0.95540646316E+00  0.29208799692E+02  0.00000000000E+00 0. -1.
          1    1    1    2  501    0 -0.15645975892E+03 -0.54261792715E+02 -0.60694771467E+03  0.62913394969E+03  0.00000000000E+00 0. -1.
<scales pt_clust_5="13000.00000" pt_clust_6="13000.00000" pt_clust_7="13000.00000" pt_clust_8="13000.00000" pt_clust_9="166.77421"></scales>
<clustering>
<clus scale="   76.231">  5  6 -1 -1</clus>
<clus scale="   91.880">  7  8 -1 -1</clus>
<clus scale="   96.429">  2  7  1 -1</clus>
<clus scale="  166.774">  1  9  2 -1</clus>
<clus scale="  166.774">  1  5  2 -1</clus>
</clustering>
</event>
<event>
 9    2  0.4653788E-005  0.1342416E+03  0.7546771E-02  0.1223507E+00
         21   -1    0    0  501  502  0.00000000000E+00  0.00000000000E+00  0.18908384175E+02  0.18908384175E+02  0.00000000000E+00 0.  1.
          2   -1    0    0  502    0 -0.00000000000E+00 -0.00000000000E+00 -0.14070431419E+04  0.14070431419E+04  0.00000000000E+00 0. -1.
         23    2    1    2    0    0  0.89592035765E+02  0.74667788460E+02 -0.74308071505E+03  0.75775131341E+03  0.91739263071E+02 0.  0.
         24    2    1    2    0    0 -0.62609274661E+02 -0.37511098622E+02 -0.29093713593E+03  0.31111832760E+03  0.82602620505E+02 0.  0.
        -11    1    4    4    0    0 -0.80527074232E+02 -0.26985016327E+02 -0.19080368095E+03  0.20885125198E+03  0.00000000000E+00 0.  1.
         12    1    4    4    0    0  0.17917799570E+02 -0.10526082295E+02 -0.10013345498E+03  0.10226707562E+03  0.00000000000E+00 0. -1.
        -13    1    3    3    0    0  0.24151686010E+02 -0.21210203918E+02 -0.17609429078E+03  0.17900384335E+03  0.00000000000E+00 0. -1.
         13    1    3    3    0    0  0.65440349755E+02  0.95877992378E+02 -0.56698642427E+03  0.57874747006E+03  0.00000000000E+00 0.  1.
          1    1    1    2  501    0 -0.26982761103E+02 -0.37156689838E+02 -0.35411690675E+03  0.35708188507E+03  0.00000000000E+00 0. -1.
<scales pt_clust_5="13000.00000" pt_clust_6="13000.00000" pt_clust_7="13000.00000" pt_clust_8="13000.00000" pt_clust_9="45.92049"></scales>
<clustering>
<clus scale="   45.920">  1  9  2 -1</clus>
<clus scale="   82.603">  5  6 -1 -1</clus>
<clus scale="   91.739">  7  8 -1 -1</clus>
<clus scale="  128.171">  1  5  2 -1</clus>
<clus scale="   45.920">  1  5  2 -1</clus>
</clustering>
</event>
<event>
 9    2  0.4653788E-005  0.1390558E+03  0.7546771E-02  0.1216818E+00
         21   -1    0    0  501  502  0.00000000000E+00  0.00000000000E+00  0.33388285017E+03  0.33388285017E+03  0.00000000000E+00 0.  1.
          2   -1    0    0  502    0 -0.00000000000E+00 -0.00000000000E+00 -0.16175095933E+03  0.16175095933E+03  0.00000000000E+00 0. -1.
         23    2    1    2    0    0 -0.86831346162E+02  0.64552707700E+02 -0.10246514307E+03  0.17455901526E+03  0.90912097754E+02 0.  0.
         24    2    1    2    0    0  0.90683015857E+02 -0.21837057409E+02  0.20752658467E+03  0.24146381950E+03  0.80853115829E+02 0.  0.
        -13    1    4    4    0    0  0.60791708382E+02 -0.25391668768E+02  0.19980642552E+03  0.21038768103E+03  0.00000000000E+00 0.  1.
         14    1    4    4    0    0  0.29891307475E+02  0.35546113589E+01  0.77201591490E+01  0.31076138462E+02  0.00000000000E+00 0. -1.
        -13    1    3    3    0    0 -0.50267812818E+02  0.14416807953E+02 -0.99536440571E+02  0.11243753981E+03  0.00000000000E+00 0. -1.
         13    1    3    3    0    0 -0.36563533344E+02  0.50135899747E+02 -0.29287024954E+01  0.62121475452E+02  0.00000000000E+00 0.  1.
          1    1    1    2  501    0 -0.38516696949E+01 -0.42715650291E+02  0.67070449233E+02  0.79610974743E+02  0.00000000000E+00 0. -1.
<scales pt_clust_5="13000.00000" pt_clust_6="13000.00000" pt_clust_7="13000.00000" pt_clust_8="13000.00000" pt_clust_9="42.88895"></scales>
<clustering>
<clus scale="   42.889">  1  9  2 -1</clus>
<clus scale="   80.853">  5  6 -1 -1</clus>
<clus scale="   90.912">  7  8 -1 -1</clus>
<clus scale="  132.698">  1  5  2 -1</clus>
<clus scale="   42.889">  1  5  2 -1</clus>
</clustering>
</event>
<event>
 9    2  0.4653788E-005  0.9626233E+02  0.7546771E-02  0.1294579E+00
          2   -1    0    0  502    0 -0.00000000000E+00  0.00000000000E+00  0.31199059292E+03  0.31199059292E+03  0.00000000000E+00 0. -1.
         21   -1    0    0  501  502  0.00000000000E+00 -0.00000000000E+00 -0.97812916742E+02  0.97812916742E+02  0.00000000000E+00 0. -1.
         23    2    1    2    0    0 -0.35167307323E+02 -0.77676681372E+01  0.26160950500E+03  0.27940416226E+03  0.91269253388E+02 0.  0.
         24    2    1    2    0    0 -0.28591438039E+01  0.97734077021E+01 -0.19065544806E+02  0.82915876115E+02  0.80049068150E+02 0.  0.
        -11    1    4    4    0    0 -0.45931990609E+01  0.35464900214E+02  0.16192245796E+02  0.39256151731E+02  0.00000000000E+00 0.  1.
         12    1    4    4    0    0  0.17340552570E+01 -0.25691492512E+02 -0.35257790602E+02  0.43659724384E+02  0.00000000000E+00 0. -1.
        -11    1    3    3    0    0 -0.43104793649E+02  0.30611744416E+02  0.10005741851E+03  0.11316620136E+03  0.00000000000E+00 0.  1.
         11    1    3    3    0    0  0.79374863265E+01 -0.38379412554E+02  0.16155208649E+03  0.16623796090E+03  0.00000000000E+00 0. -1.
          1    1    1    2  501    0  0.38026451127E+02 -0.20057395649E+01 -0.28366284011E+02  0.47483471283E+02  0.00000000000E+00 0. -1.
<scales pt_clust_5="13000.00000" pt_clust_6="13000.00000" pt_clust_7="13000.00000" pt_clust_8="13000.00000" pt_clust_9="38.07931"></scales>
<clustering>
<clus scale="   38.079">  2  9  1 -1</clus>
<clus scale="   80.049">  5  6 -1 -1</clus>
<clus scale="   85.698">  2  5  1 -1</clus>
<clus scale="   91.269">  7  8 -1 -1</clus>
<clus scale="   38.079">  2  5  1 -1</clus>
</clustering>
</event>
<event>
 9    2  0.4653788E-005  0.1008242E+03  0.7546771E-02  0.1283350E+00
         -1   -1    0    0    0  501 -0.00000000000E+00  0.00000000000E+00  0.21358972917E+03  0.21358972917E+03  0.00000000000E+00 0.  1.
         21   -1    0    0  501  502  0.00000000000E+00 -0.00000000000E+00 -0.98150777592E+02  0.98150777592E+02  0.00000000000E+00 0.  1.
         23    2    1    2    0    0 -0.10779134086E+02  0.43680837084E+01  0.46925472506E+02  0.10235209733E+03  0.90214643887E+02 0.  0.
         24    2    1    2    0    0  0.69878859723E+02 -0.42346739003E+02  0.77851028277E+02  0.13851989982E+03  0.80316117330E+02 0.  0.
        -11    1    4    4    0    0  0.80703735482E+02 -0.43347293161E+02  0.41485111060E+02  0.10056388609E+03  0.00000000000E+00 0.  1.
         12    1    4    4    0    0 -0.10824875758E+02  0.10005541581E+01  0.36365917217E+02  0.37956013738E+02  0.00000000000E+00 0. -1.
        -13    1    3    3    0    0  0.28738986970E+02  0.10222523234E+02  0.53771104469E+02  0.61820393311E+02  0.00000000000E+00 0. -1.
         13    1    3    3    0    0 -0.39518121056E+02 -0.58544395260E+01 -0.68456319632E+01  0.40531704022E+02  0.00000000000E+00 0.  1.
         -2    1    1    2    0  502 -0.59099725638E+02  0.37978655295E+02 -0.93375492052E+01  0.70868509605E+02  0.00000000000E+00 0.  1.
<scales pt_clust_5="13000.00000" pt_clust_6="13000.00000" pt_clust_7="13000.00000" pt_clust_8="13000.00000" pt_clust_9="70.25066"></scales>
<clustering>
<clus scale="   70.251">  2  9  1 -1</clus>
<clus scale="   80.316">  5  6 -1 -1</clus>
<clus scale="   90.215">  7  8 -1 -1</clus>
<clus scale="   92.073">  2  5  1 -1</clus>
<clus scale="   70.251">  2  5  1 -1</clus>
</clustering>
</event>
<event>
 9    2  0.4653788E-005  0.1739387E+03  0.7546771E-02  0.1197751E+00
         21   -1    0    0  501  502  0.00000000000E+00  0.00000000000E+00  0.68715563456E+03  0.68715563456E+03  0.00000000000E+00 0.  1.
         -1   -1    0    0    0  501 -0.00000000000E+00 -0.00000000000E+00 -0.18084404048E+03  0.18084404048E+03  0.00000000000E+00 0.  1.
         24    2    1    2    0    0 -0.58908450026E+02  0.24258357496E+02  0.11582034291E+03  0.15437730534E+03  0.79745389709E+02 0.  0.
         23    2    1    2    0    0  0.19785049281E+03 -0.26304753998E+02 -0.69135933838E+02  0.23344924656E+03  0.99408328536E+02 0.  0.
        -11    1    3    3    0    0  0.19329000352E+02  0.91723135800E+01  0.16337780084E+02  0.26919596005E+02  0.00000000000E+00 0.  1.
         12    1    3    3    0    0 -0.78237450378E+02  0.15086043916E+02  0.99482562824E+02  0.12745770933E+03  0.00000000000E+00 0. -1.
        -11    1    4    4    0    0  0.41888622034E+02 -0.35703057367E+02  0.13537565869E+02  0.56680072785E+02  0.00000000000E+00 0. -1.
         11    1    4    4    0    0  0.15596187077E+03  0.93983033686E+01 -0.82673499708E+02  0.17676917377E+03  0.00000000000E+00 0.  1.
         -2    1    1    2    0  502 -0.13894204278E+03  0.20463965017E+01  0.45962718501E+03  0.48017312314E+03  0.00000000000E+00 0.  1.
<scales pt_clust_5="13000.00000" pt_clust_6="13000.00000" pt_clust_7="13000.00000" pt_clust_8="13000.00000" pt_clust_9="142.73280"></scales>
<clustering>
<clus scale="   79.745">  5  6 -1 -1</clus>
<clus scale="   99.408">  7  8 -1 -1</clus>
<clus scale="  102.069">  2  5  1 -1</clus>
<clus scale="  142.733">  1  9  2 -1</clus>
<clus scale="  142.733">  1  5  2 -1</clus>
</clustering>
</event>
<event>
 9    2  0.4653788E-005  0.1041887E+03  0.7546771E-02  0.1276590E+00
         21   -1    0    0  501  502  0.00000000000E+00  0.00000000000E+00  0.38167126405E+02  0.38167126405E+02  0.00000000000E+00 0. -1.
          2   -1    0    0  502    0 -0.00000000000E+00 -0.00000000000E+00 -0.37330550043E+03  0.37330550043E+03  0.00000000000E+00 0. -1.
         23    2    1    2    0    0 -0.60879126015E+02  0.30855177214E+01 -0.18355507294E+03  0.21345268598E+03  0.90298371778E+02 0.  0.
         24    2    1    2    0    0  0.39147253730E+02  0.68549610650E+01 -0.70156609948E+02  0.11315891670E+03  0.79394537237E+02 0.  0.
        -13    1    4    4    0    0  0.72969905801E+01 -0.32336536310E+02 -0.10022305362E+02  0.34631550021E+02  0.00000000000E+00 0.  1.
         14    1    4    4    0    0  0.31850263149E+02  0.39191497375E+02 -0.60134304586E+02  0.78527366677E+02  0.00000000000E+00 0. -1.
        -11    1    3    3    0    0  0.93693515801E+01  0.31282722658E+02 -0.65956570733E+02  0.73597980331E+02  0.00000000000E+00 0.  1.
         11    1    3    3    0    0 -0.70248477595E+02 -0.28197204937E+02 -0.11759850221E+03  0.13985470565E+03  0.00000000000E+00 0. -1.
          1    1    1    2  501    0  0.21731872285E+02 -0.99404787865E+01 -0.81426691139E+02  0.84861024160E+02  0.00000000000E+00 0. -1.
<scales pt_clust_5="13000.00000" pt_clust_6="13000.00000" pt_clust_7="13000.00000" pt_clust_8="13000.00000" pt_clust_9="23.89745"></scales>
<clustering>
<clus scale="   23.897">  1  9  2 -1</clus>
<clus scale="   79.395">  5  6 -1 -1</clus>
<clus scale="   90.298">  7  8 -1 -1</clus>
<clus scale="   94.895">  1  5  2 -1</clus>
<clus scale="   23.897">  1  5  2 -1</clus>
</clustering>
</event>
<event>
 9    2  0.4653788E-005  0.2442964E+03  0.7546771E-02  0.1116963E+00
          2   -1    0    0  502    0 -0.00000000000E+00  0.00000000000E+00  0.38945597137E+03  0.38945597137E+03  0.00000000000E+00 0. -1.
         21   -1    0    0  501  502  0.00000000000E+00 -0.00000000000E+00 -0.11168279522E+03  0.11168279522E+03  0.00000000000E+00 0. -1.
         24    2    1    2    0    0  0.76310276663E+02 -0.35570657774E+02  0.17373946987E+02  0.11712136069E+03  0.79542624285E+02 0.  0.
         23    2    1    2    0    0  0.72917431429E+02 -0.29084730469E+02  0.94077050189E+02  0.15139690958E+03  0.88925021814E+02 0.  0.
        -13    1    3    3    0    0  0.79525692641E+02 -0.42782939062E+02  0.35748437689E+02  0.97121915456E+02  0.00000000000E+00 0.  1.
         14    1    3    3    0    0 -0.32154159776E+01  0.72122812876E+01 -0.18374490702E+02  0.19999445238E+02  0.00000000000E+00 0. -1.
        -13    1    4    4    0    0  0.53046716605E+02  0.23197372183E+02  0.26492521104E+02  0.63670447566E+02  0.00000000000E+00 0. -1.
         13    1    4    4    0    0  0.19870714824E+02 -0.52282102652E+02  0.67584529085E+02  0.87726462011E+02  0.00000000000E+00 0.  1.
          1    1    1    2  501    0 -0.14922770809E+03  0.64655388243E+02  0.16632217897E+03  0.23262049632E+03  0.00000000000E+00 0. -1.
<scales pt_clust_5="13000.00000" pt_clust_6="13000.00000" pt_clust_7="13000.00000" pt_clust_8="13000.00000" pt_clust_9="162.63227"></scales>
<clustering>
<clus scale="   79.543">  5  6 -1 -1</clus>
<clus scale="   88.925">  7  8 -1 -1</clus>
<clus scale="  109.434">  5  7 -1 -1</clus>
<clus scale="  162.632">  2  9  1 -1</clus>
<clus scale="  162.632">  2  5  1 -1</clus>
</clustering>
</event>
<event>
 9    2  0.4653788E-005  0.1865206E+03  0.7546771E-02  0.1163200E+00
         -1   -1    0    0    0  501 -0.00000000000E+00  0.00000000000E+00  0.12106032972E+04  0.12106032972E+04  0.00000000000E+00 0.  1.
         21   -1    0    0  501  502  0.00000000000E+00 -0.00000000000E+00 -0.50003266376E+02  0.50003266376E+02  0.00000000000E+00 0.  1.
         23    2    1    2    0    0  0.43064290317E+02 -0.12716209329E+03  0.29710153306E+03  0.33914223777E+03  0.93399172505E+02 0.  0.
         24    2    1    2    0    0  0.14332767634E+02  0.19865441973E+03  0.45745811757E+03  0.50520195020E+03  0.79322597302E+02 0.  0.
        -11    1    4    4    0    0 -0.11196298879E+02  0.17459467167E+03  0.33655494037E+03  0.37931238362E+03  0.00000000000E+00 0.  1.
         12    1    4    4    0    0  0.25529066513E+02  0.24059748061E+02  0.12090317721E+03  0.12588956658E+03  0.00000000000E+00 0. -1.
        -13    1    3    3    0    0  0.65677878206E+02 -0.85101685901E+02  0.24970032882E+03  0.27185682784E+03  0.00000000000E+00 0. -1.
         13    1    3    3    0    0 -0.22613587889E+02 -0.42060407388E+02  0.47401204243E+02  0.67285409938E+02  0.00000000000E+00 0.  1.
         -2    1    1    2    0  502 -0.57397057951E+02 -0.71492326441E+02  0.40604038021E+03  0.41626237562E+03  0.00000000000E+00 0.  1.
<scales pt_clust_5="13000.00000" pt_clust_6="13000.00000" pt_clust_7="13000.00000" pt_clust_8="13000.00000" pt_clust_9="91.68197"></scales>
<clustering>
<clus scale="   79.323">  5  6 -1 -1</clus>
<clus scale="   91.682">  2  9  1 -1</clus>
<clus scale="   93.399">  7  8 -1 -1</clus>
<clus scale="  179.885">  2  5  1 -1</clus>
<clus scale="   91.682">  2  5  1 -1</clus>
</clustering>
</event>
<event>
 9    2  0.4653788E-005  0.1156026E+03  0.7546771E-02  0.1254313E+00
         21   -1    0    0  501  502  0.00000000000E+00  0.00000000000E+00  0.14631397571E+03  0.14631397571E+03  0.00000000000E+00 0. -1.
          2   -1    0    0  502    0 -0.00000000000E+00 -0.00000000000E+00 -0.28872809166E+03  0.28872809166E+03  0.00000000000E+00 0. -1.
         24    2    1    2    0    0 -0.28158751574E+02  0.64672276576E+02 -0.21663671134E+03  0.24193257877E+03  0.81390965843E+02 0.  0.
         23    2    1    2    0    0 -0.30800228951E+01 -0.68855930796E+02  0.99953430274E+02  0.15242239167E+03  0.92148095535E+02 0.  0.
        -11    1    3    3    0    0  0.12233319154E+02  0.24546899298E+02 -0.12749010891E+02  0.30244696087E+02  0.00000000000E+00 0.  1.
         12    1    3    3    0    0 -0.40392070728E+02  0.40125377278E+02 -0.20388770045E+03  0.21168788268E+03  0.00000000000E+00 0. -1.
        -11    1    4    4    0    0  0.43089885631E+02 -0.35910195156E+02  0.34671864284E+02  0.65942539629E+02  0.00000000000E+00 0.  1.
         11    1    4    4    0    0 -0.46169908526E+02 -0.32945735640E+02  0.65281565990E+02  0.86479852036E+02  0.00000000000E+00 0. -1.
          1    1    1    2  501    0  0.31238774469E+02  0.41836542200E+01 -0.25730834888E+02  0.40687096935E+02  0.00000000000E+00 0. -1.
<scales pt_clust_5="13000.00000" pt_clust_6="13000.00000" pt_clust_7="13000.00000" pt_clust_8="13000.00000" pt_clust_9="31.51769"></scales>
<clustering>
<clus scale="   31.518">  1  9  2 -1</clus>
<clus scale="   81.391">  5  6 -1 -1</clus>
<clus scale="   92.148">  7  8 -1 -1</clus>
<clus scale="  107.225">  2  5  1 -1</clus>
<clus scale="   31.518">  1  5  2 -1</clus>
</clustering>
</event>
<event>
 9    2  0.4653788E-005  0.1393890E+03  0.7546771E-02  0.1229627E+00
         21   -1    0    0  501  502  0.00000000000E+00  0.00000000000E+00  0.60999154519E+02  0.60999154519E+02  0.00000000000E+00 0. -1.
          2   -1    0    0  502    0 -0.00000000000E+00 -0.00000000000E+00 -0.11432568756E+04  0.11432568756E+04  0.00000000000E+00 0. -1.
         23    2    1    2    0    0  0.93095766679E+01  0.42629837090E+02 -0.39390261526E+03  0.40660170037E+03  0.90893900816E+02 0.  0.
         24    2    1    2    0    0 -0.12079833072E+03 -0.18492032704E+02 -0.66546969928E+03  0.68130950730E+03  0.79990825103E+02 0.  0.
        -13    1    4    4    0    0 -0.12067081493E+03  0.65904146179E+01 -0.54013027574E+03  0.55348495364E+03  0.00000000000E+00 0.  1.
         14    1    4    4    0    0 -0.12751578961E+00 -0.25082447322E+02 -0.12533942354E+03  0.12782455366E+03  0.00000000000E+00 0. -1.
        -13    1    3    3    0    0  0.23813628814E+02  0.67750270477E+02 -0.28229245751E+03  0.29128374420E+03  0.00000000000E+00 0.  1.
         13    1    3    3    0    0 -0.14504052147E+02 -0.25120433387E+02 -0.11161015775E+03  0.11531795617E+03  0.00000000000E+00 0. -1.
          1    1    1    2  501    0  0.11148875405E+03 -0.24137804386E+02 -0.22885406549E+02  0.11634482246E+03  0.00000000000E+00 0. -1.
<scales pt_clust_5="13000.00000" pt_clust_6="13000.00000" pt_clust_7="13000.00000" pt_clust_8="13000.00000" pt_clust_9="114.15236"></scales>
<clustering>
<clus scale="   79.991">  5  6 -1 -1</clus>
<clus scale="   90.894">  7  8 -1 -1</clus>
<clus scale="  100.825">  2  7  1 -1</clus>
<clus scale="  114.152">  1  9  2 -1</clus>
<clus scale="  114.152">  1  5  2 -1</clus>
</clustering>
</event>
<event>
 9    2  0.4653788E-005  0.1173943E+03  0.7546771E-02  0.1249134E+00
         -1   -1    0    0    0  501 -0.00000000000E+00  0.00000000000E+00  0.77832539932E+03  0.77832539932E+03  0.00000000000E+00 0.  1.
         21   -1    0    0  501  502  0.00000000000E+00 -0.00000000000E+00 -0.24163400761E+02  0.24163400761E+02  0.00000000000E+00 0. -1.
         23    2    1    2    0    0 -0.52525000948E+02 -0.41875396364E+02  0.43581522757E+03  0.45056046611E+03  0.92506197070E+02 0.  0.
         24    2    1    2    0    0  0.54215700549E+02  0.64197968964E+02  0.22180627492E+03  0.25282624977E+03  0.87534950565E+02 0.  0.
        -13    1    4    4    0    0  0.59020085602E+02  0.82811108983E+02  0.17826401811E+03  0.20522940927E+03  0.00000000000E+00 0.  1.
         14    1    4    4    0    0 -0.48043850524E+01 -0.18613140019E+02  0.43542256814E+02  0.47596840499E+02  0.00000000000E+00 0. -1.
        -11    1    3    3    0    0 -0.78398902846E+02 -0.28115773755E+02  0.35366447128E+03  0.36333929453E+03  0.00000000000E+00 0.  1.
         11    1    3    3    0    0  0.25873901898E+02 -0.13759622609E+02  0.82150756285E+02  0.87221171581E+02  0.00000000000E+00 0. -1.
         -2    1    1    2    0  502 -0.16906996013E+01 -0.22322572600E+02  0.96540496067E+02  0.99102084203E+02  0.00000000000E+00 0.  1.
<scales pt_clust_5="13000.00000" pt_clust_6="13000.00000" pt_clust_7="13000.00000" pt_clust_8="13000.00000" pt_clust_9="22.38652"></scales>
<clustering>
<clus scale="   22.387">  2  9  1 -1</clus>
<clus scale="   87.535">  5  6 -1 -1</clus>
<clus scale="   92.506">  7  8 -1 -1</clus>
<clus scale="  113.518">  2  5  1 -1</clus>
<clus scale="   22.387">  2  5  1 -1</clus>
</clustering>
</event>
<event>
 9    2  0.4653788E-005  0.1866369E+03  0.7546771E-02  0.1162822E+00
         21   -1    0    0  501  502  0.00000000000E+00  0.00000000000E+00  0.10254131887E+03  0.10254131887E+03  0.00000000000E+00 0. -1.
         -1   -1    0    0    0  501 -0.00000000000E+00 -0.00000000000E+00 -0.54401176606E+03  0.54401176606E+03  0.00000000000E+00 0.  1.
         23    2    1    2    0    0 -0.12405797138E+03 -0.84826250176E+02 -0.26903601230E+03  0.32161384433E+03  0.92028343301E+02 0.  0.
         24    2    1    2    0    0  0.14517936925E+03  0.10828694390E+03 -0.20110629143E+03  0.28229427659E+03  0.80269587423E+02 0.  0.
        -13    1    4    4    0    0  0.72230400057E+02  0.10415702097E+02 -0.52070982058E+02  0.89649900809E+02  0.00000000000E+00 0.  1.
         14    1    4    4    0    0  0.72948969189E+02  0.97871241802E+02 -0.14903530938E+03  0.19264437578E+03  0.00000000000E+00 0. -1.
        -11    1    3    3    0    0 -0.48539984260E+02 -0.88098633531E+02 -0.14980549455E+03  0.18044164015E+03  0.00000000000E+00 0.  1.
         11    1    3    3    0    0 -0.75517987123E+02  0.32723833548E+01 -0.11923051775E+03  0.14117220419E+03  0.00000000000E+00 0. -1.
         -2    1    1    2    0  502 -0.21121397863E+02 -0.23460693723E+02  0.28671856543E+02  0.42644964008E+02  0.00000000000E+00 0.  1.
<scales pt_clust_5="13000.00000" pt_clust_6="13000.00000" pt_clust_7="13000.00000" pt_clust_8="13000.00000" pt_clust_9="31.56767"></scales>
<clustering>
<clus scale="   31.568">  1  9  2 -1</clus>
<clus scale="   80.270">  5  6 -1 -1</clus>
<clus scale="   92.028">  7  8 -1 -1</clus>
<clus scale="  181.128">  1  5  2 -1</clus>
<clus scale="   31.568">  1  5  2 -1</clus>
</clustering>
</event>
<event>
 9    2  0.4653788E-005  0.1728549E+03  0.7546771E-02  0.1197504E+00
          2   -1    0    0  502    0 -0.00000000000E+00  0.00000000000E+00  0.15036181067E+04  0.15036181067E+04  0.00000000000E+00 0. -1.
         21   -1    0    0  501  502  0.00000000000E+00 -0.00000000000E+00 -0.46697468872E+02  0.46697468872E+02  0.00000000000E+00 0. -1.
         24    2    1    2    0    0 -0.14771933112E+02 -0.64705865986E+02  0.78179662699E+03  0.78875804870E+03  0.80797489513E+02 0.  0.
         23    2    1    2    0    0 -0.33906214824E+01  0.16850088233E+03  0.20914241035E+03  0.28381058988E+03  0.91672566573E+02 0.  0.
        -13    1    3    3    0    0 -0.52282367543E+01 -0.57936040896E+02  0.24415869968E+03  0.25099280851E+03  0.00000000000E+00 0.  1.
         14    1    3    3    0    0 -0.95436963577E+01 -0.67698250893E+01  0.53763792731E+03  0.53776524019E+03  0.00000000000E+00 0. -1.
        -11    1    4    4    0    0 -0.41610058611E+02  0.45059677776E+02  0.52404937996E+02  0.80672480222E+02  0.00000000000E+00 0.  1.
         11    1    4    4    0    0  0.38219437128E+02  0.12344120456E+03  0.15673747235E+03  0.20313810966E+03  0.00000000000E+00 0. -1.
          1    1    1    2  501    0  0.18162554594E+02 -0.10379501635E+03  0.46598160048E+03  0.47774693698E+03  0.00000000000E+00 0. -1.
<scales pt_clust_5="13000.00000" pt_clust_6="13000.00000" pt_clust_7="13000.00000" pt_clust_8="13000.00000" pt_clust_9="146.54349"></scales>
<clustering>
<clus scale="   80.797">  5  6 -1 -1</clus>
<clus scale="   91.673">  7  8 -1 -1</clus>
<clus scale="  104.562">  1  5  2 -1</clus>
<clus scale="  146.543">  2  9  1 -1</clus>
<clus scale="  146.543">  2  5  1 -1</clus>
</clustering>
</event>
<event>
 9    2  0.4653788E-005  0.9389502E+02  0.7546771E-02  0.1299570E+00
         21   -1    0    0  501  502  0.00000000000E+00  0.00000000000E+00  0.80195079015E+02  0.80195079015E+02  0.00000000000E+00 0. -1.
          2   -1    0    0  502    0 -0.00000000000E+00 -0.00000000000E+00 -0.57141745399E+03  0.57141745399E+03  0.00000000000E+00 0. -1.
         24    2    1    2    0    0  0.19393330256E+02  0.23344436544E+02 -0.49046365068E+03  0.49778481896E+03  0.79461118628E+02 0.  0.
         23    2    1    2    0    0  0.34819635274E+01 -0.13745893742E+02 -0.46338503758E+02  0.10193429072E+03  0.89678698856E+02 0.  0.
        -11    1    3    3    0    0  0.27844012399E+02  0.17865619987E+02 -0.72406223368E+02  0.79606096415E+02  0.00000000000E+00 0.  1.
         12    1    3    3    0    0 -0.84506821425E+01  0.54788165564E+01 -0.41805742731E+03  0.41817872254E+03  0.00000000000E+00 0. -1.
        -11    1    4    4    0    0  0.35717680374E+02 -0.65685035999E+01 -0.56689923773E+02  0.67324923975E+02  0.00000000000E+00 0. -1.
         11    1    4    4    0    0 -0.32235716847E+02 -0.71773901420E+01  0.10351420015E+02  0.34609366741E+02  0.00000000000E+00 0.  1.
          1    1    1    2  501    0 -0.22875293784E+02 -0.95985428020E+01  0.45579779459E+02  0.51893423333E+02  0.00000000000E+00 0. -1.
<scales pt_clust_5="13000.00000" pt_clust_6="13000.00000" pt_clust_7="13000.00000" pt_clust_8="13000.00000" pt_clust_9="24.80748"></scales>
<clustering>
<clus scale="   24.807">  1  9  2 -1</clus>
<clus scale="   79.461">  5  6 -1 -1</clus>
<clus scale="   84.191">  2  5  1 -1</clus>
<clus scale="   89.679">  7  8 -1 -1</clus>
<clus scale="   24.807">  1  5  2 -1</clus>
</clustering>
</event>
<event>
 9    2  0.4653788E-005  0.1255314E+03  0.7546771E-02  0.1256013E+00
          2   -1    0    0  502    0 -0.00000000000E+00  0.00000000000E+00  0.81668763769E+03  0.81668763769E+03  0.00000000000E+00 0. -1.
         21   -1    0    0  501  502  0.00000000000E+00 -0.00000000000E+00 -0.41641994545E+02  0.41641994545E+02  0.00000000000E+00 0. -1.
         24    2    1    2    0    0  0.11144903635E+02 -0.14134605841E+02  0.33970897545E+02  0.87806362901E+02  0.78942634404E+02 0.  0.
         23    2    1    2    0    0  0.67352425073E+02 -0.26953305468E+02  0.49240572611E+03  0.50654158753E+03  0.94117750509E+02 0.  0.
        -11    1    3    3    0    0  0.19401936763E+02  0.28504830978E+02  0.27053182901E+02  0.43827334442E+02  0.00000000000E+00 0.  1.
         12    1    3    3    0    0 -0.82570331273E+01 -0.42639436819E+02  0.69177146447E+01  0.43979028459E+02  0.00000000000E+00 0. -1.
        -13    1    4    4    0    0 -0.22016921188E+02 -0.87652182355E+01  0.57792208541E+02  0.62462094405E+02  0.00000000000E+00 0.  1.
         13    1    4    4    0    0  0.89369346261E+02 -0.18188087233E+02  0.43461351756E+03  0.44407949313E+03  0.00000000000E+00 0. -1.
          1    1    1    2  501    0 -0.78497328708E+02  0.41087911310E+02  0.24866901949E+03  0.26398168180E+03  0.00000000000E+00 0. -1.
<scales pt_clust_5="13000.00000" pt_clust_6="13000.00000" pt_clust_7="13000.00000" pt_clust_8="13000.00000" pt_clust_9="83.06618"></scales>
<clustering>
<clus scale="   78.943">  5  6 -1 -1</clus>
<clus scale="   80.969">  1  5  2 -1</clus>
<clus scale="   83.066">  2  9  1 -1</clus>
<clus scale="   94.118">  7  8 -1 -1</clus>
<clus scale="   83.066">  2  5  1 -1</clus>
</clustering>
</event>
<event>
 9    2  0.4653788E-005  0.9471798E+02  0.7546771E-02  0.1297878E+00
         -3   -1    0    0    0  501 -0.00000000000E+00  0.00000000000E+00  0.22201569603E+03  0.22201569603E+03  0.00000000000E+00 0.  1.
         21   -1    0    0  501  502  0.00000000000E+00 -0.00000000000E+00 -0.14948691591E+03  0.14948691591E+03  0.00000000000E+00 0.  1.
         23    2    1    2    0    0  0.57443527533E+01  0.29688651889E+02  0.12895326222E+03  0.16107767487E+03  0.91666023506E+02 0.  0.
         24    2    1    2    0    0  0.32751129240E+02 -0.97517652117E+01  0.45875692273E+02  0.99318198914E+02  0.81189852215E+02 0.  0.
        -13    1    4    4    0    0  0.22409325761E+02  0.18589345680E+02  0.59479773897E+02  0.66223750699E+02  0.00000000000E+00 0.  1.
         14    1    4    4    0    0  0.10341803480E+02 -0.28341110892E+02 -0.13604081624E+02  0.33094448215E+02  0.00000000000E+00 0. -1.
        -13    1    3    3    0    0  0.38838187565E+02 -0.11028711122E+02  0.34848299406E+02  0.53333303421E+02  0.00000000000E+00 0.  1.
         13    1    3    3    0    0 -0.33093834811E+02  0.40717363010E+02  0.94104962817E+02  0.10774437145E+03  0.00000000000E+00 0. -1.
         -4    1    1    2    0  502 -0.38495481994E+02 -0.19936886677E+02 -0.10230017438E+03  0.11110673815E+03  0.00000000000E+00 0.  1.
<scales pt_clust_5="13000.00000" pt_clust_6="13000.00000" pt_clust_7="13000.00000" pt_clust_8="13000.00000" pt_clust_9="43.35183"></scales>
<clustering>
<clus scale="   43.352">  2  9  1 -1</clus>
<clus scale="   81.190">  5  6 -1 -1</clus>
<clus scale="   84.620">  2  5  1 -1</clus>
<clus scale="   91.666">  7  8 -1 -1</clus>
<clus scale="   43.352">  2  5  1 -1</clus>
</clustering>
</event>
<event>
 9    2  0.4653788E-005  0.1880608E+03  0.7546771E-02  0.1192904E+00
         21   -1    0    0  501  502  0.00000000000E+00  0.00000000000E+00  0.74044136672E+02  0.74044136672E+02  0.00000000000E+00 0.  1.
          2   -1    0    0  502    0 -0.00000000000E+00 -0.00000000000E+00 -0.95427230704E+03  0.95427230704E+03  0.00000000000E+00 0. -1.
         24    2    1    2    0    0 -0.20665522427E+02  0.36180030154E+02 -0.42662326672E+03  0.43597163293E+03  0.79547436239E+02 0.  0.
         23    2    1    2    0    0 -0.12127394443E+03 -0.11474009157E+03 -0.13089460027E+03  0.23115173858E+03  0.91788189092E+02 0.  0.
        -11    1    3    3    0    0  0.25735308125E+02  0.28426562001E+02 -0.12651269699E+03  0.13219621028E+03  0.00000000000E+00 0.  1.
         12    1    3    3    0    0 -0.46400830552E+02  0.77534681530E+01 -0.30011056973E+03  0.30377542265E+03  0.00000000000E+00 0. -1.
        -11    1    4    4    0    0 -0.69483376363E+02 -0.42944462783E+02 -0.11523854808E+03  0.14125186525E+03  0.00000000000E+00 0. -1.
         11    1    4    4    0    0 -0.51790568066E+02 -0.71795628790E+02 -0.15656052194E+02  0.89899873327E+02  0.00000000000E+00 0.  1.
          1    1    1    2  501    0  0.14193946686E+03  0.78560061419E+02 -0.32271030338E+03  0.36119307220E+03  0.00000000000E+00 0. -1.
<scales pt_clust_5="13000.00000" pt_clust_6="13000.00000" pt_clust_7="13000.00000" pt_clust_8="13000.00000" pt_clust_9="164.13960"></scales>
<clustering>
<clus scale="   79.547">  5  6 -1 -1</clus>
<clus scale="   89.799">  2  5  1 -1</clus>
<clus scale="   91.788">  7  8 -1 -1</clus>
<clus scale="  164.140">  1  9  2 -1</clus>
<clus scale="  164.140">  1  5  2 -1</clus>
</clustering>
</event>
<event>
 9    2  0.4653788E-005  0.1530156E+03  0.7546771E-02  0.1206546E+00
         21   -1    0    0  501  502  0.00000000000E+00  0.00000000000E+00  0.29454249547E+03  0.29454249547E+03  0.00000000000E+00 0. -1.
          2   -1    0    0  502    0 -0.00000000000E+00 -0.00000000000E+00 -0.12841016901E+03  0.12841016901E+03  0.00000000000E+00 0. -1.
         24    2    1    2    0    0  0.99125780338E+01 -0.78184454516E+02  0.79662290175E+01  0.11199815821E+03  0.79177386327E+02 0.  0.
         23    2    1    2    0    0 -0.46943994993E+02  0.14093832915E+03  0.13771017562E+03  0.23527214795E+03  0.11967263615E+03 0.  0.
        -13    1    3    3    0    0 -0.32509268533E+02 -0.52862823427E+02  0.70596370114E+00  0.62063105191E+02  0.00000000000E+00 0.  1.
         14    1    3    3    0    0  0.42421846567E+02 -0.25321631089E+02  0.72602653164E+01  0.49935053015E+02  0.00000000000E+00 0. -1.
        -11    1    4    4    0    0  0.73343816996E+01  0.13603351102E+03  0.96527664032E+02  0.16696256826E+03  0.00000000000E+00 0.  1.
         11    1    4    4    0    0 -0.54278376693E+02  0.49048181255E+01  0.41182511591E+02  0.68309579696E+02  0.00000000000E+00 0. -1.
          1    1    1    2  501    0  0.37031416960E+02 -0.62753874633E+02  0.20455921820E+02  0.75682358321E+02  0.00000000000E+00 0. -1.
<scales pt_clust_5="13000.00000" pt_clust_6="13000.00000" pt_clust_7="13000.00000" pt_clust_8="13000.00000" pt_clust_9="72.86549"></scales>
<clustering>
<clus scale="   72.865">  1  9  2 -1</clus>
<clus scale="   79.177">  5  6 -1 -1</clus>
<clus scale="  119.673">  7  8 -1 -1</clus>
<clus scale="  123.941">  2  5  1 -1</clus>
<clus scale="   72.865">  1  5  2 -1</clus>
</clustering>
</event>
<event>
 9    2  0.4653788E-005  0.1212595E+03  0.7546771E-02  0.1255050E+00
         -1   -1    0    0    0  501 -0.00000000000E+00  0.00000000000E+00  0.73215333086E+03  0.73215333086E+03  0.00000000000E+00 0.  1.
         21   -1    0    0  501  502  0.00000000000E+00 -0.00000000000E+00 -0.33864460175E+02  0.33864460175E+02  0.00000000000E+00 0.  1.
         24    2    1    2    0    0 -0.30105697395E+02  0.19942958397E+02  0.14093980124E+03  0.16806963828E+03  0.84138582897E+02 0.  0.
         23    2    1    2    0    0  0.46262454404E+00  0.78714722816E+02  0.27652481642E+03  0.29882558437E+03  0.81452649861E+02 0.  0.
        -11    1    3    3    0    0 -0.42744392851E+02  0.40281257032E+02  0.61250232065E+02  0.84860201015E+02  0.00000000000E+00 0.  1.
         12    1    3    3    0    0  0.12638695456E+02 -0.20338298635E+02  0.79689569178E+02  0.83209437266E+02  0.00000000000E+00 0. -1.
        -13    1    4    4    0    0  0.27473290163E+02  0.80526169071E+02  0.19038996278E+03  0.20853676775E+03  0.00000000000E+00 0.  1.
         13    1    4    4    0    0 -0.27010665619E+02 -0.18114462546E+01  0.86134853643E+02  0.90288816621E+02  0.00000000000E+00 0. -1.
         -2    1    1    2    0  502  0.29643072851E+02 -0.98657681213E+02  0.28082425302E+03  0.29912256838E+03  0.00000000000E+00 0.  1.
<scales pt_clust_5="13000.00000" pt_clust_6="13000.00000" pt_clust_7="13000.00000" pt_clust_8="13000.00000" pt_clust_9="89.82954"></scales>
<clustering>
<clus scale="   81.453">  7  8 -1 -1</clus>
<clus scale="   84.139">  5  6 -1 -1</clus>
<clus scale="   91.561">  1  5  2 -1</clus>
<clus scale="   89.830">  2  9  1 -1</clus>
<clus scale="   89.830">  2  5  1 -1</clus>
</clustering>
</event>
<event>
 9    2  0.4653788E-005  0.3607199E+03  0.7546771E-02  0.1058299E+00
         -1   -1    0    0    0  501 -0.00000000000E+00  0.00000000000E+00  0.14746102910E+03  0.14746102910E+03  0.00000000000E+00 0.  1.
         21   -1    0    0  501  502  0.00000000000E+00 -0.00000000000E+00 -0.70312246397E+03  0.70312246397E+03  0.00000000000E+00 0. -1.
         24    2    1    2    0    0  0.18409539315E+03  0.10997998993E+02 -0.11508306357E+03  0.23171222651E+03  0.80214553755E+02 0.  0.
         23    2    1    2    0    0  0.87372956559E+02 -0.85172334672E+02 -0.16482288120E+03  0.22486874462E+03  0.92255135409E+02 0.  0.
        -13    1    3    3    0    0  0.95454042285E+02  0.34312523562E+02 -0.27868618430E+02  0.10519260124E+03  0.00000000000E+00 0.  1.
         14    1    3    3    0    0  0.88641350867E+02 -0.23314524570E+02 -0.87214445139E+02  0.12651962528E+03  0.00000000000E+00 0. -1.
        -13    1    4    4    0    0  0.17009143522E+02 -0.77242855327E+02 -0.10915001436E+03  0.13479427027E+03  0.00000000000E+00 0.  1.
         13    1    4    4    0    0  0.70363813037E+02 -0.79294793455E+01 -0.55672866835E+02  0.90074474350E+02  0.00000000000E+00 0. -1.
         -2    1    1    2    0  502 -0.27146834971E+03  0.74174335680E+02 -0.27575549010E+03  0.39400252193E+03  0.00000000000E+00 0.  1.
<scales pt_clust_5="13000.00000" pt_clust_6="13000.00000" pt_clust_7="13000.00000" pt_clust_8="13000.00000" pt_clust_9="281.41943"></scales>
<clustering>
<clus scale="   80.215">  5  6 -1 -1</clus>
<clus scale="   92.255">  7  8 -1 -1</clus>
<clus scale="  145.970">  5  7 -1 -1</clus>
<clus scale="  281.419">  2  9  1 -1</clus>
<clus scale="  281.419">  2  5  1 -1</clus>
</clustering>
</event>
<event>
 9    2  0.4653788E-005  0.1064584E+03  0.7546771E-02  0.1272940E+00
         21   -1    0    0  501  502  0.00000000000E+00  0.00000000000E+00  0.25914197968E+03  0.25914197968E+03  0.00000000000E+00 0.  1.
          2   -1    0    0  502    0 -0.00000000000E+00 -0.00000000000E+00 -0.12136877765E+03  0.12136877765E+03  0.00000000000E+00 0. -1.
         23    2    1    2    0    0  0.34008136877E+02  0.27897415723E+02 -0.39980994097E+02  0.10890225369E+03  0.91249119407E+02 0.  0.
         24    2    1    2    0    0 -0.10492604998E+03 -0.29487575642E+02  0.12379189659E+03  0.18248045655E+03  0.78074901731E+02 0.  0.
        -13    1    4    4    0    0 -0.52994473121E+02 -0.47936989945E+02  0.39157665469E+02  0.81484304939E+02  0.00000000000E+00 0.  1.
         14    1    4    4    0    0 -0.51931576855E+02  0.18449414303E+02  0.84634231121E+02  0.10099615161E+03  0.00000000000E+00 0. -1.
        -13    1    3    3    0    0 -0.29781984688E+02  0.17526585307E+02 -0.24746228207E+02  0.42503218877E+02  0.00000000000E+00 0.  1.
         13    1    3    3    0    0  0.63790121564E+02  0.10370830416E+02 -0.15234765889E+02  0.66399034815E+02  0.00000000000E+00 0. -1.
          1    1    1    2  501    0  0.70917913100E+02  0.15901599190E+01  0.53962299535E+02  0.89128047090E+02  0.00000000000E+00 0. -1.
<scales pt_clust_5="13000.00000" pt_clust_6="13000.00000" pt_clust_7="13000.00000" pt_clust_8="13000.00000" pt_clust_9="70.93574"></scales>
<clustering>
<clus scale="   70.936">  1  9  2 -1</clus>
<clus scale="   78.075">  5  6 -1 -1</clus>
<clus scale="   91.249">  7  8 -1 -1</clus>
<clus scale="   95.408">  1  5  2 -1</clus>
<clus scale="   70.936">  1  5  2 -1</clus>
</clustering>
</event>
<event>
 9    2  0.4653788E-005  0.1575100E+03  0.7546771E-02  0.1220919E+00
          2   -1    0    0  502    0 -0.00000000000E+00  0.00000000000E+00  0.22551142445E+03  0.22551142445E+03  0.00000000000E+00 0. -1.
         21   -1    0    0  501  502  0.00000000000E+00 -0.00000000000E+00 -0.29280395511E+03  0.29280395511E+03  0.00000000000E+00 0. -1.
         24    2    1    2    0    0  0.26050441087E+02  0.12701705284E+01 -0.12274119542E+03  0.14859805111E+03  0.79597367590E+02 0.  0.
         23    2    1    2    0    0 -0.14984225050E+03 -0.10916832251E+01  0.13579989323E+03  0.22213425403E+03  0.91913676929E+02 0.  0.
        -11    1    3    3    0    0  0.52949468615E+02 -0.11074517826E+02 -0.76405396684E+02  0.93616642827E+02  0.00000000000E+00 0.  1.
         12    1    3    3    0    0 -0.26899027529E+02  0.12344688355E+02 -0.46335798735E+02  0.54981408284E+02  0.00000000000E+00 0. -1.
        -11    1    4    4    0    0 -0.11372089943E+03 -0.20543063371E+02  0.47830791139E+02  0.12506896098E+03  0.00000000000E+00 0. -1.
         11    1    4    4    0    0 -0.36121351070E+02  0.19451380145E+02  0.87969102094E+02  0.97065293055E+02  0.00000000000E+00 0.  1.
          1    1    1    2  501    0  0.12379180941E+03 -0.17848730326E+00 -0.80351228483E+02  0.14758307441E+03  0.00000000000E+00 0. -1.
<scales pt_clust_5="13000.00000" pt_clust_6="13000.00000" pt_clust_7="13000.00000" pt_clust_8="13000.00000" pt_clust_9="127.91119"></scales>
<clustering>
<clus scale="   79.597">  5  6 -1 -1</clus>
<clus scale="   83.761">  1  5  2 -1</clus>
<clus scale="   91.914">  7  8 -1 -1</clus>
<clus scale="  127.911">  2  9  1 -1</clus>
<clus scale="  127.911">  2  5  1 -1</clus>
</clustering>
</event>
<event>
 9    2  0.4653788E-005  0.9576897E+02  0.7546771E-02  0.1290126E+00
          2   -1    0    0  502    0 -0.00000000000E+00  0.00000000000E+00  0.43846780830E+03  0.43846780830E+03  0.00000000000E+00 0. -1.
         21   -1    0    0  501  502  0.00000000000E+00 -0.00000000000E+00 -0.42968564802E+02  0.42968564802E+02  0.00000000000E+00 0.  1.
         24    2    1    2    0    0  0.50531497123E+01  0.58172147797E+02  0.30462546835E+03  0.32043993700E+03  0.80470765855E+02 0.  0.
         23    2    1    2    0    0 -0.26573023827E+02 -0.33109118776E+02  0.91236380820E+02  0.12796021524E+03  0.79040496953E+02 0.  0.
        -11    1    3    3    0    0  0.24962081880E+02 -0.11058179249E+02  0.77898161973E+02  0.82544003410E+02  0.00000000000E+00 0.  1.
         12    1    3    3    0    0 -0.19908932168E+02  0.69230327047E+02  0.22672730638E+03  0.23789593359E+03  0.00000000000E+00 0. -1.
        -11    1    4    4    0    0 -0.49562057130E+02 -0.38666006524E+01  0.67515744443E+02  0.83843448494E+02  0.00000000000E+00 0. -1.
         11    1    4    4    0    0  0.22989033302E+02 -0.29242518123E+02  0.23720636377E+02  0.44116766750E+02  0.00000000000E+00 0.  1.
          1    1    1    2  501    0  0.21519874115E+02 -0.25063029022E+02 -0.36260567146E+00  0.33036220857E+02  0.00000000000E+00 0. -1.
<scales pt_clust_5="13000.00000" pt_clust_6="13000.00000" pt_clust_7="13000.00000" pt_clust_8="13000.00000" pt_clust_9="33.03423"></scales>
<clustering>
<clus scale="   33.034">  2  9  1 -1</clus>
<clus scale="   79.040">  7  8 -1 -1</clus>
<clus scale="   80.471">  5  6 -1 -1</clus>
<clus scale="   94.570">  2  7  1 -1</clus>
<clus scale="   33.034">  2  5  1 -1</clus>
</clustering>
</event>
<event>
 9    2  0.4653788E-005  0.1514262E+03  0.7546771E-02  0.1224579E+00
         21   -1    0    0  501  502  0.00000000000E+00  0.00000000000E+00  0.14060173804E+04  0.14060173804E+04  0.00000000000E+00 0. -1.
          2   -1    0    0  502    0 -0.00000000000E+00 -0.00000000000E+00 -0.46805251670E+02  0.46805251670E+02  0.00000000000E+00 0. -1.
         24    2    1    2    0    0  0.72738423380E+01  0.31514838010E+02  0.47374850437E+02  0.99348512505E+02  0.81115082975E+02 0.  0.
         23    2    1    2    0    0  0.11359716148E+03 -0.48159734098E+02  0.32526301465E+03  0.35938376662E+03  0.90205254442E+02 0.  0.
        -13    1    3    3    0    0 -0.26203660407E+02  0.19605491454E+02  0.54058360040E+02  0.63192668911E+02  0.00000000000E+00 0.  1.
         14    1    3    3    0    0  0.33477502745E+02  0.11909346556E+02 -0.66835096034E+01  0.36155843594E+02  0.00000000000E+00 0. -1.
        -11    1    4    4    0    0  0.36195840234E+02  0.90648614557E+01  0.27233412794E+02  0.46194905951E+02  0.00000000000E+00 0. -1.
         11    1    4    4    0    0  0.77401321243E+02 -0.57224595553E+02  0.29802960186E+03  0.31318886067E+03  0.00000000000E+00 0.  1.
          1    1    1    2  501    0 -0.12087100382E+03  0.16644896088E+02  0.98657426366E+03  0.99409035296E+03  0.00000000000E+00 0. -1.
<scales pt_clust_5="13000.00000" pt_clust_6="13000.00000" pt_clust_7="13000.00000" pt_clust_8="13000.00000" pt_clust_9="121.62609"></scales>
<clustering>
<clus scale="   81.115">  5  6 -1 -1</clus>
<clus scale="   87.326">  2  5  1 -1</clus>
<clus scale="   90.205">  7  8 -1 -1</clus>
<clus scale="  121.626">  1  9  2 -1</clus>
<clus scale="  121.626">  1  5  2 -1</clus>
</clustering>
</event>
<event>
 9    2  0.4653788E-005  0.9466645E+02  0.7546771E-02  0.1300898E+00
         21   -1    0    0  501  502  0.00000000000E+00  0.00000000000E+00  0.38919639148E+02  0.38919639148E+02  0.00000000000E+00 0. -1.
          4   -1    0    0  502    0 -0.00000000000E+00 -0.00000000000E+00 -0.30545462939E+03  0.30545462939E+03  0.00000000000E+00 0. -1.
         23    2    1    2    0    0 -0.17036028845E+02 -0.93817349621E+01 -0.15591456874E+03  0.18205229245E+03  0.91953473063E+02 0.  0.
         24    2    1    2    0    0  0.30939033798E+02 -0.19330896339E+02 -0.67372389392E+02  0.10858092080E+03  0.76940692377E+02 0.  0.
        -11    1    4    4    0    0  0.17040926066E+02 -0.16316610527E+02 -0.83680639306E+02  0.86942937234E+02  0.00000000000E+00 0.  1.
         12    1    4    4    0    0  0.13898107732E+02 -0.30142858126E+01  0.16308249914E+02  0.21637983565E+02  0.00000000000E+00 0. -1.
        -11    1    3    3    0    0  0.14397519821E+02  0.35571481455E+02 -0.75772630634E+02  0.84935919511E+02  0.00000000000E+00 0. -1.
         11    1    3    3    0    0 -0.31433548667E+02 -0.44953216417E+02 -0.80141938111E+02  0.97116372936E+02  0.00000000000E+00 0.  1.
          3    1    1    2  501    0 -0.13903004953E+02  0.28712631301E+02 -0.43248032100E+02  0.53741055289E+02  0.00000000000E+00 0. -1.
<scales pt_clust_5="13000.00000" pt_clust_6="13000.00000" pt_clust_7="13000.00000" pt_clust_8="13000.00000" pt_clust_9="31.90156"></scales>
<clustering>
<clus scale="   31.902">  1  9  2 -1</clus>
<clus scale="   76.941">  5  6 -1 -1</clus>
<clus scale="   80.163">  1  5  2 -1</clus>
<clus scale="   91.953">  7  8 -1 -1</clus>
<clus scale="   31.902">  1  5  2 -1</clus>
</clustering>
</event>
<event>
 9    2  0.4653788E-005  0.9873825E+02  0.7546771E-02  0.1289093E+00
          2   -1    0    0  502    0 -0.00000000000E+00  0.00000000000E+00  0.48728411929E+03  0.48728411929E+03  0.00000000000E+00 0. -1.
         21   -1    0    0  501  502  0.00000000000E+00 -0.00000000000E+00 -0.49807621036E+02  0.49807621036E+02  0.00000000000E+00 0. -1.
         23    2    1    2    0    0 -0.21189793059E+02 -0.25722977457E+01  0.21813425293E+03  0.23762523595E+03  0.91801832298E+02 0.  0.
         24    2    1    2    0    0  0.42531849294E+02  0.30396315365E+02  0.24028093661E+03  0.25862426995E+03  0.80116729313E+02 0.  0.
        -11    1    4    4    0    0 -0.70301472862E+01  0.20121660067E+02  0.11317272704E+02  0.24132650832E+02  0.00000000000E+00 0.  1.
         12    1    4    4    0    0  0.49561996580E+02  0.10274655298E+02  0.22896366391E+03  0.23449161912E+03  0.00000000000E+00 0. -1.
        -11    1    3    3    0    0 -0.16735577084E+02 -0.43929496309E+02  0.15538996308E+03  0.16234506710E+03  0.00000000000E+00 0.  1.
         11    1    3    3    0    0 -0.44542159755E+01  0.41357198564E+02  0.62744289847E+02  0.75280168845E+02  0.00000000000E+00 0. -1.
          1    1    1    2  501    0 -0.21342056235E+02 -0.27824017620E+02 -0.20938691282E+02  0.40842234432E+02  0.00000000000E+00 0. -1.
<scales pt_clust_5="13000.00000" pt_clust_6="13000.00000" pt_clust_7="13000.00000" pt_clust_8="13000.00000" pt_clust_9="35.06650"></scales>
<clustering>
<clus scale="   35.066">  2  9  1 -1</clus>
<clus scale="   80.117">  5  6 -1 -1</clus>
<clus scale="   87.979">  2  5  1 -1</clus>
<clus scale="   91.802">  7  8 -1 -1</clus>
<clus scale="   35.066">  2  5  1 -1</clus>
</clustering>
</event>
<event>
 9    2  0.4653788E-005  0.9881258E+02  0.7546771E-02  0.1286411E+00
          2   -1    0    0  502    0 -0.00000000000E+00  0.00000000000E+00  0.59877696008E+03  0.59877696008E+03  0.00000000000E+00 0. -1.
         21   -1    0    0  501  502  0.00000000000E+00 -0.00000000000E+00 -0.31196845055E+02  0.31196845055E+02  0.00000000000E+00 0. -1.
         24    2    1    2    0    0 -0.24818031704E+02  0.13831187410E+02  0.19447668740E+03  0.21466689163E+03  0.86333400135E+02 0.  0.
         23    2    1    2    0    0  0.30866932692E+02  0.54822108609E+02  0.25201350163E+03  0.27597768313E+03  0.93245082751E+02 0.  0.
        -13    1    3    3    0    0 -0.49785941250E+02  0.18431802278E+02  0.71257924841E+02  0.88859794812E+02  0.00000000000E+00 0.  1.
         14    1    3    3    0    0  0.24967909546E+02 -0.46006148683E+01  0.12321876255E+03  0.12580709682E+03  0.00000000000E+00 0. -1.
        -11    1    4    4    0    0  0.53676663833E+02  0.62414984488E+02  0.14933073087E+03  0.17051827383E+03  0.00000000000E+00 0. -1.
         11    1    4    4    0    0 -0.22809731141E+02 -0.75928758786E+01  0.10268277076E+03  0.10545940930E+03  0.00000000000E+00 0.  1.
          1    1    1    2  501    0 -0.60489009883E+01 -0.68653296019E+02  0.12108992600E+03  0.13932923037E+03  0.00000000000E+00 0. -1.
<scales pt_clust_5="13000.00000" pt_clust_6="13000.00000" pt_clust_7="13000.00000" pt_clust_8="13000.00000" pt_clust_9="68.91926"></scales>
<clustering>
<clus scale="   68.919">  2  9  1 -1</clus>
<clus scale="   86.333">  5  6 -1 -1</clus>
<clus scale="   92.319">  1  5  2 -1</clus>
<clus scale="   93.245">  7  8 -1 -1</clus>
<clus scale="   68.919">  2  5  1 -1</clus>
</clustering>
</event>
<event>
 9    2  0.4653788E-005  0.3186202E+03  0.7546771E-02  0.1100102E+00
          2   -1    0    0  502    0 -0.00000000000E+00  0.00000000000E+00  0.14831785694E+04  0.14831785694E+04  0.00000000000E+00 0. -1.
         21   -1    0    0  501  502  0.00000000000E+00 -0.00000000000E+00 -0.16033153392E+03  0.16033153392E+03  0.00000000000E+00 0. -1.
         24    2    1    2    0    0  0.39683578863E+02 -0.14416478092E+03  0.19898856233E+03  0.26132360348E+03  0.79594643745E+02 0.  0.
         23    2    1    2    0    0 -0.22718452867E+03  0.24126557850E+03  0.13208636786E+03  0.36818596734E+03  0.91061564549E+02 0.  0.
        -11    1    3    3    0    0  0.52166222810E+02 -0.13917153813E+03  0.19836041072E+03  0.24786464929E+03  0.00000000000E+00 0.  1.
         12    1    3    3    0    0 -0.12482643948E+02 -0.49932427861E+01  0.62815160476E+00  0.13458954190E+02  0.00000000000E+00 0. -1.
        -13    1    4    4    0    0 -0.87635004944E+02  0.48225339349E+02  0.69814098307E+02  0.12198190755E+03  0.00000000000E+00 0.  1.
         13    1    4    4    0    0 -0.13954952372E+03  0.19304023915E+03  0.62272269551E+02  0.24620405979E+03  0.00000000000E+00 0. -1.
          1    1    1    2  501    0  0.18750094981E+03 -0.97100797586E+02  0.99177210528E+03  0.10140005325E+04  0.00000000000E+00 0. -1.
<scales pt_clust_5="13000.00000" pt_clust_6="13000.00000" pt_clust_7="13000.00000" pt_clust_8="13000.00000" pt_clust_9="305.33050"></scales>
<clustering>
<clus scale="   79.595">  5  6 -1 -1</clus>
<clus scale="   91.062">  7  8 -1 -1</clus>
<clus scale="  169.392">  1  5  2 -1</clus>
<clus scale="  305.331">  2  9  1 -1</clus>
<clus scale="  305.331">  2  5  1 -1</clus>
</clustering>
</event>
<event>
 9    2  0.4653788E-005  0.9447829E+02  0.7546771E-02  0.1297842E+00
         -1   -1    0    0    0  501 -0.00000000000E+00  0.00000000000E+00  0.10002550037E+03  0.10002550037E+03  0.00000000000E+00 0.  1.
         21   -1    0    0  501  502  0.00000000000E+00 -0.00000000000E+00 -0.59033222202E+03  0.59033222202E+03  0.00000000000E+00 0.  1.
         23    2    1    2    0    0 -0.55571729057E+01  0.18945647365E+02  0.60416419447E+02  0.11140889508E+03  0.91498516049E+02 0.  0.
         24    2    1    2    0    0 -0.18834800120E+02 -0.76154934452E+02 -0.30356453208E+03  0.32408563089E+03  0.82010653432E+02 0.  0.
        -11    1    4    4    0    0 -0.22787558464E+01 -0.64916789675E+02 -0.29542769169E+03  0.30248455056E+03  0.00000000000E+00 0.  1.
         12    1    4    4    0    0 -0.16556044274E+02 -0.11238144777E+02 -0.81368403926E+01  0.21601080334E+02  0.00000000000E+00 0. -1.
        -13    1    3    3    0    0  0.20988805843E+02  0.34103533105E+01 -0.17565176193E+02  0.27580716001E+02  0.00000000000E+00 0.  1.
         13    1    3    3    0    0 -0.26545978749E+02  0.15535294055E+02  0.77981595640E+02  0.83828179078E+02  0.00000000000E+00 0. -1.
         -2    1    1    2    0  502  0.24391973026E+02  0.57209287087E+02 -0.24715860902E+03  0.25486319642E+03  0.00000000000E+00 0.  1.
<scales pt_clust_5="13000.00000" pt_clust_6="13000.00000" pt_clust_7="13000.00000" pt_clust_8="13000.00000" pt_clust_9="62.19221"></scales>
<clustering>
<clus scale="   62.192">  2  9  1 -1</clus>
<clus scale="   82.011">  5  6 -1 -1</clus>
<clus scale="   85.322">  2  5  1 -1</clus>
<clus scale="   91.499">  7  8 -1 -1</clus>
<clus scale="   62.192">  2  5  1 -1</clus>
</clustering>
</event>
<event>
 9    2  0.4653788E-005  0.9415837E+02  0.7546771E-02  0.1295693E+00
          2   -1    0    0  502    0 -0.00000000000E+00  0.00000000000E+00  0.10493952151E+03  0.10493952151E+03  0.00000000000E+00 0. -1.
         21   -1    0    0  501  502  0.00000000000E+00 -0.00000000000E+00 -0.22911008377E+03  0.22911008377E+03  0.00000000000E+00 0.  1.
         23    2    1    2    0    0  0.63204016942E+01  0.27270174386E+02 -0.19941142822E+01  0.96730060270E+02  0.92569531593E+02 0.  0.
         24    2    1    2    0    0  0.62464994101E+02  0.30297381707E+02 -0.98688563253E+02  0.14459880883E+03  0.79684227873E+02 0.  0.
        -13    1    4    4    0    0  0.69058432902E+02 -0.35244348171E+01 -0.78700056590E+02  0.10476253005E+03  0.00000000000E+00 0.  1.
         14    1    4    4    0    0 -0.65934388014E+01  0.33821816524E+02 -0.19988506663E+02  0.39836278777E+02  0.00000000000E+00 0. -1.
        -11    1    3    3    0    0 -0.39296002190E+02  0.30749442701E+02 -0.81862649967E+01  0.50564008437E+02  0.00000000000E+00 0.  1.
         11    1    3    3    0    0  0.45616403885E+02 -0.34792683153E+01  0.61921507144E+01  0.46166051833E+02  0.00000000000E+00 0. -1.
          1    1    1    2  501    0 -0.68785395795E+02 -0.57567556093E+02 -0.23487884722E+02  0.92720736181E+02  0.00000000000E+00 0. -1.
<scales pt_clust_5="13000.00000" pt_clust_6="13000.00000" pt_clust_7="13000.00000" pt_clust_8="13000.00000" pt_clust_9="89.69650"></scales>
<clustering>
<clus scale="   79.684">  5  6 -1 -1</clus>
<clus scale="   89.697">  2  9  1 -1</clus>
<clus scale="   89.697">  2  5  1 -1</clus>
<clus scale="   92.570">  7  8 -1 -1</clus>
<clus scale="   89.697">  2  5  1 -1</clus>
</clustering>
</event>
<event>
 9    2  0.4653788E-005  0.2385836E+03  0.7546771E-02  0.1157822E+00
          2   -1    0    0  502    0 -0.00000000000E+00  0.00000000000E+00  0.11863391113E+03  0.11863391113E+03  0.00000000000E+00 0. -1.
         21   -1    0    0  501  502  0.00000000000E+00 -0.00000000000E+00 -0.90867217523E+03  0.90867217523E+03  0.00000000000E+00 0.  1.
         23    2    1    2    0    0  0.38786407028E+01 -0.14471059671E+02 -0.84933521638E+02  0.12923337815E+03  0.96245038879E+02 0.  0.
         24    2    1    2    0    0 -0.21974134178E+03 -0.38689489252E+02 -0.61217638982E+03  0.65711954179E+03  0.85223389304E+02 0.  0.
        -13    1    4    4    0    0 -0.14358936441E+03  0.78796655206E+01 -0.30437853334E+03  0.33663969798E+03  0.00000000000E+00 0.  1.
         14    1    4    4    0    0 -0.76151977379E+02 -0.46569154773E+02 -0.30779785648E+03  0.32047984381E+03  0.00000000000E+00 0. -1.
        -13    1    3    3    0    0  0.35784012838E+02  0.27172750729E+02 -0.40171476550E+02  0.60271066733E+02  0.00000000000E+00 0. -1.
         13    1    3    3    0    0 -0.31905372135E+02 -0.41643810400E+02 -0.44762045088E+02  0.68962311418E+02  0.00000000000E+00 0.  1.
          1    1    1    2  501    0  0.21586270108E+03  0.53160548923E+02 -0.92928352640E+02  0.24095316641E+03  0.00000000000E+00 0. -1.
<scales pt_clust_5="13000.00000" pt_clust_6="13000.00000" pt_clust_7="13000.00000" pt_clust_8="13000.00000" pt_clust_9="222.84332"></scales>
<clustering>
<clus scale="   85.223">  5  6 -1 -1</clus>
<clus scale="   96.245">  7  8 -1 -1</clus>
<clus scale="   97.404">  1  7  2 -1</clus>
<clus scale="  222.843">  2  9  1 -1</clus>
<clus scale="  222.843">  2  5  1 -1</clus>
</clustering>
</event>
<event>
 9    2  0.4653788E-005  0.1029162E+03  0.7546771E-02  0.1279696E+00
         21   -1    0    0  501  502  0.00000000000E+00  0.00000000000E+00  0.27267147272E+02  0.27267147272E+02  0.00000000000E+00 0. -1.
          2   -1    0    0  502    0 -0.00000000000E+00 -0.00000000000E+00 -0.10507724876E+04  0.10507724876E+04  0.00000000000E+00 0. -1.
         24    2    1    2    0    0 -0.35677832213E+02 -0.33951810343E+02 -0.71196790438E+03  0.71822771559E+03  0.80790602429E+02 0.  0.
         23    2    1    2    0    0  0.46771115800E+02 -0.21568935104E+01 -0.30423216391E+03  0.32133768847E+03  0.92241590446E+02 0.  0.
        -11    1    3    3    0    0  0.23689965671E+02 -0.41659718793E+01 -0.10957311779E+03  0.11218216408E+03  0.00000000000E+00 0.  1.
         12    1    3    3    0    0 -0.59367797884E+02 -0.29785838464E+02 -0.60239478659E+03  0.60604555151E+03  0.00000000000E+00 0. -1.
        -11    1    4    4    0    0  0.73540645082E+02  0.85217597384E+01 -0.23364127415E+03  0.24508996686E+03  0.00000000000E+00 0. -1.
         11    1    4    4    0    0 -0.26769529282E+02 -0.10678653249E+02 -0.70590889760E+02  0.76247721608E+02  0.00000000000E+00 0.  1.
          1    1    1    2  501    0 -0.11093283587E+02  0.36108703854E+02 -0.73052719977E+01  0.38474230775E+02  0.00000000000E+00 0. -1.
<scales pt_clust_5="13000.00000" pt_clust_6="13000.00000" pt_clust_7="13000.00000" pt_clust_8="13000.00000" pt_clust_9="37.77432"></scales>
<clustering>
<clus scale="   37.774">  1  9  2 -1</clus>
<clus scale="   80.791">  5  6 -1 -1</clus>
<clus scale="   92.242">  7  8 -1 -1</clus>
<clus scale="   92.792">  2  5  1 -1</clus>
<clus scale="   37.774">  1  5  2 -1</clus>
</clustering>
</event>
<event>
 9    2  0.4653788E-005  0.9361849E+02  0.7546771E-02  0.1300589E+00
         21   -1    0    0  501  502  0.00000000000E+00  0.00000000000E+00  0.56469740888E+02  0.56469740888E+02  0.00000000000E+00 0.  1.
         -1   -1    0    0    0  501 -0.00000000000E+00 -0.00000000000E+00 -0.26018763509E+03  0.26018763509E+03  0.00000000000E+00 0.  1.
         24    2    1    2    0    0  0.10933438854E+02 -0.23337648563E+02 -0.87945100150E+02  0.12254019077E+03  0.81348459042E+02 0.  0.
         23    2    1    2    0    0  0.31905860605E+02  0.72415010119E+01 -0.39535237819E+02  0.10519892766E+03  0.91833305910E+02 0.  0.
        -11    1    3    3    0    0  0.17100028796E+02 -0.42501813837E+02 -0.91282293985E+02  0.10213360054E+03  0.00000000000E+00 0.  1.
         12    1    3    3    0    0 -0.61665899424E+01  0.19164165274E+02  0.33371938351E+01  0.20406590232E+02  0.00000000000E+00 0. -1.
        -11    1    4    4    0    0 -0.21359790716E+02  0.15220407949E+02  0.13596517238E+02  0.29542626129E+02  0.00000000000E+00 0.  1.
         11    1    4    4    0    0  0.53265651321E+02 -0.79789069369E+01 -0.53131755057E+02  0.75656301535E+02  0.00000000000E+00 0. -1.
         -2    1    1    2    0  502 -0.42839299458E+02  0.16096147551E+02 -0.76237556237E+02  0.88918257546E+02  0.00000000000E+00 0.  1.
<scales pt_clust_5="13000.00000" pt_clust_6="13000.00000" pt_clust_7="13000.00000" pt_clust_8="13000.00000" pt_clust_9="45.76345"></scales>
<clustering>
<clus scale="   45.763">  1  9  2 -1</clus>
<clus scale="   81.348">  5  6 -1 -1</clus>
<clus scale="   83.358">  2  5  1 -1</clus>
<clus scale="   91.833">  7  8 -1 -1</clus>
<clus scale="   45.763">  1  5  2 -1</clus>
</clustering>
</event>
<event>
 9    2  0.4653788E-005  0.1142801E+03  0.7546771E-02  0.1258329E+00
         21   -1    0    0  501  502  0.00000000000E+00  0.00000000000E+00  0.17749901634E+03  0.17749901634E+03  0.00000000000E+00 0. -1.
          2   -1    0    0  502    0 -0.00000000000E+00 -0.00000000000E+00 -0.84956984321E+03  0.84956984321E+03  0.00000000000E+00 0. -1.
         24    2    1    2    0    0  0.62370746538E+02 -0.42273787421E+02 -0.58160239024E+03  0.59122162510E+03  0.74863118580E+02 0.  0.
         23    2    1    2    0    0 -0.31960223276E+02  0.52715481465E+02 -0.25012862987E+03  0.27298162664E+03  0.90300936560E+02 0.  0.
        -13    1    3    3    0    0 -0.48357096010E+00 -0.40865798528E+02 -0.16988382401E+03  0.17473053823E+03  0.00000000000E+00 0.  1.
         14    1    3    3    0    0  0.62854317498E+02 -0.14079888929E+01 -0.41171856623E+03  0.41649108687E+03  0.00000000000E+00 0. -1.
        -13    1    4    4    0    0 -0.38539463616E+02 -0.12135015349E+02 -0.63179723771E+02  0.74994842150E+02  0.00000000000E+00 0.  1.
         13    1    4    4    0    0  0.65792403392E+01  0.64850496814E+02 -0.18694890610E+03  0.19798678449E+03  0.00000000000E+00 0. -1.
          1    1    1    2  501    0 -0.30410523262E+02 -0.10441694043E+02  0.15966019325E+03  0.16286560781E+03  0.00000000000E+00 0. -1.
<scales pt_clust_5="13000.00000" pt_clust_6="13000.00000" pt_clust_7="13000.00000" pt_clust_8="13000.00000" pt_clust_9="32.15321"></scales>
<clustering>
<clus scale="   32.153">  1  9  2 -1</clus>
<clus scale="   74.863">  5  6 -1 -1</clus>
<clus scale="   90.301">  7  8 -1 -1</clus>
<clus scale="  102.519">  2  5  1 -1</clus>
<clus scale="   32.153">  1  5  2 -1</clus>
</clustering>
</event>
<event>
 9    2  0.4653788E-005  0.1958870E+03  0.7546771E-02  0.1169537E+00
         21   -1    0    0  501  502  0.00000000000E+00  0.00000000000E+00  0.29564452272E+03  0.29564452272E+03  0.00000000000E+00 0.  1.
          2   -1    0    0  502    0 -0.00000000000E+00 -0.00000000000E+00 -0.59889455092E+03  0.59889455092E+03  0.00000000000E+00 0. -1.
         23    2    1    2    0    0 -0.85963002475E+02 -0.33391249890E+02 -0.32224885344E+03  0.34908248054E+03  0.97517389797E+02 0.  0.
         24    2    1    2    0    0  0.52593674961E+00 -0.17092113003E+03  0.18718689465E+03  0.26737339066E+03  0.85060491437E+02 0.  0.
        -11    1    4    4    0    0 -0.34753504860E+02 -0.10646591337E+03  0.80889818458E+02  0.13815194367E+03  0.00000000000E+00 0.  1.
         12    1    4    4    0    0  0.35279441610E+02 -0.64455216664E+02  0.10629707619E+03  0.12922144699E+03  0.00000000000E+00 0. -1.
        -11    1    3    3    0    0 -0.15987147170E+02  0.32585037246E+02 -0.65053963298E+02  0.74494239158E+02  0.00000000000E+00 0.  1.
         11    1    3    3    0    0 -0.69975855306E+02 -0.65976287136E+02 -0.25719489014E+03  0.27458824138E+03  0.00000000000E+00 0. -1.
          1    1    1    2  501    0  0.85437065726E+02  0.20431237992E+03 -0.16818806941E+03  0.27808320244E+03  0.00000000000E+00 0. -1.
<scales pt_clust_5="13000.00000" pt_clust_6="13000.00000" pt_clust_7="13000.00000" pt_clust_8="13000.00000" pt_clust_9="176.45525"></scales>
<clustering>
<clus scale="   85.060">  5  6 -1 -1</clus>
<clus scale="   97.517">  7  8 -1 -1</clus>
<clus scale="  134.217">  2  7  1 -1</clus>
<clus scale="  176.455">  1  9  2 -1</clus>
<clus scale="  176.455">  1  5  2 -1</clus>
</clustering>
</event>
<event>
 9    2  0.4653788E-005  0.1370537E+03  0.7546771E-02  0.1219731E+00
         21   -1    0    0  501  502  0.00000000000E+00  0.00000000000E+00  0.34586882191E+03  0.34586882191E+03  0.00000000000E+00 0. -1.
          2   -1    0    0  502    0 -0.00000000000E+00 -0.00000000000E+00 -0.84192866794E+02  0.84192866794E+02  0.00000000000E+00 0. -1.
         24    2    1    2    0    0  0.10791827410E+03 -0.40835891288E+02  0.10843270963E+03  0.17756398979E+03  0.80357912189E+02 0.  0.
         23    2    1    2    0    0 -0.66004959238E+02  0.62246973745E+02  0.15979827651E+03  0.20497792570E+03  0.90824668802E+02 0.  0.
        -11    1    3    3    0    0  0.29701395670E+02  0.23920829155E+02  0.20832425428E+02  0.43455367004E+02  0.00000000000E+00 0.  1.
         12    1    3    3    0    0  0.78216878426E+02 -0.64756720444E+02  0.87600284203E+02  0.13410862279E+03  0.00000000000E+00 0. -1.
        -13    1    4    4    0    0  0.14644841758E+02  0.36763209876E+02  0.28391775060E+02  0.48704187515E+02  0.00000000000E+00 0.  1.
         13    1    4    4    0    0 -0.80649800996E+02  0.25483763869E+02  0.13140650145E+03  0.15627373818E+03  0.00000000000E+00 0. -1.
          1    1    1    2  501    0 -0.41913314859E+02 -0.21411082457E+02 -0.65550310289E+01  0.47519773213E+02  0.00000000000E+00 0. -1.
<scales pt_clust_5="13000.00000" pt_clust_6="13000.00000" pt_clust_7="13000.00000" pt_clust_8="13000.00000" pt_clust_9="47.06551"></scales>
<clustering>
<clus scale="   47.066">  1  9  2 -1</clus>
<clus scale="   80.358">  5  6 -1 -1</clus>
<clus scale="   90.825">  7  8 -1 -1</clus>
<clus scale="  130.353">  2  5  1 -1</clus>
<clus scale="   47.066">  1  5  2 -1</clus>
</clustering>
</event>
<event>
 9    2  0.4653788E-005  0.1060009E+03  0.7546771E-02  0.1272175E+00
         21   -1    0    0  501  502  0.00000000000E+00  0.00000000000E+00  0.17179972272E+03  0.17179972272E+03  0.00000000000E+00 0. -1.
          4   -1    0    0  502    0 -0.00000000000E+00 -0.00000000000E+00 -0.12938003729E+03  0.12938003729E+03  0.00000000000E+00 0. -1.
         23    2    1    2    0    0  0.64640325516E+02 -0.43647106050E+02 -0.45359723560E+02  0.12739857155E+03  0.89941369578E+02 0.  0.
         24    2    1    2    0    0 -0.40904038215E+01  0.29272868099E+02  0.36590680517E+02  0.93200808359E+02  0.80460428584E+02 0.  0.
        -13    1    4    4    0    0  0.18689076329E+02  0.47546671652E+02  0.68942938519E+01  0.51550934491E+02  0.00000000000E+00 0.  1.
         14    1    4    4    0    0 -0.22779480151E+02 -0.18273803553E+02  0.29696386665E+02  0.41649873868E+02  0.00000000000E+00 0. -1.
        -13    1    3    3    0    0  0.53811849178E+01 -0.35265790405E+02  0.18240290022E+02  0.40066710672E+02  0.00000000000E+00 0.  1.
         13    1    3    3    0    0  0.59259140599E+02 -0.83813156446E+01 -0.63600013581E+02  0.87331860875E+02  0.00000000000E+00 0. -1.
          3    1    1    2  501    0 -0.60549921695E+02  0.14374237950E+02  0.51188728475E+02  0.80580380098E+02  0.00000000000E+00 0. -1.
<scales pt_clust_5="13000.00000" pt_clust_6="13000.00000" pt_clust_7="13000.00000" pt_clust_8="13000.00000" pt_clust_9="62.23272"></scales>
<clustering>
<clus scale="   62.233">  1  9  2 -1</clus>
<clus scale="   80.460">  5  6 -1 -1</clus>
<clus scale="   89.941">  7  8 -1 -1</clus>
<clus scale="   98.085">  1  5  2 -1</clus>
<clus scale="   62.233">  1  5  2 -1</clus>
</clustering>
</event>
<event>
 9    2  0.4653788E-005  0.1097861E+03  0.7546771E-02  0.1269645E+00
         21   -1    0    0  501  502  0.00000000000E+00  0.00000000000E+00  0.49669284613E+03  0.49669284613E+03  0.00000000000E+00 0.  1.
          2   -1    0    0  502    0 -0.00000000000E+00 -0.00000000000E+00 -0.41591062299E+02  0.41591062299E+02  0.00000000000E+00 0. -1.
         24    2    1    2    0    0 -0.56184332735E+02 -0.40018315580E+00  0.57093580777E+02  0.11266881454E+03  0.79232224590E+02 0.  0.
         23    2    1    2    0    0  0.28672601036E+02 -0.17189435761E+01  0.19206832270E+03  0.21783487250E+03  0.98674810737E+02 0.  0.
        -11    1    3    3    0    0 -0.24551367768E+02  0.32039991547E+02  0.75699987963E+00  0.40372066661E+02  0.00000000000E+00 0.  1.
         12    1    3    3    0    0 -0.31632964967E+02 -0.32440174703E+02  0.56336580898E+02  0.72296747884E+02  0.00000000000E+00 0. -1.
        -11    1    4    4    0    0  0.62193100504E+02 -0.12667050375E+01  0.82953473684E+02  0.10368637851E+03  0.00000000000E+00 0.  1.
         11    1    4    4    0    0 -0.33520499468E+02 -0.45223853863E+00  0.10911484901E+03  0.11414849399E+03  0.00000000000E+00 0. -1.
          1    1    1    2  501    0  0.27511731699E+02  0.21191267319E+01  0.20593988036E+03  0.20778022139E+03  0.00000000000E+00 0. -1.
<scales pt_clust_5="13000.00000" pt_clust_6="13000.00000" pt_clust_7="13000.00000" pt_clust_8="13000.00000" pt_clust_9="27.59323"></scales>
<clustering>
<clus scale="   27.593">  1  9  2 -1</clus>
<clus scale="   79.232">  5  6 -1 -1</clus>
<clus scale="   92.704">  2  5  1 -1</clus>
<clus scale="   98.675">  7  8 -1 -1</clus>
<clus scale="   27.593">  1  5  2 -1</clus>
</clustering>
</event>
<event>
 9    2  0.4653788E-005  0.3853661E+03  0.7546771E-02  0.1062990E+00
         21   -1    0    0  501  502  0.00000000000E+00  0.00000000000E+00  0.60643198226E+03  0.60643198226E+03  0.00000000000E+00 0. -1.
          2   -1    0    0  502    0 -0.00000000000E+00 -0.00000000000E+00 -0.95308634421E+03  0.95308634421E+03  0.00000000000E+00 0. -1.
         23    2    1    2    0    0 -0.23359295912E+03 -0.68230237346E+02  0.28472054310E+02  0.26104969581E+03  0.90084682204E+02 0.  0.
         24    2    1    2    0    0  0.27463261972E+03  0.43215697902E+03 -0.65671274229E+03  0.83649700160E+03  0.79201499151E+02 0.  0.
        -13    1    4    4    0    0  0.15588369667E+03  0.30593611395E+03 -0.40612756672E+03  0.53182349813E+03  0.00000000000E+00 0.  1.
         14    1    4    4    0    0  0.11874892305E+03  0.12622086507E+03 -0.25058517557E+03  0.30467350347E+03  0.00000000000E+00 0. -1.
        -11    1    3    3    0    0 -0.11443250104E+02 -0.20536121979E+02 -0.17407074115E+02  0.29252119720E+02  0.00000000000E+00 0. -1.
         11    1    3    3    0    0 -0.22214970902E+03 -0.47694115367E+02  0.45879128425E+02  0.23179757609E+03  0.00000000000E+00 0.  1.
          1    1    1    2  501    0 -0.41039660595E+02 -0.36392674167E+03  0.28158632603E+03  0.46197162906E+03  0.00000000000E+00 0. -1.
<scales pt_clust_5="13000.00000" pt_clust_6="13000.00000" pt_clust_7="13000.00000" pt_clust_8="13000.00000" pt_clust_9="377.13941"></scales>
<clustering>
<clus scale="   79.201">  5  6 -1 -1</clus>
<clus scale="   90.085">  7  8 -1 -1</clus>
<clus scale="  259.492">  2  7  1 -1</clus>
<clus scale="  377.139">  1  9  2 -1</clus>
<clus scale="  377.139">  1  5  2 -1</clus>
</clustering>
</event>
<event>
 9    2  0.4653788E-005  0.1390171E+03  0.7546771E-02  0.1217081E+00
         -1   -1    0    0    0  501 -0.00000000000E+00  0.00000000000E+00  0.32331644756E+03  0.32331644756E+03  0.00000000000E+00 0.  1.
         21   -1    0    0  501  502  0.00000000000E+00 -0.00000000000E+00 -0.10454272584E+03  0.10454272584E+03  0.00000000000E+00 0.  1.
         23    2    1    2    0    0  0.52100505772E+02 -0.11784596720E+03  0.19893763959E+03  0.25378977496E+03  0.90724477093E+02 0.  0.
         24    2    1    2    0    0 -0.16984544001E+02  0.70547396823E+02  0.34875055559E+02  0.11327090953E+03  0.79678224826E+02 0.  0.
        -11    1    4    4    0    0  0.18569398921E+02  0.62292208676E+02  0.34260133909E+01  0.65091315901E+02  0.00000000000E+00 0.  1.
         12    1    4    4    0    0 -0.35553942923E+02  0.82551881475E+01  0.31449042168E+02  0.48179593626E+02  0.00000000000E+00 0. -1.
        -13    1    3    3    0    0  0.15159668153E+02 -0.11917100400E+03  0.14331546434E+03  0.18700498938E+03  0.00000000000E+00 0.  1.
         13    1    3    3    0    0  0.36940837618E+02  0.13250367991E+01  0.55622175243E+02  0.66784785582E+02  0.00000000000E+00 0. -1.
         -2    1    1    2    0  502 -0.35115961770E+02  0.47298570380E+02 -0.15038973428E+02  0.60798488903E+02  0.00000000000E+00 0.  1.
<scales pt_clust_5="13000.00000" pt_clust_6="13000.00000" pt_clust_7="13000.00000" pt_clust_8="13000.00000" pt_clust_9="58.90913"></scales>
<clustering>
<clus scale="   58.909">  2  9  1 -1</clus>
<clus scale="   79.678">  5  6 -1 -1</clus>
<clus scale="   90.724">  7  8 -1 -1</clus>
<clus scale="  132.074">  2  5  1 -1</clus>
<clus scale="   58.909">  2  5  1 -1</clus>
</clustering>
</event>
<event>
 9    2  0.4653788E-005  0.1232276E+03  0.7546771E-02  0.1243158E+00
         21   -1    0    0  501  502  0.00000000000E+00  0.00000000000E+00  0.45863986253E+02  0.45863986253E+02  0.00000000000E+00 0. -1.
          2   -1    0    0  502    0 -0.00000000000E+00 -0.00000000000E+00 -0.54086417720E+03  0.54086417720E+03  0.00000000000E+00 0. -1.
         23    2    1    2    0    0  0.72588674729E+01  0.75569073986E+02 -0.29475459215E+03  0.31963520678E+03  0.97585960658E+02 0.  0.
         24    2    1    2    0    0 -0.39441249130E+02 -0.67671685510E+02 -0.20463838493E+03  0.23366585684E+03  0.81165232169E+02 0.  0.
        -13    1    4    4    0    0  0.21262706798E+02 -0.41605636337E+02 -0.83405822339E+02  0.95601584064E+02  0.00000000000E+00 0.  1.
         14    1    4    4    0    0 -0.60703955928E+02 -0.26066049172E+02 -0.12123256259E+03  0.13806427277E+03  0.00000000000E+00 0. -1.
        -11    1    3    3    0    0  0.43408803624E+02  0.71856239010E+02 -0.23668250144E+03  0.25112994606E+03  0.00000000000E+00 0. -1.
         11    1    3    3    0    0 -0.36149936152E+02  0.37128349757E+01 -0.58072090707E+02  0.68505260720E+02  0.00000000000E+00 0.  1.
          1    1    1    2  501    0  0.32182381657E+02 -0.78973884761E+01  0.43927861268E+01  0.33427099842E+02  0.00000000000E+00 0. -1.
<scales pt_clust_5="13000.00000" pt_clust_6="13000.00000" pt_clust_7="13000.00000" pt_clust_8="13000.00000" pt_clust_9="33.13721"></scales>
<clustering>
<clus scale="   33.137">  1  9  2 -1</clus>
<clus scale="   81.165">  5  6 -1 -1</clus>
<clus scale="   97.586">  7  8 -1 -1</clus>
<clus scale="  110.679">  1  5  2 -1</clus>
<clus scale="   33.137">  1  5  2 -1</clus>
</clustering>
</event>
<event>
 9    2  0.4653788E-005  0.1014649E+03  0.7546771E-02  0.1280699E+00
         21   -1    0    0  501  502  0.00000000000E+00  0.00000000000E+00  0.89700788887E+01  0.89700788887E+01  0.00000000000E+00 0. -1.
          2   -1    0    0  502    0 -0.00000000000E+00 -0.00000000000E+00 -0.14943948566E+04  0.14943948566E+04  0.00000000000E+00 0. -1.
         24    2    1    2    0    0 -0.52304803362E+02  0.65836638274E+01 -0.85526329327E+03  0.86088494918E+03  0.82876159629E+02 0.  0.
         23    2    1    2    0    0  0.36258364404E+02  0.14929431448E+02 -0.49341542707E+03  0.50312509518E+03  0.90213750747E+02 0.  0.
        -13    1    3    3    0    0 -0.32908365241E+02  0.61516418619E+01 -0.10163364699E+03  0.10700561387E+03  0.00000000000E+00 0.  1.
         14    1    3    3    0    0 -0.19396438121E+02  0.43202196553E+00 -0.75362964628E+03  0.75387933531E+03  0.00000000000E+00 0. -1.
        -13    1    4    4    0    0  0.20794261992E+02  0.53154492966E+02 -0.29474172002E+03  0.30021739286E+03  0.00000000000E+00 0. -1.
         13    1    4    4    0    0  0.15464102412E+02 -0.38225061518E+02 -0.19867370704E+03  0.20290770232E+03  0.00000000000E+00 0.  1.
          1    1    1    2  501    0  0.16046438958E+02 -0.21513095276E+02 -0.13674605742E+03  0.13935489116E+03  0.00000000000E+00 0. -1.
<scales pt_clust_5="13000.00000" pt_clust_6="13000.00000" pt_clust_7="13000.00000" pt_clust_8="13000.00000" pt_clust_9="26.83843"></scales>
<clustering>
<clus scale="   26.838">  1  9  2 -1</clus>
<clus scale="   82.876">  5  6 -1 -1</clus>
<clus scale="   90.214">  7  8 -1 -1</clus>
<clus scale="   95.000">  2  5  1 -1</clus>
<clus scale="   26.838">  1  5  2 -1</clus>
</clustering>
</event>
<event>
 9    2  0.4653788E-005  0.9851113E+02  0.7546771E-02  0.1285015E+00
         -1   -1    0    0    0  501 -0.00000000000E+00  0.00000000000E+00  0.49166872836E+03  0.49166872836E+03  0.00000000000E+00 0.  1.
         21   -1    0    0  501  502  0.00000000000E+00 -0.00000000000E+00 -0.51914415201E+02  0.51914415201E+02  0.00000000000E+00 0. -1.
         23    2    1    2    0    0  0.12765181502E+02 -0.87001340104E+01  0.37689522858E+03  0.38863467964E+03  0.93532126601E+02 0.  0.
         24    2    1    2    0    0 -0.36686126414E+02  0.31960817346E+02  0.44207921707E+02  0.11672364382E+03  0.96450520832E+02 0.  0.
        -13    1    4    4    0    0  0.20843247167E+02  0.44242592944E+02  0.24377652931E+02  0.54645383568E+02  0.00000000000E+00 0.  1.
         14    1    4    4    0    0 -0.57529373581E+02 -0.12281775598E+02  0.19830268776E+02  0.62078260254E+02  0.00000000000E+00 0. -1.
        -11    1    3    3    0    0  0.40443324765E+02 -0.36722337327E+02  0.24311871726E+03  0.24918046323E+03  0.00000000000E+00 0. -1.
         11    1    3    3    0    0 -0.27678143263E+02  0.28022203317E+02  0.13377651132E+03  0.13945421641E+03  0.00000000000E+00 0.  1.
         -2    1    1    2    0  502  0.23920944912E+02 -0.23260683335E+02  0.18651162874E+02  0.38224820094E+02  0.00000000000E+00 0.  1.
<scales pt_clust_5="13000.00000" pt_clust_6="13000.00000" pt_clust_7="13000.00000" pt_clust_8="13000.00000" pt_clust_9="33.36572"></scales>
<clustering>
<clus scale="   33.366">  2  9  1 -1</clus>
<clus scale="   93.532">  7  8 -1 -1</clus>
<clus scale="   95.656">  1  7  2 -1</clus>
<clus scale="   96.451">  5  6 -1 -1</clus>
<clus scale="   33.366">  2  5  1 -1</clus>
</clustering>
</event>
<event>
 9    2  0.4653788E-005  0.9319486E+02  0.7546771E-02  0.1298965E+00
         21   -1    0    0  501  502  0.00000000000E+00  0.00000000000E+00  0.35773067617E+02  0.35773067617E+02  0.00000000000E+00 0.  1.
          2   -1    0    0  502    0 -0.00000000000E+00 -0.00000000000E+00 -0.58173603047E+03  0.58173603047E+03  0.00000000000E+00 0. -1.
         23    2    1    2    0    0 -0.37133955361E+02  0.62369223914E+01 -0.22394713973E+03  0.24503889855E+03  0.92053846025E+02 0.  0.
         24    2    1    2    0    0 -0.43070174806E+02 -0.24110936762E+02 -0.12849063414E+03  0.16222229430E+03  0.85847844916E+02 0.  0.
        -13    1    4    4    0    0 -0.19685187493E+02 -0.20648229816E+02  0.29430458815E+01  0.28679566249E+02  0.00000000000E+00 0.  1.
         14    1    4    4    0    0 -0.23384987312E+02 -0.34627069463E+01 -0.13143368003E+03  0.13354272805E+03  0.00000000000E+00 0. -1.
        -11    1    3    3    0    0  0.41807214599E+00 -0.35982609261E+02 -0.46406685109E+02  0.58723959134E+02  0.00000000000E+00 0. -1.
         11    1    3    3    0    0 -0.37552027507E+02  0.42219531653E+02 -0.17754045462E+03  0.18631493941E+03  0.00000000000E+00 0.  1.
          1    1    1    2  501    0  0.80204130167E+02  0.17874014371E+02 -0.19352518898E+03  0.21024790523E+03  0.00000000000E+00 0. -1.
<scales pt_clust_5="13000.00000" pt_clust_6="13000.00000" pt_clust_7="13000.00000" pt_clust_8="13000.00000" pt_clust_9="82.17171"></scales>
<clustering>
<clus scale="   82.172">  1  9  2 -1</clus>
<clus scale="   85.848">  5  6 -1 -1</clus>
<clus scale="   87.070">  1  5  2 -1</clus>
<clus scale="   92.054">  7  8 -1 -1</clus>
<clus scale="   82.172">  1  5  2 -1</clus>
</clustering>
</event>
<event>
 9    2  0.4653788E-005  0.1120002E+03  0.7546771E-02  0.1259321E+00
          4   -1    0    0  502    0 -0.00000000000E+00  0.00000000000E+00  0.13922329008E+03  0.13922329008E+03  0.00000000000E+00 0. -1.
         21   -1    0    0  501  502  0.00000000000E+00 -0.00000000000E+00 -0.28817965175E+03  0.28817965175E+03  0.00000000000E+00 0.  1.
         23    2    1    2    0    0 -0.88942219788E+02  0.13450306023E+02  0.56376247532E+02  0.13945754727E+03  0.90435043059E+02 0.  0.
         24    2    1    2    0    0  0.21850660457E+02  0.43320535762E+02 -0.49017252414E+02  0.10861693451E+03  0.83909637393E+02 0.  0.
        -11    1    4    4    0    0  0.48784137004E+02  0.46709271928E+02 -0.45042302089E+02  0.81181630217E+02  0.00000000000E+00 0.  1.
         12    1    4    4    0    0 -0.26933476547E+02 -0.33887361658E+01 -0.39749503254E+01  0.27435304295E+02  0.00000000000E+00 0. -1.
        -11    1    3    3    0    0 -0.70762667558E+02  0.33860219138E+02  0.73256236000E+02  0.10733287322E+03  0.00000000000E+00 0.  1.
         11    1    3    3    0    0 -0.18179552230E+02 -0.20409913115E+02 -0.16879988468E+02  0.32124674058E+02  0.00000000000E+00 0. -1.
          3    1    1    2  501    0  0.67091559331E+02 -0.56770841786E+02 -0.15631535679E+03  0.17932846004E+03  0.00000000000E+00 0. -1.
<scales pt_clust_5="13000.00000" pt_clust_6="13000.00000" pt_clust_7="13000.00000" pt_clust_8="13000.00000" pt_clust_9="87.88746"></scales>
<clustering>
<clus scale="   83.910">  5  6 -1 -1</clus>
<clus scale="   87.887">  2  9  1 -1</clus>
<clus scale="   90.435">  7  8 -1 -1</clus>
<clus scale="  106.801">  2  5  1 -1</clus>
<clus scale="   87.887">  2  5  1 -1</clus>
</clustering>
</event>
<event>
 9    2  0.4653788E-005  0.9512982E+02  0.7546771E-02  0.1296648E+00
          2   -1    0    0  502    0 -0.00000000000E+00  0.00000000000E+00  0.87842588717E+02  0.87842588717E+02  0.00000000000E+00 0. -1.
         21   -1    0    0  501  502  0.00000000000E+00 -0.00000000000E+00 -0.28100947970E+03  0.28100947970E+03  0.00000000000E+00 0. -1.
         24    2    1    2    0    0  0.14380907079E+02 -0.78824367231E+01 -0.19925491987E+02  0.85886169023E+02  0.81917430998E+02 0.  0.
         23    2    1    2    0    0 -0.62587805940E+02 -0.13854729343E+02 -0.19568264132E+03  0.22552010891E+03  0.91969758260E+02 0.  0.
        -11    1    3    3    0    0  0.33172813926E+02 -0.35928871339E+02 -0.17868863749E+02  0.52063573361E+02  0.00000000000E+00 0.  1.
         12    1    3    3    0    0 -0.18791906847E+02  0.28046434616E+02 -0.20566282388E+01  0.33822595662E+02  0.00000000000E+00 0. -1.
        -13    1    4    4    0    0 -0.29908790752E+02  0.37775251453E+02 -0.11181488513E+03  0.12175415362E+03  0.00000000000E+00 0. -1.
         13    1    4    4    0    0 -0.32679015188E+02 -0.51629980796E+02 -0.83867756184E+02  0.10376595529E+03  0.00000000000E+00 0.  1.
          1    1    1    2  501    0  0.48206898860E+02  0.21737166066E+02  0.22441242325E+02  0.57445790476E+02  0.00000000000E+00 0. -1.
<scales pt_clust_5="13000.00000" pt_clust_6="13000.00000" pt_clust_7="13000.00000" pt_clust_8="13000.00000" pt_clust_9="52.88111"></scales>
<clustering>
<clus scale="   52.881">  2  9  1 -1</clus>
<clus scale="   81.917">  5  6 -1 -1</clus>
<clus scale="   85.450">  1  5  2 -1</clus>
<clus scale="   91.970">  7  8 -1 -1</clus>
<clus scale="   52.881">  2  5  1 -1</clus>
</clustering>
</event>
<event>
 9    2  0.4653788E-005  0.3322168E+03  0.7546771E-02  0.1086411E+00
          2   -1    0    0  502    0 -0.00000000000E+00  0.00000000000E+00  0.87502620874E+03  0.87502620874E+03  0.00000000000E+00 0. -1.
         21   -1    0    0  501  502  0.00000000000E+00 -0.00000000000E+00 -0.28726113756E+03  0.28726113756E+03  0.00000000000E+00 0. -1.
         23    2    1    2    0    0 -0.18502323364E+03 -0.46908848916E+02  0.46644824383E+02  0.21914899043E+03  0.97038668950E+02 0.  0.
         24    2    1    2    0    0  0.17840381873E+03  0.30736866471E+03  0.25371369985E+02  0.36531482205E+03  0.80670900670E+02 0.  0.
        -13    1    4    4    0    0  0.58234010883E+02  0.18059988544E+03  0.12610662293E+02  0.19017504423E+03  0.00000000000E+00 0.  1.
         14    1    4    4    0    0  0.12016980785E+03  0.12676877927E+03  0.12760707691E+02  0.17513977782E+03  0.00000000000E+00 0. -1.
        -13    1    3    3    0    0 -0.13359884172E+03 -0.68876436761E+02  0.67560665424E+01  0.15046015581E+03  0.00000000000E+00 0. -1.
         13    1    3    3    0    0 -0.51424391921E+02  0.21967587845E+02  0.39888757840E+02  0.68688834625E+02  0.00000000000E+00 0.  1.
          1    1    1    2  501    0  0.66194149166E+01 -0.26045981579E+03  0.51574887682E+03  0.57782353382E+03  0.00000000000E+00 0. -1.
<scales pt_clust_5="13000.00000" pt_clust_6="13000.00000" pt_clust_7="13000.00000" pt_clust_8="13000.00000" pt_clust_9="322.27366"></scales>
<clustering>
<clus scale="   80.671">  5  6 -1 -1</clus>
<clus scale="   97.039">  7  8 -1 -1</clus>
<clus scale="  214.127">  1  7  2 -1</clus>
<clus scale="  322.274">  2  9  1 -1</clus>
<clus scale="  322.274">  2  5  1 -1</clus>
</clustering>
</event>
<event>
 9    2  0.4653788E-005  0.1528663E+03  0.7546771E-02  0.1223597E+00
         21   -1    0    0  501  502  0.00000000000E+00  0.00000000000E+00  0.18194086096E+03  0.18194086096E+03  0.00000000000E+00 0.  1.
         -1   -1    0    0    0  501 -0.00000000000E+00 -0.00000000000E+00 -0.26220373248E+03  0.26220373248E+03  0.00000000000E+00 0.  1.
         24    2    1    2    0    0  0.97486751740E+01  0.29112880918E+02 -0.12854999879E+03  0.15501975848E+03  0.81014979031E+02 0.  0.
         23    2    1    2    0    0  0.36204356279E+01  0.10339820354E+03 -0.20826032296E+02  0.13907634462E+03  0.90577094026E+02 0.  0.
        -13    1    3    3    0    0 -0.25459972357E+01  0.33627872726E+02 -0.13588561628E+03  0.14000791634E+03  0.00000000000E+00 0.  1.
         14    1    3    3    0    0  0.12294672410E+02 -0.45149918072E+01  0.73356174858E+01  0.15011842145E+02  0.00000000000E+00 0. -1.
        -11    1    4    4    0    0 -0.35200548825E+02  0.29196361356E+02  0.14802331332E+02  0.48068858597E+02  0.00000000000E+00 0. -1.
         11    1    4    4    0    0  0.38820984453E+02  0.74201842183E+02 -0.35628363628E+02  0.91007486022E+02  0.00000000000E+00 0.  1.
         -2    1    1    2    0  502 -0.13369110802E+02 -0.13251108446E+03  0.69113159574E+02  0.15004849034E+03  0.00000000000E+00 0.  1.
<scales pt_clust_5="13000.00000" pt_clust_6="13000.00000" pt_clust_7="13000.00000" pt_clust_8="13000.00000" pt_clust_9="123.14180"></scales>
<clustering>
<clus scale="   81.015">  5  6 -1 -1</clus>
<clus scale="   86.637">  2  5  1 -1</clus>
<clus scale="   90.577">  7  8 -1 -1</clus>
<clus scale="  123.142">  1  9  2 -1</clus>
<clus scale="  123.142">  1  5  2 -1</clus>
</clustering>
</event>
<event>
 9    2  0.4653788E-005  0.9161541E+02  0.7546771E-02  0.1305458E+00
         21   -1    0    0  501  502  0.00000000000E+00  0.00000000000E+00  0.26955300959E+03  0.26955300959E+03  0.00000000000E+00 0.  1.
         -3   -1    0    0    0  501 -0.00000000000E+00 -0.00000000000E+00 -0.11244237610E+03  0.11244237610E+03  0.00000000000E+00 0.  1.
         24    2    1    2    0    0  0.53384875735E+01 -0.14631054112E+02 -0.47702873380E+02  0.95130816977E+02  0.80819187177E+02 0.  0.
         23    2    1    2    0    0  0.12970681903E+02 -0.27629385414E+01  0.12560652340E+02  0.92960116102E+02  0.91147906066E+02 0.  0.
        -13    1    3    3    0    0  0.89256646280E+01 -0.21293467516E+02 -0.68877789569E+02  0.72644539669E+02  0.00000000000E+00 0.  1.
         14    1    3    3    0    0 -0.35871770545E+01  0.66624134042E+01  0.21174916188E+02  0.22486277308E+02  0.00000000000E+00 0. -1.
        -13    1    4    4    0    0  0.32605691682E+02 -0.33331505984E+02 -0.13156246652E+02  0.48447984966E+02  0.00000000000E+00 0.  1.
         13    1    4    4    0    0 -0.19635009780E+02  0.30568567443E+02  0.25716898992E+02  0.44512131137E+02  0.00000000000E+00 0. -1.
         -4    1    1    2    0  502 -0.18309169476E+02  0.17393992653E+02  0.19225285453E+03  0.19390445261E+03  0.00000000000E+00 0.  1.
<scales pt_clust_5="13000.00000" pt_clust_6="13000.00000" pt_clust_7="13000.00000" pt_clust_8="13000.00000" pt_clust_9="25.25424"></scales>
<clustering>
<clus scale="   25.254">  1  9  2 -1</clus>
<clus scale="   80.819">  5  6 -1 -1</clus>
<clus scale="   81.346">  2  5  1 -1</clus>
<clus scale="   91.148">  7  8 -1 -1</clus>
<clus scale="   25.254">  1  5  2 -1</clus>
</clustering>
</event>
<event>
 9    2  0.4653788E-005  0.8961814E+02  0.7546771E-02  0.1309428E+00
         -3   -1    0    0    0  501 -0.00000000000E+00  0.00000000000E+00  0.78528210341E+02  0.78528210341E+02  0.00000000000E+00 0.  1.
         21   -1    0    0  501  502  0.00000000000E+00 -0.00000000000E+00 -0.14076371913E+03  0.14076371913E+03  0.00000000000E+00 0.  1.
         23    2    1    2    0    0 -0.17342628990E+02  0.13366982776E+02 -0.18608654417E+02  0.93614515088E+02  0.89095187340E+02 0.  0.
         24    2    1    2    0    0 -0.48521491678E+01  0.43417025117E+01 -0.52263874070E+02  0.95999075114E+02  0.80261548439E+02 0.  0.
        -13    1    4    4    0    0 -0.17122328555E+02 -0.24013754146E+02 -0.57537318447E+02  0.64655839160E+02  0.00000000000E+00 0.  1.
         14    1    4    4    0    0  0.12270179388E+02  0.28355456658E+02  0.52734443775E+01  0.31343235955E+02  0.00000000000E+00 0. -1.
        -11    1    3    3    0    0 -0.20826387219E+02 -0.36156858930E+02 -0.12711644227E+02  0.43619293337E+02  0.00000000000E+00 0. -1.
         11    1    3    3    0    0  0.34837582291E+01  0.49523841706E+02 -0.58970101905E+01  0.49995221751E+02  0.00000000000E+00 0.  1.
         -4    1    1    2    0  502  0.22194778158E+02 -0.17708685287E+02  0.86370197028E+01  0.29678339263E+02  0.00000000000E+00 0.  1.
<scales pt_clust_5="13000.00000" pt_clust_6="13000.00000" pt_clust_7="13000.00000" pt_clust_8="13000.00000" pt_clust_9="28.39378"></scales>
<clustering>
<clus scale="   28.394">  2  9  1 -1</clus>
<clus scale="   80.262">  5  6 -1 -1</clus>
<clus scale="   80.842">  2  5  1 -1</clus>
<clus scale="   89.095">  7  8 -1 -1</clus>
<clus scale="   28.394">  2  5  1 -1</clus>
</clustering>
</event>
<event>
 9    2  0.4653788E-005  0.8969753E+02  0.7546771E-02  0.1307039E+00
         21   -1    0    0  501  502  0.00000000000E+00  0.00000000000E+00  0.22155809645E+03  0.22155809645E+03  0.00000000000E+00 0.  1.
         -3   -1    0    0    0  501 -0.00000000000E+00 -0.00000000000E+00 -0.47184810168E+02  0.47184810168E+02  0.00000000000E+00 0.  1.
         24    2    1    2    0    0  0.44893107761E+01 -0.11574364377E+02  0.65016461996E+02  0.10536897312E+03  0.81983902954E+02 0.  0.
         23    2    1    2    0    0 -0.29626774499E+02  0.78397992947E+01  0.68890162404E+02  0.11558910554E+03  0.87611521069E+02 0.  0.
        -11    1    3    3    0    0 -0.85916620818E-01  0.22018380725E+02 -0.91321799897E+01  0.23837222631E+02  0.00000000000E+00 0.  1.
         12    1    3    3    0    0  0.45752273970E+01 -0.33592745102E+02  0.74148641986E+02  0.81531750488E+02  0.00000000000E+00 0. -1.
        -11    1    4    4    0    0 -0.44487234225E+02 -0.28830031856E+02  0.43517242801E+02  0.68585969169E+02  0.00000000000E+00 0. -1.
         11    1    4    4    0    0  0.14860459726E+02  0.36669831151E+02  0.25372919603E+02  0.47003136375E+02  0.00000000000E+00 0.  1.
         -4    1    1    2    0  502  0.25137463723E+02  0.37345650828E+01  0.40466661878E+02  0.47784827951E+02  0.00000000000E+00 0.  1.
<scales pt_clust_5="13000.00000" pt_clust_6="13000.00000" pt_clust_7="13000.00000" pt_clust_8="13000.00000" pt_clust_9="25.41336"></scales>
<clustering>
<clus scale="   25.413">  1  9  2 -1</clus>
<clus scale="   81.984">  5  6 -1 -1</clus>
<clus scale="   84.209">  2  5  1 -1</clus>
<clus scale="   87.612">  7  8 -1 -1</clus>
<clus scale="   25.413">  1  5  2 -1</clus>
</clustering>
</event>
<event>
 9    2  0.4653788E-005  0.1713137E+03  0.7546771E-02  0.1198484E+00
          2   -1    0    0  502    0 -0.00000000000E+00  0.00000000000E+00  0.11372464081E+04  0.11372464081E+04  0.00000000000E+00 0. -1.
         21   -1    0    0  501  502  0.00000000000E+00 -0.00000000000E+00 -0.62150982496E+02  0.62150982496E+02  0.00000000000E+00 0. -1.
         24    2    1    2    0    0 -0.11266728731E+02 -0.67026469428E+02  0.32498140798E+03  0.34156599441E+03  0.80217991894E+02 0.  0.
         23    2    1    2    0    0  0.14121798653E+03 -0.23710671359E+02  0.12154087003E+03  0.20958394344E+03  0.92997476334E+02 0.  0.
        -13    1    3    3    0    0 -0.14609675804E+02 -0.83989408644E+02  0.23612475736E+03  0.25104295335E+03  0.00000000000E+00 0.  1.
         14    1    3    3    0    0  0.33429470727E+01  0.16962939216E+02  0.88856650625E+02  0.90523041057E+02  0.00000000000E+00 0. -1.
        -11    1    4    4    0    0  0.97745452630E+02 -0.28118470530E+02  0.13001757209E+03  0.16507389541E+03  0.00000000000E+00 0. -1.
         11    1    4    4    0    0  0.43472533896E+02  0.44077991708E+01 -0.84767020659E+01  0.44510048021E+02  0.00000000000E+00 0.  1.
          1    1    1    2  501    0 -0.12995125779E+03  0.90737140787E+02  0.62857314764E+03  0.64824745280E+03  0.00000000000E+00 0. -1.
<scales pt_clust_5="13000.00000" pt_clust_6="13000.00000" pt_clust_7="13000.00000" pt_clust_8="13000.00000" pt_clust_9="143.87455"></scales>
<clustering>
<clus scale="   80.218">  5  6 -1 -1</clus>
<clus scale="   92.997">  7  8 -1 -1</clus>
<clus scale="  105.140">  1  5  2 -1</clus>
<clus scale="  143.875">  2  9  1 -1</clus>
<clus scale="  143.875">  2  5  1 -1</clus>
</clustering>
</event>
<event>
 9    2  0.4653788E-005  0.1599793E+03  0.7546771E-02  0.1209216E+00
         -3   -1    0    0    0  501 -0.00000000000E+00  0.00000000000E+00  0.74092479707E+03  0.74092479707E+03  0.00000000000E+00 0.  1.
         21   -1    0    0  501  502  0.00000000000E+00 -0.00000000000E+00 -0.89779451383E+02  0.89779451383E+02  0.00000000000E+00 0.  1.
         23    2    1    2    0    0  0.25329299729E+02  0.44688020046E+02  0.35837820719E+03  0.37272602400E+03  0.88606754914E+02 0.  0.
         24    2    1    2    0    0  0.11817429202E+03 -0.35151782026E+02  0.27636702764E+03  0.31322607657E+03  0.80814788282E+02 0.  0.
        -11    1    4    4    0    0  0.10316013603E+03 -0.41868680770E+02  0.15550875440E+03  0.19125368700E+03  0.00000000000E+00 0.  1.
         12    1    4    4    0    0  0.15014155993E+02  0.67168987445E+01  0.12085827323E+03  0.12197238957E+03  0.00000000000E+00 0. -1.
        -13    1    3    3    0    0  0.55747544385E+02  0.39765316263E+02  0.28557789419E+03  0.29367295200E+03  0.00000000000E+00 0.  1.
         13    1    3    3    0    0 -0.30418244656E+02  0.49227037825E+01  0.72800312998E+02  0.79053072003E+02  0.00000000000E+00 0. -1.
         -4    1    1    2    0  502 -0.14350359175E+03 -0.95362380200E+01  0.16400110860E+02  0.14475214788E+03  0.00000000000E+00 0.  1.
<scales pt_clust_5="13000.00000" pt_clust_6="13000.00000" pt_clust_7="13000.00000" pt_clust_8="13000.00000" pt_clust_9="138.06651"></scales>
<clustering>
<clus scale="   80.815">  5  6 -1 -1</clus>
<clus scale="   88.607">  7  8 -1 -1</clus>
<clus scale="  102.419">  1  7  2 -1</clus>
<clus scale="  138.067">  2  9  1 -1</clus>
<clus scale="  138.067">  2  5  1 -1</clus>
</clustering>
</event>
<event>
 9    2  0.4653788E-005  0.1016334E+03  0.7546771E-02  0.1277629E+00
         21   -1    0    0  501  502  0.00000000000E+00  0.00000000000E+00  0.97371160147E+02  0.97371160147E+02  0.00000000000E+00 0.  1.
          2   -1    0    0  502    0 -0.00000000000E+00 -0.00000000000E+00 -0.40878250333E+03  0.40878250333E+03  0.00000000000E+00 0. -1.
         23    2    1    2    0    0 -0.22599873147E+02  0.35165306826E+02 -0.15456670407E+03  0.18371813384E+03  0.90078485924E+02 0.  0.
         24    2    1    2    0    0  0.96126434162E+01 -0.59151133565E+02  0.45270429144E+02  0.11848825988E+03  0.91644947815E+02 0.  0.
        -13    1    4    4    0    0  0.47551423878E+02 -0.51115785305E+02  0.36286679685E+02  0.78680903291E+02  0.00000000000E+00 0.  1.
         14    1    4    4    0    0 -0.37938780462E+02 -0.80353482601E+01  0.89837494590E+01  0.39807356593E+02  0.00000000000E+00 0. -1.
        -11    1    3    3    0    0 -0.68262049355E+01  0.61504923594E+02 -0.13144664414E+03  0.14528479947E+03  0.00000000000E+00 0. -1.
         11    1    3    3    0    0 -0.15773668212E+02 -0.26339616768E+02 -0.23120059927E+02  0.38433334378E+02  0.00000000000E+00 0.  1.
          1    1    1    2  501    0  0.12987229731E+02  0.23985826740E+02 -0.20211506826E+03  0.20394726975E+03  0.00000000000E+00 0. -1.
<scales pt_clust_5="13000.00000" pt_clust_6="13000.00000" pt_clust_7="13000.00000" pt_clust_8="13000.00000" pt_clust_9="27.27616"></scales>
<clustering>
<clus scale="   27.276">  1  9  2 -1</clus>
<clus scale="   90.078">  7  8 -1 -1</clus>
<clus scale="   91.645">  5  6 -1 -1</clus>
<clus scale="  100.223">  2  7  1 -1</clus>
<clus scale="   27.276">  1  5  2 -1</clus>
</clustering>
</event>
<event>
 9    2  0.4653788E-005  0.1965712E+03  0.7546771E-02  0.1166407E+00
         -1   -1    0    0    0  501 -0.00000000000E+00  0.00000000000E+00  0.76062068702E+03  0.76062068702E+03  0.00000000000E+00 0.  1.
         21   -1    0    0  501  502  0.00000000000E+00 -0.00000000000E+00 -0.14702522637E+03  0.14702522637E+03  0.00000000000E+00 0.  1.
         23    2    1    2    0    0  0.28276155749E+02  0.10720626197E+03  0.44574827432E+03  0.46803732125E+03  0.89859259065E+02 0.  0.
         24    2    1    2    0    0 -0.13529134607E+03  0.66312945618E+02  0.16279637896E+03  0.23568047486E+03  0.79633348245E+02 0.  0.
        -11    1    4    4    0    0 -0.10928094707E+03  0.47646849883E+02  0.16503128216E+03  0.20358750401E+03  0.00000000000E+00 0.  1.
         12    1    4    4    0    0 -0.26010399000E+02  0.18666095735E+02 -0.22349032033E+01  0.32092970857E+02  0.00000000000E+00 0. -1.
        -11    1    3    3    0    0 -0.31886672925E+02  0.33711158410E+02  0.17771877961E+03  0.18367679967E+03  0.00000000000E+00 0. -1.
         11    1    3    3    0    0  0.60162828673E+02  0.73495103558E+02  0.26802949471E+03  0.28436052158E+03  0.00000000000E+00 0.  1.
         -2    1    1    2    0  502  0.10701519032E+03 -0.17351920759E+03  0.50508073771E+01  0.20392811728E+03  0.00000000000E+00 0.  1.
<scales pt_clust_5="13000.00000" pt_clust_6="13000.00000" pt_clust_7="13000.00000" pt_clust_8="13000.00000" pt_clust_9="179.71858"></scales>
<clustering>
<clus scale="   79.633">  5  6 -1 -1</clus>
<clus scale="   89.859">  7  8 -1 -1</clus>
<clus scale="  142.714">  1  7  2 -1</clus>
<clus scale="  179.719">  2  9  1 -1</clus>
<clus scale="  179.719">  2  5  1 -1</clus>
</clustering>
</event>
<event>
 9    2  0.4653788E-005  0.1032098E+03  0.7546771E-02  0.1276808E+00
         -1   -1    0    0    0  501 -0.00000000000E+00  0.00000000000E+00  0.43358817605E+02  0.43358817605E+02  0.00000000000E+00 0.  1.
         21   -1    0    0  501  502  0.00000000000E+00 -0.00000000000E+00 -0.38191948823E+03  0.38191948823E+03  0.00000000000E+00 0.  1.
         24    2    1    2    0    0 -0.52226217252E+02 -0.48005083206E+02 -0.92004658666E+02  0.14144568440E+03  0.80684314694E+02 0.  0.
         23    2    1    2    0    0  0.33455891843E+02  0.57486576909E+01 -0.15769267930E+03  0.18365965849E+03  0.87815404614E+02 0.  0.
        -13    1    3    3    0    0 -0.51832666553E+02 -0.91874717132E+01 -0.14243928521E+02  0.54533700206E+02  0.00000000000E+00 0.  1.
         14    1    3    3    0    0 -0.39355069986E+00 -0.38817611493E+02 -0.77760730146E+02  0.86911984197E+02  0.00000000000E+00 0. -1.
        -13    1    4    4    0    0  0.39310341097E+02  0.26973798838E+02 -0.15415593554E+03  0.16135966412E+03  0.00000000000E+00 0.  1.
         13    1    4    4    0    0 -0.58544492533E+01 -0.21225141147E+02 -0.35367437619E+01  0.22299994377E+02  0.00000000000E+00 0. -1.
         -2    1    1    2    0  502  0.18770325409E+02  0.42256425516E+02 -0.88863332651E+02  0.10017296293E+03  0.00000000000E+00 0.  1.
<scales pt_clust_5="13000.00000" pt_clust_6="13000.00000" pt_clust_7="13000.00000" pt_clust_8="13000.00000" pt_clust_9="46.23776"></scales>
<clustering>
<clus scale="   46.238">  2  9  1 -1</clus>
<clus scale="   80.684">  5  6 -1 -1</clus>
<clus scale="   87.815">  7  8 -1 -1</clus>
<clus scale="   97.215">  1  5  2 -1</clus>
<clus scale="   46.238">  2  5  1 -1</clus>
</clustering>
</event>
<event>
 9    2  0.4653788E-005  0.1150424E+03  0.7546771E-02  0.1259702E+00
          2   -1    0    0  502    0 -0.00000000000E+00  0.00000000000E+00  0.44556662699E+03  0.44556662699E+03  0.00000000000E+00 0. -1.
         21   -1    0    0  501  502  0.00000000000E+00 -0.00000000000E+00 -0.18388003818E+03  0.18388003818E+03  0.00000000000E+00 0. -1.
         23    2    1    2    0    0  0.61725044208E+02  0.78746761239E+01  0.40060073124E+03  0.41746607994E+03  0.99624246175E+02 0.  0.
         24    2    1    2    0    0 -0.27184912579E+02 -0.11190509346E+02 -0.18138334357E+02  0.86319090504E+02  0.79105873618E+02 0.  0.
        -11    1    4    4    0    0  0.27842984559E+01  0.30591120003E+02 -0.16513448928E+02  0.34874961454E+02  0.00000000000E+00 0.  1.
         12    1    4    4    0    0 -0.29969211035E+02 -0.41781629349E+02 -0.16248854291E+01  0.51444129050E+02  0.00000000000E+00 0. -1.
        -13    1    3    3    0    0 -0.13266968087E+02  0.30499581689E+02  0.18745600288E+03  0.19038379642E+03  0.00000000000E+00 0.  1.
         13    1    3    3    0    0  0.74992012295E+02 -0.22624905565E+02  0.21314472836E+03  0.22708228352E+03  0.00000000000E+00 0. -1.
          1    1    1    2  501    0 -0.34540131630E+02  0.33158332220E+01 -0.12077580807E+03  0.12566149473E+03  0.00000000000E+00 0. -1.
<scales pt_clust_5="13000.00000" pt_clust_6="13000.00000" pt_clust_7="13000.00000" pt_clust_8="13000.00000" pt_clust_9="34.69893"></scales>
<clustering>
<clus scale="   34.699">  2  9  1 -1</clus>
<clus scale="   79.106">  5  6 -1 -1</clus>
<clus scale="   97.814">  2  5  1 -1</clus>
<clus scale="   99.624">  7  8 -1 -1</clus>
<clus scale="   34.699">  2  5  1 -1</clus>
</clustering>
</event>
<event>
 9    2  0.4653788E-005  0.1863254E+03  0.7546771E-02  0.1171025E+00
         21   -1    0    0  501  502  0.00000000000E+00  0.00000000000E+00  0.11925514721E+03  0.11925514721E+03  0.00000000000E+00 0. -1.
          2   -1    0    0  502    0 -0.00000000000E+00 -0.00000000000E+00 -0.97290195465E+03  0.97290195465E+03  0.00000000000E+00 0. -1.
         24    2    1    2    0    0 -0.40731563191E+02  0.12029840271E+03 -0.17679356345E+03  0.23233302983E+03  0.81190558197E+02 0.  0.
         23    2    1    2    0    0 -0.12687809312E+03 -0.10987054934E+03 -0.66463236567E+03  0.69144626209E+03  0.90510572530E+02 0.  0.
        -13    1    3    3    0    0 -0.31650971296E+02  0.12875267559E+03 -0.13700602674E+03  0.19065593832E+03  0.00000000000E+00 0.  1.
         14    1    3    3    0    0 -0.90805918950E+01 -0.84542728828E+01 -0.39787536710E+02  0.41677091508E+02  0.00000000000E+00 0. -1.
        -13    1    4    4    0    0 -0.13859131838E+02 -0.65396106129E+02 -0.29056015194E+03  0.29815084794E+03  0.00000000000E+00 0.  1.
         13    1    4    4    0    0 -0.11301896128E+03 -0.44474443208E+02 -0.37407221373E+03  0.39329541415E+03  0.00000000000E+00 0. -1.
          1    1    1    2  501    0  0.16760965631E+03 -0.10427853369E+02 -0.12220878322E+02  0.16837780994E+03  0.00000000000E+00 0. -1.
<scales pt_clust_5="13000.00000" pt_clust_6="13000.00000" pt_clust_7="13000.00000" pt_clust_8="13000.00000" pt_clust_9="162.86493"></scales>
<clustering>
<clus scale="   81.191">  5  6 -1 -1</clus>
<clus scale="   90.511">  7  8 -1 -1</clus>
<clus scale="  150.740">  2  5  1 -1</clus>
<clus scale="  162.865">  1  9  2 -1</clus>
<clus scale="  162.865">  1  5  2 -1</clus>
</clustering>
</event>
<event>
 9    2  0.4653788E-005  0.9137429E+02  0.7546771E-02  0.1303067E+00
         21   -1    0    0  501  502  0.00000000000E+00  0.00000000000E+00  0.40594838042E+02  0.40594838042E+02  0.00000000000E+00 0. -1.
         -1   -1    0    0    0  501 -0.00000000000E+00 -0.00000000000E+00 -0.29497838557E+03  0.29497838557E+03  0.00000000000E+00 0.  1.
         24    2    1    2    0    0  0.14808657796E+02 -0.31777335539E+02 -0.17022604607E+03  0.19189458443E+03  0.81348198331E+02 0.  0.
         23    2    1    2    0    0  0.52832894442E+01  0.13534485614E+02 -0.71125817878E+02  0.11357361146E+03  0.87344077094E+02 0.  0.
        -13    1    3    3    0    0  0.12679049783E+02 -0.55252646812E+02 -0.15159908697E+03  0.16185146416E+03  0.00000000000E+00 0.  1.
         14    1    3    3    0    0  0.21296080131E+01  0.23475311273E+02 -0.18626959105E+02  0.30043120263E+02  0.00000000000E+00 0. -1.
        -11    1    4    4    0    0 -0.31036296742E+02  0.34365221493E+02 -0.32162829942E+02  0.56379675359E+02  0.00000000000E+00 0.  1.
         11    1    4    4    0    0  0.36319586186E+02 -0.20830735880E+02 -0.38962987936E+02  0.57193936103E+02  0.00000000000E+00 0. -1.
         -2    1    1    2    0  502 -0.20091947240E+02  0.18242849926E+02 -0.13031683580E+02  0.30105027723E+02  0.00000000000E+00 0.  1.
<scales pt_clust_5="13000.00000" pt_clust_6="13000.00000" pt_clust_7="13000.00000" pt_clust_8="13000.00000" pt_clust_9="27.13831"></scales>
<clustering>
<clus scale="   27.138">  1  9  2 -1</clus>
<clus scale="   81.348">  5  6 -1 -1</clus>
<clus scale="   85.661">  2  5  1 -1</clus>
<clus scale="   87.344">  7  8 -1 -1</clus>
<clus scale="   27.138">  1  5  2 -1</clus>
</clustering>
</event>
<event>
 9    2  0.4653788E-005  0.1591199E+03  0.7546771E-02  0.1207985E+00
         21   -1    0    0  501  502  0.00000000000E+00  0.00000000000E+00  0.11436334881E+03  0.11436334881E+03  0.00000000000E+00 0. -1.
          2   -1    0    0  502    0 -0.00000000000E+00 -0.00000000000E+00 -0.58915528380E+03  0.58915528380E+03  0.00000000000E+00 0. -1.
         24    2    1    2    0    0 -0.36577521458E+02  0.58355745953E+02 -0.72645503025E+02  0.12922089192E+03  0.81715124892E+02 0.  0.
         23    2    1    2    0    0 -0.76892474128E+02 -0.11106399936E+03 -0.10376392734E+02  0.16303460896E+03  0.90691508211E+02 0.  0.
        -11    1    3    3    0    0 -0.56865468355E+02  0.63850950011E+02 -0.62313387774E+02  0.10579973348E+03  0.00000000000E+00 0.  1.
         12    1    3    3    0    0  0.20287946897E+02 -0.54952040586E+01 -0.10332115251E+02  0.23421158436E+02  0.00000000000E+00 0. -1.
        -13    1    4    4    0    0 -0.90068799987E+02 -0.73794059845E+02 -0.27993131955E+02  0.11975628349E+03  0.00000000000E+00 0. -1.
         13    1    4    4    0    0  0.13176325858E+02 -0.37269939515E+02  0.17616739221E+02  0.43278325469E+02  0.00000000000E+00 0.  1.
          1    1    1    2  501    0  0.11346999559E+03  0.52708253408E+02 -0.39177003924E+03  0.41126313173E+03  0.00000000000E+00 0. -1.
<scales pt_clust_5="13000.00000" pt_clust_6="13000.00000" pt_clust_7="13000.00000" pt_clust_8="13000.00000" pt_clust_9="130.74482"></scales>
<clustering>
<clus scale="   81.715">  5  6 -1 -1</clus>
<clus scale="   90.692">  7  8 -1 -1</clus>
<clus scale="  106.868">  2  5  1 -1</clus>
<clus scale="  130.745">  1  9  2 -1</clus>
<clus scale="  130.745">  1  5  2 -1</clus>
</clustering>
</event>
<event>
 9    2  0.4653788E-005  0.1281661E+03  0.7546771E-02  0.1232993E+00
          2   -1    0    0  502    0 -0.00000000000E+00  0.00000000000E+00  0.45706109320E+03  0.45706109320E+03  0.00000000000E+00 0. -1.
         21   -1    0    0  501  502  0.00000000000E+00 -0.00000000000E+00 -0.10680381289E+03  0.10680381289E+03  0.00000000000E+00 0. -1.
         23    2    1    2    0    0 -0.83630800503E+02  0.13023584095E+02  0.15489068757E+03  0.19885548151E+03  0.91589589440E+02 0.  0.
         24    2    1    2    0    0  0.99619059189E+02 -0.54258009912E+02 -0.23681774649E+02  0.14154110570E+03  0.81272194259E+02 0.  0.
        -13    1    4    4    0    0 -0.11648696658E+02 -0.18419654378E+02  0.19036758485E+01  0.21876923527E+02  0.00000000000E+00 0.  1.
         14    1    4    4    0    0  0.11126775585E+03 -0.35838355534E+02 -0.25585450498E+02  0.11966418218E+03  0.00000000000E+00 0. -1.
        -13    1    3    3    0    0 -0.73886335911E+01  0.38981188896E+02  0.77973469296E+02  0.87487067091E+02  0.00000000000E+00 0.  1.
         13    1    3    3    0    0 -0.76242166912E+02 -0.25957604801E+02  0.76917218273E+02  0.11136841441E+03  0.00000000000E+00 0. -1.
          1    1    1    2  501    0 -0.15988258686E+02  0.41234425817E+02  0.21904836739E+03  0.22346831888E+03  0.00000000000E+00 0. -1.
<scales pt_clust_5="13000.00000" pt_clust_6="13000.00000" pt_clust_7="13000.00000" pt_clust_8="13000.00000" pt_clust_9="44.22561"></scales>
<clustering>
<clus scale="   44.226">  2  9  1 -1</clus>
<clus scale="   81.272">  5  6 -1 -1</clus>
<clus scale="   91.590">  7  8 -1 -1</clus>
<clus scale="  121.009">  2  5  1 -1</clus>
<clus scale="   44.226">  2  5  1 -1</clus>
</clustering>
</event>
<event>
 9    2  0.4653788E-005  0.1850150E+03  0.7546771E-02  0.1192653E+00
         21   -1    0    0  501  502  0.00000000000E+00  0.00000000000E+00  0.36330948124E+03  0.36330948124E+03  0.00000000000E+00 0. -1.
          2   -1    0    0  502    0 -0.00000000000E+00 -0.00000000000E+00 -0.44390992220E+03  0.44390992220E+03  0.00000000000E+00 0. -1.
         23    2    1    2    0    0 -0.24950147472E+02 -0.15384832564E+02  0.68222329544E+02  0.11681907139E+03  0.90184290544E+02 0.  0.
         24    2    1    2    0    0 -0.30101081850E+02  0.17306293855E+03 -0.36772916804E+03  0.41505866459E+03  0.78689886235E+02 0.  0.
        -13    1    4    4    0    0  0.14198965803E+02  0.17838843557E+02 -0.98854018379E+02  0.10144925785E+03  0.00000000000E+00 0.  1.
         14    1    4    4    0    0 -0.44300047653E+02  0.15522409499E+03 -0.26887514966E+03  0.31360940674E+03  0.00000000000E+00 0. -1.
        -13    1    3    3    0    0  0.80621318830E+01  0.33919134210E+02  0.31854647566E+02  0.47225249683E+02  0.00000000000E+00 0.  1.
         13    1    3    3    0    0 -0.33012279355E+02 -0.49303966774E+02  0.36367681978E+02  0.69593821710E+02  0.00000000000E+00 0. -1.
          1    1    1    2  501    0  0.55051229322E+02 -0.15767810599E+03  0.21890639754E+03  0.27534166746E+03  0.00000000000E+00 0. -1.
<scales pt_clust_5="13000.00000" pt_clust_6="13000.00000" pt_clust_7="13000.00000" pt_clust_8="13000.00000" pt_clust_9="167.44682"></scales>
<clustering>
<clus scale="   78.690">  5  6 -1 -1</clus>
<clus scale="   90.184">  7  8 -1 -1</clus>
<clus scale="   94.828">  2  7  1 -1</clus>
<clus scale="  167.447">  1  9  2 -1</clus>
<clus scale="  167.447">  1  5  2 -1</clus>
</clustering>
</event>
<event>
 9    2  0.4653788E-005  0.9537574E+02  0.7546771E-02  0.1295811E+00
         21   -1    0    0  501  502  0.00000000000E+00  0.00000000000E+00  0.64092153975E+02  0.64092153975E+02  0.00000000000E+00 0. -1.
          2   -1    0    0  502    0 -0.00000000000E+00 -0.00000000000E+00 -0.49457852798E+03  0.49457852798E+03  0.00000000000E+00 0. -1.
         24    2    1    2    0    0 -0.37195947407E+02  0.26592734019E+02 -0.25218119349E+03  0.26888010367E+03  0.81304635737E+02 0.  0.
         23    2    1    2    0    0  0.16210580431E+02  0.18212233027E+02 -0.21058255362E+03  0.23071689959E+03  0.91053871509E+02 0.  0.
        -11    1    3    3    0    0  0.72252350804E+01 -0.19732253302E+02 -0.12132967482E+03  0.12313592422E+03  0.00000000000E+00 0.  1.
         12    1    3    3    0    0 -0.44421182488E+02  0.46324987321E+02 -0.13085151868E+03  0.14574417945E+03  0.00000000000E+00 0. -1.
        -11    1    4    4    0    0 -0.32690491712E+02  0.26553793885E+02 -0.70643329126E+02  0.82245073823E+02  0.00000000000E+00 0. -1.
         11    1    4    4    0    0  0.48901072143E+02 -0.83415608575E+01 -0.13993922450E+03  0.14847182577E+03  0.00000000000E+00 0.  1.
          1    1    1    2  501    0  0.20985366977E+02 -0.44804967047E+02  0.32277373111E+02  0.59073678692E+02  0.00000000000E+00 0. -1.
<scales pt_clust_5="13000.00000" pt_clust_6="13000.00000" pt_clust_7="13000.00000" pt_clust_8="13000.00000" pt_clust_9="49.47596"></scales>
<clustering>
<clus scale="   49.476">  1  9  2 -1</clus>
<clus scale="   81.305">  5  6 -1 -1</clus>
<clus scale="   86.117">  2  5  1 -1</clus>
<clus scale="   91.054">  7  8 -1 -1</clus>
<clus scale="   49.476">  1  5  2 -1</clus>
</clustering>
</event>
<event>
 9    2  0.4653788E-005  0.9827927E+02  0.7546771E-02  0.1284009E+00
          2   -1    0    0  502    0 -0.00000000000E+00  0.00000000000E+00  0.85256721517E+03  0.85256721517E+03  0.00000000000E+00 0. -1.
         21   -1    0    0  501  502  0.00000000000E+00 -0.00000000000E+00 -0.16158989111E+02  0.16158989111E+02  0.00000000000E+00 0.  1.
         24    2    1    2    0    0  0.80854302919E+00  0.31377471330E+02  0.49355884476E+03  0.50276618113E+03  0.90489226969E+02 0.  0.
         23    2    1    2    0    0  0.24454787754E+00 -0.52928279036E+02  0.26063419851E+03  0.28096071378E+03  0.90594010443E+02 0.  0.
        -11    1    3    3    0    0 -0.15633183817E+02 -0.28886489578E+02  0.14726913468E+03  0.15088745390E+03  0.00000000000E+00 0.  1.
         12    1    3    3    0    0  0.16441726846E+02  0.60263960908E+02  0.34628971008E+03  0.35187872723E+03  0.00000000000E+00 0. -1.
        -13    1    4    4    0    0  0.38107304134E+02 -0.11221591438E+02  0.16724735854E+03  0.17190046446E+03  0.00000000000E+00 0. -1.
         13    1    4    4    0    0 -0.37862756257E+02 -0.41706687599E+02  0.93386839971E+02  0.10906024932E+03  0.00000000000E+00 0.  1.
          1    1    1    2  501    0 -0.10530909067E+01  0.21550807706E+02  0.82215182795E+02  0.84999309381E+02  0.00000000000E+00 0. -1.
<scales pt_clust_5="13000.00000" pt_clust_6="13000.00000" pt_clust_7="13000.00000" pt_clust_8="13000.00000" pt_clust_9="21.57653"></scales>
<clustering>
<clus scale="   21.577">  2  9  1 -1</clus>
<clus scale="   90.489">  5  6 -1 -1</clus>
<clus scale="   90.594">  7  8 -1 -1</clus>
<clus scale="   98.183">  1  5  2 -1</clus>
<clus scale="   21.577">  2  5  1 -1</clus>
</clustering>
</event>
<event>
 9    2  0.4653788E-005  0.8969680E+02  0.7546771E-02  0.1309038E+00
         21   -1    0    0  501  502  0.00000000000E+00  0.00000000000E+00  0.24098953363E+03  0.24098953363E+03  0.00000000000E+00 0.  1.
         -1   -1    0    0    0  501 -0.00000000000E+00 -0.00000000000E+00 -0.54996849779E+02  0.54996849779E+02  0.00000000000E+00 0.  1.
         24    2    1    2    0    0 -0.12695934559E+02 -0.59955792832E+01  0.17491612491E+02  0.83472989853E+02  0.80403045976E+02 0.  0.
         23    2    1    2    0    0  0.64622963154E+01 -0.16398044700E+02  0.16596115197E+03  0.18912998424E+03  0.88974096403E+02 0.  0.
        -11    1    3    3    0    0 -0.30989303809E+02 -0.31880962188E+02  0.24848935725E+02  0.50933312353E+02  0.00000000000E+00 0.  1.
         12    1    3    3    0    0  0.18293369250E+02  0.25885382905E+02 -0.73573232340E+01  0.32539677500E+02  0.00000000000E+00 0. -1.
        -13    1    4    4    0    0  0.29663075630E+02 -0.42384266388E+02  0.12546307409E+03  0.13571037931E+03  0.00000000000E+00 0.  1.
         13    1    4    4    0    0 -0.23200779315E+02  0.25986221688E+02  0.40498077884E+02  0.53419604928E+02  0.00000000000E+00 0. -1.
         -2    1    1    2    0  502  0.62336382436E+01  0.22393623983E+02  0.25399193904E+01  0.23383409319E+02  0.00000000000E+00 0.  1.
<scales pt_clust_5="13000.00000" pt_clust_6="13000.00000" pt_clust_7="13000.00000" pt_clust_8="13000.00000" pt_clust_9="23.24507"></scales>
<clustering>
<clus scale="   23.245">  1  9  2 -1</clus>
<clus scale="   80.403">  5  6 -1 -1</clus>
<clus scale="   81.202">  2  5  1 -1</clus>
<clus scale="   88.974">  7  8 -1 -1</clus>
<clus scale="   23.245">  1  5  2 -1</clus>
</clustering>
</event>
<event>
 9    2  0.4653788E-005  0.9741501E+02  0.7546771E-02  0.1291899E+00
         -1   -1    0    0    0  501 -0.00000000000E+00  0.00000000000E+00  0.99108727707E+02  0.99108727707E+02  0.00000000000E+00 0.  1.
         21   -1    0    0  501  502  0.00000000000E+00 -0.00000000000E+00 -0.45476474014E+03  0.45476474014E+03  0.00000000000E+00 0.  1.
         23    2    1    2    0    0  0.78636354913E+01  0.24506779365E+02  0.20417792741E+02  0.99832004323E+02  0.94271543048E+02 0.  0.
         24    2    1    2    0    0  0.45925388296E+02 -0.15086247412E+02 -0.26134049724E+02  0.99866594361E+02  0.83388320304E+02 0.  0.
        -11    1    4    4    0    0  0.69694315627E+02 -0.46384370730E+01 -0.14135696630E+02  0.71264511844E+02  0.00000000000E+00 0.  1.
         12    1    4    4    0    0 -0.23768927331E+02 -0.10447810339E+02 -0.11998353094E+02  0.28602082517E+02  0.00000000000E+00 0. -1.
        -11    1    3    3    0    0 -0.40999685521E+02 -0.38737733430E+01  0.98726306551E+01  0.42349134215E+02  0.00000000000E+00 0. -1.
         11    1    3    3    0    0  0.48863321012E+02  0.28380552708E+02  0.10545162086E+02  0.57482870107E+02  0.00000000000E+00 0.  1.
         -2    1    1    2    0  502 -0.53789023788E+02 -0.94205319524E+01 -0.34993975545E+03  0.35417486916E+03  0.00000000000E+00 0.  1.
<scales pt_clust_5="13000.00000" pt_clust_6="13000.00000" pt_clust_7="13000.00000" pt_clust_8="13000.00000" pt_clust_9="54.60774"></scales>
<clustering>
<clus scale="   54.608">  2  9  1 -1</clus>
<clus scale="   83.388">  5  6 -1 -1</clus>
<clus scale="   86.926">  2  5  1 -1</clus>
<clus scale="   94.272">  7  8 -1 -1</clus>
<clus scale="   54.608">  2  5  1 -1</clus>
</clustering>
</event>
<event>
 9    2  0.4653788E-005  0.2032661E+03  0.7546771E-02  0.1147781E+00
         21   -1    0    0  501  502  0.00000000000E+00  0.00000000000E+00  0.73336525190E+02  0.73336525190E+02  0.00000000000E+00 0. -1.
          2   -1    0    0  502    0 -0.00000000000E+00 -0.00000000000E+00 -0.70812951623E+03  0.70812951623E+03  0.00000000000E+00 0. -1.
         23    2    1    2    0    0  0.11159248896E+03  0.15164387539E+03 -0.45063828171E+03  0.49678093306E+03  0.90926816629E+02 0.  0.
         24    2    1    2    0    0 -0.11167390377E+03 -0.12690937001E+03 -0.14133504370E+03  0.23523486923E+03  0.82357757028E+02 0.  0.
        -13    1    4    4    0    0 -0.24692534448E+02 -0.85719157775E+02 -0.87522466264E+02  0.12497070604E+03  0.00000000000E+00 0.  1.
         14    1    4    4    0    0 -0.86981369321E+02 -0.41190212240E+02 -0.53812577431E+02  0.11026416319E+03  0.00000000000E+00 0. -1.
        -13    1    3    3    0    0  0.65256713082E+02  0.75468886879E+02 -0.12938562161E+03  0.16338491537E+03  0.00000000000E+00 0. -1.
         13    1    3    3    0    0  0.46335775881E+02  0.76174988510E+02 -0.32125266009E+03  0.33339601770E+03  0.00000000000E+00 0.  1.
          1    1    1    2  501    0  0.81414805778E-01 -0.24734505374E+02 -0.42819665635E+02  0.49450239126E+02  0.00000000000E+00 0. -1.
<scales pt_clust_5="13000.00000" pt_clust_6="13000.00000" pt_clust_7="13000.00000" pt_clust_8="13000.00000" pt_clust_9="24.73465"></scales>
<clustering>
<clus scale="   24.735">  1  9  2 -1</clus>
<clus scale="   82.358">  5  6 -1 -1</clus>
<clus scale="   90.927">  7  8 -1 -1</clus>
<clus scale="  199.580">  1  5  2 -1</clus>
<clus scale="   24.735">  1  5  2 -1</clus>
</clustering>
</event>
<event>
 9    2  0.4653788E-005  0.1361765E+03  0.7546771E-02  0.1220395E+00
          2   -1    0    0  502    0 -0.00000000000E+00  0.00000000000E+00  0.61261229034E+02  0.61261229034E+02  0.00000000000E+00 0. -1.
         21   -1    0    0  501  502  0.00000000000E+00 -0.00000000000E+00 -0.55997497836E+03  0.55997497836E+03  0.00000000000E+00 0. -1.
         23    2    1    2    0    0 -0.54839766201E+02  0.13480676807E+03 -0.17241570813E+03  0.24276372164E+03  0.89592318080E+02 0.  0.
         24    2    1    2    0    0  0.39684405222E+01 -0.62699911222E+02 -0.18976554161E+03  0.21590430306E+03  0.81588479034E+02 0.  0.
        -11    1    4    4    0    0  0.25216743157E+02 -0.14003364814E+02 -0.14055878934E+03  0.14348781001E+03  0.00000000000E+00 0.  1.
         12    1    4    4    0    0 -0.21248302634E+02 -0.48696546408E+02 -0.49206752275E+02  0.72416493055E+02  0.00000000000E+00 0. -1.
        -11    1    3    3    0    0 -0.36102462928E+02  0.66214779504E+01 -0.64255571890E+02  0.74000069720E+02  0.00000000000E+00 0.  1.
         11    1    3    3    0    0 -0.18737303273E+02  0.12818529012E+03 -0.10816013624E+03  0.16876365192E+03  0.00000000000E+00 0. -1.
          1    1    1    2  501    0  0.50871325679E+02 -0.72106856848E+02 -0.13653249959E+03  0.16256818270E+03  0.00000000000E+00 0. -1.
<scales pt_clust_5="13000.00000" pt_clust_6="13000.00000" pt_clust_7="13000.00000" pt_clust_8="13000.00000" pt_clust_9="88.24563"></scales>
<clustering>
<clus scale="   81.588">  5  6 -1 -1</clus>
<clus scale="   88.246">  2  9  1 -1</clus>
<clus scale="   89.592">  7  8 -1 -1</clus>
<clus scale="  131.049">  2  5  1 -1</clus>
<clus scale="   88.246">  2  5  1 -1</clus>
</clustering>
</event>
<event>
 9    2  0.4653788E-005  0.2064238E+03  0.7546771E-02  0.1144451E+00
         21   -1    0    0  501  502  0.00000000000E+00  0.00000000000E+00  0.64285501818E+02  0.64285501818E+02  0.00000000000E+00 0.  1.
          2   -1    0    0  502    0 -0.00000000000E+00 -0.00000000000E+00 -0.15979742007E+04  0.15979742007E+04  0.00000000000E+00 0. -1.
         24    2    1    2    0    0  0.13898902511E+03 -0.12463442648E+03 -0.12765531008E+04  0.12926427318E+04  0.80533990344E+02 0.  0.
         23    2    1    2    0    0 -0.17254569417E+03  0.11908149530E+03 -0.24775859625E+03  0.33433505969E+03  0.80269490001E+02 0.  0.
        -13    1    3    3    0    0  0.65401874161E+02 -0.42362449665E+02 -0.30328324123E+03  0.31313368822E+03  0.00000000000E+00 0.  1.
         14    1    3    3    0    0  0.73587150951E+02 -0.82271976813E+02 -0.97326985954E+03  0.97950904358E+03  0.00000000000E+00 0. -1.
        -11    1    4    4    0    0 -0.14379859551E+03  0.12578841659E+03 -0.18986511836E+03  0.26935019026E+03  0.00000000000E+00 0.  1.
         11    1    4    4    0    0 -0.28747098656E+02 -0.67069212861E+01 -0.57893477881E+02  0.64984869434E+02  0.00000000000E+00 0. -1.
          1    1    1    2  501    0  0.33556669055E+02  0.55529311758E+01 -0.93770018705E+01  0.35281911043E+02  0.00000000000E+00 0. -1.
<scales pt_clust_5="13000.00000" pt_clust_6="13000.00000" pt_clust_7="13000.00000" pt_clust_8="13000.00000" pt_clust_9="34.01301"></scales>
<clustering>
<clus scale="   34.013">  1  9  2 -1</clus>
<clus scale="   80.269">  7  8 -1 -1</clus>
<clus scale="   80.534">  5  6 -1 -1</clus>
<clus scale="  206.321">  1  7  2 -1</clus>
<clus scale="   34.013">  1  5  2 -1</clus>
</clustering>
</event>
<event>
 9    2  0.4653788E-005  0.1130009E+03  0.7546771E-02  0.1258489E+00
         -1   -1    0    0    0  501 -0.00000000000E+00  0.00000000000E+00  0.25479062641E+03  0.25479062641E+03  0.00000000000E+00 0.  1.
         21   -1    0    0  501  502  0.00000000000E+00 -0.00000000000E+00 -0.13278348472E+03  0.13278348472E+03  0.00000000000E+00 0.  1.
         24    2    1    2    0    0  0.18160376555E+02 -0.70831393127E+02  0.19123370458E+03  0.22014753682E+03  0.80917999691E+02 0.  0.
         23    2    1    2    0    0 -0.38512991450E+02  0.35067693053E+02 -0.25267453998E+02  0.10721300084E+03  0.90239623837E+02 0.  0.
        -11    1    3    3    0    0  0.50119754553E+02 -0.45115761710E+02  0.10739210796E+03  0.12680885854E+03  0.00000000000E+00 0.  1.
         12    1    3    3    0    0 -0.31959377997E+02 -0.25715631417E+02  0.83841596611E+02  0.93338678282E+02  0.00000000000E+00 0. -1.
        -13    1    4    4    0    0 -0.10630762183E+02  0.60662151555E+02  0.21272633877E+00  0.61586970930E+02  0.00000000000E+00 0. -1.
         13    1    4    4    0    0 -0.27882229266E+02 -0.25594458502E+02 -0.25480180337E+02  0.45626029905E+02  0.00000000000E+00 0.  1.
         -2    1    1    2    0  502  0.20352614894E+02  0.35763700074E+02 -0.43959108887E+02  0.60213573471E+02  0.00000000000E+00 0.  1.
<scales pt_clust_5="13000.00000" pt_clust_6="13000.00000" pt_clust_7="13000.00000" pt_clust_8="13000.00000" pt_clust_9="41.14938"></scales>
<clustering>
<clus scale="   41.149">  2  9  1 -1</clus>
<clus scale="   80.918">  5  6 -1 -1</clus>
<clus scale="   90.240">  7  8 -1 -1</clus>
<clus scale="  105.706">  1  5  2 -1</clus>
<clus scale="   41.149">  2  5  1 -1</clus>
</clustering>
</event>
<event>
 9    2  0.4653788E-005  0.1388825E+03  0.7546771E-02  0.1227662E+00
         21   -1    0    0  501  502  0.00000000000E+00  0.00000000000E+00  0.44470094722E+03  0.44470094722E+03  0.00000000000E+00 0.  1.
         -3   -1    0    0    0  501 -0.00000000000E+00 -0.00000000000E+00 -0.15550950417E+03  0.15550950417E+03  0.00000000000E+00 0.  1.
         23    2    1    2    0    0 -0.54393135620E+01  0.45875306025E+02  0.27243049478E+03  0.29238506785E+03  0.95585163997E+02 0.  0.
         24    2    1    2    0    0  0.11167255670E+03 -0.46294539186E+02 -0.75151531665E+02  0.16734911626E+03  0.88000168870E+02 0.  0.
        -13    1    4    4    0    0  0.18009528653E+02 -0.50862329956E+02 -0.40148743543E+02  0.67255046940E+02  0.00000000000E+00 0.  1.
         14    1    4    4    0    0  0.93663028049E+02  0.45677907695E+01 -0.35002788122E+02  0.10009406932E+03  0.00000000000E+00 0. -1.
        -11    1    3    3    0    0 -0.34887338011E+02  0.62798375572E+02  0.17339927487E+03  0.18769142456E+03  0.00000000000E+00 0. -1.
         11    1    3    3    0    0  0.29448024449E+02 -0.16923069547E+02  0.99031219920E+02  0.10469364329E+03  0.00000000000E+00 0.  1.
         -4    1    1    2    0  502 -0.10623324314E+03  0.41923316119E+00  0.91912479933E+02  0.14047626729E+03  0.00000000000E+00 0.  1.
<scales pt_clust_5="13000.00000" pt_clust_6="13000.00000" pt_clust_7="13000.00000" pt_clust_8="13000.00000" pt_clust_9="107.44454"></scales>
<clustering>
<clus scale="   88.000">  5  6 -1 -1</clus>
<clus scale="   95.585">  7  8 -1 -1</clus>
<clus scale="  106.163">  2  7  1 -1</clus>
<clus scale="  107.445">  1  9  2 -1</clus>
<clus scale="  107.445">  1  5  2 -1</clus>
</clustering>
</event>
<event>
 9    2  0.4653788E-005  0.1282788E+03  0.7546771E-02  0.1247740E+00
          2   -1    0    0  502    0 -0.00000000000E+00  0.00000000000E+00  0.35182691721E+03  0.35182691721E+03  0.00000000000E+00 0. -1.
         21   -1    0    0  501  502  0.00000000000E+00 -0.00000000000E+00 -0.13974499972E+03  0.13974499972E+03  0.00000000000E+00 0. -1.
         23    2    1    2    0    0  0.48517608769E+01  0.73366252080E+01  0.23004923449E+03  0.24683456129E+03  0.89035300329E+02 0.  0.
         24    2    1    2    0    0 -0.81390385502E+01  0.94347268866E+02  0.36168054612E+02  0.12949387874E+03  0.80578442317E+02 0.  0.
        -13    1    4    4    0    0  0.25014497765E+02  0.29635313408E+02 -0.13917195116E+02  0.41202733151E+02  0.00000000000E+00 0.  1.
         14    1    4    4    0    0 -0.33153536315E+02  0.64711955459E+02  0.50085249728E+02  0.88291145591E+02  0.00000000000E+00 0. -1.
        -13    1    3    3    0    0  0.44048714391E+02  0.19772554222E+02  0.12885234672E+03  0.13760149126E+03  0.00000000000E+00 0.  1.
         13    1    3    3    0    0 -0.39196953514E+02 -0.12435929014E+02  0.10119688777E+03  0.10923307003E+03  0.00000000000E+00 0. -1.
          1    1    1    2  501    0  0.32872776733E+01 -0.10168389407E+03 -0.54135371616E+02  0.11524347690E+03  0.00000000000E+00 0. -1.
<scales pt_clust_5="13000.00000" pt_clust_6="13000.00000" pt_clust_7="13000.00000" pt_clust_8="13000.00000" pt_clust_9="99.81269"></scales>
<clustering>
<clus scale="   80.578">  5  6 -1 -1</clus>
<clus scale="   89.035">  7  8 -1 -1</clus>
<clus scale="   89.469">  1  7  2 -1</clus>
<clus scale="   99.813">  2  9  1 -1</clus>
<clus scale="   99.813">  2  5  1 -1</clus>
</clustering>
</event>
<event>
 9    2  0.4653788E-005  0.1319403E+03  0.7546771E-02  0.1227824E+00
          2   -1    0    0  502    0 -0.00000000000E+00  0.00000000000E+00  0.70503938278E+03  0.70503938278E+03  0.00000000000E+00 0. -1.
         21   -1    0    0  501  502  0.00000000000E+00 -0.00000000000E+00 -0.39391044120E+02  0.39391044120E+02  0.00000000000E+00 0.  1.
         24    2    1    2    0    0  0.56022346282E+02  0.84229000406E+02  0.45588170315E+03  0.47390573334E+03  0.80780499086E+02 0.  0.
         23    2    1    2    0    0 -0.17838417491E+02 -0.71287875577E+02  0.10596075560E+03  0.15916426148E+03  0.93302786998E+02 0.  0.
        -13    1    3    3    0    0  0.53790826449E+02  0.95375488577E+01  0.20178834365E+03  0.20905251369E+03  0.00000000000E+00 0.  1.
         14    1    3    3    0    0  0.22315198336E+01  0.74691451548E+02  0.25409335951E+03  0.26485321965E+03  0.00000000000E+00 0. -1.
        -13    1    4    4    0    0 -0.42461746157E+02 -0.77675538910E+02  0.98967830728E+02  0.13278223055E+03  0.00000000000E+00 0. -1.
         13    1    4    4    0    0  0.24623328666E+02  0.63876633340E+01  0.69929248751E+01  0.26382030926E+02  0.00000000000E+00 0.  1.
          1    1    1    2  501    0 -0.38183928791E+02 -0.12941124830E+02  0.10380587990E+03  0.11136043207E+03  0.00000000000E+00 0. -1.
<scales pt_clust_5="13000.00000" pt_clust_6="13000.00000" pt_clust_7="13000.00000" pt_clust_8="13000.00000" pt_clust_9="40.31733"></scales>
<clustering>
<clus scale="   40.317">  2  9  1 -1</clus>
<clus scale="   80.780">  5  6 -1 -1</clus>
<clus scale="   93.303">  7  8 -1 -1</clus>
<clus scale="  123.403">  1  5  2 -1</clus>
<clus scale="   40.317">  2  5  1 -1</clus>
</clustering>
</event>
<event>
 9    2  0.4653788E-005  0.1539970E+03  0.7546771E-02  0.1220028E+00
         21   -1    0    0  501  502  0.00000000000E+00  0.00000000000E+00  0.97433778311E+03  0.97433778311E+03  0.00000000000E+00 0. -1.
          2   -1    0    0  502    0 -0.00000000000E+00 -0.00000000000E+00 -0.60983793582E+02  0.60983793582E+02  0.00000000000E+00 0. -1.
         23    2    1    2    0    0  0.10791155843E+02 -0.34334764436E+01  0.33513759039E+03  0.34735535232E+03  0.90610697440E+02 0.  0.
         24    2    1    2    0    0  0.43681436350E+02  0.12397969551E+03  0.81125870468E+02  0.17357566465E+03  0.79171154601E+02 0.  0.
        -13    1    4    4    0    0  0.18801228543E+02  0.15355874390E+02  0.53523595194E+02  0.58771288190E+02  0.00000000000E+00 0.  1.
         14    1    4    4    0    0  0.24880207807E+02  0.10862382112E+03  0.27602275273E+02  0.11480437646E+03  0.00000000000E+00 0. -1.
        -13    1    3    3    0    0 -0.18928588361E+02 -0.38276455393E+02  0.11927310904E+03  0.12668643587E+03  0.00000000000E+00 0.  1.
         13    1    3    3    0    0  0.29719744204E+02  0.34842978950E+02  0.21586448136E+03  0.22066891645E+03  0.00000000000E+00 0. -1.
          1    1    1    2  501    0 -0.54472592193E+02 -0.12054621906E+03  0.49709052867E+03  0.51439055972E+03  0.00000000000E+00 0. -1.
<scales pt_clust_5="13000.00000" pt_clust_6="13000.00000" pt_clust_7="13000.00000" pt_clust_8="13000.00000" pt_clust_9="132.08712"></scales>
<clustering>
<clus scale="   79.171">  5  6 -1 -1</clus>
<clus scale="   90.611">  7  8 -1 -1</clus>
<clus scale="   91.316">  2  7  1 -1</clus>
<clus scale="  132.087">  1  9  2 -1</clus>
<clus scale="  132.087">  1  5  2 -1</clus>
</clustering>
</event>
<event>
 9    2  0.4653788E-005  0.1012484E+03  0.7546771E-02  0.1290858E+00
         21   -1    0    0  501  502  0.00000000000E+00  0.00000000000E+00  0.50600722208E+02  0.50600722208E+02  0.00000000000E+00 0. -1.
          2   -1    0    0  502    0 -0.00000000000E+00 -0.00000000000E+00 -0.35513695699E+03  0.35513695699E+03  0.00000000000E+00 0. -1.
         24    2    1    2    0    0 -0.81904099119E+01  0.88389099948E+01 -0.19092833023E+03  0.20612252214E+03  0.76731073913E+02 0.  0.
         23    2    1    2    0    0  0.20973588819E+02 -0.27110038850E+02 -0.13330777512E+03  0.16986068323E+03  0.99533125978E+02 0.  0.
        -11    1    3    3    0    0 -0.38083205778E+02  0.51197622155E+01 -0.56286601795E+02  0.68152212503E+02  0.00000000000E+00 0.  1.
         12    1    3    3    0    0  0.29892795866E+02  0.37191477792E+01 -0.13464172843E+03  0.13797030963E+03  0.00000000000E+00 0. -1.
        -13    1    4    4    0    0  0.59709434185E+02 -0.16231135538E+02 -0.10015405283E+03  0.11772638018E+03  0.00000000000E+00 0. -1.
         13    1    4    4    0    0 -0.38735845366E+02 -0.10878903312E+02 -0.33153722293E+02  0.52134303058E+02  0.00000000000E+00 0.  1.
          1    1    1    2  501    0 -0.12783178907E+02  0.18271128855E+02  0.19699870564E+02  0.29754473829E+02  0.00000000000E+00 0. -1.
<scales pt_clust_5="13000.00000" pt_clust_6="13000.00000" pt_clust_7="13000.00000" pt_clust_8="13000.00000" pt_clust_9="22.29896"></scales>
<clustering>
<clus scale="   22.299">  1  9  2 -1</clus>
<clus scale="   76.731">  5  6 -1 -1</clus>
<clus scale="   78.943">  2  5  1 -1</clus>
<clus scale="   99.533">  7  8 -1 -1</clus>
<clus scale="   22.299">  1  5  2 -1</clus>
</clustering>
</event>
<event>
 9    2  0.4653788E-005  0.1361722E+03  0.7546771E-02  0.1227753E+00
         -1   -1    0    0    0  501 -0.00000000000E+00  0.00000000000E+00  0.62886184867E+02  0.62886184867E+02  0.00000000000E+00 0.  1.
         21   -1    0    0  501  502  0.00000000000E+00 -0.00000000000E+00 -0.65640836797E+03  0.65640836797E+03  0.00000000000E+00 0.  1.
         23    2    1    2    0    0 -0.21853379250E+02 -0.48335068956E+02 -0.35152660548E+03  0.36906442225E+03  0.99114803780E+02 0.  0.
         24    2    1    2    0    0  0.50232524816E+02 -0.75514832753E+02 -0.81548972175E+02  0.14556629096E+03  0.79457621943E+02 0.  0.
        -11    1    4    4    0    0 -0.40208798975E+01 -0.41580201938E+02  0.16849389402E+00  0.41774502493E+02  0.00000000000E+00 0.  1.
         12    1    4    4    0    0  0.54253404713E+02 -0.33934630815E+02 -0.81717466069E+02  0.10379178846E+03  0.00000000000E+00 0. -1.
        -13    1    3    3    0    0 -0.47002282564E+02 -0.28751024260E+02 -0.31825153706E+03  0.32298587709E+03  0.00000000000E+00 0. -1.
         13    1    3    3    0    0  0.25148903314E+02 -0.19584044696E+02 -0.33275068427E+02  0.46078545153E+02  0.00000000000E+00 0.  1.
         -2    1    1    2    0  502 -0.28379145565E+02  0.12384990171E+03 -0.16044660544E+03  0.20466383964E+03  0.00000000000E+00 0.  1.
<scales pt_clust_5="13000.00000" pt_clust_6="13000.00000" pt_clust_7="13000.00000" pt_clust_8="13000.00000" pt_clust_9="110.58638"></scales>
<clustering>
<clus scale="   79.458">  5  6 -1 -1</clus>
<clus scale="   99.115">  7  8 -1 -1</clus>
<clus scale="  112.417">  1  7  2 -1</clus>
<clus scale="  110.586">  2  9  1 -1</clus>
<clus scale="  110.586">  2  5  1 -1</clus>
</clustering>
</event>
<event>
 9    2  0.4653788E-005  0.1769821E+03  0.7546771E-02  0.1192283E+00
          2   -1    0    0  502    0 -0.00000000000E+00  0.00000000000E+00  0.10890516224E+04  0.10890516224E+04  0.00000000000E+00 0. -1.
         21   -1    0    0  501  502  0.00000000000E+00 -0.00000000000E+00 -0.61238582723E+02  0.61238582723E+02  0.00000000000E+00 0. -1.
         24    2    1    2    0    0 -0.53629565630E+02  0.51199813099E+02  0.13004554051E+03  0.16982779576E+03  0.80200289489E+02 0.  0.
         23    2    1    2    0    0  0.11889218909E+03 -0.17258021768E+03  0.72221152148E+03  0.75727568499E+03  0.89205925605E+02 0.  0.
        -13    1    3    3    0    0 -0.47368365342E+02  0.41109468346E+02  0.30799587951E+02  0.69873922466E+02  0.00000000000E+00 0.  1.
         14    1    3    3    0    0 -0.62612002876E+01  0.10090344754E+02  0.99245952563E+02  0.99953873294E+02  0.00000000000E+00 0. -1.
        -11    1    4    4    0    0  0.79741143374E+02 -0.15500609303E+03  0.46681721782E+03  0.49830096697E+03  0.00000000000E+00 0. -1.
         11    1    4    4    0    0  0.39151045717E+02 -0.17574124655E+02  0.25539430365E+03  0.25897471803E+03  0.00000000000E+00 0.  1.
          1    1    1    2  501    0 -0.65262623461E+02  0.12138040458E+03  0.17555597772E+03  0.22318672440E+03  0.00000000000E+00 0. -1.
<scales pt_clust_5="13000.00000" pt_clust_6="13000.00000" pt_clust_7="13000.00000" pt_clust_8="13000.00000" pt_clust_9="152.85606"></scales>
<clustering>
<clus scale="   80.200">  5  6 -1 -1</clus>
<clus scale="   89.206">  7  8 -1 -1</clus>
<clus scale="  109.223">  1  5  2 -1</clus>
<clus scale="  152.856">  2  9  1 -1</clus>
<clus scale="  152.856">  2  5  1 -1</clus>
</clustering>
</event>
<event>
 9    2  0.4653788E-005  0.1000888E+03  0.7546771E-02  0.1284455E+00
         21   -1    0    0  501  502  0.00000000000E+00  0.00000000000E+00  0.27642138086E+03  0.27642138086E+03  0.00000000000E+00 0.  1.
          2   -1    0    0  502    0 -0.00000000000E+00 -0.00000000000E+00 -0.59180828451E+02  0.59180828451E+02  0.00000000000E+00 0. -1.
         23    2    1    2    0    0  0.22306728184E+02 -0.34624873182E+02  0.16146752244E+02  0.10000254359E+03  0.89684553583E+02 0.  0.
         24    2    1    2    0    0 -0.12962444542E+02  0.53530110928E+02  0.13828108972E+03  0.16934138137E+03  0.80754850795E+02 0.  0.
        -13    1    4    4    0    0  0.15042868760E+02  0.44165193203E+02  0.13080952317E+03  0.13888118499E+03  0.00000000000E+00 0.  1.
         14    1    4    4    0    0 -0.28005313302E+02  0.93649177253E+01  0.74715665460E+01  0.30460196384E+02  0.00000000000E+00 0. -1.
        -11    1    3    3    0    0 -0.31388618481E+02 -0.23941000544E+02  0.21572271783E+02  0.44986440036E+02  0.00000000000E+00 0. -1.
         11    1    3    3    0    0  0.53695346665E+02 -0.10683872638E+02 -0.54255195389E+01  0.55016103554E+02  0.00000000000E+00 0.  1.
          1    1    1    2  501    0 -0.93442836420E+01 -0.18905237747E+02  0.62812710447E+02  0.66258284348E+02  0.00000000000E+00 0. -1.
<scales pt_clust_5="13000.00000" pt_clust_6="13000.00000" pt_clust_7="13000.00000" pt_clust_8="13000.00000" pt_clust_9="21.08847"></scales>
<clustering>
<clus scale="   21.088">  1  9  2 -1</clus>
<clus scale="   80.755">  5  6 -1 -1</clus>
<clus scale="   89.685">  7  8 -1 -1</clus>
<clus scale="   92.173">  1  5  2 -1</clus>
<clus scale="   21.088">  1  5  2 -1</clus>
</clustering>
</event>
<event>
 9    2  0.4653788E-005  0.1807840E+03  0.7546771E-02  0.1168304E+00
          2   -1    0    0  502    0 -0.00000000000E+00  0.00000000000E+00  0.36934266028E+03  0.36934266028E+03  0.00000000000E+00 0. -1.
         21   -1    0    0  501  502  0.00000000000E+00 -0.00000000000E+00 -0.15641854042E+03  0.15641854042E+03  0.00000000000E+00 0.  1.
         23    2    1    2    0    0 -0.12432649660E+03  0.10585763055E+03  0.21758907463E+03  0.28670503017E+03  0.90508857131E+02 0.  0.
         24    2    1    2    0    0  0.89558729699E+02 -0.10033901054E+03 -0.64902152159E+02  0.16928674507E+03  0.79730982678E+02 0.  0.
        -11    1    4    4    0    0  0.89356327613E+02 -0.82798421573E+02 -0.80333709585E+02  0.14592339358E+03  0.00000000000E+00 0.  1.
         12    1    4    4    0    0  0.20240208646E+00 -0.17540588967E+02  0.15431557426E+02  0.23363351483E+02  0.00000000000E+00 0. -1.
        -11    1    3    3    0    0  0.17527102775E+01  0.36692579135E+02  0.78363512421E+02  0.86546273379E+02  0.00000000000E+00 0.  1.
         11    1    3    3    0    0 -0.12607920688E+03  0.69165051418E+02  0.13922556221E+03  0.20015875679E+03  0.00000000000E+00 0. -1.
          1    1    1    2  501    0  0.34767766904E+02 -0.55186200120E+01  0.60237197383E+02  0.69769425474E+02  0.00000000000E+00 0. -1.
<scales pt_clust_5="13000.00000" pt_clust_6="13000.00000" pt_clust_7="13000.00000" pt_clust_8="13000.00000" pt_clust_9="35.20304"></scales>
<clustering>
<clus scale="   35.203">  2  9  1 -1</clus>
<clus scale="   79.731">  5  6 -1 -1</clus>
<clus scale="   90.509">  7  8 -1 -1</clus>
<clus scale="  175.636">  2  5  1 -1</clus>
<clus scale="   35.203">  2  5  1 -1</clus>
</clustering>
</event>
<event>
 9    2  0.4653788E-005  0.9702558E+02  0.7546771E-02  0.1291615E+00
         21   -1    0    0  501  502  0.00000000000E+00  0.00000000000E+00  0.15625522276E+03  0.15625522276E+03  0.00000000000E+00 0.  1.
         -1   -1    0    0    0  501 -0.00000000000E+00 -0.00000000000E+00 -0.22945773753E+03  0.22945773753E+03  0.00000000000E+00 0.  1.
         23    2    1    2    0    0  0.33181993991E+02 -0.75378963305E+01 -0.18773996245E+03  0.21105441856E+03  0.90220892736E+02 0.  0.
         24    2    1    2    0    0 -0.42554958448E+02  0.38720127642E+02  0.85373379843E+02  0.13094667989E+03  0.80921234636E+02 0.  0.
        -13    1    4    4    0    0 -0.31851695665E+02  0.62545929412E+02  0.46796100597E+02  0.84358750784E+02  0.00000000000E+00 0.  1.
         14    1    4    4    0    0 -0.10703262782E+02 -0.23825801771E+02  0.38577279246E+02  0.46587929105E+02  0.00000000000E+00 0. -1.
        -13    1    3    3    0    0 -0.16361337743E+02  0.22836404959E+02 -0.22813466060E+02  0.36189072907E+02  0.00000000000E+00 0. -1.
         13    1    3    3    0    0  0.49543331734E+02 -0.30374301290E+02 -0.16492649639E+03  0.17486534565E+03  0.00000000000E+00 0.  1.
         -2    1    1    2    0  502  0.93729644565E+01 -0.31182231311E+02  0.29164067841E+02  0.43711861838E+02  0.00000000000E+00 0.  1.
<scales pt_clust_5="13000.00000" pt_clust_6="13000.00000" pt_clust_7="13000.00000" pt_clust_8="13000.00000" pt_clust_9="32.56047"></scales>
<clustering>
<clus scale="   32.560">  1  9  2 -1</clus>
<clus scale="   80.921">  5  6 -1 -1</clus>
<clus scale="   88.444">  1  5  2 -1</clus>
<clus scale="   90.221">  7  8 -1 -1</clus>
<clus scale="   32.560">  1  5  2 -1</clus>
</clustering>
</event>
<event>
 9    2  0.4653788E-005  0.1027032E+03  0.7546771E-02  0.1279612E+00
         21   -1    0    0  501  502  0.00000000000E+00  0.00000000000E+00  0.66899214000E+02  0.66899214000E+02  0.00000000000E+00 0. -1.
          2   -1    0    0  502    0 -0.00000000000E+00 -0.00000000000E+00 -0.26006214284E+03  0.26006214284E+03  0.00000000000E+00 0. -1.
         23    2    1    2    0    0  0.15665973970E+01 -0.48391115194E+02 -0.18253338087E+03  0.21001590468E+03  0.91891734296E+02 0.  0.
         24    2    1    2    0    0 -0.19840843964E+02  0.35705252099E+02  0.23451558047E+01  0.91192352377E+02  0.81498596673E+02 0.  0.
        -13    1    4    4    0    0  0.29907954984E+02  0.55780901796E+01 -0.94313498265E+01  0.31852020672E+02  0.00000000000E+00 0.  1.
         14    1    4    4    0    0 -0.49748798947E+02  0.30127161919E+02  0.11776505631E+02  0.59340331705E+02  0.00000000000E+00 0. -1.
        -13    1    3    3    0    0 -0.45081755695E+02 -0.21828404799E+02 -0.92650717502E+02  0.10532330894E+03  0.00000000000E+00 0.  1.
         13    1    3    3    0    0  0.46648353091E+02 -0.26562710395E+02 -0.89882663367E+02  0.10469259574E+03  0.00000000000E+00 0. -1.
          1    1    1    2  501    0  0.18274246567E+02  0.12685863095E+02 -0.12974703772E+02  0.25753099775E+02  0.00000000000E+00 0. -1.
<scales pt_clust_5="13000.00000" pt_clust_6="13000.00000" pt_clust_7="13000.00000" pt_clust_8="13000.00000" pt_clust_9="22.24588"></scales>
<clustering>
<clus scale="   22.246">  1  9  2 -1</clus>
<clus scale="   81.499">  5  6 -1 -1</clus>
<clus scale="   91.892">  7  8 -1 -1</clus>
<clus scale="   93.519">  1  5  2 -1</clus>
<clus scale="   22.246">  1  5  2 -1</clus>
</clustering>
</event>
<event>
 9    2  0.4653788E-005  0.1047953E+03  0.7546771E-02  0.1275751E+00
         -3   -1    0    0    0  501 -0.00000000000E+00  0.00000000000E+00  0.51738019943E+03  0.51738019943E+03  0.00000000000E+00 0.  1.
         21   -1    0    0  501  502  0.00000000000E+00 -0.00000000000E+00 -0.48453180098E+03  0.48453180098E+03  0.00000000000E+00 0.  1.
         23    2    1    2    0    0 -0.10719173807E+02 -0.43041303164E+02  0.31842642745E+03  0.33484097329E+03  0.93571540704E+02 0.  0.
         24    2    1    2    0    0  0.64956437334E+02  0.24925087334E+02  0.17363372640E+03  0.20431265136E+03  0.82185094965E+02 0.  0.
        -13    1    4    4    0    0  0.40812694801E+02 -0.12826172453E+02  0.26077729703E+02  0.50102242896E+02  0.00000000000E+00 0.  1.
         14    1    4    4    0    0  0.24143742533E+02  0.37751259787E+02  0.14755599669E+03  0.15421040847E+03  0.00000000000E+00 0. -1.
        -13    1    3    3    0    0  0.21694325084E+01  0.20202508253E+02  0.16736721281E+02  0.26324240091E+02  0.00000000000E+00 0. -1.
         13    1    3    3    0    0 -0.12888606316E+02 -0.63243811417E+02  0.30168970617E+03  0.30851673320E+03  0.00000000000E+00 0.  1.
         -4    1    1    2    0  502 -0.54237263527E+02  0.18116215830E+02 -0.45921175541E+03  0.46275837576E+03  0.00000000000E+00 0.  1.
<scales pt_clust_5="13000.00000" pt_clust_6="13000.00000" pt_clust_7="13000.00000" pt_clust_8="13000.00000" pt_clust_9="57.18285"></scales>
<clustering>
<clus scale="   57.183">  2  9  1 -1</clus>
<clus scale="   82.185">  5  6 -1 -1</clus>
<clus scale="   93.572">  7  8 -1 -1</clus>
<clus scale="   94.767">  2  5  1 -1</clus>
<clus scale="   57.183">  2  5  1 -1</clus>
</clustering>
</event>
<event>
 9    2  0.4653788E-005  0.5331598E+03  0.7546771E-02  0.1060418E+00
         21   -1    0    0  501  502  0.00000000000E+00  0.00000000000E+00  0.11219200891E+03  0.11219200891E+03  0.00000000000E+00 0. -1.
          2   -1    0    0  502    0 -0.00000000000E+00 -0.00000000000E+00 -0.31110529572E+04  0.31110529572E+04  0.00000000000E+00 0. -1.
         23    2    1    2    0    0 -0.55604193087E+02  0.55882940391E+01 -0.17862746326E+03  0.20734221717E+03  0.89218658750E+02 0.  0.
         24    2    1    2    0    0  0.11024274579E+02 -0.52922280942E+03 -0.12444821979E+04  0.13548270150E+04  0.81375568709E+02 0.  0.
        -11    1    4    4    0    0 -0.39081702401E+01 -0.24735870772E+03 -0.68229648007E+03  0.72576173142E+03  0.00000000000E+00 0.  1.
         12    1    4    4    0    0  0.14932444819E+02 -0.28186410170E+03 -0.56218571779E+03  0.62906528360E+03  0.00000000000E+00 0. -1.
        -11    1    3    3    0    0  0.97424692934E+01  0.25367590309E+02 -0.97966015039E+02  0.10166499126E+03  0.00000000000E+00 0.  1.
         11    1    3    3    0    0 -0.65346662381E+02 -0.19779296269E+02 -0.80661448221E+02  0.10567722590E+03  0.00000000000E+00 0. -1.
          1    1    1    2  501    0  0.44579918508E+02  0.52363451538E+03 -0.15757512872E+04  0.16610757340E+04  0.00000000000E+00 0. -1.
<scales pt_clust_5="13000.00000" pt_clust_6="13000.00000" pt_clust_7="13000.00000" pt_clust_8="13000.00000" pt_clust_9="526.91334"></scales>
<clustering>
<clus scale="   81.376">  5  6 -1 -1</clus>
<clus scale="   89.219">  7  8 -1 -1</clus>
<clus scale="  105.276">  2  7  1 -1</clus>
<clus scale="  526.913">  1  9  2 -1</clus>
<clus scale="  526.913">  1  5  2 -1</clus>
</clustering>
</event>
<event>
 9    2  0.4653788E-005  0.9762190E+02  0.7546771E-02  0.1293003E+00
         -3   -1    0    0    0  501 -0.00000000000E+00  0.00000000000E+00  0.42257957022E+03  0.42257957022E+03  0.00000000000E+00 0.  1.
         21   -1    0    0  501  502  0.00000000000E+00 -0.00000000000E+00 -0.38254425379E+02  0.38254425379E+02  0.00000000000E+00 0. -1.
         23    2    1    2    0    0 -0.29795182390E+02  0.17249460771E+02  0.30476758135E+03  0.32044015794E+03  0.92807970511E+02 0.  0.
         24    2    1    2    0    0  0.94625751818E+01 -0.23582890156E+02  0.84594467097E+02  0.11851010760E+03  0.79010940397E+02 0.  0.
        -11    1    4    4    0    0  0.23322836210E+02 -0.55161320671E+00  0.88341463863E+02  0.91369979772E+02  0.00000000000E+00 0.  1.
         12    1    4    4    0    0 -0.13860261029E+02 -0.23031276949E+02 -0.37469967660E+01  0.27140127827E+02  0.00000000000E+00 0. -1.
        -11    1    3    3    0    0  0.20530755037E+02 -0.15616688798E+02  0.31868057573E+02  0.40999584935E+02  0.00000000000E+00 0. -1.
         11    1    3    3    0    0 -0.50325937427E+02  0.32866149568E+02  0.27289952377E+03  0.27944057300E+03  0.00000000000E+00 0.  1.
         -4    1    1    2    0  502  0.20332607208E+02  0.63334293855E+01 -0.50369035985E+01  0.21883730064E+02  0.00000000000E+00 0.  1.
<scales pt_clust_5="13000.00000" pt_clust_6="13000.00000" pt_clust_7="13000.00000" pt_clust_8="13000.00000" pt_clust_9="21.29618"></scales>
<clustering>
<clus scale="   21.296">  2  9  1 -1</clus>
<clus scale="   79.011">  5  6 -1 -1</clus>
<clus scale="   84.614">  2  5  1 -1</clus>
<clus scale="   92.808">  7  8 -1 -1</clus>
<clus scale="   21.296">  2  5  1 -1</clus>
</clustering>
</event>
<event>
 9    2  0.4653788E-005  0.1836173E+03  0.7546771E-02  0.1180027E+00
         -1   -1    0    0    0  501 -0.00000000000E+00  0.00000000000E+00  0.27491150910E+03  0.27491150910E+03  0.00000000000E+00 0.  1.
         21   -1    0    0  501  502  0.00000000000E+00 -0.00000000000E+00 -0.23286821653E+03  0.23286821653E+03  0.00000000000E+00 0.  1.
         24    2    1    2    0    0  0.64307079059E+02  0.76139340274E+02 -0.40925545131E+02  0.13481526584E+03  0.81041076644E+02 0.  0.
         23    2    1    2    0    0  0.10278314768E+03  0.22069043659E+02  0.11000361434E+03  0.17727360745E+03  0.90959983473E+02 0.  0.
        -11    1    3    3    0    0  0.42723497371E+02  0.70441852881E+02  0.62527410028E+01  0.82622325282E+02  0.00000000000E+00 0.  1.
         12    1    3    3    0    0  0.21583581688E+02  0.56974873924E+01 -0.47178286134E+02  0.52192940553E+02  0.00000000000E+00 0. -1.
        -11    1    4    4    0    0  0.11078800285E+03 -0.42490020743E+01  0.94615105352E+02  0.14575340049E+03  0.00000000000E+00 0.  1.
         11    1    4    4    0    0 -0.80048551691E+01  0.26318045734E+02  0.15388508990E+02  0.31520206954E+02  0.00000000000E+00 0. -1.
         -2    1    1    2    0  502 -0.16709022674E+03 -0.98208383933E+02 -0.27034776639E+02  0.19569085235E+03  0.00000000000E+00 0.  1.
<scales pt_clust_5="13000.00000" pt_clust_6="13000.00000" pt_clust_7="13000.00000" pt_clust_8="13000.00000" pt_clust_9="159.50417"></scales>
<clustering>
<clus scale="   81.041">  5  6 -1 -1</clus>
<clus scale="   90.960">  7  8 -1 -1</clus>
<clus scale="  128.453">  1  5  2 -1</clus>
<clus scale="  159.504">  2  9  1 -1</clus>
<clus scale="  159.504">  2  5  1 -1</clus>
</clustering>
</event>
<event>
 9    2  0.4653788E-005  0.9422015E+02  0.7546771E-02  0.1299228E+00
          2   -1    0    0  502    0 -0.00000000000E+00  0.00000000000E+00  0.29266946301E+03  0.29266946301E+03  0.00000000000E+00 0. -1.
         21   -1    0    0  501  502  0.00000000000E+00 -0.00000000000E+00 -0.77707782695E+02  0.77707782695E+02  0.00000000000E+00 0. -1.
         24    2    1    2    0    0  0.42113107237E+02 -0.70159261266E+01  0.15612832886E+03  0.18061470045E+03  0.80142859477E+02 0.  0.
         23    2    1    2    0    0  0.34149853651E+02 -0.16385121464E+02  0.17978001776E+02  0.10013661246E+03  0.90936504756E+02 0.  0.
        -11    1    3    3    0    0 -0.96377416667E+01 -0.31935413726E+02  0.56119074668E+02  0.65284816427E+02  0.00000000000E+00 0.  1.
         12    1    3    3    0    0  0.51750848904E+02  0.24919487600E+02  0.10000925419E+03  0.11532988402E+03  0.00000000000E+00 0. -1.
        -11    1    4    4    0    0  0.28011563212E+02 -0.53449372546E+02  0.57055538216E+01  0.60613830465E+02  0.00000000000E+00 0. -1.
         11    1    4    4    0    0  0.61382904388E+01  0.37064251082E+02  0.12272447955E+02  0.39522781995E+02  0.00000000000E+00 0.  1.
          1    1    1    2  501    0 -0.76262960889E+02  0.23401047590E+02  0.40855349676E+02  0.89625932793E+02  0.00000000000E+00 0. -1.
<scales pt_clust_5="13000.00000" pt_clust_6="13000.00000" pt_clust_7="13000.00000" pt_clust_8="13000.00000" pt_clust_9="79.77248"></scales>
<clustering>
<clus scale="   79.772">  2  9  1 -1</clus>
<clus scale="   80.143">  5  6 -1 -1</clus>
<clus scale="   83.850">  1  5  2 -1</clus>
<clus scale="   90.937">  7  8 -1 -1</clus>
<clus scale="   79.772">  2  5  1 -1</clus>
</clustering>
</event>
<event>
 9    2  0.4653788E-005  0.1067503E+03  0.7546771E-02  0.1271746E+00
         21   -1    0    0  501  502  0.00000000000E+00  0.00000000000E+00  0.30929266208E+02  0.30929266208E+02  0.00000000000E+00 0.  1.
         -3   -1    0    0    0  501 -0.00000000000E+00 -0.00000000000E+00 -0.80582531042E+03  0.80582531042E+03  0.00000000000E+00 0.  1.
         24    2    1    2    0    0 -0.83606608042E+02  0.52605562849E+01 -0.26094026347E+03  0.28535391210E+03  0.79493997809E+02 0.  0.
         23    2    1    2    0    0  0.18472191725E+02  0.19346476389E+02 -0.12955661925E+03  0.16074645221E+03  0.91318104953E+02 0.  0.
        -13    1    3    3    0    0 -0.96768264117E+02  0.14743451217E+02 -0.20608259195E+03  0.22814798048E+03  0.00000000000E+00 0.  1.
         14    1    3    3    0    0  0.13161656075E+02 -0.94828949325E+01 -0.54857671525E+02  0.57205931616E+02  0.00000000000E+00 0. -1.
        -11    1    4    4    0    0  0.34215907425E+02 -0.23387508391E+02 -0.29679451624E+02  0.50976207375E+02  0.00000000000E+00 0.  1.
         11    1    4    4    0    0 -0.15743715700E+02  0.42733984779E+02 -0.99877167626E+02  0.10977024484E+03  0.00000000000E+00 0. -1.
         -4    1    1    2    0  502  0.65134416317E+02 -0.24607032673E+02 -0.38439916149E+03  0.39065421232E+03  0.00000000000E+00 0.  1.
<scales pt_clust_5="13000.00000" pt_clust_6="13000.00000" pt_clust_7="13000.00000" pt_clust_8="13000.00000" pt_clust_9="69.62760"></scales>
<clustering>
<clus scale="   69.628">  1  9  2 -1</clus>
<clus scale="   79.494">  5  6 -1 -1</clus>
<clus scale="   91.318">  7  8 -1 -1</clus>
<clus scale="   96.829">  2  5  1 -1</clus>
<clus scale="   69.628">  1  5  2 -1</clus>
</clustering>
</event>
<event>
 9    2  0.4653788E-005  0.1049255E+03  0.7546771E-02  0.1275868E+00
          2   -1    0    0  502    0 -0.00000000000E+00  0.00000000000E+00  0.48740118390E+02  0.48740118390E+02  0.00000000000E+00 0. -1.
         21   -1    0    0  501  502  0.00000000000E+00 -0.00000000000E+00 -0.28617246119E+03  0.28617246119E+03  0.00000000000E+00 0. -1.
         24    2    1    2    0    0  0.38132607360E+02 -0.97289563531E+01 -0.74405747392E+02  0.11592925879E+03  0.79715929788E+02 0.  0.
         23    2    1    2    0    0 -0.68456526152E+02  0.22626345272E+01 -0.13235596936E+03  0.17521148836E+03  0.92138740710E+02 0.  0.
        -11    1    3    3    0    0  0.19020590499E+01 -0.25689079522E+02  0.58718829117E+01  0.26420174948E+02  0.00000000000E+00 0.  1.
         12    1    3    3    0    0  0.36230548310E+02  0.15960123169E+02 -0.80277630304E+02  0.89509083838E+02  0.00000000000E+00 0. -1.
        -11    1    4    4    0    0 -0.77385183870E+02  0.29556221596E+02 -0.78225681039E+02  0.11393548215E+03  0.00000000000E+00 0. -1.
         11    1    4    4    0    0  0.89286577175E+01 -0.27293587069E+02 -0.54130288320E+02  0.61276006212E+02  0.00000000000E+00 0.  1.
          1    1    1    2  501    0  0.30323918793E+02  0.74663218258E+01 -0.30670626047E+02  0.43771832434E+02  0.00000000000E+00 0. -1.
<scales pt_clust_5="13000.00000" pt_clust_6="13000.00000" pt_clust_7="13000.00000" pt_clust_8="13000.00000" pt_clust_9="31.22959"></scales>
<clustering>
<clus scale="   31.230">  2  9  1 -1</clus>
<clus scale="   79.716">  5  6 -1 -1</clus>
<clus scale="   92.139">  7  8 -1 -1</clus>
<clus scale="   94.204">  1  5  2 -1</clus>
<clus scale="   31.230">  2  5  1 -1</clus>
</clustering>
</event>
<event>
 9    2  0.4653788E-005  0.9379918E+02  0.7546771E-02  0.1300216E+00
         21   -1    0    0  501  502  0.00000000000E+00  0.00000000000E+00  0.25743589731E+02  0.25743589731E+02  0.00000000000E+00 0.  1.
          2   -1    0    0  502    0 -0.00000000000E+00 -0.00000000000E+00 -0.65038589673E+03  0.65038589673E+03  0.00000000000E+00 0. -1.
         24    2    1    2    0    0  0.11091643161E+02  0.32345032455E+02 -0.18142193560E+03  0.20170331138E+03  0.81247039517E+02 0.  0.
         23    2    1    2    0    0 -0.21216654222E+02  0.16902020503E+02 -0.15760776156E+03  0.18442212171E+03  0.91844911453E+02 0.  0.
        -11    1    3    3    0    0  0.17927344412E+02 -0.13722125601E+02 -0.11154331485E+02  0.25181451896E+02  0.00000000000E+00 0.  1.
         12    1    3    3    0    0 -0.68357012506E+01  0.46067158056E+02 -0.17026760412E+03  0.17652185948E+03  0.00000000000E+00 0. -1.
        -13    1    4    4    0    0 -0.28976454035E+01 -0.23963498569E+02 -0.12909454070E+03  0.13133181660E+03  0.00000000000E+00 0. -1.
         13    1    4    4    0    0 -0.18319008819E+02  0.40865519072E+02 -0.28513220854E+02  0.53090305109E+02  0.00000000000E+00 0.  1.
          1    1    1    2  501    0  0.10125011061E+02 -0.49247052958E+02 -0.28561260983E+03  0.29000405337E+03  0.00000000000E+00 0. -1.
<scales pt_clust_5="13000.00000" pt_clust_6="13000.00000" pt_clust_7="13000.00000" pt_clust_8="13000.00000" pt_clust_9="50.27714"></scales>
<clustering>
<clus scale="   50.277">  1  9  2 -1</clus>
<clus scale="   81.247">  5  6 -1 -1</clus>
<clus scale="   83.450">  2  5  1 -1</clus>
<clus scale="   91.845">  7  8 -1 -1</clus>
<clus scale="   50.277">  1  5  2 -1</clus>
</clustering>
</event>
<event>
 9    2  0.4653788E-005  0.1343242E+03  0.7546771E-02  0.1224550E+00
         21   -1    0    0  501  502  0.00000000000E+00  0.00000000000E+00  0.47293695008E+02  0.47293695008E+02  0.00000000000E+00 0. -1.
         -3   -1    0    0    0  501 -0.00000000000E+00 -0.00000000000E+00 -0.82002728303E+03  0.82002728303E+03  0.00000000000E+00 0.  1.
         23    2    1    2    0    0  0.82282849160E+02 -0.35620295382E+02 -0.52197030477E+03  0.53788307601E+03  0.93946429864E+02 0.  0.
         24    2    1    2    0    0 -0.12741146550E+03  0.11571284225E+02 -0.13386069886E+03  0.20184024849E+03  0.80331955362E+02 0.  0.
        -11    1    4    4    0    0 -0.90150144760E+02  0.19542538397E+02 -0.13524861440E+03  0.16371055893E+03  0.00000000000E+00 0.  1.
         12    1    4    4    0    0 -0.37261320742E+02 -0.79712541722E+01  0.13879155440E+01  0.38129689562E+02  0.00000000000E+00 0. -1.
        -13    1    3    3    0    0  0.39058937601E+02 -0.63786435965E+02 -0.36721395972E+03  0.37475378882E+03  0.00000000000E+00 0.  1.
         13    1    3    3    0    0  0.43223911559E+02  0.28166140583E+02 -0.15475634504E+03  0.16312928718E+03  0.00000000000E+00 0. -1.
         -4    1    1    2    0  502  0.45128616342E+02  0.24049011157E+02 -0.11690258439E+03  0.12759765353E+03  0.00000000000E+00 0.  1.
<scales pt_clust_5="13000.00000" pt_clust_6="13000.00000" pt_clust_7="13000.00000" pt_clust_8="13000.00000" pt_clust_9="51.13658"></scales>
<clustering>
<clus scale="   51.137">  1  9  2 -1</clus>
<clus scale="   80.332">  5  6 -1 -1</clus>
<clus scale="   93.946">  7  8 -1 -1</clus>
<clus scale="  125.181">  1  5  2 -1</clus>
<clus scale="   51.137">  1  5  2 -1</clus>
</clustering>
</event>
<event>
 9    2  0.4653788E-005  0.9380924E+02  0.7546771E-02  0.1300751E+00
         21   -1    0    0  501  502  0.00000000000E+00  0.00000000000E+00  0.33974319124E+03  0.33974319124E+03  0.00000000000E+00 0. -1.
          2   -1    0    0  502    0 -0.00000000000E+00 -0.00000000000E+00 -0.22957133627E+03  0.22957133627E+03  0.00000000000E+00 0. -1.
         23    2    1    2    0    0  0.14886217290E+02  0.67946979340E+01 -0.20717652944E+03  0.22733075155E+03  0.92137879623E+02 0.  0.
         24    2    1    2    0    0 -0.41753705572E+02 -0.75235811765E+01  0.17718279608E+03  0.19926452236E+03  0.80700870151E+02 0.  0.
        -13    1    4    4    0    0 -0.27125911015E+02 -0.43572722316E+02  0.86376222656E+02  0.10047511642E+03  0.00000000000E+00 0.  1.
         14    1    4    4    0    0 -0.14627794557E+02  0.36049141139E+02  0.90806573425E+02  0.98789405949E+02  0.00000000000E+00 0. -1.
        -13    1    3    3    0    0 -0.16701670832E+02  0.42552826566E+02 -0.10790715191E+03  0.11719062373E+03  0.00000000000E+00 0. -1.
         13    1    3    3    0    0  0.31587888121E+02 -0.35758128632E+02 -0.99269377534E+02  0.11014012782E+03  0.00000000000E+00 0.  1.
          1    1    1    2  501    0  0.26867488282E+02  0.72888324256E+00  0.14016558833E+03  0.14271925360E+03  0.00000000000E+00 0. -1.
<scales pt_clust_5="13000.00000" pt_clust_6="13000.00000" pt_clust_7="13000.00000" pt_clust_8="13000.00000" pt_clust_9="26.87737"></scales>
<clustering>
<clus scale="   26.877">  1  9  2 -1</clus>
<clus scale="   80.701">  5  6 -1 -1</clus>
<clus scale="   82.604">  1  5  2 -1</clus>
<clus scale="   92.138">  7  8 -1 -1</clus>
<clus scale="   26.877">  1  5  2 -1</clus>
</clustering>
</event>
<event>
 9    2  0.4653788E-005  0.9695729E+02  0.7546771E-02  0.1293834E+00
         -1   -1    0    0    0  501 -0.00000000000E+00  0.00000000000E+00  0.70340254667E+02  0.70340254667E+02  0.00000000000E+00 0.  1.
         21   -1    0    0  501  502  0.00000000000E+00 -0.00000000000E+00 -0.16052323635E+03  0.16052323635E+03  0.00000000000E+00 0.  1.
         24    2    1    2    0    0 -0.38849528498E+02 -0.96086077988E+00 -0.13565111401E+02  0.89732739144E+02  0.79735457037E+02 0.  0.
         23    2    1    2    0    0  0.15106880062E+02 -0.18402340027E+01 -0.53130899701E+02  0.10761661644E+03  0.92340886637E+02 0.  0.
        -11    1    3    3    0    0 -0.43446247530E+02  0.35392886079E+01  0.25258695043E+02  0.50379605632E+02  0.00000000000E+00 0.  1.
         12    1    3    3    0    0  0.45967190323E+01 -0.45001493877E+01 -0.38823806445E+02  0.39353133512E+02  0.00000000000E+00 0. -1.
        -13    1    4    4    0    0  0.22274483465E+01  0.31359528164E+02 -0.63219096118E+02  0.70604784872E+02  0.00000000000E+00 0.  1.
         13    1    4    4    0    0  0.12879431715E+02 -0.33199762167E+02  0.10088196416E+02  0.37011831570E+02  0.00000000000E+00 0. -1.
         -2    1    1    2    0  502  0.23742648436E+02  0.28010947826E+01 -0.23486970584E+02  0.33514135435E+02  0.00000000000E+00 0.  1.
<scales pt_clust_5="13000.00000" pt_clust_6="13000.00000" pt_clust_7="13000.00000" pt_clust_8="13000.00000" pt_clust_9="23.90731"></scales>
<clustering>
<clus scale="   23.907">  2  9  1 -1</clus>
<clus scale="   79.735">  5  6 -1 -1</clus>
<clus scale="   85.039">  1  5  2 -1</clus>
<clus scale="   92.341">  7  8 -1 -1</clus>
<clus scale="   23.907">  2  5  1 -1</clus>
</clustering>
</event>
<event>
 9    2  0.4653788E-005  0.9321147E+02  0.7546771E-02  0.1300033E+00
         21   -1    0    0  501  502  0.00000000000E+00  0.00000000000E+00  0.32470764178E+03  0.32470764178E+03  0.00000000000E+00 0. -1.
         -1   -1    0    0    0  501 -0.00000000000E+00 -0.00000000000E+00 -0.94457979574E+02  0.94457979574E+02  0.00000000000E+00 0.  1.
         23    2    1    2    0    0  0.24788249665E+02 -0.47353704995E+01 -0.55719665307E+02  0.10824086873E+03  0.89300187611E+02 0.  0.
         24    2    1    2    0    0 -0.43414294797E+02 -0.15275737137E+02  0.23975237113E+03  0.25722762939E+03  0.81035206669E+02 0.  0.
        -13    1    4    4    0    0 -0.40481549828E+02  0.10177467260E+02  0.47329264932E+02  0.63106228181E+02  0.00000000000E+00 0.  1.
         14    1    4    4    0    0 -0.29327449691E+01 -0.25453204396E+02  0.19242310620E+03  0.19412140121E+03  0.00000000000E+00 0. -1.
        -11    1    3    3    0    0  0.57363900394E+02 -0.11369759944E+02 -0.43247191631E+02  0.72733816712E+02  0.00000000000E+00 0.  1.
         11    1    3    3    0    0 -0.32575650729E+02  0.66343894440E+01 -0.12472473676E+02  0.35507052022E+02  0.00000000000E+00 0. -1.
         -2    1    1    2    0  502  0.18626045132E+02  0.20011107636E+02  0.46216956380E+02  0.53697123230E+02  0.00000000000E+00 0.  1.
<scales pt_clust_5="13000.00000" pt_clust_6="13000.00000" pt_clust_7="13000.00000" pt_clust_8="13000.00000" pt_clust_9="27.33814"></scales>
<clustering>
<clus scale="   27.338">  1  9  2 -1</clus>
<clus scale="   81.035">  5  6 -1 -1</clus>
<clus scale="   85.326">  1  5  2 -1</clus>
<clus scale="   89.300">  7  8 -1 -1</clus>
<clus scale="   27.338">  1  5  2 -1</clus>
</clustering>
</event>
<event>
 9    2  0.4653788E-005  0.2199877E+03  0.7546771E-02  0.1134658E+00
          2   -1    0    0  502    0 -0.00000000000E+00  0.00000000000E+00  0.74227223550E+03  0.74227223550E+03  0.00000000000E+00 0. -1.
         21   -1    0    0  501  502  0.00000000000E+00 -0.00000000000E+00 -0.12697603390E+03  0.12697603390E+03  0.00000000000E+00 0. -1.
         23    2    1    2    0    0 -0.16821202483E+03 -0.12227164778E+03  0.47837842439E+03  0.52953418136E+03  0.91186025026E+02 0.  0.
         24    2    1    2    0    0  0.15684819935E+03  0.73698803996E+02 -0.28984034845E+01  0.19126536939E+03  0.80877496478E+02 0.  0.
        -11    1    4    4    0    0  0.11495573969E+02  0.36643054536E+02 -0.13945197839E+02  0.40857437626E+02  0.00000000000E+00 0.  1.
         12    1    4    4    0    0  0.14535262538E+03  0.37055749461E+02  0.11046794354E+02  0.15040793176E+03  0.00000000000E+00 0. -1.
        -11    1    3    3    0    0 -0.42115150078E+02 -0.89861897250E+01  0.37180696512E+02  0.56893247973E+02  0.00000000000E+00 0.  1.
         11    1    3    3    0    0 -0.12609687475E+03 -0.11328545805E+03  0.44119772788E+03  0.47264093339E+03  0.00000000000E+00 0. -1.
          1    1    1    2  501    0  0.11363825485E+02  0.48572843781E+02  0.13981618069E+03  0.14844871864E+03  0.00000000000E+00 0. -1.
<scales pt_clust_5="13000.00000" pt_clust_6="13000.00000" pt_clust_7="13000.00000" pt_clust_8="13000.00000" pt_clust_9="49.88447"></scales>
<clustering>
<clus scale="   49.884">  2  9  1 -1</clus>
<clus scale="   80.877">  5  6 -1 -1</clus>
<clus scale="   91.186">  7  8 -1 -1</clus>
<clus scale="  215.919">  2  5  1 -1</clus>
<clus scale="   49.884">  2  5  1 -1</clus>
</clustering>
</event>
<event>
 9    2  0.4653788E-005  0.2909324E+03  0.7546771E-02  0.1090395E+00
          2   -1    0    0  502    0 -0.00000000000E+00  0.00000000000E+00  0.10816704931E+04  0.10816704931E+04  0.00000000000E+00 0. -1.
         21   -1    0    0  501  502  0.00000000000E+00 -0.00000000000E+00 -0.16864201841E+03  0.16864201841E+03  0.00000000000E+00 0. -1.
         23    2    1    2    0    0 -0.67128242288E+02  0.24786918445E+03  0.67590629055E+03  0.72885505887E+03  0.91842526771E+02 0.  0.
         24    2    1    2    0    0  0.98969395401E+02 -0.32506079265E+03  0.25996081440E+03  0.43488952306E+03  0.78037248145E+02 0.  0.
        -11    1    4    4    0    0  0.19463322936E+02 -0.17248200452E+03  0.10202548743E+03  0.20134066382E+03  0.00000000000E+00 0.  1.
         12    1    4    4    0    0  0.79506072465E+02 -0.15257878813E+03  0.15793532697E+03  0.23354885924E+03  0.00000000000E+00 0. -1.
        -11    1    3    3    0    0 -0.78274526501E+02  0.12649357260E+03  0.32620004311E+03  0.35851637833E+03  0.00000000000E+00 0.  1.
         11    1    3    3    0    0  0.11146284213E+02  0.12137561185E+03  0.34970624744E+03  0.37033868054E+03  0.00000000000E+00 0. -1.
          1    1    1    2  501    0 -0.31841153114E+02  0.77191608199E+02 -0.22838630222E+02  0.86567929618E+02  0.00000000000E+00 0. -1.
<scales pt_clust_5="13000.00000" pt_clust_6="13000.00000" pt_clust_7="13000.00000" pt_clust_8="13000.00000" pt_clust_9="83.50092"></scales>
<clustering>
<clus scale="   78.037">  5  6 -1 -1</clus>
<clus scale="   83.501">  2  9  1 -1</clus>
<clus scale="   91.843">  7  8 -1 -1</clus>
<clus scale="  286.874">  2  5  1 -1</clus>
<clus scale="   83.501">  2  5  1 -1</clus>
</clustering>
</event>
<event>
 9    2  0.4653788E-005  0.1158023E+03  0.7546771E-02  0.1257706E+00
          2   -1    0    0  502    0 -0.00000000000E+00  0.00000000000E+00  0.28700679021E+03  0.28700679021E+03  0.00000000000E+00 0. -1.
         21   -1    0    0  501  502  0.00000000000E+00 -0.00000000000E+00 -0.64120259034E+02  0.64120259034E+02  0.00000000000E+00 0. -1.
         24    2    1    2    0    0  0.76388189032E+02  0.21715505275E+01  0.13111921961E+03  0.17117239890E+03  0.79169876468E+02 0.  0.
         23    2    1    2    0    0 -0.40160927909E+02 -0.14732732418E+02  0.92167410320E+02  0.14160940530E+03  0.98632847515E+02 0.  0.
        -11    1    3    3    0    0  0.48394404393E+02  0.33143598492E+02  0.40151065488E+02  0.71081815940E+02  0.00000000000E+00 0.  1.
         12    1    3    3    0    0  0.27993784638E+02 -0.30972047965E+02  0.90968154119E+02  0.10009058296E+03  0.00000000000E+00 0. -1.
        -13    1    4    4    0    0 -0.55557023916E+02 -0.43378574485E+02  0.42705269542E+02  0.82413734762E+02  0.00000000000E+00 0.  1.
         13    1    4    4    0    0  0.15396096007E+02  0.28645842067E+02  0.49462140778E+02  0.59195670537E+02  0.00000000000E+00 0. -1.
          1    1    1    2  501    0 -0.36227261122E+02  0.12561181890E+02 -0.40009874632E+00  0.38345245050E+02  0.00000000000E+00 0. -1.
<scales pt_clust_5="13000.00000" pt_clust_6="13000.00000" pt_clust_7="13000.00000" pt_clust_8="13000.00000" pt_clust_9="38.34316"></scales>
<clustering>
<clus scale="   38.343">  2  9  1 -1</clus>
<clus scale="   79.170">  5  6 -1 -1</clus>
<clus scale="   98.633">  7  8 -1 -1</clus>
<clus scale="   99.748">  1  5  2 -1</clus>
<clus scale="   38.343">  2  5  1 -1</clus>
</clustering>
</event>
<event>
 9    2  0.4653788E-005  0.2047804E+03  0.7546771E-02  0.1146833E+00
         -1   -1    0    0    0  501 -0.00000000000E+00  0.00000000000E+00  0.10337687417E+03  0.10337687417E+03  0.00000000000E+00 0.  1.
         21   -1    0    0  501  502  0.00000000000E+00 -0.00000000000E+00 -0.78392917585E+03  0.78392917585E+03  0.00000000000E+00 0.  1.
         23    2    1    2    0    0  0.23411586465E+03  0.24634213865E+02 -0.21530313148E+03  0.33195208546E+03  0.91758738246E+02 0.  0.
         24    2    1    2    0    0 -0.10771395412E+03 -0.13176505240E+02 -0.37823579442E+03  0.40147073079E+03  0.79627352708E+02 0.  0.
        -13    1    4    4    0    0 -0.78357902464E+02  0.89147229734E+00 -0.34908830764E+03  0.35777563099E+03  0.00000000000E+00 0.  1.
         14    1    4    4    0    0 -0.29356051653E+02 -0.14067977537E+02 -0.29147486775E+02  0.43695099793E+02  0.00000000000E+00 0. -1.
        -11    1    3    3    0    0  0.12165290927E+03 -0.99717056044E+01 -0.16183910707E+03  0.20270856376E+03  0.00000000000E+00 0.  1.
         11    1    3    3    0    0  0.11246295538E+03  0.34605919470E+02 -0.53464024413E+02  0.12924352170E+03  0.00000000000E+00 0. -1.
         -2    1    1    2    0  502 -0.12640191053E+03 -0.11457708626E+02 -0.87013375781E+02  0.15388323378E+03  0.00000000000E+00 0.  1.
<scales pt_clust_5="13000.00000" pt_clust_6="13000.00000" pt_clust_7="13000.00000" pt_clust_8="13000.00000" pt_clust_9="126.92020"></scales>
<clustering>
<clus scale="   79.627">  5  6 -1 -1</clus>
<clus scale="   91.759">  7  8 -1 -1</clus>
<clus scale="  126.920">  2  9  1 -1</clus>
<clus scale="  199.639">  2  5  1 -1</clus>
<clus scale="  126.920">  2  5  1 -1</clus>
</clustering>
</event>
<event>
 9    2  0.4653788E-005  0.2315000E+03  0.7546771E-02  0.1161672E+00
         -1   -1    0    0    0  501 -0.00000000000E+00  0.00000000000E+00  0.13177602154E+03  0.13177602154E+03  0.00000000000E+00 0.  1.
         21   -1    0    0  501  502  0.00000000000E+00 -0.00000000000E+00 -0.61707195079E+03  0.61707195079E+03  0.00000000000E+00 0.  1.
         23    2    1    2    0    0  0.32486717904E+02  0.51211054058E+01 -0.16115560584E+03  0.18834344184E+03  0.91763338159E+02 0.  0.
         24    2    1    2    0    0  0.19009675537E+03  0.71231563245E+02 -0.18923222079E+03  0.28926049140E+03  0.81560324298E+02 0.  0.
        -11    1    4    4    0    0  0.81641917281E+02  0.42552784168E+01 -0.34367093251E+02  0.88682620339E+02  0.00000000000E+00 0.  1.
         12    1    4    4    0    0  0.10845483808E+03  0.66976284828E+02 -0.15486512754E+03  0.20057787106E+03  0.00000000000E+00 0. -1.
        -13    1    3    3    0    0  0.43374655454E+02  0.24580262906E+02 -0.15817626979E+03  0.16584716575E+03  0.00000000000E+00 0.  1.
         13    1    3    3    0    0 -0.10887937551E+02 -0.19459157501E+02 -0.29793360430E+01  0.22496276092E+02  0.00000000000E+00 0. -1.
         -2    1    1    2    0  502 -0.22258347327E+03 -0.76352668651E+02 -0.13490810262E+03  0.27124403908E+03  0.00000000000E+00 0.  1.
<scales pt_clust_5="13000.00000" pt_clust_6="13000.00000" pt_clust_7="13000.00000" pt_clust_8="13000.00000" pt_clust_9="216.65689"></scales>
<clustering>
<clus scale="   81.560">  5  6 -1 -1</clus>
<clus scale="   91.763">  7  8 -1 -1</clus>
<clus scale="   97.479">  1  7  2 -1</clus>
<clus scale="  216.657">  2  9  1 -1</clus>
<clus scale="  216.657">  2  5  1 -1</clus>
</clustering>
</event>
<event>
 9    2  0.4653788E-005  0.1277112E+03  0.7546771E-02  0.1254211E+00
          2   -1    0    0  502    0 -0.00000000000E+00  0.00000000000E+00  0.80638221322E+03  0.80638221322E+03  0.00000000000E+00 0. -1.
         21   -1    0    0  501  502  0.00000000000E+00 -0.00000000000E+00 -0.10488645264E+03  0.10488645264E+03  0.00000000000E+00 0. -1.
         24    2    1    2    0    0 -0.13034664202E+02  0.13552662765E+02  0.47525354013E+03  0.48188817895E+03  0.77438443082E+02 0.  0.
         23    2    1    2    0    0  0.31839616276E+02  0.73841971468E+02  0.29325069629E+03  0.31765947659E+03  0.91897629357E+02 0.  0.
        -11    1    3    3    0    0 -0.21165680719E+02 -0.18193380073E+02  0.70702870450E+02  0.76012374049E+02  0.00000000000E+00 0.  1.
         12    1    3    3    0    0  0.81310165164E+01  0.31746042838E+02  0.40455066968E+03  0.40587580490E+03  0.00000000000E+00 0. -1.
        -13    1    4    4    0    0  0.32625069068E+02  0.94599038361E+02  0.25824754936E+03  0.27695698211E+03  0.00000000000E+00 0. -1.
         13    1    4    4    0    0 -0.78545279176E+00 -0.20757066893E+02  0.35003146929E+02  0.40702494481E+02  0.00000000000E+00 0.  1.
          1    1    1    2  501    0 -0.18804952073E+02 -0.87394634233E+02 -0.67008475827E+02  0.11172101032E+03  0.00000000000E+00 0. -1.
<scales pt_clust_5="13000.00000" pt_clust_6="13000.00000" pt_clust_7="13000.00000" pt_clust_8="13000.00000" pt_clust_9="88.68468"></scales>
<clustering>
<clus scale="   77.438">  5  6 -1 -1</clus>
<clus scale="   79.689">  1  5  2 -1</clus>
<clus scale="   88.685">  2  9  1 -1</clus>
<clus scale="   91.898">  7  8 -1 -1</clus>
<clus scale="   88.685">  2  5  1 -1</clus>
</clustering>
</event>
<event>
 9    2  0.4653788E-005  0.2960183E+03  0.7546771E-02  0.1130622E+00
          2   -1    0    0  502    0 -0.00000000000E+00  0.00000000000E+00  0.15517293060E+04  0.15517293060E+04  0.00000000000E+00 0. -1.
         21   -1    0    0  501  502  0.00000000000E+00 -0.00000000000E+00 -0.14276538403E+03  0.14276538403E+03  0.00000000000E+00 0. -1.
         23    2    1    2    0    0 -0.35638769748E+02  0.51477325492E+01  0.10801518828E+03  0.14571827681E+03  0.90939068810E+02 0.  0.
         24    2    1    2    0    0  0.17953708618E+03  0.22422603086E+03  0.95679245383E+02  0.31346528308E+03  0.81210143918E+02 0.  0.
        -11    1    4    4    0    0  0.63530951233E+02  0.12191059191E+03  0.13025462472E+02  0.13808706260E+03  0.00000000000E+00 0.  1.
         12    1    4    4    0    0  0.11600613494E+03  0.10231543895E+03  0.82653782912E+02  0.17537822049E+03  0.00000000000E+00 0. -1.
        -11    1    3    3    0    0 -0.35745434714E+02 -0.39325627632E+02  0.54245487952E+02  0.75939542102E+02  0.00000000000E+00 0. -1.
         11    1    3    3    0    0  0.10666496649E+00  0.44473360181E+02  0.53769700330E+02  0.69778734703E+02  0.00000000000E+00 0.  1.
          1    1    1    2  501    0 -0.14389831643E+03 -0.22937376341E+03  0.12052694883E+04  0.12353111301E+04  0.00000000000E+00 0. -1.
<scales pt_clust_5="13000.00000" pt_clust_6="13000.00000" pt_clust_7="13000.00000" pt_clust_8="13000.00000" pt_clust_9="284.66089"></scales>
<clustering>
<clus scale="   81.210">  5  6 -1 -1</clus>
<clus scale="   90.939">  7  8 -1 -1</clus>
<clus scale="   97.809">  1  7  2 -1</clus>
<clus scale="  284.661">  2  9  1 -1</clus>
<clus scale="  284.661">  2  5  1 -1</clus>
</clustering>
</event>
<event>
 9    2  0.4653788E-005  0.2089792E+03  0.7546771E-02  0.1143028E+00
         21   -1    0    0  501  502  0.00000000000E+00  0.00000000000E+00  0.29487902530E+03  0.29487902530E+03  0.00000000000E+00 0. -1.
         -1   -1    0    0    0  501 -0.00000000000E+00 -0.00000000000E+00 -0.18281672557E+03  0.18281672557E+03  0.00000000000E+00 0.  1.
         23    2    1    2    0    0  0.17647822899E+03 -0.45741861173E+02 -0.90285384430E+00  0.20131670039E+03  0.85385686974E+02 0.  0.
         24    2    1    2    0    0 -0.19964019060E+03  0.40107802946E+02  0.72644515449E+02  0.22953918566E+03  0.77111416618E+02 0.  0.
        -13    1    4    4    0    0 -0.12838714314E+03  0.37241947468E+02  0.90410075696E+01  0.13398492823E+03  0.00000000000E+00 0.  1.
         14    1    4    4    0    0 -0.71253047453E+02  0.28658554778E+01  0.63603507880E+02  0.95554257433E+02  0.00000000000E+00 0. -1.
        -11    1    3    3    0    0  0.15166421757E+03 -0.55606333287E+02 -0.27232549879E+02  0.16381608884E+03  0.00000000000E+00 0.  1.
         11    1    3    3    0    0  0.24814011426E+02  0.98644721142E+01  0.26329696034E+02  0.37500611547E+02  0.00000000000E+00 0. -1.
         -2    1    1    2    0  502  0.23161961604E+02  0.56340582271E+01  0.40320638123E+02  0.46839864818E+02  0.00000000000E+00 0.  1.
<scales pt_clust_5="13000.00000" pt_clust_6="13000.00000" pt_clust_7="13000.00000" pt_clust_8="13000.00000" pt_clust_9="23.83735"></scales>
<clustering>
<clus scale="   23.837">  1  9  2 -1</clus>
<clus scale="   77.111">  5  6 -1 -1</clus>
<clus scale="   85.386">  7  8 -1 -1</clus>
<clus scale="  205.737">  1  5  2 -1</clus>
<clus scale="   23.837">  1  5  2 -1</clus>
</clustering>
</event>
<event>
 9    2  0.4653788E-005  0.1005777E+03  0.7546771E-02  0.1284061E+00
         21   -1    0    0  501  502  0.00000000000E+00  0.00000000000E+00  0.59195512785E+02  0.59195512785E+02  0.00000000000E+00 0.  1.
         -3   -1    0    0    0  501 -0.00000000000E+00 -0.00000000000E+00 -0.40331746924E+03  0.40331746924E+03  0.00000000000E+00 0.  1.
         23    2    1    2    0    0 -0.39816398788E+02 -0.20716909058E+02 -0.82442899857E+02  0.13095288791E+03  0.91308768370E+02 0.  0.
         24    2    1    2    0    0 -0.50418551274E+01  0.57953596449E+02 -0.49451003353E+02  0.11147015701E+03  0.81216713344E+02 0.  0.
        -13    1    4    4    0    0  0.92480823198E+01  0.74429558127E+02 -0.49125238799E+02  0.89658101902E+02  0.00000000000E+00 0.  1.
         14    1    4    4    0    0 -0.14289937447E+02 -0.16475961678E+02 -0.32576455373E+00  0.21812055107E+02  0.00000000000E+00 0. -1.
        -11    1    3    3    0    0 -0.61308188597E+02 -0.26823823695E+02 -0.85312147092E+02  0.10842681379E+03  0.00000000000E+00 0.  1.
         11    1    3    3    0    0  0.21491789809E+02  0.61069146364E+01  0.28692472357E+01  0.22526074120E+02  0.00000000000E+00 0. -1.
         -4    1    1    2    0  502  0.44858253916E+02 -0.37236687391E+02 -0.21222805325E+03  0.22008993711E+03  0.00000000000E+00 0.  1.
<scales pt_clust_5="13000.00000" pt_clust_6="13000.00000" pt_clust_7="13000.00000" pt_clust_8="13000.00000" pt_clust_9="58.29955"></scales>
<clustering>
<clus scale="   58.300">  1  9  2 -1</clus>
<clus scale="   81.217">  5  6 -1 -1</clus>
<clus scale="   91.309">  7  8 -1 -1</clus>
<clus scale="   91.514">  1  5  2 -1</clus>
<clus scale="   58.300">  1  5  2 -1</clus>
</clustering>
</event>
<event>
 9    2  0.4653788E-005  0.9788828E+02  0.7546771E-02  0.1292618E+00
         21   -1    0    0  501  502  0.00000000000E+00  0.00000000000E+00  0.46891054175E+03  0.46891054175E+03  0.00000000000E+00 0.  1.
          2   -1    0    0  502    0 -0.00000000000E+00 -0.00000000000E+00 -0.34233247522E+02  0.34233247522E+02  0.00000000000E+00 0. -1.
         23    2    1    2    0    0  0.16828144558E+02  0.24355214122E+02  0.84309396984E+02  0.12867558418E+03  0.92590326926E+02 0.  0.
         24    2    1    2    0    0  0.45172183560E+01 -0.40748546727E+02  0.16535392811E+03  0.18750688651E+03  0.78333017459E+02 0.  0.
        -13    1    4    4    0    0 -0.10455328112E+02 -0.55716581660E+02  0.15260330277E+03  0.16279256548E+03  0.00000000000E+00 0.  1.
         14    1    4    4    0    0  0.14972546468E+02  0.14968034933E+02  0.12750625340E+02  0.24714321032E+02  0.00000000000E+00 0. -1.
        -11    1    3    3    0    0 -0.24850398119E+02  0.34939963329E+02  0.72251170894E+02  0.84015326099E+02  0.00000000000E+00 0.  1.
         11    1    3    3    0    0  0.41678542677E+02 -0.10584749207E+02  0.12058226090E+02  0.44660258081E+02  0.00000000000E+00 0. -1.
          1    1    1    2  501    0 -0.21345362914E+02  0.16393332605E+02  0.18501396913E+03  0.18696131858E+03  0.00000000000E+00 0. -1.
<scales pt_clust_5="13000.00000" pt_clust_6="13000.00000" pt_clust_7="13000.00000" pt_clust_8="13000.00000" pt_clust_9="26.91405"></scales>
<clustering>
<clus scale="   26.914">  1  9  2 -1</clus>
<clus scale="   78.333">  5  6 -1 -1</clus>
<clus scale="   84.529">  1  5  2 -1</clus>
<clus scale="   92.590">  7  8 -1 -1</clus>
<clus scale="   26.914">  1  5  2 -1</clus>
</clustering>
</event>
<event>
 9    2  0.4653788E-005  0.1589462E+03  0.7546771E-02  0.1208004E+00
          2   -1    0    0  502    0 -0.00000000000E+00  0.00000000000E+00  0.92644249923E+03  0.92644249923E+03  0.00000000000E+00 0. -1.
         21   -1    0    0  501  502  0.00000000000E+00 -0.00000000000E+00 -0.50105735688E+02  0.50105735688E+02  0.00000000000E+00 0. -1.
         23    2    1    2    0    0 -0.54245161458E+02 -0.75559481165E+01  0.11714086587E+03  0.15877066870E+03  0.92122271408E+02 0.  0.
         24    2    1    2    0    0  0.68682025229E+01  0.13902356665E+03  0.34741066244E+03  0.38292656769E+03  0.81017674478E+02 0.  0.
        -11    1    4    4    0    0  0.56699173539E-02  0.23142865582E+02  0.84466138554E+01  0.24636102474E+02  0.00000000000E+00 0.  1.
         12    1    4    4    0    0  0.68625326055E+01  0.11588070107E+03  0.33896404859E+03  0.35829046522E+03  0.00000000000E+00 0. -1.
        -13    1    3    3    0    0 -0.48205282145E+02  0.14461572680E+02  0.12757357815E+02  0.51919519349E+02  0.00000000000E+00 0. -1.
         13    1    3    3    0    0 -0.60398793133E+01 -0.22017520796E+02  0.10438350805E+03  0.10685114935E+03  0.00000000000E+00 0.  1.
          1    1    1    2  501    0  0.47376958935E+02 -0.13146761854E+03  0.41178523524E+03  0.43485099853E+03  0.00000000000E+00 0. -1.
<scales pt_clust_5="13000.00000" pt_clust_6="13000.00000" pt_clust_7="13000.00000" pt_clust_8="13000.00000" pt_clust_9="136.74810"></scales>
<clustering>
<clus scale="   81.018">  5  6 -1 -1</clus>
<clus scale="   92.122">  7  8 -1 -1</clus>
<clus scale="  107.173">  1  7  2 -1</clus>
<clus scale="  136.748">  2  9  1 -1</clus>
<clus scale="  136.748">  2  5  1 -1</clus>
</clustering>
</event>
<event>
 9    2  0.4653788E-005  0.1653094E+03  0.7546771E-02  0.1185056E+00
          2   -1    0    0  502    0 -0.00000000000E+00  0.00000000000E+00  0.73377477436E+03  0.73377477436E+03  0.00000000000E+00 0. -1.
         21   -1    0    0  501  502  0.00000000000E+00 -0.00000000000E+00 -0.89693944028E+02  0.89693944028E+02  0.00000000000E+00 0. -1.
         23    2    1    2    0    0 -0.15526822087E+03 -0.95624127228E+01  0.56445565299E+03  0.59286375585E+03  0.93153575654E+02 0.  0.
         24    2    1    2    0    0  0.98333430200E+02 -0.90328936620E+00  0.10848391470E+03  0.16592167235E+03  0.78044616597E+02 0.  0.
        -13    1    4    4    0    0  0.10034519041E+03 -0.21914852197E+02  0.99431750668E+02  0.14295485660E+03  0.00000000000E+00 0.  1.
         14    1    4    4    0    0 -0.20117602121E+01  0.21011562831E+02  0.90521640279E+01  0.22966815742E+02  0.00000000000E+00 0. -1.
        -13    1    3    3    0    0 -0.81440591479E+02  0.34506516616E+02  0.20498474072E+03  0.22325324983E+03  0.00000000000E+00 0. -1.
         13    1    3    3    0    0 -0.73827629386E+02 -0.44068929339E+02  0.35947091227E+03  0.36961050602E+03  0.00000000000E+00 0.  1.
          1    1    1    2  501    0  0.56934790665E+02  0.10465702089E+02 -0.28858737357E+02  0.64683290192E+02  0.00000000000E+00 0. -1.
<scales pt_clust_5="13000.00000" pt_clust_6="13000.00000" pt_clust_7="13000.00000" pt_clust_8="13000.00000" pt_clust_9="57.88870"></scales>
<clustering>
<clus scale="   57.889">  2  9  1 -1</clus>
<clus scale="   78.045">  5  6 -1 -1</clus>
<clus scale="   93.154">  7  8 -1 -1</clus>
<clus scale="  157.291">  2  5  1 -1</clus>
<clus scale="   57.889">  2  5  1 -1</clus>
</clustering>
</event>
<event>
 9    2  0.4653788E-005  0.1202677E+03  0.7546771E-02  0.1244853E+00
         21   -1    0    0  501  502  0.00000000000E+00  0.00000000000E+00  0.11972677316E+03  0.11972677316E+03  0.00000000000E+00 0. -1.
          4   -1    0    0  502    0 -0.00000000000E+00 -0.00000000000E+00 -0.57147225432E+03  0.57147225432E+03  0.00000000000E+00 0. -1.
         23    2    1    2    0    0 -0.56664677046E+02 -0.58298419763E+02 -0.41050315254E+03  0.42781148998E+03  0.88883301789E+02 0.  0.
         24    2    1    2    0    0  0.73271192639E+02  0.39228620099E+02 -0.12795168806E+03  0.17306618546E+03  0.81686704957E+02 0.  0.
        -13    1    4    4    0    0  0.10562156147E+02  0.50862327526E+02 -0.67644911338E+02  0.85289914608E+02  0.00000000000E+00 0.  1.
         14    1    4    4    0    0  0.62709036491E+02 -0.11633707427E+02 -0.60306776722E+02  0.87776270853E+02  0.00000000000E+00 0. -1.
        -13    1    3    3    0    0 -0.77286437997E+02 -0.30154184812E+02 -0.24481527038E+03  0.25848981599E+03  0.00000000000E+00 0. -1.
         13    1    3    3    0    0  0.20621760950E+02 -0.28144234951E+02 -0.16568788216E+03  0.16932167399E+03  0.00000000000E+00 0.  1.
          3    1    1    2  501    0 -0.16606515593E+02  0.19069799664E+02  0.86709359442E+02  0.90321352039E+02  0.00000000000E+00 0. -1.
<scales pt_clust_5="13000.00000" pt_clust_6="13000.00000" pt_clust_7="13000.00000" pt_clust_8="13000.00000" pt_clust_9="25.28702"></scales>
<clustering>
<clus scale="   25.287">  1  9  2 -1</clus>
<clus scale="   81.687">  5  6 -1 -1</clus>
<clus scale="   88.883">  7  8 -1 -1</clus>
<clus scale="  115.051">  1  5  2 -1</clus>
<clus scale="   25.287">  1  5  2 -1</clus>
</clustering>
</event>
<event>
 9    2  0.4653788E-005  0.9028955E+02  0.7546771E-02  0.1307779E+00
         -1   -1    0    0    0  501 -0.00000000000E+00  0.00000000000E+00  0.26218760607E+03  0.26218760607E+03  0.00000000000E+00 0.  1.
         21   -1    0    0  501  502  0.00000000000E+00 -0.00000000000E+00 -0.65606436757E+02  0.65606436757E+02  0.00000000000E+00 0. -1.
         24    2    1    2    0    0 -0.38627926502E+01  0.97517372524E+01  0.14625938032E+03  0.16675594518E+03  0.79408572419E+02 0.  0.
         23    2    1    2    0    0  0.49560294149E+02 -0.98788562706E+01  0.53818611743E+02  0.11520682479E+03  0.88444078099E+02 0.  0.
        -13    1    3    3    0    0  0.21647289951E+02  0.33309439254E+02  0.46677167833E+02  0.61293408312E+02  0.00000000000E+00 0.  1.
         14    1    3    3    0    0 -0.25510082601E+02 -0.23557702002E+02  0.99582212492E+02  0.10546253687E+03  0.00000000000E+00 0. -1.
        -13    1    4    4    0    0 -0.40625260949E+01 -0.37002707524E+02  0.37719948800E+02  0.52995273561E+02  0.00000000000E+00 0.  1.
         13    1    4    4    0    0  0.53622820244E+02  0.27123851253E+02  0.16098662943E+02  0.62211551228E+02  0.00000000000E+00 0. -1.
         -2    1    1    2    0  502 -0.45697501498E+02  0.12711901823E+00 -0.34968227542E+01  0.45831272858E+02  0.00000000000E+00 0.  1.
<scales pt_clust_5="13000.00000" pt_clust_6="13000.00000" pt_clust_7="13000.00000" pt_clust_8="13000.00000" pt_clust_9="45.69768"></scales>
<clustering>
<clus scale="   45.698">  2  9  1 -1</clus>
<clus scale="   79.409">  5  6 -1 -1</clus>
<clus scale="   81.459">  1  5  2 -1</clus>
<clus scale="   88.444">  7  8 -1 -1</clus>
<clus scale="   45.698">  2  5  1 -1</clus>
</clustering>
</event>
<event>
 9    2  0.4653788E-005  0.9853571E+02  0.7546771E-02  0.1288490E+00
         -1   -1    0    0    0  501 -0.00000000000E+00  0.00000000000E+00  0.10395942157E+03  0.10395942157E+03  0.00000000000E+00 0.  1.
         21   -1    0    0  501  502  0.00000000000E+00 -0.00000000000E+00 -0.17138544690E+03  0.17138544690E+03  0.00000000000E+00 0.  1.
         24    2    1    2    0    0  0.25941085299E+02  0.44128422868E+02 -0.92072749851E+01  0.96252947538E+02  0.80991347598E+02 0.  0.
         23    2    1    2    0    0  0.94985150886E+01 -0.17817269608E+02 -0.86183206762E+02  0.12684009911E+03  0.90847062299E+02 0.  0.
        -13    1    3    3    0    0  0.20486900213E+02  0.60972683061E+02  0.15205867123E+02  0.66095382252E+02  0.00000000000E+00 0.  1.
         14    1    3    3    0    0  0.54541850862E+01 -0.16844260193E+02 -0.24413142109E+02  0.30157565287E+02  0.00000000000E+00 0. -1.
        -13    1    4    4    0    0 -0.37916588735E+02 -0.15339159503E+02 -0.60012175974E+02  0.72625193842E+02  0.00000000000E+00 0.  1.
         13    1    4    4    0    0  0.47415103823E+02 -0.24781101052E+01 -0.26171030788E+02  0.54214905264E+02  0.00000000000E+00 0. -1.
         -2    1    1    2    0  502 -0.35439600388E+02 -0.26311153260E+02  0.27964456414E+02  0.52251821826E+02  0.00000000000E+00 0.  1.
<scales pt_clust_5="13000.00000" pt_clust_6="13000.00000" pt_clust_7="13000.00000" pt_clust_8="13000.00000" pt_clust_9="44.13892"></scales>
<clustering>
<clus scale="   44.139">  2  9  1 -1</clus>
<clus scale="   80.991">  5  6 -1 -1</clus>
<clus scale="   89.530">  1  5  2 -1</clus>
<clus scale="   90.847">  7  8 -1 -1</clus>
<clus scale="   44.139">  2  5  1 -1</clus>
</clustering>
</event>
<event>
 9    2  0.4653788E-005  0.1238070E+03  0.7546771E-02  0.1241415E+00
         -3   -1    0    0    0  501 -0.00000000000E+00  0.00000000000E+00  0.53387928175E+03  0.53387928175E+03  0.00000000000E+00 0.  1.
         21   -1    0    0  501  502  0.00000000000E+00 -0.00000000000E+00 -0.28663211470E+03  0.28663211470E+03  0.00000000000E+00 0.  1.
         23    2    1    2    0    0 -0.65231486014E+02  0.46810615305E+02  0.50328227058E+03  0.51820685392E+03  0.93802553791E+02 0.  0.
         24    2    1    2    0    0  0.71064272723E+02 -0.70212340909E+02 -0.24421004993E+03  0.27544390116E+03  0.79062573483E+02 0.  0.
        -13    1    4    4    0    0  0.37729044775E+02 -0.68432670835E+02 -0.22198970133E+03  0.23534217377E+03  0.00000000000E+00 0.  1.
         14    1    4    4    0    0  0.33335227948E+02 -0.17796700748E+01 -0.22220348599E+02  0.40101727391E+02  0.00000000000E+00 0. -1.
        -13    1    3    3    0    0 -0.63222930431E+02 -0.64580478667E+01  0.18803085204E+03  0.19848034319E+03  0.00000000000E+00 0. -1.
         13    1    3    3    0    0 -0.20085555823E+01  0.53268663172E+02  0.31525141854E+03  0.31972651073E+03  0.00000000000E+00 0.  1.
         -4    1    1    2    0  502 -0.58327867090E+01  0.23401725604E+02 -0.11825053600E+02  0.26860641368E+02  0.00000000000E+00 0.  1.
<scales pt_clust_5="13000.00000" pt_clust_6="13000.00000" pt_clust_7="13000.00000" pt_clust_8="13000.00000" pt_clust_9="24.11767"></scales>
<clustering>
<clus scale="   24.118">  2  9  1 -1</clus>
<clus scale="   79.063">  5  6 -1 -1</clus>
<clus scale="   93.803">  7  8 -1 -1</clus>
<clus scale="  113.049">  2  5  1 -1</clus>
<clus scale="   24.118">  2  5  1 -1</clus>
</clustering>
</event>
<event>
 9    2  0.4653788E-005  0.1336816E+03  0.7546771E-02  0.1225047E+00
         21   -1    0    0  501  502  0.00000000000E+00  0.00000000000E+00  0.41797529993E+02  0.41797529993E+02  0.00000000000E+00 0. -1.
          2   -1    0    0  502    0 -0.00000000000E+00 -0.00000000000E+00 -0.94873248418E+03  0.94873248418E+03  0.00000000000E+00 0. -1.
         24    2    1    2    0    0 -0.69140004246E+02  0.24930001464E+02 -0.31239691073E+03  0.33060558237E+03  0.79412694817E+02 0.  0.
         23    2    1    2    0    0  0.14793630089E+03  0.33436993907E+02 -0.46393234695E+03  0.49660446832E+03  0.91540120839E+02 0.  0.
        -11    1    3    3    0    0 -0.18131538311E+02 -0.23503296845E+02 -0.43515296835E+02  0.52675788582E+02  0.00000000000E+00 0.  1.
         12    1    3    3    0    0 -0.51008465935E+02  0.48433298309E+02 -0.26888161390E+03  0.27792979379E+03  0.00000000000E+00 0. -1.
        -11    1    4    4    0    0  0.73110247352E+02  0.12952533874E+02 -0.35613923064E+03  0.36379668498E+03  0.00000000000E+00 0.  1.
         11    1    4    4    0    0  0.74826053538E+02  0.20484460033E+02 -0.10779311631E+03  0.13280778333E+03  0.00000000000E+00 0. -1.
          1    1    1    2  501    0 -0.78796296644E+02 -0.58366995371E+02 -0.13060569650E+03  0.16331996348E+03  0.00000000000E+00 0. -1.
<scales pt_clust_5="13000.00000" pt_clust_6="13000.00000" pt_clust_7="13000.00000" pt_clust_8="13000.00000" pt_clust_9="98.05897"></scales>
<clustering>
<clus scale="   79.413">  5  6 -1 -1</clus>
<clus scale="   91.540">  7  8 -1 -1</clus>
<clus scale="   98.059">  1  9  2 -1</clus>
<clus scale="  125.688">  2  5  1 -1</clus>
<clus scale="   98.059">  1  5  2 -1</clus>
</clustering>
</event>
<event>
 9    2  0.4653788E-005  0.1263629E+03  0.7546771E-02  0.1252508E+00
         21   -1    0    0  501  502  0.00000000000E+00  0.00000000000E+00  0.48981647684E+03  0.48981647684E+03  0.00000000000E+00 0.  1.
         -1   -1    0    0    0  501 -0.00000000000E+00 -0.00000000000E+00 -0.11182683365E+03  0.11182683365E+03  0.00000000000E+00 0.  1.
         24    2    1    2    0    0 -0.10992826646E+02  0.26141990156E+02  0.28285516970E+03  0.29537862776E+03  0.80232417527E+02 0.  0.
         23    2    1    2    0    0 -0.77959905764E+02 -0.35059984569E+02 -0.51491449417E+02  0.13453442769E+03  0.90228562253E+02 0.  0.
        -13    1    3    3    0    0 -0.19765870664E+02 -0.25315242384E+02  0.12773775784E+03  0.13171365122E+03  0.00000000000E+00 0.  1.
         14    1    3    3    0    0  0.87730440181E+01  0.51457232540E+02  0.15511741186E+03  0.16366497653E+03  0.00000000000E+00 0. -1.
        -13    1    4    4    0    0 -0.64319872767E+02  0.20051911415E+02 -0.31150207626E+02  0.74225740948E+02  0.00000000000E+00 0.  1.
         13    1    4    4    0    0 -0.13640032997E+02 -0.55111895984E+02 -0.20341241791E+02  0.60308686743E+02  0.00000000000E+00 0. -1.
         -2    1    1    2    0  502  0.88952732410E+02  0.89179944129E+01  0.14662592291E+03  0.17173025504E+03  0.00000000000E+00 0.  1.
<scales pt_clust_5="13000.00000" pt_clust_6="13000.00000" pt_clust_7="13000.00000" pt_clust_8="13000.00000" pt_clust_9="88.46690"></scales>
<clustering>
<clus scale="   80.232">  5  6 -1 -1</clus>
<clus scale="   85.097">  2  5  1 -1</clus>
<clus scale="   88.467">  1  9  2 -1</clus>
<clus scale="   90.229">  7  8 -1 -1</clus>
<clus scale="   88.467">  1  5  2 -1</clus>
</clustering>
</event>
<event>
 9    2  0.4653788E-005  0.9293922E+02  0.7546771E-02  0.1301717E+00
          2   -1    0    0  502    0 -0.00000000000E+00  0.00000000000E+00  0.28285317908E+03  0.28285317908E+03  0.00000000000E+00 0. -1.
         21   -1    0    0  501  502  0.00000000000E+00 -0.00000000000E+00 -0.57037910639E+02  0.57037910639E+02  0.00000000000E+00 0.  1.
         23    2    1    2    0    0  0.22826453239E+02 -0.17477018853E+02  0.19560362267E+03  0.21727822138E+03  0.90125219157E+02 0.  0.
         24    2    1    2    0    0 -0.15230590748E+02 -0.17034344498E+02  0.21646767018E+02  0.86252333753E+02  0.80304064458E+02 0.  0.
        -13    1    4    4    0    0 -0.84988192508E+01  0.24093682634E+02 -0.15954701420E+02  0.30121221239E+02  0.00000000000E+00 0.  1.
         14    1    4    4    0    0 -0.67317714969E+01 -0.41128027132E+02  0.37601468438E+02  0.56131112513E+02  0.00000000000E+00 0. -1.
        -13    1    3    3    0    0  0.43713251158E+02  0.13430335892E+02  0.15729618088E+03  0.16380876280E+03  0.00000000000E+00 0. -1.
         13    1    3    3    0    0 -0.20886797919E+02 -0.30907354745E+02  0.38307441790E+02  0.53469458583E+02  0.00000000000E+00 0.  1.
          1    1    1    2  501    0 -0.75958624914E+01  0.34511363351E+02  0.85648787485E+01  0.36360534585E+02  0.00000000000E+00 0. -1.
<scales pt_clust_5="13000.00000" pt_clust_6="13000.00000" pt_clust_7="13000.00000" pt_clust_8="13000.00000" pt_clust_9="35.33739"></scales>
<clustering>
<clus scale="   35.337">  2  9  1 -1</clus>
<clus scale="   80.304">  5  6 -1 -1</clus>
<clus scale="   83.450">  2  5  1 -1</clus>
<clus scale="   90.125">  7  8 -1 -1</clus>
<clus scale="   35.337">  2  5  1 -1</clus>
</clustering>
</event>
<event>
 9    2  0.4653788E-005  0.8649235E+02  0.7546771E-02  0.1313001E+00
         21   -1    0    0  501  502  0.00000000000E+00  0.00000000000E+00  0.57782910838E+02  0.57782910838E+02  0.00000000000E+00 0.  1.
          2   -1    0    0  502    0 -0.00000000000E+00 -0.00000000000E+00 -0.30858411074E+03  0.30858411074E+03  0.00000000000E+00 0. -1.
         23    2    1    2    0    0 -0.40547610184E+01 -0.12687117845E+01 -0.23706052383E+03  0.25229016255E+03  0.86224030561E+02 0.  0.
         24    2    1    2    0    0  0.17490300160E+02 -0.15102367185E+02 -0.24231685323E+02  0.90442409297E+02  0.84015848098E+02 0.  0.
        -13    1    4    4    0    0 -0.84152340050E+00 -0.46291124972E+02 -0.27939234713E+02  0.54075662263E+02  0.00000000000E+00 0.  1.
         14    1    4    4    0    0  0.18331823560E+02  0.31188757787E+02  0.37075493904E+01  0.36366747034E+02  0.00000000000E+00 0. -1.
        -13    1    3    3    0    0  0.18063763248E+02 -0.36017239258E+02 -0.75705685710E+02  0.85760666481E+02  0.00000000000E+00 0.  1.
         13    1    3    3    0    0 -0.22118524267E+02  0.34748527474E+02 -0.16135483812E+03  0.16652949607E+03  0.00000000000E+00 0. -1.
          1    1    1    2  501    0 -0.13435539141E+02  0.16371078969E+02  0.10491009253E+02  0.23634449725E+02  0.00000000000E+00 0. -1.
<scales pt_clust_5="13000.00000" pt_clust_6="13000.00000" pt_clust_7="13000.00000" pt_clust_8="13000.00000" pt_clust_9="21.17843"></scales>
<clustering>
<clus scale="   21.178">  1  9  2 -1</clus>
<clus scale="   84.016">  5  6 -1 -1</clus>
<clus scale="   84.291">  1  5  2 -1</clus>
<clus scale="   86.224">  7  8 -1 -1</clus>
<clus scale="   21.178">  1  5  2 -1</clus>
</clustering>
</event>
<event>
 9    2  0.4653788E-005  0.1044951E+03  0.7546771E-02  0.1275163E+00
         21   -1    0    0  501  502  0.00000000000E+00  0.00000000000E+00  0.19097285396E+03  0.19097285396E+03  0.00000000000E+00 0. -1.
          2   -1    0    0  502    0 -0.00000000000E+00 -0.00000000000E+00 -0.25922588831E+03  0.25922588831E+03  0.00000000000E+00 0. -1.
         24    2    1    2    0    0  0.24923669476E+02 -0.40973129458E+02 -0.13365897182E+03  0.16288688582E+03  0.79796179026E+02 0.  0.
         23    2    1    2    0    0 -0.22755236818E+02  0.64490915635E+02 -0.81332673965E+02  0.13868477798E+03  0.89115569841E+02 0.  0.
        -11    1    3    3    0    0 -0.23573630854E+02  0.72328595538E+00 -0.14604269659E+02  0.27740293915E+02  0.00000000000E+00 0.  1.
         12    1    3    3    0    0  0.48497300330E+02 -0.41696415413E+02 -0.11905470216E+03  0.13514659190E+03  0.00000000000E+00 0. -1.
        -13    1    4    4    0    0 -0.50533424073E+02  0.53220364825E+02 -0.30092141829E+02  0.79319424988E+02  0.00000000000E+00 0.  1.
         13    1    4    4    0    0  0.27778187255E+02  0.11270550810E+02 -0.51240532136E+02  0.59365352996E+02  0.00000000000E+00 0. -1.
          1    1    1    2  501    0 -0.21684326581E+01 -0.23517786177E+02  0.14673861143E+03  0.14862707846E+03  0.00000000000E+00 0. -1.
<scales pt_clust_5="13000.00000" pt_clust_6="13000.00000" pt_clust_7="13000.00000" pt_clust_8="13000.00000" pt_clust_9="23.61754"></scales>
<clustering>
<clus scale="   23.618">  1  9  2 -1</clus>
<clus scale="   79.796">  5  6 -1 -1</clus>
<clus scale="   89.116">  7  8 -1 -1</clus>
<clus scale="   96.670">  2  5  1 -1</clus>
<clus scale="   23.618">  1  5  2 -1</clus>
</clustering>
</event>
<event>
 9    2  0.4653788E-005  0.9339467E+02  0.7546771E-02  0.1298870E+00
         21   -1    0    0  501  502  0.00000000000E+00  0.00000000000E+00  0.27155376603E+03  0.27155376603E+03  0.00000000000E+00 0.  1.
         -1   -1    0    0    0  501 -0.00000000000E+00 -0.00000000000E+00 -0.95068775407E+02  0.95068775407E+02  0.00000000000E+00 0.  1.
         24    2    1    2    0    0  0.22445770963E+02 -0.42363184406E+01 -0.20988532309E+02  0.91070616480E+02  0.85624644055E+02 0.  0.
         23    2    1    2    0    0  0.15352376048E+01 -0.10338467075E+02  0.19069952051E+02  0.94954728832E+02  0.92431036998E+02 0.  0.
        -11    1    3    3    0    0 -0.62811197466E+01  0.32945974849E+02 -0.27838033461E+02  0.43587220960E+02  0.00000000000E+00 0.  1.
         12    1    3    3    0    0  0.28726890709E+02 -0.37182293290E+02  0.68495011526E+01  0.47483395520E+02  0.00000000000E+00 0. -1.
        -11    1    4    4    0    0  0.39090477485E+02  0.15980851100E+02 -0.60562005440E+01  0.42662988607E+02  0.00000000000E+00 0. -1.
         11    1    4    4    0    0 -0.37555239880E+02 -0.26319318174E+02  0.25126152595E+02  0.52291740225E+02  0.00000000000E+00 0.  1.
         -2    1    1    2    0  502 -0.23981008568E+02  0.14574785515E+02  0.17840357088E+03  0.18059719613E+03  0.00000000000E+00 0.  1.
<scales pt_clust_5="13000.00000" pt_clust_6="13000.00000" pt_clust_7="13000.00000" pt_clust_8="13000.00000" pt_clust_9="28.06266"></scales>
<clustering>
<clus scale="   28.063">  1  9  2 -1</clus>
<clus scale="   85.625">  5  6 -1 -1</clus>
<clus scale="   86.664">  2  5  1 -1</clus>
<clus scale="   92.431">  7  8 -1 -1</clus>
<clus scale="   28.063">  1  5  2 -1</clus>
</clustering>
</event>
<event>
 9    2  0.4653788E-005  0.1025905E+03  0.7546771E-02  0.1276077E+00
         -1   -1    0    0    0  501 -0.00000000000E+00  0.00000000000E+00  0.18901059169E+02  0.18901059169E+02  0.00000000000E+00 0.  1.
         21   -1    0    0  501  502  0.00000000000E+00 -0.00000000000E+00 -0.77590702757E+03  0.77590702757E+03  0.00000000000E+00 0. -1.
         23    2    1    2    0    0  0.26144352696E+02 -0.34809441991E+02 -0.23024669556E+03  0.25031529746E+03  0.88028307363E+02 0.  0.
         24    2    1    2    0    0 -0.47299934938E+02  0.35889892842E+02 -0.49211903685E+03  0.50388894730E+03  0.90540358539E+02 0.  0.
        -13    1    4    4    0    0 -0.29876794216E+02  0.40099490050E+02 -0.10442431026E+03  0.11578008684E+03  0.00000000000E+00 0.  1.
         14    1    4    4    0    0 -0.17423140723E+02 -0.42095972076E+01 -0.38769472659E+03  0.38810886046E+03  0.00000000000E+00 0. -1.
        -11    1    3    3    0    0  0.37196408136E+02  0.17897223606E+02 -0.13165642795E+03  0.13797571675E+03  0.00000000000E+00 0.  1.
         11    1    3    3    0    0 -0.11052055440E+02 -0.52706665597E+02 -0.98590267609E+02  0.11233958071E+03  0.00000000000E+00 0. -1.
         -2    1    1    2    0  502  0.21155582242E+02 -0.10804508515E+01 -0.34640235988E+02  0.40603841978E+02  0.00000000000E+00 0.  1.
<scales pt_clust_5="13000.00000" pt_clust_6="13000.00000" pt_clust_7="13000.00000" pt_clust_8="13000.00000" pt_clust_9="21.18317"></scales>
<clustering>
<clus scale="   21.183">  2  9  1 -1</clus>
<clus scale="   88.028">  7  8 -1 -1</clus>
<clus scale="   90.540">  5  6 -1 -1</clus>
<clus scale="  100.380">  1  7  2 -1</clus>
<clus scale="   21.183">  2  5  1 -1</clus>
</clustering>
</event>
<event>
 9    2  0.4653788E-005  0.9280854E+02  0.7546771E-02  0.1302902E+00
         -3   -1    0    0    0  501 -0.00000000000E+00  0.00000000000E+00  0.22674476957E+03  0.22674476957E+03  0.00000000000E+00 0.  1.
         21   -1    0    0  501  502  0.00000000000E+00 -0.00000000000E+00 -0.70166194486E+02  0.70166194486E+02  0.00000000000E+00 0. -1.
         23    2    1    2    0    0 -0.10857989901E+01 -0.22700441318E+02  0.13516369525E+03  0.16442404439E+03  0.90827049195E+02 0.  0.
         24    2    1    2    0    0  0.30413281343E+02  0.13121066266E-01 -0.71952762941E+01  0.85653632837E+02  0.79748385331E+02 0.  0.
        -13    1    4    4    0    0  0.21223154823E+02  0.28284726253E+02  0.23863712464E+02  0.42660576794E+02  0.00000000000E+00 0.  1.
         14    1    4    4    0    0  0.91901265201E+01 -0.28271605186E+02 -0.31058988758E+02  0.42993056043E+02  0.00000000000E+00 0. -1.
        -11    1    3    3    0    0  0.80685365378E+00 -0.47918116766E+02  0.13008263603E+03  0.13863004408E+03  0.00000000000E+00 0. -1.
         11    1    3    3    0    0 -0.18926526438E+01  0.25217675448E+02  0.50810592202E+01  0.25794000307E+02  0.00000000000E+00 0.  1.
         -4    1    1    2    0  502 -0.29327482353E+02  0.22687320252E+02  0.28610156131E+02  0.46833286829E+02  0.00000000000E+00 0.  1.
<scales pt_clust_5="13000.00000" pt_clust_6="13000.00000" pt_clust_7="13000.00000" pt_clust_8="13000.00000" pt_clust_9="37.07853"></scales>
<clustering>
<clus scale="   37.079">  2  9  1 -1</clus>
<clus scale="   79.748">  5  6 -1 -1</clus>
<clus scale="   81.998">  2  5  1 -1</clus>
<clus scale="   90.827">  7  8 -1 -1</clus>
<clus scale="   37.079">  2  5  1 -1</clus>
</clustering>
</event>
<event>
 9    2  0.4653788E-005  0.1621509E+03  0.7546771E-02  0.1187865E+00
          2   -1    0    0  502    0 -0.00000000000E+00  0.00000000000E+00  0.92206449937E+03  0.92206449937E+03  0.00000000000E+00 0. -1.
         21   -1    0    0  501  502  0.00000000000E+00 -0.00000000000E+00 -0.50187196993E+02  0.50187196993E+02  0.00000000000E+00 0.  1.
         23    2    1    2    0    0  0.59253454577E+02 -0.99970146855E+02  0.43515525190E+03  0.45933652930E+03  0.90138514257E+02 0.  0.
         24    2    1    2    0    0 -0.69223496960E+02  0.16821244238E+03  0.29980018100E+03  0.35960498806E+03  0.79676098088E+02 0.  0.
        -13    1    4    4    0    0  0.97137028633E+01  0.47502990592E+02  0.11778106116E+03  0.12737059514E+03  0.00000000000E+00 0.  1.
         14    1    4    4    0    0 -0.78937199823E+02  0.12070945179E+03  0.18201911984E+03  0.23223439292E+03  0.00000000000E+00 0. -1.
        -13    1    3    3    0    0  0.72561785734E+02 -0.59800832667E+02  0.36910442875E+03  0.38089293989E+03  0.00000000000E+00 0. -1.
         13    1    3    3    0    0 -0.13308331156E+02 -0.40169314189E+02  0.66050823147E+02  0.78443589406E+02  0.00000000000E+00 0.  1.
          1    1    1    2  501    0  0.99700423827E+01 -0.68242295529E+02  0.13692186948E+03  0.15331017901E+03  0.00000000000E+00 0. -1.
<scales pt_clust_5="13000.00000" pt_clust_6="13000.00000" pt_clust_7="13000.00000" pt_clust_8="13000.00000" pt_clust_9="68.96675"></scales>
<clustering>
<clus scale="   68.967">  2  9  1 -1</clus>
<clus scale="   79.676">  5  6 -1 -1</clus>
<clus scale="   90.139">  7  8 -1 -1</clus>
<clus scale="  156.577">  2  5  1 -1</clus>
<clus scale="   68.967">  2  5  1 -1</clus>
</clustering>
</event>
<event>
 9    2  0.5583552E-005  0.8433419E+02  0.7546771E-02  0.1325430E+00
         -3   -1    0    0    0  501 -0.00000000000E+00  0.00000000000E+00  0.25719099758E+03  0.25719099758E+03  0.00000000000E+00 0.  1.
         21   -1    0    0  501  502  0.00000000000E+00 -0.00000000000E+00 -0.52656388050E+02  0.52656388050E+02  0.00000000000E+00 0. -1.
         23    2    1    2    0    0 -0.41851252635E+01  0.33375062450E+02  0.48522978569E+02  0.90546952278E+02  0.68650280777E+02 0.  0.
         24    2    1    2    0    0 -0.20981453139E+02 -0.94751280838E+01  0.30955160810E+02  0.89517213105E+02  0.80778153192E+02 0.  0.
        -13    1    4    4    0    0 -0.25799268932E+02 -0.79845217481E+00  0.56497531873E+02  0.62114498397E+02  0.00000000000E+00 0.  1.
         14    1    4    4    0    0  0.48178157932E+01 -0.86766759090E+01 -0.25542371063E+02  0.27402714708E+02  0.00000000000E+00 0. -1.
        -11    1    3    3    0    0  0.16423221035E+02 -0.12938090562E+02  0.79498884719E+00  0.20922437330E+02  0.00000000000E+00 0.  1.
         11    1    3    3    0    0 -0.20608346298E+02  0.46313153011E+02  0.47727989722E+02  0.69624514949E+02  0.00000000000E+00 0. -1.
         -4    1    1    2    0  502  0.25166578403E+02 -0.23899934366E+02  0.12505647015E+03  0.12978322025E+03  0.00000000000E+00 0.  1.
<scales pt_clust_5="13000.00000" pt_clust_6="13000.00000" pt_clust_7="13000.00000" pt_clust_8="13000.00000" pt_clust_9="34.70684"></scales>
<clustering>
<clus scale="   34.707">  2  9  1 -1</clus>
<clus scale="   68.650">  7  8 -1 -1</clus>
<clus scale="   72.801">  1  7  2 -1</clus>
<clus scale="   80.778">  5  6 -1 -1</clus>
<clus scale="   34.707">  2  5  1 -1</clus>
</clustering>
</event>
<event>
 9    2  0.4653788E-005  0.9261665E+02  0.7546771E-02  0.1297958E+00
         21   -1    0    0  501  502  0.00000000000E+00  0.00000000000E+00  0.24190200596E+03  0.24190200596E+03  0.00000000000E+00 0. -1.
          4   -1    0    0  502    0 -0.00000000000E+00 -0.00000000000E+00 -0.70242471389E+02  0.70242471389E+02  0.00000000000E+00 0. -1.
         24    2    1    2    0    0 -0.32143720941E+02 -0.21293621115E+02 -0.67674983145E+01  0.89802117913E+02  0.80820691980E+02 0.  0.
         23    2    1    2    0    0  0.53737197083E+02 -0.17778831937E+01  0.11783379209E+03  0.15400413182E+03  0.83316401996E+02 0.  0.
        -11    1    3    3    0    0 -0.45455128711E+01  0.30509220266E+02 -0.27820329096E+01  0.30971178789E+02  0.00000000000E+00 0.  1.
         12    1    3    3    0    0 -0.27598208070E+02 -0.51802841380E+02 -0.39854654049E+01  0.58830939124E+02  0.00000000000E+00 0. -1.
        -11    1    4    4    0    0  0.47925218848E+02 -0.38511388313E+02  0.80669108477E+02  0.10142711025E+03  0.00000000000E+00 0. -1.
         11    1    4    4    0    0  0.58119782344E+01  0.36733505120E+02  0.37164683614E+02  0.52577021573E+02  0.00000000000E+00 0.  1.
          3    1    1    2  501    0 -0.21593476142E+02  0.23071504308E+02  0.60593240794E+02  0.68338227610E+02  0.00000000000E+00 0. -1.
<scales pt_clust_5="13000.00000" pt_clust_6="13000.00000" pt_clust_7="13000.00000" pt_clust_8="13000.00000" pt_clust_9="31.60020"></scales>
<clustering>
<clus scale="   31.600">  1  9  2 -1</clus>
<clus scale="   80.821">  5  6 -1 -1</clus>
<clus scale="   83.316">  7  8 -1 -1</clus>
<clus scale="   90.378">  2  5  1 -1</clus>
<clus scale="   31.600">  1  5  2 -1</clus>
</clustering>
</event>
<event>
 9    2  0.4653788E-005  0.5954486E+03  0.7546771E-02  0.1034060E+00
         21   -1    0    0  501  502  0.00000000000E+00  0.00000000000E+00  0.75781732760E+03  0.75781732760E+03  0.00000000000E+00 0. -1.
          2   -1    0    0  502    0 -0.00000000000E+00 -0.00000000000E+00 -0.64017957250E+03  0.64017957250E+03  0.00000000000E+00 0. -1.
         23    2    1    2    0    0  0.82014610842E+02  0.10430248466E+03 -0.92270659112E+02  0.18555296763E+03  0.91162627012E+02 0.  0.
         24    2    1    2    0    0 -0.29693784904E+03 -0.58737457881E+03  0.15586789946E+03  0.68096390115E+03  0.78968668219E+02 0.  0.
        -13    1    4    4    0    0 -0.11157556558E+03 -0.28468855766E+03  0.99683398110E+02  0.32161072986E+03  0.00000000000E+00 0.  1.
         14    1    4    4    0    0 -0.18536228346E+03 -0.30268602115E+03  0.56184501348E+02  0.35935317129E+03  0.00000000000E+00 0. -1.
        -13    1    3    3    0    0  0.87241815944E+02  0.54287345481E+02 -0.33217000324E+02  0.10798897832E+03  0.00000000000E+00 0.  1.
         13    1    3    3    0    0 -0.52272051021E+01  0.50015139182E+02 -0.59053658788E+02  0.77563989304E+02  0.00000000000E+00 0. -1.
          1    1    1    2  501    0  0.21492323820E+03  0.48307209415E+03  0.54040514755E+02  0.53148003132E+03  0.00000000000E+00 0. -1.
<scales pt_clust_5="13000.00000" pt_clust_6="13000.00000" pt_clust_7="13000.00000" pt_clust_8="13000.00000" pt_clust_9="590.18889"></scales>
<clustering>
<clus scale="   78.969">  5  6 -1 -1</clus>
<clus scale="   91.163">  7  8 -1 -1</clus>
<clus scale="  160.985">  2  7  1 -1</clus>
<clus scale="  590.189">  1  9  2 -1</clus>
<clus scale="  590.189">  1  5  2 -1</clus>
</clustering>
</event>
<event>
 9    2  0.4653788E-005  0.2703338E+03  0.7546771E-02  0.1101899E+00
          4   -1    0    0  502    0 -0.00000000000E+00  0.00000000000E+00  0.72288110347E+03  0.72288110347E+03  0.00000000000E+00 0. -1.
         21   -1    0    0  501  502  0.00000000000E+00 -0.00000000000E+00 -0.23741398343E+03  0.23741398343E+03  0.00000000000E+00 0.  1.
         23    2    1    2    0    0 -0.15644581721E+03 -0.19791344269E+03  0.55911823502E+03  0.62089757924E+03  0.96205917931E+02 0.  0.
         24    2    1    2    0    0  0.11084100020E+03  0.23558198979E+03 -0.62994636563E+02  0.27929526721E+03  0.79075412182E+02 0.  0.
        -13    1    4    4    0    0  0.92104093710E+02  0.23060725515E+03 -0.71076591907E+02  0.25829199005E+03  0.00000000000E+00 0.  1.
         14    1    4    4    0    0  0.18736906487E+02  0.49747346442E+01  0.80819553436E+01  0.21003277165E+02  0.00000000000E+00 0. -1.
        -13    1    3    3    0    0 -0.21854241358E+02  0.83902440967E+01  0.41200104992E+02  0.47386208043E+02  0.00000000000E+00 0.  1.
         13    1    3    3    0    0 -0.13459157586E+03 -0.20630368679E+03  0.51791813003E+03  0.57351137119E+03  0.00000000000E+00 0. -1.
          3    1    1    2  501    0  0.45604817018E+02 -0.37668547101E+02 -0.10656478422E+02  0.60102240460E+02  0.00000000000E+00 0. -1.
<scales pt_clust_5="13000.00000" pt_clust_6="13000.00000" pt_clust_7="13000.00000" pt_clust_8="13000.00000" pt_clust_9="59.14997"></scales>
<clustering>
<clus scale="   59.150">  2  9  1 -1</clus>
<clus scale="   79.075">  5  6 -1 -1</clus>
<clus scale="   96.206">  7  8 -1 -1</clus>
<clus scale="  264.722">  2  5  1 -1</clus>
<clus scale="   59.150">  2  5  1 -1</clus>
</clustering>
</event>
<event>
 9    2  0.4653788E-005  0.2524690E+03  0.7546771E-02  0.1151208E+00
          2   -1    0    0  502    0 -0.00000000000E+00  0.00000000000E+00  0.95131762221E+03  0.95131762221E+03  0.00000000000E+00 0. -1.
         21   -1    0    0  501  502  0.00000000000E+00 -0.00000000000E+00 -0.98516544446E+02  0.98516544446E+02  0.00000000000E+00 0. -1.
         23    2    1    2    0    0  0.81537550266E+01  0.23028453562E+02  0.26986348275E+03  0.28643940104E+03  0.92867851009E+02 0.  0.
         24    2    1    2    0    0 -0.20200312020E+03  0.12248379719E+03  0.31886108829E+03  0.40494282616E+03  0.80614872624E+02 0.  0.
        -13    1    4    4    0    0 -0.32385790828E+02  0.25150101181E+02  0.15143969644E+02  0.43711632932E+02  0.00000000000E+00 0.  1.
         14    1    4    4    0    0 -0.16961732937E+03  0.97333696006E+02  0.30371711865E+03  0.36123119323E+03  0.00000000000E+00 0. -1.
        -13    1    3    3    0    0 -0.16845583195E+02  0.49727644932E+02  0.20843761209E+03  0.21494848331E+03  0.00000000000E+00 0. -1.
         13    1    3    3    0    0  0.24999338222E+02 -0.26699191370E+02  0.61425870665E+02  0.71490917733E+02  0.00000000000E+00 0.  1.
          1    1    1    2  501    0  0.19384936517E+03 -0.14551225075E+03  0.26407650671E+03  0.35845193945E+03  0.00000000000E+00 0. -1.
<scales pt_clust_5="13000.00000" pt_clust_6="13000.00000" pt_clust_7="13000.00000" pt_clust_8="13000.00000" pt_clust_9="239.25266"></scales>
<clustering>
<clus scale="   80.615">  5  6 -1 -1</clus>
<clus scale="   92.868">  7  8 -1 -1</clus>
<clus scale="   96.027">  1  7  2 -1</clus>
<clus scale="  239.253">  2  9  1 -1</clus>
<clus scale="  239.253">  2  5  1 -1</clus>
</clustering>
</event>
<event>
 9    2  0.4653788E-005  0.9660859E+02  0.7546771E-02  0.1293456E+00
          2   -1    0    0  502    0 -0.00000000000E+00  0.00000000000E+00  0.18083549202E+03  0.18083549202E+03  0.00000000000E+00 0. -1.
         21   -1    0    0  501  502  0.00000000000E+00 -0.00000000000E+00 -0.80292375174E+02  0.80292375174E+02  0.00000000000E+00 0.  1.
         23    2    1    2    0    0 -0.39606594839E+02  0.88970265164E+01  0.31899501823E+02  0.10559161080E+03  0.92109557694E+02 0.  0.
         24    2    1    2    0    0  0.12929794642E+02 -0.13508973021E+02  0.20628764685E+01  0.83661946204E+02  0.81519285091E+02 0.  0.
        -13    1    4    4    0    0 -0.20783792105E+01 -0.32871981126E+02 -0.29149208933E+02  0.43983669523E+02  0.00000000000E+00 0.  1.
         14    1    4    4    0    0  0.15008173853E+02  0.19363008104E+02  0.31212085402E+02  0.39678276681E+02  0.00000000000E+00 0. -1.
        -13    1    3    3    0    0 -0.56877332650E+02 -0.36226427822E+01  0.51357695321E+02  0.76718755065E+02  0.00000000000E+00 0.  1.
         13    1    3    3    0    0  0.17270737811E+02  0.12519669299E+02 -0.19458193498E+02  0.28872855732E+02  0.00000000000E+00 0. -1.
          1    1    1    2  501    0  0.26676800196E+02  0.46119465048E+01  0.66580738551E+02  0.71874310190E+02  0.00000000000E+00 0. -1.
<scales pt_clust_5="13000.00000" pt_clust_6="13000.00000" pt_clust_7="13000.00000" pt_clust_8="13000.00000" pt_clust_9="27.07254"></scales>
<clustering>
<clus scale="   27.073">  2  9  1 -1</clus>
<clus scale="   81.519">  5  6 -1 -1</clus>
<clus scale="   86.570">  2  5  1 -1</clus>
<clus scale="   92.110">  7  8 -1 -1</clus>
<clus scale="   27.073">  2  5  1 -1</clus>
</clustering>
</event>
<event>
 9    2  0.4653788E-005  0.8995491E+02  0.7546771E-02  0.1303550E+00
         21   -1    0    0  501  502  0.00000000000E+00  0.00000000000E+00  0.25535806193E+03  0.25535806193E+03  0.00000000000E+00 0.  1.
          2   -1    0    0  502    0 -0.00000000000E+00 -0.00000000000E+00 -0.98464515886E+02  0.98464515886E+02  0.00000000000E+00 0. -1.
         23    2    1    2    0    0 -0.16142579471E+02  0.14066804404E+02  0.33318594235E+02  0.97567747327E+02  0.89167700085E+02 0.  0.
         24    2    1    2    0    0 -0.59397554988E+02  0.35666788826E+02  0.12629155402E+03  0.16577211315E+03  0.82040523634E+02 0.  0.
        -13    1    4    4    0    0 -0.64084927759E+02  0.56308781971E+02  0.91930605621E+02  0.12541448538E+03  0.00000000000E+00 0.  1.
         14    1    4    4    0    0  0.46873727716E+01 -0.20641993145E+02  0.34360948401E+02  0.40357627774E+02  0.00000000000E+00 0. -1.
        -13    1    3    3    0    0 -0.26168223767E+02  0.47963222385E+02  0.29283802890E+02  0.61990223007E+02  0.00000000000E+00 0.  1.
         13    1    3    3    0    0  0.10025644295E+02 -0.33896417982E+02  0.40347913445E+01  0.35577524320E+02  0.00000000000E+00 0. -1.
          1    1    1    2  501    0  0.75540134459E+02 -0.49733593230E+02 -0.27166022087E+01  0.90482717340E+02  0.00000000000E+00 0. -1.
<scales pt_clust_5="13000.00000" pt_clust_6="13000.00000" pt_clust_7="13000.00000" pt_clust_8="13000.00000" pt_clust_9="90.44197"></scales>
<clustering>
<clus scale="   82.041">  5  6 -1 -1</clus>
<clus scale="   89.168">  7  8 -1 -1</clus>
<clus scale="   90.442">  1  9  2 -1</clus>
<clus scale="   90.442">  1  5  2 -1</clus>
<clus scale="   89.955">  1  5  2 -1</clus>
</clustering>
</event>
<event>
 9    2  0.4653788E-005  0.1658500E+03  0.7546771E-02  0.1183965E+00
          2   -1    0    0  502    0 -0.00000000000E+00  0.00000000000E+00  0.39568710587E+03  0.39568710587E+03  0.00000000000E+00 0. -1.
         21   -1    0    0  501  502  0.00000000000E+00 -0.00000000000E+00 -0.90013514002E+02  0.90013514002E+02  0.00000000000E+00 0.  1.
         24    2    1    2    0    0  0.44114980524E+01  0.13335891899E+03  0.23903853216E+03  0.29324952124E+03  0.10512753805E+03 0.  0.
         23    2    1    2    0    0 -0.26588365495E+02 -0.11672040678E+03  0.57564642046E+02  0.16328046246E+03  0.94953814399E+02 0.  0.
        -11    1    3    3    0    0  0.49398595417E+02  0.50538653023E+02  0.68616814837E+02  0.98501999762E+02  0.00000000000E+00 0.  1.
         12    1    3    3    0    0 -0.44987097365E+02  0.82820265971E+02  0.17042171732E+03  0.19474752147E+03  0.00000000000E+00 0. -1.
        -13    1    4    4    0    0 -0.43146820042E+02 -0.95914890784E+02  0.76997871927E+02  0.13034564295E+03  0.00000000000E+00 0. -1.
         13    1    4    4    0    0  0.16558454547E+02 -0.20805516000E+02 -0.19433229881E+02  0.32934819517E+02  0.00000000000E+00 0.  1.
          1    1    1    2  501    0  0.22176867443E+02 -0.16638512210E+02  0.90704176610E+01  0.29170636172E+02  0.00000000000E+00 0. -1.
<scales pt_clust_5="13000.00000" pt_clust_6="13000.00000" pt_clust_7="13000.00000" pt_clust_8="13000.00000" pt_clust_9="27.72460"></scales>
<clustering>
<clus scale="   27.725">  2  9  1 -1</clus>
<clus scale="   94.954">  7  8 -1 -1</clus>
<clus scale="  105.128">  5  6 -1 -1</clus>
<clus scale="  159.595">  2  7  1 -1</clus>
<clus scale="   27.725">  2  5  1 -1</clus>
</clustering>
</event>
<event>
 9    2  0.4653788E-005  0.1177915E+03  0.7546771E-02  0.1250431E+00
          2   -1    0    0  502    0 -0.00000000000E+00  0.00000000000E+00  0.31052006769E+03  0.31052006769E+03  0.00000000000E+00 0. -1.
         21   -1    0    0  501  502  0.00000000000E+00 -0.00000000000E+00 -0.55319006799E+02  0.55319006799E+02  0.00000000000E+00 0. -1.
         24    2    1    2    0    0 -0.73787211180E+02  0.19211568361E+02  0.15867637888E+03  0.19347733930E+03  0.80259894801E+02 0.  0.
         23    2    1    2    0    0  0.62081122490E+02 -0.39107289182E+02  0.67065757902E+02  0.13493580262E+03  0.91249159499E+02 0.  0.
        -11    1    3    3    0    0 -0.17216125069E+02 -0.26953397311E+02  0.79913543384E+02  0.86075867728E+02  0.00000000000E+00 0.  1.
         12    1    3    3    0    0 -0.56571086111E+02  0.46164965672E+02  0.78762835497E+02  0.10740147157E+03  0.00000000000E+00 0. -1.
        -13    1    4    4    0    0  0.60022874376E+02 -0.65515231477E+02  0.60954976167E+02  0.10775203072E+03  0.00000000000E+00 0. -1.
         13    1    4    4    0    0  0.20582481133E+01  0.26407942296E+02  0.61107817354E+01  0.27183771905E+02  0.00000000000E+00 0.  1.
          1    1    1    2  501    0  0.11706088690E+02  0.19895720821E+02  0.29458924111E+02  0.37425932576E+02  0.00000000000E+00 0. -1.
<scales pt_clust_5="13000.00000" pt_clust_6="13000.00000" pt_clust_7="13000.00000" pt_clust_8="13000.00000" pt_clust_9="23.08404"></scales>
<clustering>
<clus scale="   23.084">  2  9  1 -1</clus>
<clus scale="   80.260">  5  6 -1 -1</clus>
<clus scale="   91.249">  7  8 -1 -1</clus>
<clus scale="  109.499">  1  5  2 -1</clus>
<clus scale="   23.084">  2  5  1 -1</clus>
</clustering>
</event>
<event>
 9    2  0.4653788E-005  0.2861760E+03  0.7546771E-02  0.1108672E+00
         21   -1    0    0  501  502  0.00000000000E+00  0.00000000000E+00  0.97386316735E+03  0.97386316735E+03  0.00000000000E+00 0. -1.
          2   -1    0    0  502    0 -0.00000000000E+00 -0.00000000000E+00 -0.22614413362E+03  0.22614413362E+03  0.00000000000E+00 0. -1.
         24    2    1    2    0    0 -0.39846424352E+02  0.16483450223E+03  0.29192333886E+03  0.34695542806E+03  0.80004266342E+02 0.  0.
         23    2    1    2    0    0 -0.15178311892E+03 -0.33291083649E+03  0.59364872075E+02  0.38174631040E+03  0.91314386721E+02 0.  0.
        -11    1    3    3    0    0  0.22641587806E+01  0.50789775677E+02  0.32177706537E+02  0.60167537147E+02  0.00000000000E+00 0.  1.
         12    1    3    3    0    0 -0.42110583132E+02  0.11404472655E+03  0.25974563232E+03  0.28678789091E+03  0.00000000000E+00 0. -1.
        -11    1    4    4    0    0 -0.48993252098E+02 -0.17891433190E+03 -0.54436605916E+01  0.18558100752E+03  0.00000000000E+00 0.  1.
         11    1    4    4    0    0 -0.10278986682E+03 -0.15399650459E+03  0.64808532667E+02  0.19616530288E+03  0.00000000000E+00 0. -1.
          1    1    1    2  501    0  0.19162954327E+03  0.16807633426E+03  0.39643082280E+03  0.47130556251E+03  0.00000000000E+00 0. -1.
<scales pt_clust_5="13000.00000" pt_clust_6="13000.00000" pt_clust_7="13000.00000" pt_clust_8="13000.00000" pt_clust_9="271.21646"></scales>
<clustering>
<clus scale="   80.004">  5  6 -1 -1</clus>
<clus scale="   91.314">  7  8 -1 -1</clus>
<clus scale="  187.507">  2  5  1 -1</clus>
<clus scale="  271.216">  1  9  2 -1</clus>
<clus scale="  271.216">  1  5  2 -1</clus>
</clustering>
</event>
<event>
 9    2  0.4653788E-005  0.1814998E+03  0.7546771E-02  0.1187662E+00
         -3   -1    0    0    0  501 -0.00000000000E+00  0.00000000000E+00  0.74185906076E+02  0.74185906076E+02  0.00000000000E+00 0.  1.
         21   -1    0    0  501  502  0.00000000000E+00 -0.00000000000E+00 -0.86179981308E+03  0.86179981308E+03  0.00000000000E+00 0.  1.
         24    2    1    2    0    0  0.36046638207E+02  0.70593921033E+02 -0.12811082261E+03  0.17026628815E+03  0.79343331146E+02 0.  0.
         23    2    1    2    0    0  0.11554625930E+03  0.12756255122E+02 -0.94892761695E+02  0.17520061256E+03  0.90426535577E+02 0.  0.
        -11    1    3    3    0    0  0.34178639762E+02  0.87879237011E+02 -0.10209706310E+03  0.13897751619E+03  0.00000000000E+00 0.  1.
         12    1    3    3    0    0  0.18679984444E+01 -0.17285315978E+02 -0.26013759514E+02  0.31288771959E+02  0.00000000000E+00 0. -1.
        -13    1    4    4    0    0  0.90266442968E+02 -0.55379098888E+01 -0.17990232351E+02  0.92208175516E+02  0.00000000000E+00 0.  1.
         13    1    4    4    0    0  0.25279816336E+02  0.18294165011E+02 -0.76902529344E+02  0.82992437047E+02  0.00000000000E+00 0. -1.
         -4    1    1    2    0  502 -0.15159289751E+03 -0.83350176155E+02 -0.56461032270E+03  0.59051881844E+03  0.00000000000E+00 0.  1.
<scales pt_clust_5="13000.00000" pt_clust_6="13000.00000" pt_clust_7="13000.00000" pt_clust_8="13000.00000" pt_clust_9="157.36967"></scales>
<clustering>
<clus scale="   79.343">  5  6 -1 -1</clus>
<clus scale="   90.427">  7  8 -1 -1</clus>
<clus scale="  112.153">  1  5  2 -1</clus>
<clus scale="  157.370">  2  9  1 -1</clus>
<clus scale="  157.370">  2  5  1 -1</clus>
</clustering>
</event>
<event>
 9    2  0.4653788E-005  0.9642050E+02  0.7546771E-02  0.1293802E+00
         21   -1    0    0  501  502  0.00000000000E+00  0.00000000000E+00  0.30411110148E+02  0.30411110148E+02  0.00000000000E+00 0. -1.
          2   -1    0    0  502    0 -0.00000000000E+00 -0.00000000000E+00 -0.82953736816E+03  0.82953736816E+03  0.00000000000E+00 0. -1.
         24    2    1    2    0    0  0.15804634258E+02 -0.46371085891E+02 -0.30897716828E+03  0.32305231556E+03  0.80596798942E+02 0.  0.
         23    2    1    2    0    0 -0.29717557246E+02 -0.33961328828E+02 -0.11736289916E+03  0.15529897964E+03  0.91143940618E+02 0.  0.
        -11    1    3    3    0    0 -0.25996897812E+02 -0.69897008921E+01 -0.41410013643E+02  0.49391131231E+02  0.00000000000E+00 0.  1.
         12    1    3    3    0    0  0.41801532069E+02 -0.39381384999E+02 -0.26756715464E+03  0.27366118433E+03  0.00000000000E+00 0. -1.
        -11    1    4    4    0    0 -0.55674665738E+01 -0.60893825621E+02 -0.50613263378E+02  0.79377308550E+02  0.00000000000E+00 0. -1.
         11    1    4    4    0    0 -0.24150090672E+02  0.26932496793E+02 -0.66749635785E+02  0.75921671085E+02  0.00000000000E+00 0.  1.
          1    1    1    2  501    0  0.13912922988E+02  0.80332414719E+02 -0.37278619057E+03  0.38159718311E+03  0.00000000000E+00 0. -1.
<scales pt_clust_5="13000.00000" pt_clust_6="13000.00000" pt_clust_7="13000.00000" pt_clust_8="13000.00000" pt_clust_9="81.52836"></scales>
<clustering>
<clus scale="   80.597">  5  6 -1 -1</clus>
<clus scale="   81.528">  1  9  2 -1</clus>
<clus scale="   86.519">  2  5  1 -1</clus>
<clus scale="   91.144">  7  8 -1 -1</clus>
<clus scale="   81.528">  1  5  2 -1</clus>
</clustering>
</event>
<event>
 9    2  0.4653788E-005  0.9490627E+02  0.7546771E-02  0.1299907E+00
         -1   -1    0    0    0  501 -0.00000000000E+00  0.00000000000E+00  0.63878215776E+02  0.63878215776E+02  0.00000000000E+00 0.  1.
         21   -1    0    0  501  502  0.00000000000E+00 -0.00000000000E+00 -0.25785603347E+03  0.25785603347E+03  0.00000000000E+00 0.  1.
         23    2    1    2    0    0 -0.55056092730E+01 -0.16057578053E+02 -0.58858210235E+01  0.95795157351E+02  0.94095226959E+02 0.  0.
         24    2    1    2    0    0 -0.19079902650E+02  0.42630678087E+01 -0.81496554592E+02  0.11591115844E+03  0.80071791589E+02 0.  0.
        -13    1    4    4    0    0 -0.35743739704E+02 -0.27562761750E+02 -0.34797658619E+02  0.56992962799E+02  0.00000000000E+00 0.  1.
         14    1    4    4    0    0  0.16663837054E+02  0.31825829559E+02 -0.46698895974E+02  0.58918195641E+02  0.00000000000E+00 0. -1.
        -11    1    3    3    0    0  0.13600303167E+02 -0.45420318309E+02  0.20782712145E+02  0.51767699250E+02  0.00000000000E+00 0. -1.
         11    1    3    3    0    0 -0.19105912439E+02  0.29362740256E+02 -0.26668533169E+02  0.44027458101E+02  0.00000000000E+00 0.  1.
         -2    1    1    2    0  502  0.24585511923E+02  0.11794510244E+02 -0.10659544208E+03  0.11002793345E+03  0.00000000000E+00 0.  1.
<scales pt_clust_5="13000.00000" pt_clust_6="13000.00000" pt_clust_7="13000.00000" pt_clust_8="13000.00000" pt_clust_9="27.26826"></scales>
<clustering>
<clus scale="   27.268">  2  9  1 -1</clus>
<clus scale="   80.072">  5  6 -1 -1</clus>
<clus scale="   81.023">  2  5  1 -1</clus>
<clus scale="   94.095">  7  8 -1 -1</clus>
<clus scale="   27.268">  2  5  1 -1</clus>
</clustering>
</event>
<event>
 9    2  0.4653788E-005  0.1111200E+03  0.7546771E-02  0.1260395E+00
          2   -1    0    0  502    0 -0.00000000000E+00  0.00000000000E+00  0.47378852127E+03  0.47378852127E+03  0.00000000000E+00 0. -1.
         21   -1    0    0  501  502  0.00000000000E+00 -0.00000000000E+00 -0.22106112240E+03  0.22106112240E+03  0.00000000000E+00 0. -1.
         23    2    1    2    0    0  0.58415615569E+02 -0.33625256654E+02  0.44642452852E+03  0.46028785892E+03  0.89593590057E+02 0.  0.
         24    2    1    2    0    0 -0.23250342298E+02  0.29720725194E+02 -0.11046048386E+03  0.14411743162E+03  0.84524645394E+02 0.  0.
        -11    1    4    4    0    0 -0.30853248859E+02 -0.22826724969E+02 -0.35662609540E+02  0.52390877614E+02  0.00000000000E+00 0.  1.
         12    1    4    4    0    0  0.76029065615E+01  0.52547450164E+02 -0.74797874324E+02  0.91726554008E+02  0.00000000000E+00 0. -1.
        -11    1    3    3    0    0  0.80524454045E+02 -0.17052351675E+02  0.29057604575E+03  0.30200895477E+03  0.00000000000E+00 0. -1.
         11    1    3    3    0    0 -0.22108838476E+02 -0.16572904979E+02  0.15584848277E+03  0.15827890415E+03  0.00000000000E+00 0.  1.
          1    1    1    2  501    0 -0.35165273271E+02  0.39045314600E+01 -0.83236645785E+02  0.90444353122E+02  0.00000000000E+00 0. -1.
<scales pt_clust_5="13000.00000" pt_clust_6="13000.00000" pt_clust_7="13000.00000" pt_clust_8="13000.00000" pt_clust_9="35.38138"></scales>
<clustering>
<clus scale="   35.381">  2  9  1 -1</clus>
<clus scale="   84.525">  5  6 -1 -1</clus>
<clus scale="   89.594">  7  8 -1 -1</clus>
<clus scale="  107.075">  2  5  1 -1</clus>
<clus scale="   35.381">  2  5  1 -1</clus>
</clustering>
</event>
<event>
 9    2  0.4653788E-005  0.1450099E+03  0.7546771E-02  0.1207407E+00
         21   -1    0    0  501  502  0.00000000000E+00  0.00000000000E+00  0.15287380057E+03  0.15287380057E+03  0.00000000000E+00 0. -1.
          2   -1    0    0  502    0 -0.00000000000E+00 -0.00000000000E+00 -0.77642242215E+03  0.77642242215E+03  0.00000000000E+00 0. -1.
         24    2    1    2    0    0 -0.24216457383E+01 -0.12043372069E+03 -0.70793276406E+03  0.72322360517E+03  0.85868732377E+02 0.  0.
         23    2    1    2    0    0  0.23620595931E+02  0.62706485747E+02  0.13790891743E+02  0.11244977744E+03  0.89245323931E+02 0.  0.
        -11    1    3    3    0    0  0.22178649465E+01 -0.10543157916E+03 -0.36492406323E+03  0.37985564196E+03  0.00000000000E+00 0.  1.
         12    1    3    3    0    0 -0.46395106848E+01 -0.15002141524E+02 -0.34300870083E+03  0.34336796320E+03  0.00000000000E+00 0. -1.
        -11    1    4    4    0    0  0.17047637679E+02 -0.21324076420E+02  0.41066729366E+01  0.27608023258E+02  0.00000000000E+00 0.  1.
         11    1    4    4    0    0  0.65729582520E+01  0.84030562166E+02  0.96842188059E+01  0.84841754178E+02  0.00000000000E+00 0. -1.
          1    1    1    2  501    0 -0.21198950193E+02  0.57727234940E+02  0.70593250727E+02  0.93622840116E+02  0.00000000000E+00 0. -1.
<scales pt_clust_5="13000.00000" pt_clust_6="13000.00000" pt_clust_7="13000.00000" pt_clust_8="13000.00000" pt_clust_9="61.49658"></scales>
<clustering>
<clus scale="   61.497">  1  9  2 -1</clus>
<clus scale="   85.869">  5  6 -1 -1</clus>
<clus scale="   89.245">  7  8 -1 -1</clus>
<clus scale="  142.957">  2  5  1 -1</clus>
<clus scale="   61.497">  1  5  2 -1</clus>
</clustering>
</event>
<event>
 9    2  0.4653788E-005  0.9826931E+02  0.7546771E-02  0.1288768E+00
          2   -1    0    0  502    0 -0.00000000000E+00  0.00000000000E+00  0.71967801230E+02  0.71967801230E+02  0.00000000000E+00 0. -1.
         21   -1    0    0  501  502  0.00000000000E+00 -0.00000000000E+00 -0.16894884789E+03  0.16894884789E+03  0.00000000000E+00 0. -1.
         24    2    1    2    0    0 -0.27952814616E+02  0.25402870013E+02 -0.14514864881E+02  0.92924980887E+02  0.83652287000E+02 0.  0.
         23    2    1    2    0    0  0.51848153142E+01 -0.26244617386E+02 -0.79506172314E+02  0.12501663859E+03  0.92694477923E+02 0.  0.
        -11    1    3    3    0    0  0.29648518331E+02  0.33816280411E+01 -0.81279231171E+01  0.30927870628E+02  0.00000000000E+00 0.  1.
         12    1    3    3    0    0 -0.57601332947E+02  0.22021241972E+02 -0.63869417642E+01  0.61997110258E+02  0.00000000000E+00 0. -1.
        -13    1    4    4    0    0  0.39887038308E+02 -0.39935643545E+02 -0.32946662428E+02  0.65355290646E+02  0.00000000000E+00 0. -1.
         13    1    4    4    0    0 -0.34702222993E+02  0.13691026159E+02 -0.46559509887E+02  0.59661347947E+02  0.00000000000E+00 0.  1.
          1    1    1    2  501    0  0.22767999302E+02  0.84174737311E+00 -0.29600094627E+01  0.22975029638E+02  0.00000000000E+00 0. -1.
<scales pt_clust_5="13000.00000" pt_clust_6="13000.00000" pt_clust_7="13000.00000" pt_clust_8="13000.00000" pt_clust_9="22.78357"></scales>
<clustering>
<clus scale="   22.784">  2  9  1 -1</clus>
<clus scale="   83.652">  5  6 -1 -1</clus>
<clus scale="   89.790">  1  5  2 -1</clus>
<clus scale="   92.694">  7  8 -1 -1</clus>
<clus scale="   22.784">  2  5  1 -1</clus>
</clustering>
</event>
<event>
 9    2  0.4653788E-005  0.1068233E+03  0.7546771E-02  0.1271068E+00
         21   -1    0    0  501  502  0.00000000000E+00  0.00000000000E+00  0.21233957680E+03  0.21233957680E+03  0.00000000000E+00 0. -1.
         -3   -1    0    0    0  501 -0.00000000000E+00 -0.00000000000E+00 -0.16186029816E+03  0.16186029816E+03  0.00000000000E+00 0.  1.
         24    2    1    2    0    0  0.52132881359E+02  0.23378665539E+02 -0.10036175095E+03  0.14033762636E+03  0.79735619390E+02 0.  0.
         23    2    1    2    0    0 -0.37240084613E+02 -0.48901376774E+02  0.35791136966E+02  0.11507806625E+03  0.90464287400E+02 0.  0.
        -11    1    3    3    0    0  0.69675460992E+02  0.25496621452E+02 -0.97370360596E+02  0.12241623541E+03  0.00000000000E+00 0.  1.
         12    1    3    3    0    0 -0.17542579633E+02 -0.21179559129E+01 -0.29913903494E+01  0.17921390952E+02  0.00000000000E+00 0. -1.
        -11    1    4    4    0    0 -0.20739750510E+02  0.46756387292E+01 -0.24709732529E+02  0.32597081623E+02  0.00000000000E+00 0.  1.
         11    1    4    4    0    0 -0.16500334103E+02 -0.53577015503E+02  0.60500869495E+02  0.82480984629E+02  0.00000000000E+00 0. -1.
         -4    1    1    2    0  502 -0.14892796746E+02  0.25522711235E+02  0.11504989261E+03  0.11878418234E+03  0.00000000000E+00 0.  1.
<scales pt_clust_5="13000.00000" pt_clust_6="13000.00000" pt_clust_7="13000.00000" pt_clust_8="13000.00000" pt_clust_9="29.55003"></scales>
<clustering>
<clus scale="   29.550">  1  9  2 -1</clus>
<clus scale="   79.736">  5  6 -1 -1</clus>
<clus scale="   90.464">  7  8 -1 -1</clus>
<clus scale="   97.904">  2  5  1 -1</clus>
<clus scale="   29.550">  1  5  2 -1</clus>
</clustering>
</event>
<event>
 9    2  0.4653788E-005  0.1120211E+03  0.7546771E-02  0.1259040E+00
          2   -1    0    0  502    0 -0.00000000000E+00  0.00000000000E+00  0.45853699070E+03  0.45853699070E+03  0.00000000000E+00 0. -1.
         21   -1    0    0  501  502  0.00000000000E+00 -0.00000000000E+00 -0.74136172215E+02  0.74136172215E+02  0.00000000000E+00 0. -1.
         23    2    1    2    0    0  0.19753864167E+02  0.80699367553E+02  0.36356848226E+03  0.38276944930E+03  0.86184725727E+02 0.  0.
         24    2    1    2    0    0 -0.54807979620E+01 -0.38363004001E+02  0.44431848063E+02  0.99376245276E+02  0.79998061104E+02 0.  0.
        -11    1    4    4    0    0  0.36670435342E+01 -0.58090926757E+02  0.10608121430E+02  0.59165321093E+02  0.00000000000E+00 0.  1.
         12    1    4    4    0    0 -0.91478414963E+01  0.19727922755E+02  0.33823726633E+02  0.40210924183E+02  0.00000000000E+00 0. -1.
        -11    1    3    3    0    0 -0.31488836741E+02  0.15809723407E+02  0.14109815486E+03  0.14543102660E+03  0.00000000000E+00 0.  1.
         11    1    3    3    0    0  0.51242700908E+02  0.64889644146E+02  0.22247032741E+03  0.23733842270E+03  0.00000000000E+00 0. -1.
          1    1    1    2  501    0 -0.14273066205E+02 -0.42336363552E+02 -0.23599511843E+02  0.50527468340E+02  0.00000000000E+00 0. -1.
<scales pt_clust_5="13000.00000" pt_clust_6="13000.00000" pt_clust_7="13000.00000" pt_clust_8="13000.00000" pt_clust_9="44.67760"></scales>
<clustering>
<clus scale="   44.678">  2  9  1 -1</clus>
<clus scale="   79.998">  5  6 -1 -1</clus>
<clus scale="   86.185">  7  8 -1 -1</clus>
<clus scale="  107.334">  2  5  1 -1</clus>
<clus scale="   44.678">  2  5  1 -1</clus>
</clustering>
</event>
<event>
 9    2  0.4653788E-005  0.9453994E+02  0.7546771E-02  0.1299132E+00
          4   -1    0    0  502    0 -0.00000000000E+00  0.00000000000E+00  0.42453753193E+03  0.42453753193E+03  0.00000000000E+00 0. -1.
         21   -1    0    0  501  502  0.00000000000E+00 -0.00000000000E+00 -0.55901209222E+02  0.55901209222E+02  0.00000000000E+00 0. -1.
         23    2    1    2    0    0 -0.82994797852E+01 -0.23394471796E+02  0.33234042178E+03  0.34576543476E+03  0.92127071215E+02 0.  0.
         24    2    1    2    0    0 -0.88564147219E+01  0.13012954589E+02  0.61520501930E+02  0.10244938496E+03  0.80394845929E+02 0.  0.
        -11    1    4    4    0    0  0.12556024346E+01  0.23678358104E+02 -0.12623684012E+02  0.26862586957E+02  0.00000000000E+00 0.  1.
         12    1    4    4    0    0 -0.10112017156E+02 -0.10665403515E+02  0.74144185943E+02  0.75586798002E+02  0.00000000000E+00 0. -1.
        -13    1    3    3    0    0  0.21342015659E+02  0.26899737498E+02  0.16497177262E+03  0.16850745761E+03  0.00000000000E+00 0.  1.
         13    1    3    3    0    0 -0.29641495444E+02 -0.50294209294E+02  0.16736864916E+03  0.17725797715E+03  0.00000000000E+00 0. -1.
          3    1    1    2  501    0  0.17155894507E+02  0.10381517207E+02 -0.25224601010E+02  0.32223921425E+02  0.00000000000E+00 0. -1.
<scales pt_clust_5="13000.00000" pt_clust_6="13000.00000" pt_clust_7="13000.00000" pt_clust_8="13000.00000" pt_clust_9="20.05245"></scales>
<clustering>
<clus scale="   20.052">  2  9  1 -1</clus>
<clus scale="   80.395">  5  6 -1 -1</clus>
<clus scale="   83.149">  2  5  1 -1</clus>
<clus scale="   92.127">  7  8 -1 -1</clus>
<clus scale="   20.052">  2  5  1 -1</clus>
</clustering>
</event>
<event>
 9    2  0.4653788E-005  0.1197728E+03  0.7546771E-02  0.1245036E+00
         -1   -1    0    0    0  501 -0.00000000000E+00  0.00000000000E+00  0.18180240914E+03  0.18180240914E+03  0.00000000000E+00 0.  1.
         21   -1    0    0  501  502  0.00000000000E+00 -0.00000000000E+00 -0.25213711835E+03  0.25213711835E+03  0.00000000000E+00 0.  1.
         23    2    1    2    0    0 -0.22766156662E+02 -0.74976166245E+02  0.70267726386E+02  0.13955365083E+03  0.91640300598E+02 0.  0.
         24    2    1    2    0    0  0.34800102411E+01  0.63220042699E+02  0.32551929621E+02  0.11976458334E+03  0.96307024825E+02 0.  0.
        -11    1    4    4    0    0  0.19763086783E+02  0.51524565761E+02  0.62720755330E+02  0.83541927349E+02  0.00000000000E+00 0.  1.
         12    1    4    4    0    0 -0.16283076542E+02  0.11695476938E+02 -0.30168825709E+02  0.36222655992E+02  0.00000000000E+00 0. -1.
        -13    1    3    3    0    0 -0.67488022238E+01 -0.22418433844E+02  0.80350509268E+02  0.83691916259E+02  0.00000000000E+00 0. -1.
         13    1    3    3    0    0 -0.16017354438E+02 -0.52557732401E+02 -0.10082782882E+02  0.55861734568E+02  0.00000000000E+00 0.  1.
         -2    1    1    2    0  502  0.19286146421E+02  0.11756123546E+02 -0.17315436522E+03  0.17462129332E+03  0.00000000000E+00 0.  1.
<scales pt_clust_5="13000.00000" pt_clust_6="13000.00000" pt_clust_7="13000.00000" pt_clust_8="13000.00000" pt_clust_9="22.58676"></scales>
<clustering>
<clus scale="   22.587">  2  9  1 -1</clus>
<clus scale="   91.640">  7  8 -1 -1</clus>
<clus scale="   96.307">  5  6 -1 -1</clus>
<clus scale="  116.054">  1  7  2 -1</clus>
<clus scale="   22.587">  2  5  1 -1</clus>
</clustering>
</event>
<event>
 9    2  0.4653788E-005  0.8689464E+02  0.7546771E-02  0.1311656E+00
         21   -1    0    0  501  502  0.00000000000E+00  0.00000000000E+00  0.23958220500E+03  0.23958220500E+03  0.00000000000E+00 0.  1.
         -1   -1    0    0    0  501 -0.00000000000E+00 -0.00000000000E+00 -0.48680739576E+02  0.48680739576E+02  0.00000000000E+00 0.  1.
         24    2    1    2    0    0 -0.15860200068E+02 -0.11168554398E+02  0.61983184133E+02  0.10245727962E+03  0.79242012082E+02 0.  0.
         23    2    1    2    0    0  0.49334499606E+02  0.26532602175E+02  0.80069401682E+02  0.12462727226E+03  0.77349699905E+02 0.  0.
        -11    1    3    3    0    0  0.26464799610E+02 -0.25272764010E+02  0.32840792357E+02  0.49169257282E+02  0.00000000000E+00 0.  1.
         12    1    3    3    0    0 -0.42324999678E+02  0.14104209612E+02  0.29142391776E+02  0.53288022340E+02  0.00000000000E+00 0. -1.
        -13    1    4    4    0    0  0.32836176839E+02  0.12039034119E+01  0.87528227674E+02  0.93492537310E+02  0.00000000000E+00 0. -1.
         13    1    4    4    0    0  0.16498322767E+02  0.25328698763E+02 -0.74588259926E+01  0.31134734949E+02  0.00000000000E+00 0.  1.
         -2    1    1    2    0  502 -0.33474299538E+02 -0.15364047777E+02  0.48848879608E+02  0.61178392694E+02  0.00000000000E+00 0.  1.
<scales pt_clust_5="13000.00000" pt_clust_6="13000.00000" pt_clust_7="13000.00000" pt_clust_8="13000.00000" pt_clust_9="36.83182"></scales>
<clustering>
<clus scale="   36.832">  1  9  2 -1</clus>
<clus scale="   77.350">  7  8 -1 -1</clus>
<clus scale="   79.242">  5  6 -1 -1</clus>
<clus scale="   85.173">  1  7  2 -1</clus>
<clus scale="   36.832">  1  5  2 -1</clus>
</clustering>
</event>
<event>
 9    2  0.4653788E-005  0.1011203E+03  0.7546771E-02  0.1282036E+00
         -1   -1    0    0    0  501 -0.00000000000E+00  0.00000000000E+00  0.12396579670E+03  0.12396579670E+03  0.00000000000E+00 0.  1.
         21   -1    0    0  501  502  0.00000000000E+00 -0.00000000000E+00 -0.23290132829E+03  0.23290132829E+03  0.00000000000E+00 0. -1.
         23    2    1    2    0    0  0.24135784072E+02 -0.38492412474E+02  0.79171519140E+02  0.12732556351E+03  0.88766366324E+02 0.  0.
         24    2    1    2    0    0 -0.42219480652E+02  0.55893290604E+02 -0.15521290928E+03  0.18816723147E+03  0.80058199516E+02 0.  0.
        -11    1    4    4    0    0  0.22371562592E+02  0.13249078863E+02 -0.60509648308E+02  0.65859262384E+02  0.00000000000E+00 0.  1.
         12    1    4    4    0    0 -0.64591043243E+02  0.42644211740E+02 -0.94703260975E+02  0.12230796908E+03  0.00000000000E+00 0. -1.
        -13    1    3    3    0    0 -0.19530851759E+02 -0.17924442796E+02  0.74210443612E+02  0.78803107560E+02  0.00000000000E+00 0.  1.
         13    1    3    3    0    0  0.43666635831E+02 -0.20567969678E+02  0.49610755277E+01  0.48522455954E+02  0.00000000000E+00 0. -1.
         -2    1    1    2    0  502  0.18083696580E+02 -0.17400878129E+02 -0.32894141450E+02  0.41374330006E+02  0.00000000000E+00 0.  1.
<scales pt_clust_5="13000.00000" pt_clust_6="13000.00000" pt_clust_7="13000.00000" pt_clust_8="13000.00000" pt_clust_9="25.09603"></scales>
<clustering>
<clus scale="   25.096">  2  9  1 -1</clus>
<clus scale="   80.058">  5  6 -1 -1</clus>
<clus scale="   88.766">  7  8 -1 -1</clus>
<clus scale="   93.569">  2  5  1 -1</clus>
<clus scale="   25.096">  2  5  1 -1</clus>
</clustering>
</event>
<event>
 9    2  0.4653788E-005  0.1087728E+03  0.7546771E-02  0.1278754E+00
         21   -1    0    0  501  502  0.00000000000E+00  0.00000000000E+00  0.42693293247E+02  0.42693293247E+02  0.00000000000E+00 0.  1.
         -1   -1    0    0    0  501 -0.00000000000E+00 -0.00000000000E+00 -0.25944051594E+03  0.25944051594E+03  0.00000000000E+00 0.  1.
         23    2    1    2    0    0  0.37381338078E+02  0.11797071614E+02 -0.10844848048E+03  0.15288282738E+03  0.10037704247E+03 0.  0.
         24    2    1    2    0    0 -0.32915813468E+02 -0.31864372499E+02 -0.85825240202E+02  0.11879288325E+03  0.68168821645E+02 0.  0.
        -13    1    4    4    0    0 -0.32718735499E+02 -0.34373215689E+02 -0.17742874785E+02  0.50664022887E+02  0.00000000000E+00 0.  1.
         14    1    4    4    0    0 -0.19707796984E+00  0.25088431900E+01 -0.68082365417E+02  0.68128860365E+02  0.00000000000E+00 0. -1.
        -11    1    3    3    0    0 -0.32168054371E+02  0.14543003641E+02 -0.20856499489E+02  0.41003368738E+02  0.00000000000E+00 0. -1.
         11    1    3    3    0    0  0.69549392449E+02 -0.27459320268E+01 -0.87591980987E+02  0.11187945864E+03  0.00000000000E+00 0.  1.
         -2    1    1    2    0  502 -0.44655246101E+01  0.20067300885E+02 -0.22473502017E+02  0.30458098558E+02  0.00000000000E+00 0.  1.
<scales pt_clust_5="13000.00000" pt_clust_6="13000.00000" pt_clust_7="13000.00000" pt_clust_8="13000.00000" pt_clust_9="20.55816"></scales>
<clustering>
<clus scale="   20.558">  1  9  2 -1</clus>
<clus scale="   68.169">  5  6 -1 -1</clus>
<clus scale="   80.018">  1  5  2 -1</clus>
<clus scale="  100.377">  7  8 -1 -1</clus>
<clus scale="   20.558">  1  5  2 -1</clus>
</clustering>
</event>
<event>
 9    2  0.4653788E-005  0.1036070E+03  0.7546771E-02  0.1278467E+00
         -1   -1    0    0    0  501 -0.00000000000E+00  0.00000000000E+00  0.54504002527E+02  0.54504002527E+02  0.00000000000E+00 0.  1.
         21   -1    0    0  501  502  0.00000000000E+00 -0.00000000000E+00 -0.37848606430E+03  0.37848606430E+03  0.00000000000E+00 0. -1.
         23    2    1    2    0    0  0.35185270028E+01  0.74633666440E+02 -0.64911376401E+02  0.13516742586E+03  0.92055320486E+02 0.  0.
         24    2    1    2    0    0 -0.72374294026E+01 -0.11455408572E+02 -0.11829713016E+03  0.14347719611E+03  0.80049284992E+02 0.  0.
        -11    1    4    4    0    0  0.14751947456E+02 -0.34301797724E+02 -0.24992901056E+02  0.44931930562E+02  0.00000000000E+00 0.  1.
         12    1    4    4    0    0 -0.21989376858E+02  0.22846389152E+02 -0.93304229109E+02  0.98545265545E+02  0.00000000000E+00 0. -1.
        -11    1    3    3    0    0 -0.33853651525E+02  0.47074209206E+02 -0.67098933712E+02  0.88680988939E+02  0.00000000000E+00 0.  1.
         11    1    3    3    0    0  0.37372178528E+02  0.27559457235E+02  0.21875573102E+01  0.46486436925E+02  0.00000000000E+00 0. -1.
         -2    1    1    2    0  502  0.37189023998E+01 -0.63178257868E+02 -0.14077355521E+03  0.15434544486E+03  0.00000000000E+00 0.  1.
<scales pt_clust_5="13000.00000" pt_clust_6="13000.00000" pt_clust_7="13000.00000" pt_clust_8="13000.00000" pt_clust_9="63.28762"></scales>
<clustering>
<clus scale="   63.288">  2  9  1 -1</clus>
<clus scale="   80.049">  5  6 -1 -1</clus>
<clus scale="   92.055">  7  8 -1 -1</clus>
<clus scale="   93.103">  2  5  1 -1</clus>
<clus scale="   63.288">  2  5  1 -1</clus>
</clustering>
</event>
<event>
 9    2  0.4653788E-005  0.1309898E+03  0.7546771E-02  0.1237885E+00
          4   -1    0    0  502    0 -0.00000000000E+00  0.00000000000E+00  0.21946366386E+03  0.21946366386E+03  0.00000000000E+00 0. -1.
         21   -1    0    0  501  502  0.00000000000E+00 -0.00000000000E+00 -0.29580478990E+03  0.29580478990E+03  0.00000000000E+00 0. -1.
         23    2    1    2    0    0  0.80331544977E+01 -0.45886375300E+02  0.15211087361E+03  0.18345194698E+03  0.91360866743E+02 0.  0.
         24    2    1    2    0    0  0.99183651957E+02  0.16160084733E+02 -0.13496841774E+03  0.18649522126E+03  0.80408013341E+02 0.  0.
        -13    1    4    4    0    0  0.12407178149E+02 -0.22538940275E+02 -0.60604854454E+02  0.65839883670E+02  0.00000000000E+00 0.  1.
         14    1    4    4    0    0  0.86776473808E+02  0.38699025007E+02 -0.74363563287E+02  0.12065533759E+03  0.00000000000E+00 0. -1.
        -11    1    3    3    0    0  0.25346506167E+02 -0.60029982560E+02  0.14659589340E+03  0.16042568417E+03  0.00000000000E+00 0. -1.
         11    1    3    3    0    0 -0.17313351670E+02  0.14143607261E+02  0.55149802162E+01  0.23026262814E+02  0.00000000000E+00 0.  1.
          3    1    1    2  501    0 -0.10721680645E+03  0.29726290567E+02 -0.93483581918E+02  0.14532128552E+03  0.00000000000E+00 0. -1.
<scales pt_clust_5="13000.00000" pt_clust_6="13000.00000" pt_clust_7="13000.00000" pt_clust_8="13000.00000" pt_clust_9="103.40640"></scales>
<clustering>
<clus scale="   80.408">  5  6 -1 -1</clus>
<clus scale="   91.361">  7  8 -1 -1</clus>
<clus scale="  102.552">  1  7  2 -1</clus>
<clus scale="  103.406">  2  9  1 -1</clus>
<clus scale="  103.406">  2  5  1 -1</clus>
</clustering>
</event>
<event>
 9    2  0.4653788E-005  0.9135686E+02  0.7546771E-02  0.1304146E+00
         21   -1    0    0  501  502  0.00000000000E+00  0.00000000000E+00  0.16727720632E+03  0.16727720632E+03  0.00000000000E+00 0.  1.
         -3   -1    0    0    0  501 -0.00000000000E+00 -0.00000000000E+00 -0.13528818979E+03  0.13528818979E+03  0.00000000000E+00 0.  1.
         23    2    1    2    0    0 -0.21406413887E+02 -0.12007554281E+02 -0.93341678248E+02  0.13124003454E+03  0.88931782024E+02 0.  0.
         24    2    1    2    0    0 -0.93204270753E+01  0.18201999607E+02  0.78088496739E+02  0.11463025434E+03  0.81388566379E+02 0.  0.
        -11    1    4    4    0    0 -0.27767294267E+02  0.19516101308E+02  0.87520081513E+02  0.93870471977E+02  0.00000000000E+00 0.  1.
         12    1    4    4    0    0  0.18446867192E+02 -0.13141017014E+01 -0.94315847746E+01  0.20759782365E+02  0.00000000000E+00 0. -1.
        -13    1    3    3    0    0 -0.42343742115E+01 -0.22335702060E+02 -0.10541955684E+03  0.10784292501E+03  0.00000000000E+00 0.  1.
         13    1    3    3    0    0 -0.17172039676E+02  0.10328147779E+02  0.12077878591E+02  0.23397109531E+02  0.00000000000E+00 0. -1.
         -4    1    1    2    0  502  0.30726840963E+02 -0.61944453252E+01  0.47242198039E+02  0.56695107232E+02  0.00000000000E+00 0.  1.
<scales pt_clust_5="13000.00000" pt_clust_6="13000.00000" pt_clust_7="13000.00000" pt_clust_8="13000.00000" pt_clust_9="31.34501"></scales>
<clustering>
<clus scale="   31.345">  1  9  2 -1</clus>
<clus scale="   81.389">  5  6 -1 -1</clus>
<clus scale="   84.032">  1  5  2 -1</clus>
<clus scale="   88.932">  7  8 -1 -1</clus>
<clus scale="   31.345">  1  5  2 -1</clus>
</clustering>
</event>
<event>
 9    2  0.4653788E-005  0.1024737E+03  0.7546771E-02  0.1281589E+00
          2   -1    0    0  502    0 -0.00000000000E+00  0.00000000000E+00  0.24592419977E+03  0.24592419977E+03  0.00000000000E+00 0. -1.
         21   -1    0    0  501  502  0.00000000000E+00 -0.00000000000E+00 -0.84742975795E+02  0.84742975795E+02  0.00000000000E+00 0.  1.
         23    2    1    2    0    0  0.42051945424E+02  0.10231842977E+02  0.14051033095E+03  0.17362884419E+03  0.92362144337E+02 0.  0.
         24    2    1    2    0    0 -0.31493294836E+02 -0.53248347976E+02 -0.13225734820E+02  0.10126301260E+03  0.79069991010E+02 0.  0.
        -11    1    4    4    0    0 -0.27071942225E+02 -0.33079315379E+02 -0.45830408714E+02  0.62670228376E+02  0.00000000000E+00 0.  1.
         12    1    4    4    0    0 -0.44213526110E+01 -0.20169032597E+02  0.32604673894E+02  0.38592784229E+02  0.00000000000E+00 0. -1.
        -11    1    3    3    0    0 -0.20619653242E+02 -0.21886952174E+02  0.29218977999E+02  0.41928003179E+02  0.00000000000E+00 0.  1.
         11    1    3    3    0    0  0.62671598665E+02  0.32118795152E+02  0.11129135295E+03  0.13170084101E+03  0.00000000000E+00 0. -1.
          1    1    1    2  501    0 -0.10558650588E+02  0.43016504999E+02  0.33896627843E+02  0.55775318768E+02  0.00000000000E+00 0. -1.
<scales pt_clust_5="13000.00000" pt_clust_6="13000.00000" pt_clust_7="13000.00000" pt_clust_8="13000.00000" pt_clust_9="44.29342"></scales>
<clustering>
<clus scale="   44.293">  2  9  1 -1</clus>
<clus scale="   79.070">  5  6 -1 -1</clus>
<clus scale="   90.676">  2  5  1 -1</clus>
<clus scale="   92.362">  7  8 -1 -1</clus>
<clus scale="   44.293">  2  5  1 -1</clus>
</clustering>
</event>
<event>
 9    2  0.4653788E-005  0.2487791E+03  0.7546771E-02  0.1144298E+00
         21   -1    0    0  501  502  0.00000000000E+00  0.00000000000E+00  0.85262112309E+02  0.85262112309E+02  0.00000000000E+00 0. -1.
          2   -1    0    0  502    0 -0.00000000000E+00 -0.00000000000E+00 -0.13114743049E+04  0.13114743049E+04  0.00000000000E+00 0. -1.
         23    2    1    2    0    0  0.19355192278E+02  0.76439417227E+02 -0.92671169384E+02  0.15027277433E+03  0.88183632810E+02 0.  0.
         24    2    1    2    0    0  0.22320878738E+03 -0.75429701786E+02 -0.37681661413E+03  0.45181269118E+03  0.81437979766E+02 0.  0.
        -13    1    4    4    0    0  0.17556411595E+03 -0.20984475695E+02 -0.26083643068E+03  0.31511704269E+03  0.00000000000E+00 0.  1.
         14    1    4    4    0    0  0.47644671435E+02 -0.54445226091E+02 -0.11598018346E+03  0.13669564849E+03  0.00000000000E+00 0. -1.
        -11    1    3    3    0    0  0.38859326861E+01  0.44769443546E+02  0.61477158885E+01  0.45356344197E+02  0.00000000000E+00 0.  1.
         11    1    3    3    0    0  0.15469259591E+02  0.31669973681E+02 -0.98818885272E+02  0.10491643013E+03  0.00000000000E+00 0. -1.
          1    1    1    2  501    0 -0.24256397966E+03 -0.10097154411E+01 -0.75672440909E+03  0.79465095172E+03  0.00000000000E+00 0. -1.
<scales pt_clust_5="13000.00000" pt_clust_6="13000.00000" pt_clust_7="13000.00000" pt_clust_8="13000.00000" pt_clust_9="235.07225"></scales>
<clustering>
<clus scale="   81.438">  5  6 -1 -1</clus>
<clus scale="   88.184">  7  8 -1 -1</clus>
<clus scale="  118.296">  2  7  1 -1</clus>
<clus scale="  235.072">  1  9  2 -1</clus>
<clus scale="  235.072">  1  5  2 -1</clus>
</clustering>
</event>
<event>
 9    2  0.4653788E-005  0.1189025E+03  0.7546771E-02  0.1248506E+00
         21   -1    0    0  501  502  0.00000000000E+00  0.00000000000E+00  0.17987426083E+03  0.17987426083E+03  0.00000000000E+00 0.  1.
          2   -1    0    0  502    0 -0.00000000000E+00 -0.00000000000E+00 -0.31876448319E+03  0.31876448319E+03  0.00000000000E+00 0. -1.
         23    2    1    2    0    0  0.70430314472E+01  0.76284904814E+02 -0.27612923148E+03  0.30067643710E+03  0.91049307258E+02 0.  0.
         24    2    1    2    0    0 -0.34435311854E+02 -0.71586210065E+02  0.12266107100E+03  0.16657869595E+03  0.79952157125E+02 0.  0.
        -11    1    4    4    0    0 -0.55027924178E+02 -0.66910984791E+02  0.75534759683E+02  0.11493760153E+03  0.00000000000E+00 0.  1.
         12    1    4    4    0    0  0.20592612324E+02 -0.46752252736E+01  0.47126311321E+02  0.51641094416E+02  0.00000000000E+00 0. -1.
        -11    1    3    3    0    0 -0.41112856350E+01  0.95742098070E+02 -0.23582543709E+03  0.25455272301E+03  0.00000000000E+00 0. -1.
         11    1    3    3    0    0  0.11154317082E+02 -0.19457193255E+02 -0.40303794391E+02  0.46123714088E+02  0.00000000000E+00 0.  1.
          1    1    1    2  501    0  0.27392280407E+02 -0.46986947499E+01  0.14577938117E+02  0.31383610977E+02  0.00000000000E+00 0. -1.
<scales pt_clust_5="13000.00000" pt_clust_6="13000.00000" pt_clust_7="13000.00000" pt_clust_8="13000.00000" pt_clust_9="27.79235"></scales>
<clustering>
<clus scale="   27.792">  1  9  2 -1</clus>
<clus scale="   79.952">  5  6 -1 -1</clus>
<clus scale="   91.049">  7  8 -1 -1</clus>
<clus scale="  110.635">  1  5  2 -1</clus>
<clus scale="   27.792">  1  5  2 -1</clus>
</clustering>
</event>
<event>
 9    2  0.4653788E-005  0.9444644E+02  0.7546771E-02  0.1298040E+00
         21   -1    0    0  501  502  0.00000000000E+00  0.00000000000E+00  0.19346131365E+03  0.19346131365E+03  0.00000000000E+00 0. -1.
         -3   -1    0    0    0  501 -0.00000000000E+00 -0.00000000000E+00 -0.72617003565E+02  0.72617003565E+02  0.00000000000E+00 0.  1.
         24    2    1    2    0    0  0.35317992383E+02  0.26843233177E+02  0.34406205144E+02  0.98705455394E+02  0.81185344853E+02 0.  0.
         23    2    1    2    0    0  0.27562782574E+01  0.49295296315E+00  0.77805496292E+02  0.11971324485E+03  0.90938032020E+02 0.  0.
        -13    1    3    3    0    0  0.17626326351E+02  0.17950709794E+02 -0.25373748407E+02  0.35731533286E+02  0.00000000000E+00 0.  1.
         14    1    3    3    0    0  0.17691666032E+02  0.88925233829E+01  0.59779953551E+02  0.62973922108E+02  0.00000000000E+00 0. -1.
        -13    1    4    4    0    0  0.25972137463E+02  0.25034496685E+02  0.77991736836E+02  0.85930140017E+02  0.00000000000E+00 0. -1.
         13    1    4    4    0    0 -0.23215859205E+02 -0.24541543721E+02 -0.18624054378E+00  0.33783104837E+02  0.00000000000E+00 0.  1.
         -4    1    1    2    0  502 -0.38074270640E+02 -0.27336186140E+02  0.86326086491E+01  0.47659616968E+02  0.00000000000E+00 0.  1.
<scales pt_clust_5="13000.00000" pt_clust_6="13000.00000" pt_clust_7="13000.00000" pt_clust_8="13000.00000" pt_clust_9="46.87131"></scales>
<clustering>
<clus scale="   46.871">  1  9  2 -1</clus>
<clus scale="   81.185">  5  6 -1 -1</clus>
<clus scale="   85.097">  2  5  1 -1</clus>
<clus scale="   90.938">  7  8 -1 -1</clus>
<clus scale="   46.871">  1  5  2 -1</clus>
</clustering>
</event>
<event>
 9    2  0.4653788E-005  0.9195782E+02  0.7546771E-02  0.1304726E+00
          2   -1    0    0  502    0 -0.00000000000E+00  0.00000000000E+00  0.15806764792E+03  0.15806764792E+03  0.00000000000E+00 0. -1.
         21   -1    0    0  501  502  0.00000000000E+00 -0.00000000000E+00 -0.10303046812E+03  0.10303046812E+03  0.00000000000E+00 0.  1.
         24    2    1    2    0    0  0.75536002155E+01 -0.23693622872E+01  0.10041255169E+03  0.12953507741E+03  0.81449278631E+02 0.  0.
         23    2    1    2    0    0  0.16626923354E+02 -0.12647300547E+02 -0.40981818484E+02  0.10276197625E+03  0.91891814242E+02 0.  0.
        -13    1    3    3    0    0 -0.24132126670E+02  0.24542302132E+02  0.70071517825E+02  0.78068570769E+02  0.00000000000E+00 0.  1.
         14    1    3    3    0    0  0.31685726886E+02 -0.26911664419E+02  0.30341033863E+02  0.51466506642E+02  0.00000000000E+00 0. -1.
        -13    1    4    4    0    0  0.25650684850E+01 -0.37156826153E+02 -0.58620310402E+02  0.69451782538E+02  0.00000000000E+00 0.  1.
         13    1    4    4    0    0  0.14061854869E+02  0.24509525606E+02  0.17638491918E+02  0.33310193709E+02  0.00000000000E+00 0. -1.
          1    1    1    2  501    0 -0.24180523569E+02  0.15016662835E+02 -0.43935534089E+01  0.28801062382E+02  0.00000000000E+00 0. -1.
<scales pt_clust_5="13000.00000" pt_clust_6="13000.00000" pt_clust_7="13000.00000" pt_clust_8="13000.00000" pt_clust_9="28.46398"></scales>
<clustering>
<clus scale="   28.464">  2  9  1 -1</clus>
<clus scale="   81.449">  5  6 -1 -1</clus>
<clus scale="   81.524">  1  5  2 -1</clus>
<clus scale="   91.892">  7  8 -1 -1</clus>
<clus scale="   28.464">  2  5  1 -1</clus>
</clustering>
</event>
<event>
 9    2  0.4653788E-005  0.1345291E+03  0.7546771E-02  0.1223717E+00
         21   -1    0    0  501  502  0.00000000000E+00  0.00000000000E+00  0.47044162294E+02  0.47044162294E+02  0.00000000000E+00 0. -1.
          2   -1    0    0  502    0 -0.00000000000E+00 -0.00000000000E+00 -0.56025563009E+03  0.56025563009E+03  0.00000000000E+00 0. -1.
         24    2    1    2    0    0  0.32994460581E+02  0.10521913333E+03 -0.18247414244E+03  0.22740265148E+03  0.79091420483E+02 0.  0.
         23    2    1    2    0    0 -0.29404886971E+02 -0.82178323306E+02 -0.14268199331E+03  0.19040156872E+03  0.90976271399E+02 0.  0.
        -11    1    3    3    0    0  0.47752514828E+02  0.26018825028E+02 -0.61956728328E+02  0.82437358724E+02  0.00000000000E+00 0.  1.
         12    1    3    3    0    0 -0.14758054247E+02  0.79200308298E+02 -0.12051741411E+03  0.14496529275E+03  0.00000000000E+00 0. -1.
        -13    1    4    4    0    0 -0.53589316814E+02 -0.19474453624E+02 -0.81854557833E+02  0.99755891348E+02  0.00000000000E+00 0. -1.
         13    1    4    4    0    0  0.24184429843E+02 -0.62703869682E+02 -0.60827435474E+02  0.90645677372E+02  0.00000000000E+00 0.  1.
          1    1    1    2  501    0 -0.35895736101E+01 -0.23040810020E+02 -0.18805533206E+03  0.18949557219E+03  0.00000000000E+00 0. -1.
<scales pt_clust_5="13000.00000" pt_clust_6="13000.00000" pt_clust_7="13000.00000" pt_clust_8="13000.00000" pt_clust_9="23.31876"></scales>
<clustering>
<clus scale="   23.319">  1  9  2 -1</clus>
<clus scale="   79.091">  5  6 -1 -1</clus>
<clus scale="   90.976">  7  8 -1 -1</clus>
<clus scale="  126.795">  2  5  1 -1</clus>
<clus scale="   23.319">  1  5  2 -1</clus>
</clustering>
</event>
<event>
 9    2  0.4653788E-005  0.1406755E+03  0.7546771E-02  0.1214848E+00
         21   -1    0    0  501  502  0.00000000000E+00  0.00000000000E+00  0.15766519768E+03  0.15766519768E+03  0.00000000000E+00 0.  1.
          2   -1    0    0  502    0 -0.00000000000E+00 -0.00000000000E+00 -0.80281159363E+03  0.80281159363E+03  0.00000000000E+00 0. -1.
         23    2    1    2    0    0 -0.77671794485E+02  0.72168515672E+02 -0.57943291106E+03  0.59608238563E+03  0.91271626075E+02 0.  0.
         24    2    1    2    0    0  0.99563754792E+02 -0.52542707866E+02 -0.19100830154E+03  0.23569622644E+03  0.79967884060E+02 0.  0.
        -11    1    4    4    0    0  0.64226241915E+02 -0.29632656130E+02 -0.45232142333E+02  0.83958627668E+02  0.00000000000E+00 0.  1.
         12    1    4    4    0    0  0.35337512877E+02 -0.22910051736E+02 -0.14577615921E+03  0.15173759877E+03  0.00000000000E+00 0. -1.
        -11    1    3    3    0    0  0.84024195738E+01  0.30302101110E+02 -0.58372062952E+02  0.66303210478E+02  0.00000000000E+00 0.  1.
         11    1    3    3    0    0 -0.86074214058E+02  0.41866414562E+02 -0.52106084811E+03  0.52977917516E+03  0.00000000000E+00 0. -1.
          1    1    1    2  501    0 -0.21891960307E+02 -0.19625807806E+02  0.12529481666E+03  0.12869817924E+03  0.00000000000E+00 0. -1.
<scales pt_clust_5="13000.00000" pt_clust_6="13000.00000" pt_clust_7="13000.00000" pt_clust_8="13000.00000" pt_clust_9="29.40119"></scales>
<clustering>
<clus scale="   29.401">  1  9  2 -1</clus>
<clus scale="   79.968">  5  6 -1 -1</clus>
<clus scale="   91.272">  7  8 -1 -1</clus>
<clus scale="  133.619">  1  5  2 -1</clus>
<clus scale="   29.401">  1  5  2 -1</clus>
</clustering>
</event>
<event>
 9    2  0.4653788E-005  0.1039425E+03  0.7546771E-02  0.1278550E+00
          2   -1    0    0  502    0 -0.00000000000E+00  0.00000000000E+00  0.59654700861E+03  0.59654700861E+03  0.00000000000E+00 0. -1.
         21   -1    0    0  501  502  0.00000000000E+00 -0.00000000000E+00 -0.53712103793E+02  0.53712103793E+02  0.00000000000E+00 0.  1.
         24    2    1    2    0    0 -0.27725989170E+02  0.35056969991E+02  0.41319260525E+03  0.42271167839E+03  0.77196582782E+02 0.  0.
         23    2    1    2    0    0  0.49803312234E+02 -0.81550929600E+02  0.72278633321E+02  0.15047807124E+03  0.91041337093E+02 0.  0.
        -13    1    3    3    0    0 -0.14293467144E+02 -0.15408466730E+02  0.34227120327E+02  0.40164907767E+02  0.00000000000E+00 0.  1.
         14    1    3    3    0    0 -0.13432522025E+02  0.50465436721E+02  0.37896548492E+03  0.38254677062E+03  0.00000000000E+00 0. -1.
        -11    1    4    4    0    0  0.51652444457E+02 -0.55848601664E+02  0.25224545003E+01  0.76114414554E+02  0.00000000000E+00 0.  1.
         11    1    4    4    0    0 -0.18491322229E+01 -0.25702327936E+02  0.69756178821E+02  0.74363656681E+02  0.00000000000E+00 0. -1.
          1    1    1    2  501    0 -0.22077323065E+02  0.46493959610E+02  0.57363666251E+02  0.77069362782E+02  0.00000000000E+00 0. -1.
<scales pt_clust_5="13000.00000" pt_clust_6="13000.00000" pt_clust_7="13000.00000" pt_clust_8="13000.00000" pt_clust_9="51.46937"></scales>
<clustering>
<clus scale="   51.469">  2  9  1 -1</clus>
<clus scale="   77.197">  5  6 -1 -1</clus>
<clus scale="   91.041">  7  8 -1 -1</clus>
<clus scale="   92.059">  1  5  2 -1</clus>
<clus scale="   51.469">  2  5  1 -1</clus>
</clustering>
</event>
<event>
 9    2  0.4653788E-005  0.9309873E+02  0.7546771E-02  0.1302797E+00
          2   -1    0    0  502    0 -0.00000000000E+00  0.00000000000E+00  0.30530270629E+03  0.30530270629E+03  0.00000000000E+00 0. -1.
         21   -1    0    0  501  502  0.00000000000E+00 -0.00000000000E+00 -0.68012003122E+02  0.68012003122E+02  0.00000000000E+00 0. -1.
         24    2    1    2    0    0 -0.35880490101E+02 -0.11743086007E+02  0.64356447637E+02  0.10839430085E+03  0.78627364612E+02 0.  0.
         23    2    1    2    0    0 -0.85031706997E+01 -0.11429755342E+02  0.75396010776E+01  0.92113343761E+02  0.90692222904E+02 0.  0.
        -13    1    3    3    0    0 -0.14725313342E+02  0.29861595224E+02  0.62718451321E+01  0.33880462861E+02  0.00000000000E+00 0.  1.
         14    1    3    3    0    0 -0.21155176759E+02 -0.41604681231E+02  0.58084602505E+02  0.74513837991E+02  0.00000000000E+00 0. -1.
        -13    1    4    4    0    0  0.29561322487E+02  0.20918479076E+02  0.18951680772E+02  0.40873227890E+02  0.00000000000E+00 0.  1.
         13    1    4    4    0    0 -0.38064493187E+02 -0.32348234418E+02 -0.11412079694E+02  0.51240115871E+02  0.00000000000E+00 0. -1.
          1    1    1    2  501    0  0.44383660801E+02  0.23172841349E+02  0.16539465445E+03  0.17280706480E+03  0.00000000000E+00 0. -1.
<scales pt_clust_5="13000.00000" pt_clust_6="13000.00000" pt_clust_7="13000.00000" pt_clust_8="13000.00000" pt_clust_9="50.06888"></scales>
<clustering>
<clus scale="   50.069">  2  9  1 -1</clus>
<clus scale="   78.627">  5  6 -1 -1</clus>
<clus scale="   81.391">  1  5  2 -1</clus>
<clus scale="   90.692">  7  8 -1 -1</clus>
<clus scale="   50.069">  2  5  1 -1</clus>
</clustering>
</event>
<event>
 9    2  0.4653788E-005  0.9894879E+02  0.7546771E-02  0.1287924E+00
         -3   -1    0    0    0  501 -0.00000000000E+00  0.00000000000E+00  0.38205347186E+02  0.38205347186E+02  0.00000000000E+00 0.  1.
         21   -1    0    0  501  502  0.00000000000E+00 -0.00000000000E+00 -0.52404717488E+03  0.52404717488E+03  0.00000000000E+00 0.  1.
         24    2    1    2    0    0 -0.24848413227E+01  0.51647342711E+02 -0.88665021358E+02  0.13293477565E+03  0.84478080696E+02 0.  0.
         23    2    1    2    0    0  0.12053210213E+01  0.10640623608E+02 -0.18305181132E+03  0.20631339352E+03  0.94565189417E+02 0.  0.
        -13    1    3    3    0    0  0.10417113166E+02  0.29899559755E+02  0.82956512451E+01  0.32730990664E+02  0.00000000000E+00 0.  1.
         14    1    3    3    0    0 -0.12901954489E+02  0.21747782956E+02 -0.96960672603E+02  0.10020378498E+03  0.00000000000E+00 0. -1.
        -13    1    4    4    0    0  0.36782940990E+01  0.52735555294E+02 -0.96271576623E+02  0.10983071112E+03  0.00000000000E+00 0.  1.
         13    1    4    4    0    0 -0.24729730777E+01 -0.42094931686E+02 -0.86780234692E+02  0.96482682398E+02  0.00000000000E+00 0. -1.
         -4    1    1    2    0  502  0.12795203014E+01 -0.62287966319E+02 -0.21412499502E+03  0.22300435290E+03  0.00000000000E+00 0.  1.
<scales pt_clust_5="13000.00000" pt_clust_6="13000.00000" pt_clust_7="13000.00000" pt_clust_8="13000.00000" pt_clust_9="62.30111"></scales>
<clustering>
<clus scale="   62.301">  2  9  1 -1</clus>
<clus scale="   84.478">  5  6 -1 -1</clus>
<clus scale="   89.358">  1  5  2 -1</clus>
<clus scale="   94.565">  7  8 -1 -1</clus>
<clus scale="   62.301">  2  5  1 -1</clus>
</clustering>
</event>
<event>
 9    2  0.4653788E-005  0.1049603E+03  0.7546771E-02  0.1274756E+00
         21   -1    0    0  501  502  0.00000000000E+00  0.00000000000E+00  0.16201336594E+03  0.16201336594E+03  0.00000000000E+00 0.  1.
         -3   -1    0    0    0  501 -0.00000000000E+00 -0.00000000000E+00 -0.28297706434E+03  0.28297706434E+03  0.00000000000E+00 0.  1.
         24    2    1    2    0    0  0.58428655066E+02 -0.31927182787E+02 -0.19459062173E+03  0.22087585440E+03  0.80544275148E+02 0.  0.
         23    2    1    2    0    0  0.16076016317E+02  0.39545882097E+02 -0.21850052434E+02  0.10276860957E+03  0.90893603905E+02 0.  0.
        -11    1    3    3    0    0  0.75166195994E+02 -0.10175323269E+02 -0.12702958217E+03  0.14795272545E+03  0.00000000000E+00 0.  1.
         12    1    3    3    0    0 -0.16737540928E+02 -0.21751859518E+02 -0.67561039558E+02  0.72923128943E+02  0.00000000000E+00 0. -1.
        -13    1    4    4    0    0  0.44322826479E+02  0.42843814217E+02  0.72620527336E+01  0.62071271726E+02  0.00000000000E+00 0.  1.
         13    1    4    4    0    0 -0.28246810162E+02 -0.32979321206E+01 -0.29112105167E+02  0.40697337848E+02  0.00000000000E+00 0. -1.
         -4    1    1    2    0  502 -0.74504671383E+02 -0.76186993101E+01  0.95476975761E+02  0.12134596630E+03  0.00000000000E+00 0.  1.
<scales pt_clust_5="13000.00000" pt_clust_6="13000.00000" pt_clust_7="13000.00000" pt_clust_8="13000.00000" pt_clust_9="74.89319"></scales>
<clustering>
<clus scale="   74.893">  1  9  2 -1</clus>
<clus scale="   80.544">  5  6 -1 -1</clus>
<clus scale="   90.894">  7  8 -1 -1</clus>
<clus scale="   96.137">  2  5  1 -1</clus>
<clus scale="   74.893">  1  5  2 -1</clus>
</clustering>
</event>
<event>
 9    2  0.4653788E-005  0.9205099E+02  0.7546771E-02  0.1298643E+00
          2   -1    0    0  502    0 -0.00000000000E+00  0.00000000000E+00  0.20497806173E+03  0.20497806173E+03  0.00000000000E+00 0. -1.
         21   -1    0    0  501  502  0.00000000000E+00 -0.00000000000E+00 -0.84509165544E+02  0.84509165544E+02  0.00000000000E+00 0. -1.
         24    2    1    2    0    0  0.69879242464E+01 -0.13443104338E+02  0.88773299439E+02  0.12718709255E+03  0.89812636514E+02 0.  0.
         23    2    1    2    0    0  0.45532451834E+02  0.71924773386E+01  0.28025342460E+01  0.10203182380E+03  0.90981882645E+02 0.  0.
        -11    1    3    3    0    0 -0.14279224551E+02  0.16442130841E+02 -0.83849543413E+01  0.23335538984E+02  0.00000000000E+00 0.  1.
         12    1    3    3    0    0  0.21267148798E+02 -0.29885235179E+02  0.97158253780E+02  0.10385155356E+03  0.00000000000E+00 0. -1.
        -11    1    4    4    0    0  0.67221048503E+02  0.27033972902E+02  0.44538922056E+01  0.72590234939E+02  0.00000000000E+00 0. -1.
         11    1    4    4    0    0 -0.21688596669E+02 -0.19841495563E+02 -0.16513579596E+01  0.29441588862E+02  0.00000000000E+00 0.  1.
          1    1    1    2  501    0 -0.52520376081E+02  0.62506269998E+01  0.28893062506E+02  0.60268310931E+02  0.00000000000E+00 0. -1.
<scales pt_clust_5="13000.00000" pt_clust_6="13000.00000" pt_clust_7="13000.00000" pt_clust_8="13000.00000" pt_clust_9="52.89105"></scales>
<clustering>
<clus scale="   52.891">  2  9  1 -1</clus>
<clus scale="   89.813">  5  6 -1 -1</clus>
<clus scale="   90.895">  1  5  2 -1</clus>
<clus scale="   90.982">  7  8 -1 -1</clus>
<clus scale="   52.891">  2  5  1 -1</clus>
</clustering>
</event>
<event>
 9    2  0.4653788E-005  0.3177939E+03  0.7546771E-02  0.1101406E+00
         21   -1    0    0  501  502  0.00000000000E+00  0.00000000000E+00  0.21802793348E+03  0.21802793348E+03  0.00000000000E+00 0.  1.
          2   -1    0    0  502    0 -0.00000000000E+00 -0.00000000000E+00 -0.88739591674E+03  0.88739591674E+03  0.00000000000E+00 0. -1.
         23    2    1    2    0    0  0.12808903064E+03  0.48299207648E+02 -0.16758671866E+03  0.23521133697E+03  0.92192470088E+02 0.  0.
         24    2    1    2    0    0 -0.33457199476E+03  0.15568157356E+03 -0.42807538119E+03  0.57075311562E+03  0.79595320155E+02 0.  0.
        -13    1    4    4    0    0 -0.25419253413E+03  0.89057308962E+02 -0.34277469773E+03  0.43593524988E+03  0.00000000000E+00 0.  1.
         14    1    4    4    0    0 -0.80379460628E+02  0.66624264596E+02 -0.85300683460E+02  0.13481786574E+03  0.00000000000E+00 0. -1.
        -11    1    3    3    0    0  0.49116381773E+02  0.59128725516E+02 -0.45251859111E+02  0.89198407456E+02  0.00000000000E+00 0. -1.
         11    1    3    3    0    0  0.78972648867E+02 -0.10829517867E+02 -0.12233485955E+03  0.14601292952E+03  0.00000000000E+00 0.  1.
          1    1    1    2  501    0  0.20648296412E+03 -0.20398078121E+03 -0.73705883407E+02  0.29945939762E+03  0.00000000000E+00 0. -1.
<scales pt_clust_5="13000.00000" pt_clust_6="13000.00000" pt_clust_7="13000.00000" pt_clust_8="13000.00000" pt_clust_9="307.66466"></scales>
<clustering>
<clus scale="   79.595">  5  6 -1 -1</clus>
<clus scale="   92.192">  7  8 -1 -1</clus>
<clus scale="  165.043">  2  7  1 -1</clus>
<clus scale="  307.665">  1  9  2 -1</clus>
<clus scale="  307.665">  1  5  2 -1</clus>
</clustering>
</event>
<event>
 9    2  0.4653788E-005  0.1025647E+03  0.7546771E-02  0.1282518E+00
         -1   -1    0    0    0  501 -0.00000000000E+00  0.00000000000E+00  0.58057834044E+02  0.58057834044E+02  0.00000000000E+00 0.  1.
         21   -1    0    0  501  502  0.00000000000E+00 -0.00000000000E+00 -0.31920419532E+03  0.31920419532E+03  0.00000000000E+00 0. -1.
         24    2    1    2    0    0  0.39627519683E+02 -0.17374911913E+02 -0.28318702116E+01  0.87769737226E+02  0.76310414778E+02 0.  0.
         23    2    1    2    0    0 -0.58539212977E+02  0.76300008917E+01 -0.22154932806E+03  0.24701532609E+03  0.91909793761E+02 0.  0.
        -13    1    3    3    0    0  0.47602465231E+02  0.16663791561E+02 -0.11546037444E+02  0.51739613701E+02  0.00000000000E+00 0.  1.
         14    1    3    3    0    0 -0.79749455476E+01 -0.34038703474E+02  0.87141672323E+01  0.36030123525E+02  0.00000000000E+00 0. -1.
        -13    1    4    4    0    0 -0.65396362778E+02  0.31223657304E+02 -0.20489510528E+03  0.21733293631E+03  0.00000000000E+00 0. -1.
         13    1    4    4    0    0  0.68571498014E+01 -0.23593656413E+02 -0.16654222785E+02  0.29682389777E+02  0.00000000000E+00 0.  1.
         -2    1    1    2    0  502  0.18911693294E+02  0.97449110212E+01 -0.36765163003E+02  0.42476966049E+02  0.00000000000E+00 0.  1.
<scales pt_clust_5="13000.00000" pt_clust_6="13000.00000" pt_clust_7="13000.00000" pt_clust_8="13000.00000" pt_clust_9="21.27476"></scales>
<clustering>
<clus scale="   21.275">  2  9  1 -1</clus>
<clus scale="   76.310">  5  6 -1 -1</clus>
<clus scale="   88.856">  1  5  2 -1</clus>
<clus scale="   91.910">  7  8 -1 -1</clus>
<clus scale="   21.275">  2  5  1 -1</clus>
</clustering>
</event>
<event>
 9    2  0.4653788E-005  0.2636797E+03  0.7546771E-02  0.1104952E+00
          2   -1    0    0  502    0 -0.00000000000E+00  0.00000000000E+00  0.12484642652E+04  0.12484642652E+04  0.00000000000E+00 0. -1.
         21   -1    0    0  501  502  0.00000000000E+00 -0.00000000000E+00 -0.43677202531E+02  0.43677202531E+02  0.00000000000E+00 0. -1.
         24    2    1    2    0    0 -0.58938743658E+02  0.57528681977E+02  0.28191277014E+03  0.30288150362E+03  0.74020743789E+02 0.  0.
         23    2    1    2    0    0 -0.11295151210E+03  0.43002872207E+02  0.31715519930E+03  0.35164842617E+03  0.91988608451E+02 0.  0.
        -13    1    3    3    0    0  0.15549783590E+02  0.22791740872E+02  0.54791906614E+02  0.61346656405E+02  0.00000000000E+00 0.  1.
         14    1    3    3    0    0 -0.74488527248E+02  0.34736941106E+02  0.22712086352E+03  0.24153484721E+03  0.00000000000E+00 0. -1.
        -13    1    4    4    0    0 -0.79853991946E+02  0.16891271780E+02  0.29055214105E+03  0.30179881008E+03  0.00000000000E+00 0.  1.
         13    1    4    4    0    0 -0.33097520151E+02  0.26111600426E+02  0.26603058242E+02  0.49849616094E+02  0.00000000000E+00 0. -1.
          1    1    1    2  501    0  0.17189025575E+03 -0.10053155418E+03  0.60571909321E+03  0.63761153792E+03  0.00000000000E+00 0. -1.
<scales pt_clust_5="13000.00000" pt_clust_6="13000.00000" pt_clust_7="13000.00000" pt_clust_8="13000.00000" pt_clust_9="199.13034"></scales>
<clustering>
<clus scale="   74.021">  5  6 -1 -1</clus>
<clus scale="   91.989">  7  8 -1 -1</clus>
<clus scale="   99.665">  5  7 -1 -1</clus>
<clus scale="  199.130">  2  9  1 -1</clus>
<clus scale="  199.130">  2  5  1 -1</clus>
</clustering>
</event>
<event>
 9    2  0.4653788E-005  0.1096247E+03  0.7546771E-02  0.1264533E+00
         21   -1    0    0  501  502  0.00000000000E+00  0.00000000000E+00  0.45442183080E+02  0.45442183080E+02  0.00000000000E+00 0. -1.
          2   -1    0    0  502    0 -0.00000000000E+00 -0.00000000000E+00 -0.39427697666E+03  0.39427697666E+03  0.00000000000E+00 0. -1.
         24    2    1    2    0    0  0.48153937731E+02 -0.73119607151E+01 -0.11221388729E+03  0.14737015138E+03  0.82181132444E+02 0.  0.
         23    2    1    2    0    0 -0.60582856537E+02  0.55234412946E+02 -0.17158289571E+03  0.21061173246E+03  0.90528939405E+02 0.  0.
        -11    1    3    3    0    0 -0.76630269942E+01 -0.27635070358E+02 -0.12456515660E+02  0.31266337790E+02  0.00000000000E+00 0.  1.
         12    1    3    3    0    0  0.55816964725E+02  0.20323109643E+02 -0.99757371627E+02  0.11610381359E+03  0.00000000000E+00 0. -1.
        -11    1    4    4    0    0 -0.18215947376E+02  0.70038146394E+02 -0.75596000562E+02  0.10465141179E+03  0.00000000000E+00 0. -1.
         11    1    4    4    0    0 -0.42366909161E+02 -0.14803733448E+02 -0.95986895144E+02  0.10596032066E+03  0.00000000000E+00 0.  1.
          1    1    1    2  501    0  0.12428918806E+02 -0.47922452231E+02 -0.65038010583E+02  0.81737275897E+02  0.00000000000E+00 0. -1.
<scales pt_clust_5="13000.00000" pt_clust_6="13000.00000" pt_clust_7="13000.00000" pt_clust_8="13000.00000" pt_clust_9="49.50800"></scales>
<clustering>
<clus scale="   49.508">  1  9  2 -1</clus>
<clus scale="   82.181">  5  6 -1 -1</clus>
<clus scale="   90.529">  7  8 -1 -1</clus>
<clus scale="  102.839">  2  5  1 -1</clus>
<clus scale="   49.508">  1  5  2 -1</clus>
</clustering>
</event>
<event>
 9    2  0.4653788E-005  0.1970360E+03  0.7546771E-02  0.1153407E+00
         21   -1    0    0  501  502  0.00000000000E+00  0.00000000000E+00  0.62493005909E+02  0.62493005909E+02  0.00000000000E+00 0.  1.
          2   -1    0    0  502    0 -0.00000000000E+00 -0.00000000000E+00 -0.15474126286E+04  0.15474126286E+04  0.00000000000E+00 0. -1.
         23    2    1    2    0    0  0.19987856768E+02  0.11737706894E+03 -0.38356531456E+03  0.41170400481E+03  0.90559076355E+02 0.  0.
         24    2    1    2    0    0 -0.54355859469E+02 -0.22474820600E+03 -0.10431023260E+04  0.10713039776E+04  0.78507543756E+02 0.  0.
        -11    1    4    4    0    0 -0.60546143942E+02 -0.88923365035E+02 -0.42236770340E+03  0.43585281606E+03  0.00000000000E+00 0.  1.
         12    1    4    4    0    0  0.61902844730E+01 -0.13582484097E+03 -0.62073462261E+03  0.63545116158E+03  0.00000000000E+00 0. -1.
        -11    1    3    3    0    0  0.28155376688E+02  0.97716780804E+02 -0.37535486459E+03  0.38888631869E+03  0.00000000000E+00 0. -1.
         11    1    3    3    0    0 -0.81675199196E+01  0.19660288140E+02 -0.82104499678E+01  0.22817686124E+02  0.00000000000E+00 0.  1.
          1    1    1    2  501    0  0.34368002701E+02  0.10737113706E+03 -0.58251982168E+02  0.12689765210E+03  0.00000000000E+00 0. -1.
<scales pt_clust_5="13000.00000" pt_clust_6="13000.00000" pt_clust_7="13000.00000" pt_clust_8="13000.00000" pt_clust_9="112.73740"></scales>
<clustering>
<clus scale="   78.508">  5  6 -1 -1</clus>
<clus scale="   90.559">  7  8 -1 -1</clus>
<clus scale="  112.737">  1  9  2 -1</clus>
<clus scale="  191.796">  1  5  2 -1</clus>
<clus scale="  112.737">  1  5  2 -1</clus>
</clustering>
</event>
<event>
 9    2  0.4653788E-005  0.1695150E+03  0.7546771E-02  0.1181914E+00
         21   -1    0    0  501  502  0.00000000000E+00  0.00000000000E+00  0.45864466024E+03  0.45864466024E+03  0.00000000000E+00 0.  1.
         -3   -1    0    0    0  501 -0.00000000000E+00 -0.00000000000E+00 -0.26103574921E+03  0.26103574921E+03  0.00000000000E+00 0.  1.
         24    2    1    2    0    0  0.93443980196E+02 -0.96218022449E+02 -0.17426137274E+03  0.23333714023E+03  0.78035310622E+02 0.  0.
         23    2    1    2    0    0 -0.16175655048E+03  0.40673109710E+02  0.14585498478E+03  0.24378449291E+03  0.10167457363E+03 0.  0.
        -13    1    3    3    0    0  0.99808463103E+02 -0.10383629862E+03 -0.15448548169E+03  0.21120954114E+03  0.00000000000E+00 0.  1.
         14    1    3    3    0    0 -0.63644829068E+01  0.76182761726E+01 -0.19775891047E+02  0.22127599084E+02  0.00000000000E+00 0. -1.
        -11    1    4    4    0    0 -0.15399831230E+03  0.66084822717E+02  0.13454835430E+03  0.21490915204E+03  0.00000000000E+00 0. -1.
         11    1    4    4    0    0 -0.77582381716E+01 -0.25411713008E+02  0.11306630478E+02  0.28875340869E+02  0.00000000000E+00 0.  1.
         -4    1    1    2    0  502  0.68312570281E+02  0.55544912739E+02  0.22601529899E+03  0.24255877632E+03  0.00000000000E+00 0.  1.
<scales pt_clust_5="13000.00000" pt_clust_6="13000.00000" pt_clust_7="13000.00000" pt_clust_8="13000.00000" pt_clust_9="88.04456"></scales>
<clustering>
<clus scale="   78.035">  5  6 -1 -1</clus>
<clus scale="   88.045">  1  9  2 -1</clus>
<clus scale="  101.675">  7  8 -1 -1</clus>
<clus scale="  156.484">  2  5  1 -1</clus>
<clus scale="   88.045">  1  5  2 -1</clus>
</clustering>
</event>
<event>
 9    2  0.6493175E-005  0.1982311E+03  0.7546771E-02  0.1179192E+00
         21   -1    0    0  501  502  0.00000000000E+00  0.00000000000E+00  0.83143802633E+03  0.83143802633E+03  0.00000000000E+00 0.  1.
         -1   -1    0    0    0  501 -0.00000000000E+00 -0.00000000000E+00 -0.17573207460E+03  0.17573207460E+03  0.00000000000E+00 0.  1.
         23    2    1    2    0    0  0.97689807834E+00  0.47027304618E+02  0.57892968925E+02  0.11904579506E+03  0.92778142689E+02 0.  0.
         24    2    1    2    0    0  0.10385414373E+03  0.10483830715E+03 -0.79666274172E+02  0.18596274684E+03  0.80365876806E+02 0.  0.
        -13    1    4    4    0    0  0.90565622913E+02  0.38501876721E+02 -0.60993643303E+02  0.11577888878E+03  0.00000000000E+00 0.  1.
         14    1    4    4    0    0  0.13288520815E+02  0.66336430430E+02 -0.18672630869E+02  0.70183858053E+02  0.00000000000E+00 0. -1.
        -13    1    3    3    0    0 -0.30944554709E+02 -0.14897805457E+02  0.18413829644E+02  0.38968951689E+02  0.00000000000E+00 0.  1.
         13    1    3    3    0    0  0.31921452787E+02  0.61925110075E+02  0.39479139282E+02  0.80076843371E+02  0.00000000000E+00 0. -1.
         -2    1    1    2    0  502 -0.10483104181E+03 -0.15186561177E+03  0.67747925697E+03  0.70216155904E+03  0.00000000000E+00 0.  1.
<scales pt_clust_5="13000.00000" pt_clust_6="13000.00000" pt_clust_7="13000.00000" pt_clust_8="13000.00000" pt_clust_9="181.20953"></scales>
<clustering>
<clus scale="   80.366">  5  6 -1 -1</clus>
<clus scale="   92.778">  7  8 -1 -1</clus>
<clus scale="  104.021">  2  7  1 -1</clus>
<clus scale="  181.210">  1  9  2 -1</clus>
<clus scale="  181.210">  1  5  2 -1</clus>
</clustering>
</event>
<event>
 9    2  0.4653788E-005  0.1370404E+03  0.7546771E-02  0.1221273E+00
          2   -1    0    0  502    0 -0.00000000000E+00  0.00000000000E+00  0.67970596852E+03  0.67970596852E+03  0.00000000000E+00 0. -1.
         21   -1    0    0  501  502  0.00000000000E+00 -0.00000000000E+00 -0.35412107610E+02  0.35412107610E+02  0.00000000000E+00 0. -1.
         24    2    1    2    0    0  0.78648379224E+02  0.84377213472E+02  0.35743896068E+03  0.38248666907E+03  0.72307397237E+02 0.  0.
         23    2    1    2    0    0 -0.75078620922E+02 -0.45121939340E+02  0.18620139417E+03  0.22453493162E+03  0.89845353779E+02 0.  0.
        -13    1    3    3    0    0  0.10320890277E+02  0.62154148608E+02  0.14109093942E+03  0.15451961737E+03  0.00000000000E+00 0.  1.
         14    1    3    3    0    0  0.68327488947E+02  0.22223064864E+02  0.21634802126E+03  0.22796705170E+03  0.00000000000E+00 0. -1.
        -11    1    4    4    0    0 -0.51533230416E+02  0.20536601581E+02  0.75465492291E+02  0.93661445474E+02  0.00000000000E+00 0. -1.
         11    1    4    4    0    0 -0.23545390506E+02 -0.65658540921E+02  0.11073590188E+03  0.13087348615E+03  0.00000000000E+00 0.  1.
          1    1    1    2  501    0 -0.35697583028E+01 -0.39255274132E+02  0.10065350606E+03  0.10809647544E+03  0.00000000000E+00 0. -1.
<scales pt_clust_5="13000.00000" pt_clust_6="13000.00000" pt_clust_7="13000.00000" pt_clust_8="13000.00000" pt_clust_9="39.41727"></scales>
<clustering>
<clus scale="   39.417">  2  9  1 -1</clus>
<clus scale="   72.307">  5  6 -1 -1</clus>
<clus scale="   89.845">  7  8 -1 -1</clus>
<clus scale="  126.239">  1  5  2 -1</clus>
<clus scale="   39.417">  2  5  1 -1</clus>
</clustering>
</event>
<event>
 9    2  0.4653788E-005  0.1071593E+03  0.7546771E-02  0.1270834E+00
         21   -1    0    0  501  502  0.00000000000E+00  0.00000000000E+00  0.47328990555E+02  0.47328990555E+02  0.00000000000E+00 0.  1.
         -3   -1    0    0    0  501 -0.00000000000E+00 -0.00000000000E+00 -0.67024263907E+03  0.67024263907E+03  0.00000000000E+00 0.  1.
         24    2    1    2    0    0 -0.68518328892E+02  0.19098878043E+02 -0.39486340588E+03  0.40897105801E+03  0.79250794661E+02 0.  0.
         23    2    1    2    0    0  0.39928507078E+01  0.40917547620E+02 -0.53924724499E+02  0.11344626151E+03  0.90950479816E+02 0.  0.
        -13    1    3    3    0    0 -0.64394925245E+02 -0.90286823707E+01 -0.16490601031E+03  0.17726312572E+03  0.00000000000E+00 0.  1.
         14    1    3    3    0    0 -0.41234036466E+01  0.28127560413E+02 -0.22995739557E+03  0.23170793230E+03  0.00000000000E+00 0. -1.
        -11    1    4    4    0    0  0.14305721408E+02  0.16578758976E+02 -0.75947180599E+02  0.79041021977E+02  0.00000000000E+00 0. -1.
         11    1    4    4    0    0 -0.10312870700E+02  0.24338788645E+02  0.22022456100E+02  0.34405239535E+02  0.00000000000E+00 0.  1.
         -4    1    1    2    0  502  0.64525478184E+02 -0.60016425663E+02 -0.17412551814E+03  0.19515431010E+03  0.00000000000E+00 0.  1.
<scales pt_clust_5="13000.00000" pt_clust_6="13000.00000" pt_clust_7="13000.00000" pt_clust_8="13000.00000" pt_clust_9="88.12217"></scales>
<clustering>
<clus scale="   79.251">  5  6 -1 -1</clus>
<clus scale="   88.122">  1  9  2 -1</clus>
<clus scale="   90.950">  7  8 -1 -1</clus>
<clus scale="   97.426">  2  5  1 -1</clus>
<clus scale="   88.122">  1  5  2 -1</clus>
</clustering>
</event>
<event>
 9    2  0.4653788E-005  0.1265392E+03  0.7546771E-02  0.1236164E+00
         -3   -1    0    0    0  501 -0.00000000000E+00  0.00000000000E+00  0.90141730585E+02  0.90141730585E+02  0.00000000000E+00 0.  1.
         21   -1    0    0  501  502  0.00000000000E+00 -0.00000000000E+00 -0.23499930859E+03  0.23499930859E+03  0.00000000000E+00 0.  1.
         24    2    1    2    0    0  0.34837991711E+02 -0.76648290129E+02 -0.35967698874E+02  0.11639452555E+03  0.71870467988E+02 0.  0.
         23    2    1    2    0    0 -0.55717540367E+02  0.96331677163E+02 -0.11250796330E+03  0.17982451836E+03  0.85408309117E+02 0.  0.
        -13    1    3    3    0    0  0.30622759186E+02 -0.26076817134E+01 -0.28404496762E+02  0.41849358661E+02  0.00000000000E+00 0.  1.
         14    1    3    3    0    0  0.42152325250E+01 -0.74040608416E+02 -0.75632021123E+01  0.74545166885E+02  0.00000000000E+00 0. -1.
        -11    1    4    4    0    0  0.21629242077E+02  0.35859592966E+02 -0.29068729199E+02  0.50977696474E+02  0.00000000000E+00 0. -1.
         11    1    4    4    0    0 -0.77346782444E+02  0.60472084196E+02 -0.83439234103E+02  0.12884682188E+03  0.00000000000E+00 0.  1.
         -4    1    1    2    0  502  0.20879548656E+02 -0.19683387034E+02  0.36180841746E+01  0.28921995268E+02  0.00000000000E+00 0.  1.
<scales pt_clust_5="13000.00000" pt_clust_6="13000.00000" pt_clust_7="13000.00000" pt_clust_8="13000.00000" pt_clust_9="28.69481"></scales>
<clustering>
<clus scale="   28.695">  2  9  1 -1</clus>
<clus scale="   71.870">  5  6 -1 -1</clus>
<clus scale="   85.408">  7  8 -1 -1</clus>
<clus scale="  117.826">  1  5  2 -1</clus>
<clus scale="   28.695">  2  5  1 -1</clus>
</clustering>
</event>
<event>
 9    2  0.4653788E-005  0.1528930E+03  0.7546771E-02  0.1212014E+00
         21   -1    0    0  501  502  0.00000000000E+00  0.00000000000E+00  0.13921024325E+03  0.13921024325E+03  0.00000000000E+00 0. -1.
          2   -1    0    0  502    0 -0.00000000000E+00 -0.00000000000E+00 -0.66716055736E+03  0.66716055736E+03  0.00000000000E+00 0. -1.
         24    2    1    2    0    0 -0.59302765611E+02  0.47596768189E+02 -0.33710308321E+03  0.35476199025E+03  0.80220388094E+02 0.  0.
         23    2    1    2    0    0  0.39650468316E+02  0.81218445976E+02 -0.27051492490E+03  0.29887861146E+03  0.89339264530E+02 0.  0.
        -13    1    3    3    0    0 -0.55658727264E+02  0.25379031745E+01 -0.11116972560E+03  0.12435048357E+03  0.00000000000E+00 0.  1.
         14    1    3    3    0    0 -0.36440383471E+01  0.45058865015E+02 -0.22593335761E+03  0.23041150669E+03  0.00000000000E+00 0. -1.
        -11    1    4    4    0    0  0.23451224811E+02 -0.14787836163E+02 -0.84367283967E+02  0.88805848048E+02  0.00000000000E+00 0.  1.
         11    1    4    4    0    0  0.16199243505E+02  0.96006282139E+02 -0.18614764093E+03  0.21007276341E+03  0.00000000000E+00 0. -1.
          1    1    1    2  501    0  0.19652297295E+02 -0.12881521416E+03  0.79667694006E+02  0.15273019890E+03  0.00000000000E+00 0. -1.
<scales pt_clust_5="13000.00000" pt_clust_6="13000.00000" pt_clust_7="13000.00000" pt_clust_8="13000.00000" pt_clust_9="124.07561"></scales>
<clustering>
<clus scale="   80.220">  5  6 -1 -1</clus>
<clus scale="   89.339">  7  8 -1 -1</clus>
<clus scale="  110.533">  2  5  1 -1</clus>
<clus scale="  124.076">  1  9  2 -1</clus>
<clus scale="  124.076">  1  5  2 -1</clus>
</clustering>
</event>
<event>
 9    2  0.4653788E-005  0.9234936E+02  0.7546771E-02  0.1302508E+00
         21   -1    0    0  501  502  0.00000000000E+00  0.00000000000E+00  0.33759286210E+03  0.33759286210E+03  0.00000000000E+00 0.  1.
          2   -1    0    0  502    0 -0.00000000000E+00 -0.00000000000E+00 -0.37973616151E+03  0.37973616151E+03  0.00000000000E+00 0. -1.
         23    2    1    2    0    0  0.11722085847E+02 -0.24463416368E+02 -0.36221562647E+03  0.37387697491E+03  0.88588748005E+02 0.  0.
         24    2    1    2    0    0 -0.59797762970E+01 -0.41649200487E+01  0.14186512790E+03  0.16286865633E+03  0.79670448838E+02 0.  0.
        -13    1    4    4    0    0 -0.25552722728E+01  0.35311860555E+02  0.95649036006E+02  0.10199115158E+03  0.00000000000E+00 0.  1.
         14    1    4    4    0    0 -0.34245040241E+01 -0.39476780604E+02  0.46216091893E+02  0.60877504750E+02  0.00000000000E+00 0. -1.
        -13    1    3    3    0    0 -0.37328947357E+02  0.88215785247E-01 -0.16544404204E+03  0.16960303399E+03  0.00000000000E+00 0.  1.
         13    1    3    3    0    0  0.49051033204E+02 -0.24551632154E+02 -0.19677158443E+03  0.20427394092E+03  0.00000000000E+00 0. -1.
          1    1    1    2  501    0 -0.57423095503E+01  0.28628336417E+02  0.17820719916E+03  0.18058339236E+03  0.00000000000E+00 0. -1.
<scales pt_clust_5="13000.00000" pt_clust_6="13000.00000" pt_clust_7="13000.00000" pt_clust_8="13000.00000" pt_clust_9="29.19856"></scales>
<clustering>
<clus scale="   29.199">  1  9  2 -1</clus>
<clus scale="   79.670">  5  6 -1 -1</clus>
<clus scale="   83.832">  1  5  2 -1</clus>
<clus scale="   88.589">  7  8 -1 -1</clus>
<clus scale="   29.199">  1  5  2 -1</clus>
</clustering>
</event>
<event>
 9    2  0.4653788E-005  0.9672966E+02  0.7546771E-02  0.1293176E+00
         21   -1    0    0  501  502  0.00000000000E+00  0.00000000000E+00  0.12846542505E+03  0.12846542505E+03  0.00000000000E+00 0.  1.
         -3   -1    0    0    0  501 -0.00000000000E+00 -0.00000000000E+00 -0.34032430244E+03  0.34032430244E+03  0.00000000000E+00 0.  1.
         23    2    1    2    0    0  0.13802887783E+02 -0.28902638119E+02 -0.29639187445E+03  0.31172937467E+03  0.91110798445E+02 0.  0.
         24    2    1    2    0    0 -0.41123994838E+02  0.19224219898E+02  0.33183481304E+02  0.98095215335E+02  0.80378941633E+02 0.  0.
        -11    1    4    4    0    0 -0.29294861743E+02 -0.29785943281E+02  0.17495929582E+02  0.45293475177E+02  0.00000000000E+00 0.  1.
         12    1    4    4    0    0 -0.11829133095E+02  0.49010163179E+02  0.15687551722E+02  0.52801740158E+02  0.00000000000E+00 0. -1.
        -13    1    3    3    0    0 -0.28771069995E+02 -0.24094879791E+02 -0.55117280498E+02  0.66680224282E+02  0.00000000000E+00 0.  1.
         13    1    3    3    0    0  0.42573957778E+02 -0.48077583279E+01 -0.24127459395E+03  0.24504915039E+03  0.00000000000E+00 0. -1.
         -4    1    1    2    0  502  0.27321107055E+02  0.96784182214E+01  0.51349515751E+02  0.58965137478E+02  0.00000000000E+00 0.  1.
<scales pt_clust_5="13000.00000" pt_clust_6="13000.00000" pt_clust_7="13000.00000" pt_clust_8="13000.00000" pt_clust_9="28.98473"></scales>
<clustering>
<clus scale="   28.985">  1  9  2 -1</clus>
<clus scale="   80.379">  5  6 -1 -1</clus>
<clus scale="   86.696">  1  5  2 -1</clus>
<clus scale="   91.111">  7  8 -1 -1</clus>
<clus scale="   28.985">  1  5  2 -1</clus>
</clustering>
</event>
<event>
 9    2  0.4653788E-005  0.1145575E+03  0.7546771E-02  0.1254911E+00
         21   -1    0    0  501  502  0.00000000000E+00  0.00000000000E+00  0.23211606683E+03  0.23211606683E+03  0.00000000000E+00 0. -1.
          4   -1    0    0  502    0 -0.00000000000E+00 -0.00000000000E+00 -0.27505125911E+03  0.27505125911E+03  0.00000000000E+00 0. -1.
         24    2    1    2    0    0  0.63051565677E+02 -0.37235298487E+02 -0.22924582325E+03  0.25381183314E+03  0.80652537307E+02 0.  0.
         23    2    1    2    0    0 -0.83363804466E+02 -0.87923554538E+00  0.10153455342E+03  0.15821197974E+03  0.88155930298E+02 0.  0.
        -11    1    3    3    0    0  0.74645442961E+02 -0.18732528049E+02 -0.12111222842E+03  0.14349571992E+03  0.00000000000E+00 0.  1.
         12    1    3    3    0    0 -0.11593877285E+02 -0.18502770438E+02 -0.10813359483E+03  0.11031611322E+03  0.00000000000E+00 0. -1.
        -13    1    4    4    0    0 -0.55705985299E+02 -0.42827604266E+02  0.50024715575E+02  0.86254464543E+02  0.00000000000E+00 0. -1.
         13    1    4    4    0    0 -0.27657819167E+02  0.41948368720E+02  0.51509837840E+02  0.71957515200E+02  0.00000000000E+00 0.  1.
          3    1    1    2  501    0  0.20312238790E+02  0.38114534033E+02  0.84776077559E+02  0.95143513049E+02  0.00000000000E+00 0. -1.
<scales pt_clust_5="13000.00000" pt_clust_6="13000.00000" pt_clust_7="13000.00000" pt_clust_8="13000.00000" pt_clust_9="43.18917"></scales>
<clustering>
<clus scale="   43.189">  1  9  2 -1</clus>
<clus scale="   80.653">  5  6 -1 -1</clus>
<clus scale="   88.156">  7  8 -1 -1</clus>
<clus scale="  108.889">  2  5  1 -1</clus>
<clus scale="   43.189">  1  5  2 -1</clus>
</clustering>
</event>
<event>
 9    2  0.4653788E-005  0.9941890E+02  0.7546771E-02  0.1287385E+00
         21   -1    0    0  501  502  0.00000000000E+00  0.00000000000E+00  0.11331175182E+03  0.11331175182E+03  0.00000000000E+00 0. -1.
         -3   -1    0    0    0  501 -0.00000000000E+00 -0.00000000000E+00 -0.15023473683E+03  0.15023473683E+03  0.00000000000E+00 0.  1.
         24    2    1    2    0    0  0.34572369356E+02 -0.24777888375E+02 -0.83813062410E+02  0.12388020299E+03  0.80699955307E+02 0.  0.
         23    2    1    2    0    0 -0.92666814810E+01  0.26318861922E+02  0.12606630283E+02  0.97027017551E+02  0.92069327842E+02 0.  0.
        -13    1    3    3    0    0 -0.22211296854E+02 -0.21679295932E+02 -0.46346553280E+02  0.55779356226E+02  0.00000000000E+00 0.  1.
         14    1    3    3    0    0  0.56783666209E+02 -0.30985924432E+01 -0.37466509130E+02  0.68100846762E+02  0.00000000000E+00 0. -1.
        -11    1    4    4    0    0  0.11117370046E+02 -0.25077796806E+02 -0.18972244188E+02  0.33353228612E+02  0.00000000000E+00 0.  1.
         11    1    4    4    0    0 -0.20384051527E+02  0.51396658728E+02  0.31578874471E+02  0.63673788939E+02  0.00000000000E+00 0. -1.
         -4    1    1    2    0  502 -0.25305687875E+02 -0.15409735472E+01  0.34283447125E+02  0.42639268112E+02  0.00000000000E+00 0.  1.
<scales pt_clust_5="13000.00000" pt_clust_6="13000.00000" pt_clust_7="13000.00000" pt_clust_8="13000.00000" pt_clust_9="25.35256"></scales>
<clustering>
<clus scale="   25.353">  1  9  2 -1</clus>
<clus scale="   80.700">  5  6 -1 -1</clus>
<clus scale="   88.993">  2  5  1 -1</clus>
<clus scale="   92.069">  7  8 -1 -1</clus>
<clus scale="   25.353">  1  5  2 -1</clus>
</clustering>
</event>
<event>
 9    2  0.4653788E-005  0.1237420E+03  0.7546771E-02  0.1238974E+00
          2   -1    0    0  502    0 -0.00000000000E+00  0.00000000000E+00  0.60830806872E+03  0.60830806872E+03  0.00000000000E+00 0. -1.
         21   -1    0    0  501  502  0.00000000000E+00 -0.00000000000E+00 -0.41343085532E+02  0.41343085532E+02  0.00000000000E+00 0. -1.
         23    2    1    2    0    0  0.69375062058E+02  0.52900029369E+02  0.28432639305E+03  0.30995981597E+03  0.87305654962E+02 0.  0.
         24    2    1    2    0    0 -0.94733972371E+02 -0.10369907744E+02  0.25279597549E+03  0.28187726364E+03  0.80417199815E+02 0.  0.
        -11    1    4    4    0    0 -0.42326616040E+02 -0.23122016204E+02  0.20237744243E+03  0.20804518563E+03  0.00000000000E+00 0.  1.
         12    1    4    4    0    0 -0.52407356331E+02  0.12752108460E+02  0.50418533060E+02  0.73832078013E+02  0.00000000000E+00 0. -1.
        -13    1    3    3    0    0  0.58428812032E+02  0.76589637763E+02  0.20625348492E+03  0.22764094256E+03  0.00000000000E+00 0. -1.
         13    1    3    3    0    0  0.10946250026E+02 -0.23689608394E+02  0.78072908126E+02  0.82318873405E+02  0.00000000000E+00 0.  1.
          1    1    1    2  501    0  0.25358910313E+02 -0.42530121625E+02  0.29842614652E+02  0.57814074644E+02  0.00000000000E+00 0. -1.
<scales pt_clust_5="13000.00000" pt_clust_6="13000.00000" pt_clust_7="13000.00000" pt_clust_8="13000.00000" pt_clust_9="49.51652"></scales>
<clustering>
<clus scale="   49.517">  2  9  1 -1</clus>
<clus scale="   80.417">  5  6 -1 -1</clus>
<clus scale="   87.306">  7  8 -1 -1</clus>
<clus scale="  118.982">  2  5  1 -1</clus>
<clus scale="   49.517">  2  5  1 -1</clus>
</clustering>
</event>
<event>
 9    2  0.4653788E-005  0.9956501E+02  0.7546771E-02  0.1288372E+00
         21   -1    0    0  501  502  0.00000000000E+00  0.00000000000E+00  0.13572818021E+03  0.13572818021E+03  0.00000000000E+00 0.  1.
          2   -1    0    0  502    0 -0.00000000000E+00 -0.00000000000E+00 -0.18518472030E+03  0.18518472030E+03  0.00000000000E+00 0. -1.
         23    2    1    2    0    0  0.43895203030E+02  0.71513298549E+01 -0.13309943767E+03  0.16763310528E+03  0.91692242368E+02 0.  0.
         24    2    1    2    0    0 -0.16744891773E+02 -0.21095345791E+02  0.23205720310E+02  0.85572872547E+02  0.77838332756E+02 0.  0.
        -11    1    4    4    0    0 -0.14856092886E+02 -0.49604868321E+02  0.57728750580E+01  0.52102519550E+02  0.00000000000E+00 0.  1.
         12    1    4    4    0    0 -0.18887988866E+01  0.28509522530E+02  0.17432845252E+02  0.33470352997E+02  0.00000000000E+00 0. -1.
        -13    1    3    3    0    0  0.64124648912E+02 -0.20207919237E+02 -0.79164806236E+02  0.10386239524E+03  0.00000000000E+00 0.  1.
         13    1    3    3    0    0 -0.20229445882E+02  0.27359249092E+02 -0.53934631438E+02  0.63770710048E+02  0.00000000000E+00 0. -1.
          1    1    1    2  501    0 -0.27150311258E+02  0.13944015936E+02  0.60437177277E+02  0.67706922682E+02  0.00000000000E+00 0. -1.
<scales pt_clust_5="13000.00000" pt_clust_6="13000.00000" pt_clust_7="13000.00000" pt_clust_8="13000.00000" pt_clust_9="30.52171"></scales>
<clustering>
<clus scale="   30.522">  1  9  2 -1</clus>
<clus scale="   77.838">  5  6 -1 -1</clus>
<clus scale="   86.974">  1  5  2 -1</clus>
<clus scale="   91.692">  7  8 -1 -1</clus>
<clus scale="   30.522">  1  5  2 -1</clus>
</clustering>
</event>
<event>
 9    2  0.4653788E-005  0.1095260E+03  0.7546771E-02  0.1266322E+00
          2   -1    0    0  502    0 -0.00000000000E+00  0.00000000000E+00  0.74391314036E+03  0.74391314036E+03  0.00000000000E+00 0. -1.
         21   -1    0    0  501  502  0.00000000000E+00 -0.00000000000E+00 -0.41136962506E+02  0.41136962506E+02  0.00000000000E+00 0.  1.
         23    2    1    2    0    0  0.56357912687E+02  0.50144802919E+02  0.40018388002E+03  0.41730753312E+03  0.91146715749E+02 0.  0.
         24    2    1    2    0    0  0.19208412417E+02 -0.38171054018E+02  0.47743928071E+02  0.10165737338E+03  0.78922407607E+02 0.  0.
        -11    1    4    4    0    0  0.42597783249E+02 -0.19284498467E+02  0.53493945751E+02  0.71049737866E+02  0.00000000000E+00 0.  1.
         12    1    4    4    0    0 -0.23389370831E+02 -0.18886555551E+02 -0.57500176793E+01  0.30607635514E+02  0.00000000000E+00 0. -1.
        -13    1    3    3    0    0 -0.15890551109E+02 -0.13247342717E+02  0.48554808068E+02  0.52778509737E+02  0.00000000000E+00 0.  1.
         13    1    3    3    0    0  0.72248463796E+02  0.63392145636E+02  0.35162907195E+03  0.36452902339E+03  0.00000000000E+00 0. -1.
          1    1    1    2  501    0 -0.75566325104E+02 -0.11973748901E+02  0.25484836976E+03  0.26608519636E+03  0.00000000000E+00 0. -1.
<scales pt_clust_5="13000.00000" pt_clust_6="13000.00000" pt_clust_7="13000.00000" pt_clust_8="13000.00000" pt_clust_9="76.50912"></scales>
<clustering>
<clus scale="   76.509">  2  9  1 -1</clus>
<clus scale="   78.922">  5  6 -1 -1</clus>
<clus scale="   91.147">  7  8 -1 -1</clus>
<clus scale="   99.584">  2  5  1 -1</clus>
<clus scale="   76.509">  2  5  1 -1</clus>
</clustering>
</event>
<event>
 9    2  0.4653788E-005  0.1178030E+03  0.7546771E-02  0.1257257E+00
          2   -1    0    0  502    0 -0.00000000000E+00  0.00000000000E+00  0.14671103670E+03  0.14671103670E+03  0.00000000000E+00 0. -1.
         21   -1    0    0  501  502  0.00000000000E+00 -0.00000000000E+00 -0.25764328862E+03  0.25764328862E+03  0.00000000000E+00 0. -1.
         23    2    1    2    0    0 -0.29395671629E+02  0.14713641767E+01  0.35402776158E+02  0.10193874026E+03  0.90949875113E+02 0.  0.
         24    2    1    2    0    0 -0.80548649689E+02 -0.96428776404E+01 -0.15514465427E+03  0.19181659349E+03  0.78375198453E+02 0.  0.
        -13    1    4    4    0    0 -0.59990640719E+02  0.30703130017E+02 -0.88302209117E+02  0.11108032815E+03  0.00000000000E+00 0.  1.
         14    1    4    4    0    0 -0.20558008970E+02 -0.40346007658E+02 -0.66842445154E+02  0.80736265339E+02  0.00000000000E+00 0. -1.
        -13    1    3    3    0    0  0.13671972528E+01  0.36877011138E+02 -0.83071172349E+01  0.37825803040E+02  0.00000000000E+00 0.  1.
         13    1    3    3    0    0 -0.30762868882E+02 -0.35405646962E+02  0.43709893393E+02  0.64112937220E+02  0.00000000000E+00 0. -1.
          1    1    1    2  501    0  0.10994432132E+03  0.81715134637E+01  0.88096261947E+01  0.11059899157E+03  0.00000000000E+00 0. -1.
<scales pt_clust_5="13000.00000" pt_clust_6="13000.00000" pt_clust_7="13000.00000" pt_clust_8="13000.00000" pt_clust_9="87.94815"></scales>
<clustering>
<clus scale="   78.375">  5  6 -1 -1</clus>
<clus scale="   90.950">  7  8 -1 -1</clus>
<clus scale="   95.594">  1  7  2 -1</clus>
<clus scale="   87.948">  2  9  1 -1</clus>
<clus scale="   87.948">  2  5  1 -1</clus>
</clustering>
</event>
<event>
 9    2  0.5972419E-005  0.4785626E+03  0.7546771E-02  0.1066413E+00
          2   -1    0    0  502    0 -0.00000000000E+00  0.00000000000E+00  0.21000188575E+04  0.21000188575E+04  0.00000000000E+00 0. -1.
         21   -1    0    0  501  502  0.00000000000E+00 -0.00000000000E+00 -0.52354754688E+03  0.52354754688E+03  0.00000000000E+00 0.  1.
         23    2    1    2    0    0 -0.70176548449E+02 -0.37770901525E+02 -0.26364439675E+02  0.12601117971E+03  0.93980555326E+02 0.  0.
         24    2    1    2    0    0 -0.45964150292E+02  0.47201816419E+03 -0.28379694898E+03  0.55811141547E+03  0.77677496020E+02 0.  0.
        -13    1    4    4    0    0 -0.37659792169E+02  0.45889386472E+03 -0.28657380460E+03  0.54233420001E+03  0.00000000000E+00 0.  1.
         14    1    4    4    0    0 -0.83043581225E+01  0.13124299466E+02  0.27768556147E+01  0.15777215452E+02  0.00000000000E+00 0. -1.
        -13    1    3    3    0    0  0.22434672135E+02  0.14321870270E+00  0.34033216882E+00  0.22437710476E+02  0.00000000000E+00 0. -1.
         13    1    3    3    0    0 -0.92611220584E+02 -0.37914120228E+02 -0.26704771844E+02  0.10357346924E+03  0.00000000000E+00 0.  1.
          1    1    1    2  501    0  0.11614069874E+03 -0.43424726266E+03  0.18866326993E+04  0.19394438092E+04  0.00000000000E+00 0. -1.
<scales pt_clust_5="13000.00000" pt_clust_6="13000.00000" pt_clust_7="13000.00000" pt_clust_8="13000.00000" pt_clust_9="472.21673"></scales>
<clustering>
<clus scale="   77.677">  5  6 -1 -1</clus>
<clus scale="   93.981">  7  8 -1 -1</clus>
<clus scale="  123.222">  1  7  2 -1</clus>
<clus scale="  472.217">  2  9  1 -1</clus>
<clus scale="  472.217">  2  5  1 -1</clus>
</clustering>
</event>
<event>
 9    2  0.4653788E-005  0.9230091E+02  0.7546771E-02  0.1304732E+00
         21   -1    0    0  501  502  0.00000000000E+00  0.00000000000E+00  0.92555441369E+02  0.92555441369E+02  0.00000000000E+00 0.  1.
          2   -1    0    0  502    0 -0.00000000000E+00 -0.00000000000E+00 -0.22699084194E+03  0.22699084194E+03  0.00000000000E+00 0. -1.
         24    2    1    2    0    0 -0.55405471962E+01 -0.11606378521E+02 -0.17611504161E+03  0.19383744468E+03  0.79943989100E+02 0.  0.
         23    2    1    2    0    0 -0.98934686250E+01 -0.67713469405E+01  0.42273417799E+02  0.10170254345E+03  0.91720410108E+02 0.  0.
        -13    1    3    3    0    0 -0.80992965122E+00  0.21899078944E+02 -0.96095253581E+01  0.23928406178E+02  0.00000000000E+00 0.  1.
         14    1    3    3    0    0 -0.47306175450E+01 -0.33505457465E+02 -0.16650551625E+03  0.16990903850E+03  0.00000000000E+00 0. -1.
        -11    1    4    4    0    0  0.10428101588E+02  0.38094316128E+02  0.33252380577E+02  0.51629865757E+02  0.00000000000E+00 0.  1.
         11    1    4    4    0    0 -0.20321570213E+02 -0.44865663069E+02  0.90210372216E+01  0.50072677690E+02  0.00000000000E+00 0. -1.
          1    1    1    2  501    0  0.15434015821E+02  0.18377725461E+02 -0.59377675964E+00  0.24006295182E+02  0.00000000000E+00 0. -1.
<scales pt_clust_5="13000.00000" pt_clust_6="13000.00000" pt_clust_7="13000.00000" pt_clust_8="13000.00000" pt_clust_9="23.99895"></scales>
<clustering>
<clus scale="   23.999">  1  9  2 -1</clus>
<clus scale="   79.944">  5  6 -1 -1</clus>
<clus scale="   80.609">  2  5  1 -1</clus>
<clus scale="   91.720">  7  8 -1 -1</clus>
<clus scale="   23.999">  1  5  2 -1</clus>
</clustering>
</event>
<event>
 9    2  0.4653788E-005  0.1016926E+03  0.7546771E-02  0.1281799E+00
         21   -1    0    0  501  502  0.00000000000E+00  0.00000000000E+00  0.15832403060E+03  0.15832403060E+03  0.00000000000E+00 0. -1.
          2   -1    0    0  502    0 -0.00000000000E+00 -0.00000000000E+00 -0.22728188448E+03  0.22728188448E+03  0.00000000000E+00 0. -1.
         24    2    1    2    0    0 -0.15331836910E+02 -0.50137959452E+02 -0.17396116143E+03  0.19835741378E+03  0.79588301369E+02 0.  0.
         23    2    1    2    0    0  0.29651915376E+02  0.86415698057E+01  0.29301811399E+02  0.99740035869E+02  0.90197371301E+02 0.  0.
        -13    1    3    3    0    0  0.28228583146E+02 -0.33691819014E+02 -0.53686749193E+02  0.69384858678E+02  0.00000000000E+00 0.  1.
         14    1    3    3    0    0 -0.43560420056E+02 -0.16446140438E+02 -0.12027441224E+03  0.12897255511E+03  0.00000000000E+00 0. -1.
        -13    1    4    4    0    0 -0.45280753611E+00  0.44439222772E+02  0.28811903829E+02  0.52963906177E+02  0.00000000000E+00 0.  1.
         13    1    4    4    0    0  0.30104722912E+02 -0.35797652966E+02  0.48990756984E+00  0.46776129692E+02  0.00000000000E+00 0. -1.
          1    1    1    2  501    0 -0.14320078466E+02  0.41496389646E+02  0.75701496152E+02  0.87508465422E+02  0.00000000000E+00 0. -1.
<scales pt_clust_5="13000.00000" pt_clust_6="13000.00000" pt_clust_7="13000.00000" pt_clust_8="13000.00000" pt_clust_9="43.89778"></scales>
<clustering>
<clus scale="   43.898">  1  9  2 -1</clus>
<clus scale="   79.588">  5  6 -1 -1</clus>
<clus scale="   90.197">  7  8 -1 -1</clus>
<clus scale="   92.413">  2  5  1 -1</clus>
<clus scale="   43.898">  1  5  2 -1</clus>
</clustering>
</event>
<event>
 9    2  0.4653788E-005  0.3712574E+03  0.7546771E-02  0.1076179E+00
         21   -1    0    0  501  502  0.00000000000E+00  0.00000000000E+00  0.43075809927E+03  0.43075809927E+03  0.00000000000E+00 0. -1.
          2   -1    0    0  502    0 -0.00000000000E+00 -0.00000000000E+00 -0.80821781650E+03  0.80821781650E+03  0.00000000000E+00 0. -1.
         24    2    1    2    0    0  0.63430018313E+02  0.17466558950E+03 -0.37964218840E+03  0.43003152632E+03  0.79167461956E+02 0.  0.
         23    2    1    2    0    0 -0.16809749635E+03  0.21666470380E+03 -0.20449295854E+03  0.35418136032E+03  0.91797079230E+02 0.  0.
        -13    1    3    3    0    0  0.28169064579E+02  0.86353511117E+01 -0.85452650715E+02  0.90389274818E+02  0.00000000000E+00 0.  1.
         14    1    3    3    0    0  0.35260953735E+02  0.16603023839E+03 -0.29418953769E+03  0.33964225150E+03  0.00000000000E+00 0. -1.
        -11    1    4    4    0    0 -0.60966565663E+02  0.13553395279E+03 -0.70787469066E+02  0.16461239402E+03  0.00000000000E+00 0.  1.
         11    1    4    4    0    0 -0.10713093069E+03  0.81130751003E+02 -0.13370548947E+03  0.18956896630E+03  0.00000000000E+00 0. -1.
          1    1    1    2  501    0  0.10466747804E+03 -0.39133029330E+03  0.20667542971E+03  0.45476302913E+03  0.00000000000E+00 0. -1.
<scales pt_clust_5="13000.00000" pt_clust_6="13000.00000" pt_clust_7="13000.00000" pt_clust_8="13000.00000" pt_clust_9="359.72958"></scales>
<clustering>
<clus scale="   79.167">  5  6 -1 -1</clus>
<clus scale="   91.797">  7  8 -1 -1</clus>
<clus scale="  201.987">  2  5  1 -1</clus>
<clus scale="  359.730">  1  9  2 -1</clus>
<clus scale="  359.730">  1  5  2 -1</clus>
</clustering>
</event>
<event>
 9    2  0.4653788E-005  0.2996719E+03  0.7546771E-02  0.1085405E+00
         -1   -1    0    0    0  501 -0.00000000000E+00  0.00000000000E+00  0.10909770546E+04  0.10909770546E+04  0.00000000000E+00 0.  1.
         21   -1    0    0  501  502  0.00000000000E+00 -0.00000000000E+00 -0.63450503736E+02  0.63450503736E+02  0.00000000000E+00 0.  1.
         24    2    1    2    0    0  0.35553270575E+02 -0.18374716331E+03  0.52274830777E+03  0.56111381560E+03  0.80968300614E+02 0.  0.
         23    2    1    2    0    0 -0.11731731841E+00 -0.26330339449E+02  0.20150650428E+03  0.22268992874E+03  0.91063892692E+02 0.  0.
        -13    1    3    3    0    0  0.55356903683E+02 -0.15731934043E+03  0.38699049577E+03  0.42139696899E+03  0.00000000000E+00 0.  1.
         14    1    3    3    0    0 -0.19803633107E+02 -0.26427822881E+02  0.13575781200E+03  0.13971684661E+03  0.00000000000E+00 0. -1.
        -13    1    4    4    0    0 -0.43511839885E+02  0.83655418724E+00  0.97082922591E+02  0.10639113634E+03  0.00000000000E+00 0. -1.
         13    1    4    4    0    0  0.43394522567E+02 -0.27166893637E+02  0.10442358169E+03  0.11629879239E+03  0.00000000000E+00 0.  1.
         -2    1    1    2    0  502 -0.35435953257E+02  0.21007750276E+03  0.30327173884E+03  0.37062381404E+03  0.00000000000E+00 0.  1.
<scales pt_clust_5="13000.00000" pt_clust_6="13000.00000" pt_clust_7="13000.00000" pt_clust_8="13000.00000" pt_clust_9="213.04522"></scales>
<clustering>
<clus scale="   80.968">  5  6 -1 -1</clus>
<clus scale="   91.064">  7  8 -1 -1</clus>
<clus scale="   91.209">  5  7 -1 -1</clus>
<clus scale="  213.045">  2  9  1 -1</clus>
<clus scale="  213.045">  2  5  1 -1</clus>
</clustering>
</event>
<event>
 9    2  0.4653788E-005  0.8831292E+02  0.7546771E-02  0.1312119E+00
          2   -1    0    0  502    0 -0.00000000000E+00  0.00000000000E+00  0.66912492438E+03  0.66912492438E+03  0.00000000000E+00 0. -1.
         21   -1    0    0  501  502  0.00000000000E+00 -0.00000000000E+00 -0.34693187616E+02  0.34693187616E+02  0.00000000000E+00 0. -1.
         24    2    1    2    0    0  0.27791150125E+02  0.12960440497E+01  0.29127544023E+03  0.30337000739E+03  0.80112118599E+02 0.  0.
         23    2    1    2    0    0  0.47857216218E+02 -0.14034422660E+02  0.28995814671E+03  0.30709402186E+03  0.87998484401E+02 0.  0.
        -11    1    3    3    0    0 -0.13932948691E+02  0.30589816584E+02  0.12636510827E+03  0.13075933820E+03  0.00000000000E+00 0.  1.
         12    1    3    3    0    0  0.41724098817E+02 -0.29293772534E+02  0.16491033196E+03  0.17261066920E+03  0.00000000000E+00 0. -1.
        -13    1    4    4    0    0  0.13502060161E+02 -0.49597576312E+02  0.15956490763E+03  0.16764004579E+03  0.00000000000E+00 0. -1.
         13    1    4    4    0    0  0.34355156058E+02  0.35563153652E+02  0.13039323908E+03  0.13945397607E+03  0.00000000000E+00 0.  1.
          1    1    1    2  501    0 -0.75648366344E+02  0.12738378610E+02  0.53198149822E+02  0.93354082742E+02  0.00000000000E+00 0. -1.
<scales pt_clust_5="13000.00000" pt_clust_6="13000.00000" pt_clust_7="13000.00000" pt_clust_8="13000.00000" pt_clust_9="76.71337"></scales>
<clustering>
<clus scale="   76.713">  2  9  1 -1</clus>
<clus scale="   80.112">  5  6 -1 -1</clus>
<clus scale="   80.457">  1  5  2 -1</clus>
<clus scale="   87.998">  7  8 -1 -1</clus>
<clus scale="   76.713">  2  5  1 -1</clus>
</clustering>
</event>
<event>
 9    2  0.4653788E-005  0.1085572E+03  0.7546771E-02  0.1268340E+00
          2   -1    0    0  502    0 -0.00000000000E+00  0.00000000000E+00  0.69912062868E+02  0.69912062868E+02  0.00000000000E+00 0. -1.
         21   -1    0    0  501  502  0.00000000000E+00 -0.00000000000E+00 -0.50159567825E+03  0.50159567825E+03  0.00000000000E+00 0.  1.
         24    2    1    2    0    0  0.34709342191E+02 -0.42684629936E+02  0.14864358374E+02  0.98094327185E+02  0.79842543847E+02 0.  0.
         23    2    1    2    0    0 -0.60125257792E+02  0.55581779335E+02 -0.40249221180E+03  0.42094232294E+03  0.92130765024E+02 0.  0.
        -11    1    3    3    0    0 -0.66160300962E+01  0.19441926108E+02  0.11191709267E+02  0.23388345417E+02  0.00000000000E+00 0.  1.
         12    1    3    3    0    0  0.41325372287E+02 -0.62126556044E+02  0.36726491074E+01  0.74705981769E+02  0.00000000000E+00 0. -1.
        -11    1    4    4    0    0 -0.26119764256E+02 -0.22994072549E+02 -0.16110915938E+03  0.16482454518E+03  0.00000000000E+00 0. -1.
         11    1    4    4    0    0 -0.34005493536E+02  0.78575851884E+02 -0.24138305242E+03  0.25611777776E+03  0.00000000000E+00 0.  1.
          1    1    1    2  501    0  0.25415915601E+02 -0.12897149399E+02 -0.44055761957E+02  0.52471090993E+02  0.00000000000E+00 0. -1.
<scales pt_clust_5="13000.00000" pt_clust_6="13000.00000" pt_clust_7="13000.00000" pt_clust_8="13000.00000" pt_clust_9="28.50097"></scales>
<clustering>
<clus scale="   28.501">  2  9  1 -1</clus>
<clus scale="   79.843">  5  6 -1 -1</clus>
<clus scale="   92.131">  7  8 -1 -1</clus>
<clus scale="   98.343">  1  5  2 -1</clus>
<clus scale="   28.501">  2  5  1 -1</clus>
</clustering>
</event>
<event>
 9    2  0.4653788E-005  0.2697983E+03  0.7546771E-02  0.1126908E+00
          2   -1    0    0  502    0 -0.00000000000E+00  0.00000000000E+00  0.13914478496E+04  0.13914478496E+04  0.00000000000E+00 0. -1.
         21   -1    0    0  501  502  0.00000000000E+00 -0.00000000000E+00 -0.11526536402E+03  0.11526536402E+03  0.00000000000E+00 0. -1.
         23    2    1    2    0    0  0.72321936429E+02  0.77126477750E+02  0.36055800862E+02  0.14607165797E+03  0.94116695793E+02 0.  0.
         24    2    1    2    0    0 -0.20223395203E+03  0.15348559555E+03  0.83388123887E+03  0.87577619040E+03  0.84673583476E+02 0.  0.
        -13    1    4    4    0    0 -0.30003637743E+02  0.44159765693E+02  0.92100420927E+02  0.10645558097E+03  0.00000000000E+00 0.  1.
         14    1    4    4    0    0 -0.17223031429E+03  0.10932582986E+03  0.74178081794E+03  0.76932060944E+03  0.00000000000E+00 0. -1.
        -13    1    3    3    0    0  0.50208730348E+01  0.21054765103E+02 -0.29550036019E+02  0.36629454382E+02  0.00000000000E+00 0.  1.
         13    1    3    3    0    0  0.67301063394E+02  0.56071712647E+02  0.65605836881E+02  0.10944220359E+03  0.00000000000E+00 0. -1.
          1    1    1    2  501    0  0.12991201560E+03 -0.23061207330E+03  0.40624544590E+03  0.48486536529E+03  0.00000000000E+00 0. -1.
<scales pt_clust_5="13000.00000" pt_clust_6="13000.00000" pt_clust_7="13000.00000" pt_clust_8="13000.00000" pt_clust_9="256.16693"></scales>
<clustering>
<clus scale="   84.674">  5  6 -1 -1</clus>
<clus scale="   94.117">  7  8 -1 -1</clus>
<clus scale="  141.552">  1  7  2 -1</clus>
<clus scale="  256.167">  2  9  1 -1</clus>
<clus scale="  256.167">  2  5  1 -1</clus>
</clustering>
</event>
<event>
 9    2  0.4653788E-005  0.1397634E+03  0.7546771E-02  0.1232997E+00
         21   -1    0    0  501  502  0.00000000000E+00  0.00000000000E+00  0.17476917817E+03  0.17476917817E+03  0.00000000000E+00 0.  1.
         -1   -1    0    0    0  501 -0.00000000000E+00 -0.00000000000E+00 -0.25454384381E+03  0.25454384381E+03  0.00000000000E+00 0.  1.
         23    2    1    2    0    0  0.16350668332E+02  0.52995630838E+01 -0.12477969243E+02  0.94137914677E+02  0.91710509428E+02 0.  0.
         24    2    1    2    0    0 -0.59868087751E+02  0.10198134330E+03  0.68927534223E+02  0.15640150838E+03  0.75670631938E+02 0.  0.
        -11    1    4    4    0    0 -0.60210154739E+02  0.72989952770E+02  0.15872698105E+02  0.95941328343E+02  0.00000000000E+00 0.  1.
         12    1    4    4    0    0  0.34206698838E+00  0.28991390526E+02  0.53054836118E+02  0.60460180036E+02  0.00000000000E+00 0. -1.
        -11    1    3    3    0    0  0.39834865937E+02  0.15280384183E+02  0.24508403783E+02  0.49203338718E+02  0.00000000000E+00 0.  1.
         11    1    3    3    0    0 -0.23484197605E+02 -0.99808210991E+01 -0.36986373027E+02  0.44934575959E+02  0.00000000000E+00 0. -1.
         -2    1    1    2    0  502  0.43517419419E+02 -0.10728090638E+03 -0.13622423061E+03  0.17877359893E+03  0.00000000000E+00 0.  1.
<scales pt_clust_5="13000.00000" pt_clust_6="13000.00000" pt_clust_7="13000.00000" pt_clust_8="13000.00000" pt_clust_9="117.50649"></scales>
<clustering>
<clus scale="   75.671">  5  6 -1 -1</clus>
<clus scale="   91.711">  7  8 -1 -1</clus>
<clus scale="   93.307">  2  7  1 -1</clus>
<clus scale="  117.506">  1  9  2 -1</clus>
<clus scale="  117.506">  1  5  2 -1</clus>
</clustering>
</event>
<event>
 9    2  0.4653788E-005  0.1847305E+03  0.7546771E-02  0.1191468E+00
         21   -1    0    0  501  502  0.00000000000E+00  0.00000000000E+00  0.49210064667E+02  0.49210064667E+02  0.00000000000E+00 0. -1.
          2   -1    0    0  502    0 -0.00000000000E+00 -0.00000000000E+00 -0.12208670248E+04  0.12208670248E+04  0.00000000000E+00 0. -1.
         23    2    1    2    0    0  0.16651231477E+01 -0.35835037372E+02 -0.51541313798E+03  0.52460713170E+03  0.90967121989E+02 0.  0.
         24    2    1    2    0    0  0.12706504670E+03 -0.88072536781E+02 -0.35624548185E+03  0.39629443207E+03  0.78969207443E+02 0.  0.
        -11    1    4    4    0    0  0.41393863326E+01 -0.40536231242E+02 -0.66655872219E+02  0.78123785519E+02  0.00000000000E+00 0.  1.
         12    1    4    4    0    0  0.12292566037E+03 -0.47536305538E+02 -0.28958960963E+03  0.31817064655E+03  0.00000000000E+00 0. -1.
        -11    1    3    3    0    0  0.29008499037E+02  0.19549606291E+02 -0.15121510600E+03  0.15520853199E+03  0.00000000000E+00 0.  1.
         11    1    3    3    0    0 -0.27343375890E+02 -0.55384643663E+02 -0.36419803199E+03  0.36939859970E+03  0.00000000000E+00 0. -1.
          1    1    1    2  501    0 -0.12873016985E+03  0.12390757415E+03 -0.29999834028E+03  0.34917552568E+03  0.00000000000E+00 0. -1.
<scales pt_clust_5="13000.00000" pt_clust_6="13000.00000" pt_clust_7="13000.00000" pt_clust_8="13000.00000" pt_clust_9="167.00069"></scales>
<clustering>
<clus scale="   78.969">  5  6 -1 -1</clus>
<clus scale="   90.967">  7  8 -1 -1</clus>
<clus scale="   97.785">  2  7  1 -1</clus>
<clus scale="  167.001">  1  9  2 -1</clus>
<clus scale="  167.001">  1  5  2 -1</clus>
</clustering>
</event>
<event>
 9    2  0.4653788E-005  0.1396610E+03  0.7546771E-02  0.1216242E+00
         21   -1    0    0  501  502  0.00000000000E+00  0.00000000000E+00  0.35817625197E+02  0.35817625197E+02  0.00000000000E+00 0. -1.
          2   -1    0    0  502    0 -0.00000000000E+00 -0.00000000000E+00 -0.78008912650E+03  0.78008912650E+03  0.00000000000E+00 0. -1.
         24    2    1    2    0    0 -0.12194349988E+03  0.42078274889E+02 -0.40926816053E+03  0.43661967862E+03  0.80594777502E+02 0.  0.
         23    2    1    2    0    0  0.66406036088E+02 -0.45800092988E+02 -0.22892553233E+03  0.25949240182E+03  0.91771439487E+02 0.  0.
        -13    1    3    3    0    0 -0.79284229567E+01  0.37022593858E+02 -0.94699389040E+02  0.10198777687E+03  0.00000000000E+00 0.  1.
         14    1    3    3    0    0 -0.11401507692E+03  0.50556810309E+01 -0.31456877148E+03  0.33463190175E+03  0.00000000000E+00 0. -1.
        -13    1    4    4    0    0 -0.12316049206E+02  0.16078719515E+02 -0.57536129905E+02  0.60996856753E+02  0.00000000000E+00 0.  1.
         13    1    4    4    0    0  0.78722085294E+02 -0.61878812503E+02 -0.17138940242E+03  0.19849554507E+03  0.00000000000E+00 0. -1.
          1    1    1    2  501    0  0.55537463793E+02  0.37218180995E+01 -0.10607780845E+03  0.11979467125E+03  0.00000000000E+00 0. -1.
<scales pt_clust_5="13000.00000" pt_clust_6="13000.00000" pt_clust_7="13000.00000" pt_clust_8="13000.00000" pt_clust_9="55.66203"></scales>
<clustering>
<clus scale="   55.662">  1  9  2 -1</clus>
<clus scale="   80.595">  5  6 -1 -1</clus>
<clus scale="   91.771">  7  8 -1 -1</clus>
<clus scale="  132.585">  2  5  1 -1</clus>
<clus scale="   55.662">  1  5  2 -1</clus>
</clustering>
</event>
<event>
 9    2  0.4653788E-005  0.1258356E+03  0.7546771E-02  0.1247694E+00
         21   -1    0    0  501  502  0.00000000000E+00  0.00000000000E+00  0.31461420240E+02  0.31461420240E+02  0.00000000000E+00 0. -1.
          2   -1    0    0  502    0 -0.00000000000E+00 -0.00000000000E+00 -0.10712896251E+04  0.10712896251E+04  0.00000000000E+00 0. -1.
         24    2    1    2    0    0  0.52783745397E+02 -0.28823942362E+02 -0.59561339050E+03  0.60417662016E+03  0.81591261650E+02 0.  0.
         23    2    1    2    0    0  0.31352567505E+02  0.57533003510E+02 -0.31138562842E+03  0.33874100571E+03  0.11615261247E+03 0.  0.
        -11    1    3    3    0    0  0.37478857699E+02 -0.19705536789E+01 -0.88589219810E+02  0.96211214121E+02  0.00000000000E+00 0.  1.
         12    1    3    3    0    0  0.15304887698E+02 -0.26853388683E+02 -0.50702417069E+03  0.50796540604E+03  0.00000000000E+00 0. -1.
        -11    1    4    4    0    0  0.73494238699E+02  0.47252615504E+02 -0.23751300047E+03  0.25307437283E+03  0.00000000000E+00 0. -1.
         11    1    4    4    0    0 -0.42141671194E+02  0.10280388006E+02 -0.73872627950E+02  0.85666632879E+02  0.00000000000E+00 0.  1.
          1    1    1    2  501    0 -0.84136312902E+02 -0.28709061148E+02 -0.13282918597E+03  0.15983341949E+03  0.00000000000E+00 0. -1.
<scales pt_clust_5="13000.00000" pt_clust_6="13000.00000" pt_clust_7="13000.00000" pt_clust_8="13000.00000" pt_clust_9="88.89955"></scales>
<clustering>
<clus scale="   81.591">  5  6 -1 -1</clus>
<clus scale="   88.900">  1  9  2 -1</clus>
<clus scale="   94.870">  2  5  1 -1</clus>
<clus scale="  116.153">  7  8 -1 -1</clus>
<clus scale="   88.900">  1  5  2 -1</clus>
</clustering>
</event>
<event>
 9    2  0.4653788E-005  0.1049878E+03  0.7546771E-02  0.1278390E+00
         21   -1    0    0  501  502  0.00000000000E+00  0.00000000000E+00  0.84079282007E+03  0.84079282007E+03  0.00000000000E+00 0.  1.
         -3   -1    0    0    0  501 -0.00000000000E+00 -0.00000000000E+00 -0.20740602944E+02  0.20740602944E+02  0.00000000000E+00 0.  1.
         23    2    1    2    0    0  0.20485291906E+02  0.27615939795E+02  0.22820202690E+03  0.24904406391E+03  0.93618872948E+02 0.  0.
         24    2    1    2    0    0 -0.71044548047E+02 -0.24912468455E+02  0.39306259867E+03  0.40735512574E+03  0.75973897533E+02 0.  0.
        -13    1    4    4    0    0 -0.71938972670E+02 -0.16999120395E+02  0.18615691290E+03  0.20029623587E+03  0.00000000000E+00 0.  1.
         14    1    4    4    0    0  0.89442462343E+00 -0.79133480596E+01  0.20690568576E+03  0.20705888987E+03  0.00000000000E+00 0. -1.
        -11    1    3    3    0    0  0.27755420694E+02  0.57057419347E+02  0.18971982613E+03  0.20004880631E+03  0.00000000000E+00 0.  1.
         11    1    3    3    0    0 -0.72701287877E+01 -0.29441479552E+02  0.38482200767E+02  0.48995257594E+02  0.00000000000E+00 0. -1.
         -4    1    1    2    0  502  0.50559256141E+02 -0.27034713395E+01  0.19878759156E+03  0.20513423336E+03  0.00000000000E+00 0.  1.
<scales pt_clust_5="13000.00000" pt_clust_6="13000.00000" pt_clust_7="13000.00000" pt_clust_8="13000.00000" pt_clust_9="50.63148"></scales>
<clustering>
<clus scale="   50.631">  1  9  2 -1</clus>
<clus scale="   75.974">  5  6 -1 -1</clus>
<clus scale="   89.610">  1  5  2 -1</clus>
<clus scale="   93.619">  7  8 -1 -1</clus>
<clus scale="   50.631">  1  5  2 -1</clus>
</clustering>
</event>
<event>
 9    2  0.4653788E-005  0.9622303E+02  0.7546771E-02  0.1288998E+00
         21   -1    0    0  501  502  0.00000000000E+00  0.00000000000E+00  0.23163236214E+03  0.23163236214E+03  0.00000000000E+00 0. -1.
         -1   -1    0    0    0  501 -0.00000000000E+00 -0.00000000000E+00 -0.86055139599E+02  0.86055139599E+02  0.00000000000E+00 0.  1.
         23    2    1    2    0    0 -0.16330486737E+02 -0.10983483688E+02  0.14456663461E+02  0.93635572397E+02  0.90395263087E+02 0.  0.
         24    2    1    2    0    0  0.70922716270E+02  0.11607965704E+02  0.12418048545E+03  0.16901679398E+03  0.89337042311E+02 0.  0.
        -11    1    4    4    0    0  0.32234205014E+02 -0.12533202900E+02 -0.22054945416E+01  0.34655293304E+02  0.00000000000E+00 0.  1.
         12    1    4    4    0    0  0.38688511256E+02  0.24141168605E+02  0.12638597999E+03  0.13436150067E+03  0.00000000000E+00 0. -1.
        -13    1    3    3    0    0  0.30155284806E+02  0.17917520523E+02 -0.52319898364E+01  0.35464805950E+02  0.00000000000E+00 0. -1.
         13    1    3    3    0    0 -0.46485771543E+02 -0.28901004211E+02  0.19688653298E+02  0.58170766447E+02  0.00000000000E+00 0.  1.
         -2    1    1    2    0  502 -0.54592229532E+02 -0.62448201594E+00  0.69400736353E+01  0.55035135370E+02  0.00000000000E+00 0.  1.
<scales pt_clust_5="13000.00000" pt_clust_6="13000.00000" pt_clust_7="13000.00000" pt_clust_8="13000.00000" pt_clust_9="54.59583"></scales>
<clustering>
<clus scale="   54.596">  1  9  2 -1</clus>
<clus scale="   89.337">  5  6 -1 -1</clus>
<clus scale="   90.395">  7  8 -1 -1</clus>
<clus scale="   95.230">  1  5  2 -1</clus>
<clus scale="   54.596">  1  5  2 -1</clus>
</clustering>
</event>
<event>
 9    2  0.4653788E-005  0.1458118E+03  0.7546771E-02  0.1206969E+00
          2   -1    0    0  502    0 -0.00000000000E+00  0.00000000000E+00  0.72447312533E+03  0.72447312533E+03  0.00000000000E+00 0. -1.
         21   -1    0    0  501  502  0.00000000000E+00 -0.00000000000E+00 -0.65922197155E+02  0.65922197155E+02  0.00000000000E+00 0. -1.
         24    2    1    2    0    0 -0.66682167158E+02  0.10684607537E+03  0.49296090205E+03  0.51517424222E+03  0.80817409365E+02 0.  0.
         23    2    1    2    0    0  0.49405501097E+02 -0.86598570498E+02  0.19483046784E+03  0.23568061902E+03  0.87442707151E+02 0.  0.
        -11    1    3    3    0    0 -0.47397775487E+02  0.71254403786E+02  0.17669738116E+03  0.19633059794E+03  0.00000000000E+00 0.  1.
         12    1    3    3    0    0 -0.19284391671E+02  0.35591671579E+02  0.31626352089E+03  0.31884364428E+03  0.00000000000E+00 0. -1.
        -13    1    4    4    0    0  0.15335339072E+02 -0.90891592494E+02  0.10616023927E+03  0.14059320970E+03  0.00000000000E+00 0.  1.
         13    1    4    4    0    0  0.34070162025E+02  0.42930219963E+01  0.88670228568E+02  0.95087409327E+02  0.00000000000E+00 0. -1.
          1    1    1    2  501    0  0.17276666060E+02 -0.20247504868E+02 -0.29240441716E+02  0.39540461243E+02  0.00000000000E+00 0. -1.
<scales pt_clust_5="13000.00000" pt_clust_6="13000.00000" pt_clust_7="13000.00000" pt_clust_8="13000.00000" pt_clust_9="26.61662"></scales>
<clustering>
<clus scale="   26.617">  2  9  1 -1</clus>
<clus scale="   80.817">  5  6 -1 -1</clus>
<clus scale="   87.443">  7  8 -1 -1</clus>
<clus scale="  141.938">  1  5  2 -1</clus>
<clus scale="   26.617">  2  5  1 -1</clus>
</clustering>
</event>
<event>
 9    2  0.4653788E-005  0.1030438E+03  0.7546771E-02  0.1280252E+00
         21   -1    0    0  501  502  0.00000000000E+00  0.00000000000E+00  0.35344755617E+02  0.35344755617E+02  0.00000000000E+00 0.  1.
         -1   -1    0    0    0  501 -0.00000000000E+00 -0.00000000000E+00 -0.43700429428E+03  0.43700429428E+03  0.00000000000E+00 0.  1.
         23    2    1    2    0    0 -0.42651954317E+02  0.19942987972E+01 -0.29932487545E+03  0.31661015595E+03  0.93933185586E+02 0.  0.
         24    2    1    2    0    0  0.40839070877E+02  0.19879516214E+02 -0.94221458260E+02  0.13233858574E+03  0.81072764873E+02 0.  0.
        -11    1    4    4    0    0  0.33690302107E+02  0.32170794484E+02 -0.10938141580E+02  0.47850176751E+02  0.00000000000E+00 0.  1.
         12    1    4    4    0    0  0.71487687691E+01 -0.12291278270E+02 -0.83283316680E+02  0.84488408990E+02  0.00000000000E+00 0. -1.
        -13    1    3    3    0    0 -0.52367173808E+02  0.23629846959E+02 -0.28052051140E+03  0.28634323438E+03  0.00000000000E+00 0.  1.
         13    1    3    3    0    0  0.97152194916E+01 -0.21635548161E+02 -0.18804364048E+02  0.30266921569E+02  0.00000000000E+00 0. -1.
         -2    1    1    2    0  502  0.18128834404E+01 -0.21873815011E+02 -0.81132049567E+01  0.23400308207E+02  0.00000000000E+00 0.  1.
<scales pt_clust_5="13000.00000" pt_clust_6="13000.00000" pt_clust_7="13000.00000" pt_clust_8="13000.00000" pt_clust_9="21.94881"></scales>
<clustering>
<clus scale="   21.949">  1  9  2 -1</clus>
<clus scale="   81.073">  5  6 -1 -1</clus>
<clus scale="   91.473">  1  5  2 -1</clus>
<clus scale="   93.933">  7  8 -1 -1</clus>
<clus scale="   21.949">  1  5  2 -1</clus>
</clustering>
</event>
<event>
 9    2  0.4653788E-005  0.1231985E+03  0.7546771E-02  0.1240931E+00
         21   -1    0    0  501  502  0.00000000000E+00  0.00000000000E+00  0.42469171258E+03  0.42469171258E+03  0.00000000000E+00 0.  1.
          2   -1    0    0  502    0 -0.00000000000E+00 -0.00000000000E+00 -0.47031003036E+02  0.47031003036E+02  0.00000000000E+00 0. -1.
         23    2    1    2    0    0 -0.19629798432E+02 -0.75404779937E+02  0.11827810726E+03  0.16830733076E+03  0.90919948896E+02 0.  0.
         24    2    1    2    0    0  0.52783702353E+02  0.78171220821E+02  0.20633325140E+03  0.24079695171E+03  0.80702554612E+02 0.  0.
        -11    1    4    4    0    0  0.28020391293E+02 -0.10437967876E+01  0.11058640626E+03  0.11408586718E+03  0.00000000000E+00 0.  1.
         12    1    4    4    0    0  0.24763311059E+02  0.79215017608E+02  0.95746845141E+02  0.12671108453E+03  0.00000000000E+00 0. -1.
        -13    1    3    3    0    0 -0.34067327271E+02  0.40960513155E+01  0.15717449872E+02  0.37741206316E+02  0.00000000000E+00 0.  1.
         13    1    3    3    0    0  0.14437528838E+02 -0.79500831253E+02  0.10256065738E+03  0.13056612444E+03  0.00000000000E+00 0. -1.
          1    1    1    2  501    0 -0.33153903920E+02 -0.27664408836E+01  0.53049350889E+02  0.62618433149E+02  0.00000000000E+00 0. -1.
<scales pt_clust_5="13000.00000" pt_clust_6="13000.00000" pt_clust_7="13000.00000" pt_clust_8="13000.00000" pt_clust_9="33.26912"></scales>
<clustering>
<clus scale="   33.269">  1  9  2 -1</clus>
<clus scale="   80.703">  5  6 -1 -1</clus>
<clus scale="   90.920">  7  8 -1 -1</clus>
<clus scale="  115.863">  1  5  2 -1</clus>
<clus scale="   33.269">  1  5  2 -1</clus>
</clustering>
</event>
<event>
 9    2  0.4653788E-005  0.1869481E+03  0.7546771E-02  0.1175010E+00
         21   -1    0    0  501  502  0.00000000000E+00  0.00000000000E+00  0.39637973915E+03  0.39637973915E+03  0.00000000000E+00 0. -1.
          2   -1    0    0  502    0 -0.00000000000E+00 -0.00000000000E+00 -0.16158924204E+03  0.16158924204E+03  0.00000000000E+00 0. -1.
         24    2    1    2    0    0  0.11032824544E+02 -0.10962298237E+03  0.13907862385E+02  0.13701206875E+03  0.80249341836E+02 0.  0.
         23    2    1    2    0    0  0.13998467177E+03  0.10483008331E+03  0.11261032304E+03  0.23507482737E+03  0.10951728132E+03 0.  0.
        -11    1    3    3    0    0  0.30110354523E+02 -0.82604764076E+01  0.13118525181E+02  0.33866866152E+02  0.00000000000E+00 0.  1.
         12    1    3    3    0    0 -0.19077529979E+02 -0.10136250597E+03  0.78933720370E+00  0.10314520260E+03  0.00000000000E+00 0. -1.
        -11    1    4    4    0    0  0.42965184389E+02 -0.17968000451E+02  0.44440718431E+02  0.64372615020E+02  0.00000000000E+00 0.  1.
         11    1    4    4    0    0  0.97019487385E+02  0.12279808377E+03  0.68169604613E+02  0.17070221235E+03  0.00000000000E+00 0. -1.
          1    1    1    2  501    0 -0.15101749632E+03  0.47928990585E+01  0.10827231168E+03  0.18588208508E+03  0.00000000000E+00 0. -1.
<scales pt_clust_5="13000.00000" pt_clust_6="13000.00000" pt_clust_7="13000.00000" pt_clust_8="13000.00000" pt_clust_9="151.51095"></scales>
<clustering>
<clus scale="   80.249">  5  6 -1 -1</clus>
<clus scale="  109.517">  7  8 -1 -1</clus>
<clus scale="  136.304">  2  5  1 -1</clus>
<clus scale="  151.511">  1  9  2 -1</clus>
<clus scale="  151.511">  1  5  2 -1</clus>
</clustering>
</event>
<event>
 9    2  0.4653788E-005  0.2591296E+03  0.7546771E-02  0.1107667E+00
          2   -1    0    0  502    0 -0.00000000000E+00  0.00000000000E+00  0.11822907201E+03  0.11822907201E+03  0.00000000000E+00 0. -1.
         21   -1    0    0  501  502  0.00000000000E+00 -0.00000000000E+00 -0.42562160320E+03  0.42562160320E+03  0.00000000000E+00 0.  1.
         24    2    1    2    0    0 -0.11468909919E+03 -0.52643882400E+02 -0.11893680371E+03  0.19126967689E+03  0.80704139868E+02 0.  0.
         23    2    1    2    0    0 -0.60365231802E+02 -0.50630176364E+01 -0.10077786580E+03  0.14846947847E+03  0.90649944532E+02 0.  0.
        -11    1    3    3    0    0 -0.69554634712E+02 -0.71473756579E+02 -0.68329170543E+02  0.12089342677E+03  0.00000000000E+00 0.  1.
         12    1    3    3    0    0 -0.45134464475E+02  0.18829874179E+02 -0.50607633170E+02  0.70376250114E+02  0.00000000000E+00 0. -1.
        -11    1    4    4    0    0 -0.19109566316E+02 -0.46574973898E+02 -0.50607256440E+02  0.71382757882E+02  0.00000000000E+00 0.  1.
         11    1    4    4    0    0 -0.41255665486E+02  0.41511956262E+02 -0.50170609360E+02  0.77086720588E+02  0.00000000000E+00 0. -1.
          1    1    1    2  501    0  0.17505433099E+03  0.57706900037E+02 -0.87677861670E+02  0.20411151985E+03  0.00000000000E+00 0. -1.
<scales pt_clust_5="13000.00000" pt_clust_6="13000.00000" pt_clust_7="13000.00000" pt_clust_8="13000.00000" pt_clust_9="184.32075"></scales>
<clustering>
<clus scale="   80.704">  5  6 -1 -1</clus>
<clus scale="   90.650">  7  8 -1 -1</clus>
<clus scale="   94.046">  5  7 -1 -1</clus>
<clus scale="  184.321">  2  9  1 -1</clus>
<clus scale="  184.321">  2  5  1 -1</clus>
</clustering>
</event>
<event>
 9    2  0.4653788E-005  0.9546204E+02  0.7546771E-02  0.1295662E+00
         21   -1    0    0  501  502  0.00000000000E+00  0.00000000000E+00  0.32237597379E+02  0.32237597379E+02  0.00000000000E+00 0.  1.
          2   -1    0    0  502    0 -0.00000000000E+00 -0.00000000000E+00 -0.34001748612E+03  0.34001748612E+03  0.00000000000E+00 0. -1.
         23    2    1    2    0    0  0.10065141781E+02 -0.33582843476E+02 -0.18803409240E+03  0.21222544796E+03  0.91944039512E+02 0.  0.
         24    2    1    2    0    0 -0.95115144900E+01  0.10904447830E+02 -0.95035677345E+02  0.12648554347E+03  0.82203630376E+02 0.  0.
        -11    1    4    4    0    0  0.14794715020E+02 -0.27651011537E+02 -0.64220306465E+02  0.71468243255E+02  0.00000000000E+00 0.  1.
         12    1    4    4    0    0 -0.24306229510E+02  0.38555459367E+02 -0.30815370880E+02  0.55017300210E+02  0.00000000000E+00 0. -1.
        -13    1    3    3    0    0  0.47461225257E+02 -0.28957315419E+02 -0.14347042891E+03  0.15386636407E+03  0.00000000000E+00 0.  1.
         13    1    3    3    0    0 -0.37396083477E+02 -0.46255280566E+01 -0.44563663490E+02  0.58359083893E+02  0.00000000000E+00 0. -1.
          1    1    1    2  501    0 -0.55362729069E+00  0.22678395646E+02 -0.24710118990E+02  0.33544092069E+02  0.00000000000E+00 0. -1.
<scales pt_clust_5="13000.00000" pt_clust_6="13000.00000" pt_clust_7="13000.00000" pt_clust_8="13000.00000" pt_clust_9="22.68515"></scales>
<clustering>
<clus scale="   22.685">  1  9  2 -1</clus>
<clus scale="   82.204">  5  6 -1 -1</clus>
<clus scale="   86.120">  1  5  2 -1</clus>
<clus scale="   91.944">  7  8 -1 -1</clus>
<clus scale="   22.685">  1  5  2 -1</clus>
</clustering>
</event>
<event>
 9    2  0.4653788E-005  0.1841448E+03  0.7546771E-02  0.1165016E+00
         -1   -1    0    0    0  501 -0.00000000000E+00  0.00000000000E+00  0.84491686110E+02  0.84491686110E+02  0.00000000000E+00 0.  1.
         21   -1    0    0  501  502  0.00000000000E+00 -0.00000000000E+00 -0.68772156617E+03  0.68772156617E+03  0.00000000000E+00 0.  1.
         23    2    1    2    0    0  0.11876171270E+03  0.66720011199E+02 -0.17405333662E+03  0.23920203397E+03  0.91472098307E+02 0.  0.
         24    2    1    2    0    0 -0.20056955591E+03 -0.20821114834E+02 -0.25414126750E+03  0.33442476429E+03  0.81181731556E+02 0.  0.
        -11    1    4    4    0    0 -0.14275297769E+03 -0.39785146082E+02 -0.21816651741E+03  0.26373831691E+03  0.00000000000E+00 0.  1.
         12    1    4    4    0    0 -0.57816578224E+02  0.18964031248E+02 -0.35974750097E+02  0.70686447380E+02  0.00000000000E+00 0. -1.
        -13    1    3    3    0    0  0.71874045276E+02  0.65420722111E+02 -0.55992558742E+02  0.11216468205E+03  0.00000000000E+00 0.  1.
         13    1    3    3    0    0  0.46887667427E+02  0.12992890879E+01 -0.11806077788E+03  0.12703735192E+03  0.00000000000E+00 0. -1.
         -2    1    1    2    0  502  0.81807843212E+02 -0.45898896365E+02 -0.17503527594E+03  0.19858645402E+03  0.00000000000E+00 0.  1.
<scales pt_clust_5="13000.00000" pt_clust_6="13000.00000" pt_clust_7="13000.00000" pt_clust_8="13000.00000" pt_clust_9="93.80422"></scales>
<clustering>
<clus scale="   81.182">  5  6 -1 -1</clus>
<clus scale="   91.472">  7  8 -1 -1</clus>
<clus scale="   93.804">  2  9  1 -1</clus>
<clus scale="  179.256">  2  5  1 -1</clus>
<clus scale="   93.804">  2  5  1 -1</clus>
</clustering>
</event>
<event>
 9    2  0.4653788E-005  0.1151469E+03  0.7546771E-02  0.1254790E+00
          2   -1    0    0  502    0 -0.00000000000E+00  0.00000000000E+00  0.19436968037E+03  0.19436968037E+03  0.00000000000E+00 0. -1.
         21   -1    0    0  501  502  0.00000000000E+00 -0.00000000000E+00 -0.12751343732E+03  0.12751343732E+03  0.00000000000E+00 0.  1.
         23    2    1    2    0    0  0.58818887744E+02  0.14589661072E+02  0.70250862179E+02  0.12993694501E+03  0.90972008202E+02 0.  0.
         24    2    1    2    0    0 -0.83570634107E+02 -0.59418958746E+02 -0.30194523595E+02  0.13414868348E+03  0.81052430445E+02 0.  0.
        -11    1    4    4    0    0 -0.84838263697E+02 -0.15717020600E+02 -0.26561240529E+02  0.90277656273E+02  0.00000000000E+00 0.  1.
         12    1    4    4    0    0  0.12676295901E+01 -0.43701938145E+02 -0.36332830658E+01  0.43871027208E+02  0.00000000000E+00 0. -1.
        -11    1    3    3    0    0  0.78143343838E+02 -0.90018184317E+01  0.47496731716E+02  0.91887727390E+02  0.00000000000E+00 0. -1.
         11    1    3    3    0    0 -0.19324456094E+02  0.23591479503E+02  0.22754130463E+02  0.38049217621E+02  0.00000000000E+00 0.  1.
          1    1    1    2  501    0  0.24751746363E+02  0.44829297674E+02  0.26799904463E+02  0.57797489194E+02  0.00000000000E+00 0. -1.
<scales pt_clust_5="13000.00000" pt_clust_6="13000.00000" pt_clust_7="13000.00000" pt_clust_8="13000.00000" pt_clust_9="51.20857"></scales>
<clustering>
<clus scale="   51.209">  2  9  1 -1</clus>
<clus scale="   81.052">  5  6 -1 -1</clus>
<clus scale="   90.972">  7  8 -1 -1</clus>
<clus scale="  107.482">  2  5  1 -1</clus>
<clus scale="   51.209">  2  5  1 -1</clus>
</clustering>
</event>
<event>
 9    2  0.4653788E-005  0.1031759E+03  0.7546771E-02  0.1278340E+00
         21   -1    0    0  501  502  0.00000000000E+00  0.00000000000E+00  0.11616197395E+03  0.11616197395E+03  0.00000000000E+00 0. -1.
         -1   -1    0    0    0  501 -0.00000000000E+00 -0.00000000000E+00 -0.17482437323E+03  0.17482437323E+03  0.00000000000E+00 0.  1.
         23    2    1    2    0    0  0.42301663619E+02  0.33022053046E+02 -0.11745813624E+03  0.15749330049E+03  0.90154529542E+02 0.  0.
         24    2    1    2    0    0 -0.43085094300E+02 -0.50896799849E+01  0.38140731232E+02  0.98744514486E+02  0.80084540138E+02 0.  0.
        -11    1    4    4    0    0 -0.66078133750E+02 -0.96486745396E-01  0.20013486423E+02  0.69042513775E+02  0.00000000000E+00 0.  1.
         12    1    4    4    0    0  0.22993039450E+02 -0.49931932395E+01  0.18127244809E+02  0.29702000711E+02  0.00000000000E+00 0. -1.
        -13    1    3    3    0    0  0.20103300380E+01  0.57459193162E+02 -0.70444401691E+02  0.90928620551E+02  0.00000000000E+00 0.  1.
         13    1    3    3    0    0  0.40291333581E+02 -0.24437140116E+02 -0.47013734548E+02  0.66564679936E+02  0.00000000000E+00 0. -1.
         -2    1    1    2    0  502  0.78343068072E+00 -0.27932373061E+02  0.20655005729E+02  0.34748532201E+02  0.00000000000E+00 0.  1.
<scales pt_clust_5="13000.00000" pt_clust_6="13000.00000" pt_clust_7="13000.00000" pt_clust_8="13000.00000" pt_clust_9="27.94336"></scales>
<clustering>
<clus scale="   27.943">  1  9  2 -1</clus>
<clus scale="   80.085">  5  6 -1 -1</clus>
<clus scale="   90.155">  7  8 -1 -1</clus>
<clus scale="   94.504">  1  5  2 -1</clus>
<clus scale="   27.943">  1  5  2 -1</clus>
</clustering>
</event>
<event>
 9    2  0.4653788E-005  0.1010792E+03  0.7546771E-02  0.1286362E+00
         21   -1    0    0  501  502  0.00000000000E+00  0.00000000000E+00  0.25849212805E+03  0.25849212805E+03  0.00000000000E+00 0.  1.
          2   -1    0    0  502    0 -0.00000000000E+00 -0.00000000000E+00 -0.35768539286E+03  0.35768539286E+03  0.00000000000E+00 0. -1.
         24    2    1    2    0    0  0.82243184744E+01 -0.33202201757E+02 -0.10365850435E+03  0.13519888786E+03  0.79772351978E+02 0.  0.
         23    2    1    2    0    0 -0.35917018569E+02  0.49402334782E+01  0.23016814838E+03  0.25183364063E+03  0.95542492622E+02 0.  0.
        -13    1    3    3    0    0  0.37053849102E+02 -0.14088823130E+02 -0.19436351226E+02  0.44150361487E+02  0.00000000000E+00 0.  1.
         14    1    3    3    0    0 -0.28829530628E+02 -0.19113378627E+02 -0.84222153124E+02  0.91048526378E+02  0.00000000000E+00 0. -1.
        -11    1    4    4    0    0  0.24232423731E+01 -0.30848897413E+02  0.16646866297E+03  0.16932023603E+03  0.00000000000E+00 0.  1.
         11    1    4    4    0    0 -0.38340260942E+02  0.35789130892E+02  0.63699485404E+02  0.82513404607E+02  0.00000000000E+00 0. -1.
          1    1    1    2  501    0  0.27692700095E+02  0.28261968279E+02 -0.22570290884E+03  0.22914499241E+03  0.00000000000E+00 0. -1.
<scales pt_clust_5="13000.00000" pt_clust_6="13000.00000" pt_clust_7="13000.00000" pt_clust_8="13000.00000" pt_clust_9="39.56799"></scales>
<clustering>
<clus scale="   39.568">  1  9  2 -1</clus>
<clus scale="   79.772">  5  6 -1 -1</clus>
<clus scale="   86.327">  2  5  1 -1</clus>
<clus scale="   95.542">  7  8 -1 -1</clus>
<clus scale="   39.568">  1  5  2 -1</clus>
</clustering>
</event>
<event>
 9    2  0.4653788E-005  0.1027777E+03  0.7546771E-02  0.1278950E+00
          2   -1    0    0  502    0 -0.00000000000E+00  0.00000000000E+00  0.19702446159E+03  0.19702446159E+03  0.00000000000E+00 0. -1.
         21   -1    0    0  501  502  0.00000000000E+00 -0.00000000000E+00 -0.11176185900E+03  0.11176185900E+03  0.00000000000E+00 0. -1.
         24    2    1    2    0    0 -0.23614652860E+02 -0.39893545815E+02  0.11387962555E+03  0.14710219790E+03  0.80754818325E+02 0.  0.
         23    2    1    2    0    0  0.65610083811E+02  0.26298472995E+02 -0.16089130897E+02  0.11579959039E+03  0.90301673412E+02 0.  0.
        -11    1    3    3    0    0  0.24022844019E+02  0.74720622814E+01  0.22983626728E+02  0.34076030389E+02  0.00000000000E+00 0.  1.
         12    1    3    3    0    0 -0.47637496878E+02 -0.47365608097E+02  0.90895998826E+02  0.11302616751E+03  0.00000000000E+00 0. -1.
        -11    1    4    4    0    0  0.86013840763E+02  0.21806225020E+02  0.11047261991E+01  0.88741831582E+02  0.00000000000E+00 0. -1.
         11    1    4    4    0    0 -0.20403756953E+02  0.44922479751E+01 -0.17193857096E+02  0.27057758804E+02  0.00000000000E+00 0.  1.
          1    1    1    2  501    0 -0.41995430951E+02  0.13595072820E+02 -0.12527892062E+02  0.45884532310E+02  0.00000000000E+00 0. -1.
<scales pt_clust_5="13000.00000" pt_clust_6="13000.00000" pt_clust_7="13000.00000" pt_clust_8="13000.00000" pt_clust_9="44.14116"></scales>
<clustering>
<clus scale="   44.141">  2  9  1 -1</clus>
<clus scale="   80.755">  5  6 -1 -1</clus>
<clus scale="   90.302">  7  8 -1 -1</clus>
<clus scale="   94.500">  1  5  2 -1</clus>
<clus scale="   44.141">  2  5  1 -1</clus>
</clustering>
</event>
<event>
 9    2  0.4653788E-005  0.1113966E+03  0.7546771E-02  0.1263087E+00
         21   -1    0    0  501  502  0.00000000000E+00  0.00000000000E+00  0.89917357792E+02  0.89917357792E+02  0.00000000000E+00 0. -1.
          2   -1    0    0  502    0 -0.00000000000E+00 -0.00000000000E+00 -0.35500040999E+03  0.35500040999E+03  0.00000000000E+00 0. -1.
         24    2    1    2    0    0 -0.45290558885E+02 -0.35932940391E+02 -0.14343161971E+03  0.17396981157E+03  0.79689741344E+02 0.  0.
         23    2    1    2    0    0  0.39583167706E+02  0.76374378591E+02  0.15892389215E+02  0.12746838580E+03  0.92713259420E+02 0.  0.
        -11    1    3    3    0    0  0.22948182441E+02 -0.54476931118E+01 -0.30718665188E+02  0.38728966272E+02  0.00000000000E+00 0.  1.
         12    1    3    3    0    0 -0.68238741326E+02 -0.30485247279E+02 -0.11271295452E+03  0.13524084529E+03  0.00000000000E+00 0. -1.
        -13    1    4    4    0    0  0.69649543721E+02  0.45623530537E+02  0.70344814817E+01  0.83558658492E+02  0.00000000000E+00 0.  1.
         13    1    4    4    0    0 -0.30066376015E+02  0.30750848053E+02  0.88579077336E+01  0.43909727306E+02  0.00000000000E+00 0. -1.
          1    1    1    2  501    0  0.57073911793E+01 -0.40441438200E+02 -0.13754382171E+03  0.14347957042E+03  0.00000000000E+00 0. -1.
<scales pt_clust_5="13000.00000" pt_clust_6="13000.00000" pt_clust_7="13000.00000" pt_clust_8="13000.00000" pt_clust_9="40.84221"></scales>
<clustering>
<clus scale="   40.842">  1  9  2 -1</clus>
<clus scale="   79.690">  5  6 -1 -1</clus>
<clus scale="   92.713">  7  8 -1 -1</clus>
<clus scale="  100.816">  2  5  1 -1</clus>
<clus scale="   40.842">  1  5  2 -1</clus>
</clustering>
</event>
<event>
 9    2  0.4653788E-005  0.1156086E+03  0.7546771E-02  0.1253887E+00
          2   -1    0    0  502    0 -0.00000000000E+00  0.00000000000E+00  0.33879405556E+03  0.33879405556E+03  0.00000000000E+00 0. -1.
         21   -1    0    0  501  502  0.00000000000E+00 -0.00000000000E+00 -0.10453364995E+03  0.10453364995E+03  0.00000000000E+00 0. -1.
         23    2    1    2    0    0  0.73389148404E+02  0.33546675049E+02  0.21225443473E+03  0.24493902592E+03  0.91825022969E+02 0.  0.
         24    2    1    2    0    0 -0.41680911481E+02 -0.39115722856E+02  0.82586072245E+02  0.12978565296E+03  0.82198042724E+02 0.  0.
        -13    1    4    4    0    0 -0.40441663811E+02 -0.29366229190E+02  0.35110214881E+01  0.50102204148E+02  0.00000000000E+00 0.  1.
         14    1    4    4    0    0 -0.12392476702E+01 -0.97494936662E+01  0.79075050757E+02  0.79683448807E+02  0.00000000000E+00 0. -1.
        -11    1    3    3    0    0  0.62566123093E+02 -0.21476936161E+02  0.11297767050E+03  0.13091880147E+03  0.00000000000E+00 0.  1.
         11    1    3    3    0    0  0.10823025312E+02  0.55023611210E+02  0.99276764230E+02  0.11402022445E+03  0.00000000000E+00 0. -1.
          1    1    1    2  501    0 -0.31708236923E+02  0.55690478070E+01 -0.60580101368E+02  0.68603026639E+02  0.00000000000E+00 0. -1.
<scales pt_clust_5="13000.00000" pt_clust_6="13000.00000" pt_clust_7="13000.00000" pt_clust_8="13000.00000" pt_clust_9="32.19358"></scales>
<clustering>
<clus scale="   32.194">  2  9  1 -1</clus>
<clus scale="   82.198">  5  6 -1 -1</clus>
<clus scale="   91.825">  7  8 -1 -1</clus>
<clus scale="  108.120">  2  5  1 -1</clus>
<clus scale="   32.194">  2  5  1 -1</clus>
</clustering>
</event>
<event>
 9    2  0.4653788E-005  0.2240118E+03  0.7546771E-02  0.1141571E+00
          2   -1    0    0  502    0 -0.00000000000E+00  0.00000000000E+00  0.63644704642E+03  0.63644704642E+03  0.00000000000E+00 0. -1.
         21   -1    0    0  501  502  0.00000000000E+00 -0.00000000000E+00 -0.18312473326E+03  0.18312473326E+03  0.00000000000E+00 0.  1.
         23    2    1    2    0    0 -0.16860852933E+01 -0.14734733577E+03  0.23988388328E+03  0.29575000213E+03  0.90607428257E+02 0.  0.
         24    2    1    2    0    0  0.19262945596E+03  0.16611407562E+02  0.20313584024E+03  0.29218111385E+03  0.81997484955E+02 0.  0.
        -11    1    4    4    0    0  0.17979910501E+03  0.16023410391E+02  0.21056114494E+03  0.27734538684E+03  0.00000000000E+00 0.  1.
         12    1    4    4    0    0  0.12830350949E+02  0.58799717118E+00 -0.74253047006E+01  0.14835727014E+02  0.00000000000E+00 0. -1.
        -13    1    3    3    0    0 -0.28949053746E+02 -0.92367913640E+02  0.20101786054E+03  0.22310997163E+03  0.00000000000E+00 0.  1.
         13    1    3    3    0    0  0.27262968453E+02 -0.54979422131E+02  0.38866022739E+02  0.72640030495E+02  0.00000000000E+00 0. -1.
          1    1    1    2  501    0 -0.19094337067E+03  0.13073592821E+03  0.10302589643E+02  0.23164066370E+03  0.00000000000E+00 0. -1.
<scales pt_clust_5="13000.00000" pt_clust_6="13000.00000" pt_clust_7="13000.00000" pt_clust_8="13000.00000" pt_clust_9="208.46514"></scales>
<clustering>
<clus scale="   81.997">  5  6 -1 -1</clus>
<clus scale="   90.607">  7  8 -1 -1</clus>
<clus scale="  172.985">  1  7  2 -1</clus>
<clus scale="  208.465">  2  9  1 -1</clus>
<clus scale="  208.465">  2  5  1 -1</clus>
</clustering>
</event>
<event>
 9    2  0.4653788E-005  0.1270764E+03  0.7546771E-02  0.1236109E+00
         21   -1    0    0  501  502  0.00000000000E+00  0.00000000000E+00  0.45784288205E+02  0.45784288205E+02  0.00000000000E+00 0. -1.
         -3   -1    0    0    0  501 -0.00000000000E+00 -0.00000000000E+00 -0.61769343389E+03  0.61769343389E+03  0.00000000000E+00 0.  1.
         23    2    1    2    0    0  0.71676803682E+02 -0.52960484362E+02 -0.39402689973E+03  0.41430858104E+03  0.91934898295E+02 0.  0.
         24    2    1    2    0    0 -0.94181209630E+02  0.74728961341E+01 -0.14223658949E+03  0.18715154843E+03  0.76606202536E+02 0.  0.
        -11    1    4    4    0    0 -0.59893958386E+02  0.11408564912E+02 -0.13984263088E+03  0.15255622903E+03  0.00000000000E+00 0.  1.
         12    1    4    4    0    0 -0.34287251245E+02 -0.39356687775E+01 -0.23939586076E+01  0.34595319401E+02  0.00000000000E+00 0. -1.
        -11    1    3    3    0    0  0.50523270855E+02 -0.79132781942E+02 -0.30550957181E+03  0.31961022597E+03  0.00000000000E+00 0.  1.
         11    1    3    3    0    0  0.21153532827E+02  0.26172297580E+02 -0.88517327920E+02  0.94698355074E+02  0.00000000000E+00 0. -1.
         -4    1    1    2    0  502  0.22504405948E+02  0.45487588228E+02 -0.35645656473E+02  0.62017592627E+02  0.00000000000E+00 0.  1.
<scales pt_clust_5="13000.00000" pt_clust_6="13000.00000" pt_clust_7="13000.00000" pt_clust_8="13000.00000" pt_clust_9="50.75006"></scales>
<clustering>
<clus scale="   50.750">  1  9  2 -1</clus>
<clus scale="   76.606">  5  6 -1 -1</clus>
<clus scale="   91.935">  7  8 -1 -1</clus>
<clus scale="  116.468">  1  5  2 -1</clus>
<clus scale="   50.750">  1  5  2 -1</clus>
</clustering>
</event>
<event>
 9    2  0.4653788E-005  0.1736022E+03  0.7546771E-02  0.1175560E+00
          2   -1    0    0  502    0 -0.00000000000E+00  0.00000000000E+00  0.13922115780E+04  0.13922115780E+04  0.00000000000E+00 0. -1.
         21   -1    0    0  501  502  0.00000000000E+00 -0.00000000000E+00 -0.36308881021E+02  0.36308881021E+02  0.00000000000E+00 0. -1.
         23    2    1    2    0    0  0.71562363393E+02 -0.15205420512E+03  0.80058820633E+03  0.82306990060E+03  0.90889669395E+02 0.  0.
         24    2    1    2    0    0 -0.67825036369E+01  0.11608100631E+03  0.21495434702E+03  0.25711806118E+03  0.79896956784E+02 0.  0.
        -11    1    4    4    0    0  0.19249870844E+02  0.42623140565E+02  0.27852390255E+02  0.54433861539E+02  0.00000000000E+00 0.  1.
         12    1    4    4    0    0 -0.26032374480E+02  0.73457865745E+02  0.18710195676E+03  0.20268419965E+03  0.00000000000E+00 0. -1.
        -11    1    3    3    0    0  0.67370592371E+02 -0.48335220709E+02  0.27086256059E+03  0.28326951302E+03  0.00000000000E+00 0.  1.
         11    1    3    3    0    0  0.41917710214E+01 -0.10371898441E+03  0.52972564574E+03  0.53980038758E+03  0.00000000000E+00 0. -1.
          1    1    1    2  501    0 -0.64779859756E+02  0.35973198809E+02  0.34036014365E+03  0.34833249726E+03  0.00000000000E+00 0. -1.
<scales pt_clust_5="13000.00000" pt_clust_6="13000.00000" pt_clust_7="13000.00000" pt_clust_8="13000.00000" pt_clust_9="74.09795"></scales>
<clustering>
<clus scale="   74.098">  2  9  1 -1</clus>
<clus scale="   79.897">  5  6 -1 -1</clus>
<clus scale="   90.890">  7  8 -1 -1</clus>
<clus scale="  168.108">  2  5  1 -1</clus>
<clus scale="   74.098">  2  5  1 -1</clus>
</clustering>
</event>
<event>
 9    2  0.4653788E-005  0.1888243E+03  0.7546771E-02  0.1161811E+00
         -1   -1    0    0    0  501 -0.00000000000E+00  0.00000000000E+00  0.12101946049E+03  0.12101946049E+03  0.00000000000E+00 0.  1.
         21   -1    0    0  501  502  0.00000000000E+00 -0.00000000000E+00 -0.39939879669E+03  0.39939879669E+03  0.00000000000E+00 0.  1.
         24    2    1    2    0    0  0.58417574721E+01 -0.14297396493E+03 -0.13136834704E+03  0.20531703943E+03  0.66496340484E+02 0.  0.
         23    2    1    2    0    0 -0.26891153619E+02  0.19297320066E+03 -0.14850905600E+03  0.26083110760E+03  0.89532880326E+02 0.  0.
        -11    1    3    3    0    0 -0.26756158620E+02 -0.99544404955E+02 -0.78908076278E+02  0.12981319303E+03  0.00000000000E+00 0.  1.
         12    1    3    3    0    0  0.32597916092E+02 -0.43429559975E+02 -0.52460270758E+02  0.75503846399E+02  0.00000000000E+00 0. -1.
        -11    1    4    4    0    0 -0.24363632194E+01  0.75627554481E+02 -0.11267180988E+03  0.13572177277E+03  0.00000000000E+00 0.  1.
         11    1    4    4    0    0 -0.24454790399E+02  0.11734564618E+03 -0.35837246120E+02  0.12510933483E+03  0.00000000000E+00 0. -1.
         -2    1    1    2    0  502  0.21049396147E+02 -0.49999235733E+02  0.14980668385E+01  0.54270110155E+02  0.00000000000E+00 0.  1.
<scales pt_clust_5="13000.00000" pt_clust_6="13000.00000" pt_clust_7="13000.00000" pt_clust_8="13000.00000" pt_clust_9="54.24946"></scales>
<clustering>
<clus scale="   54.249">  2  9  1 -1</clus>
<clus scale="   66.496">  5  6 -1 -1</clus>
<clus scale="   89.533">  7  8 -1 -1</clus>
<clus scale="  179.054">  1  5  2 -1</clus>
<clus scale="   54.249">  2  5  1 -1</clus>
</clustering>
</event>
<event>
 9    2  0.4653788E-005  0.1052929E+03  0.7546771E-02  0.1281429E+00
         21   -1    0    0  501  502  0.00000000000E+00  0.00000000000E+00  0.48318118513E+02  0.48318118513E+02  0.00000000000E+00 0. -1.
          2   -1    0    0  502    0 -0.00000000000E+00 -0.00000000000E+00 -0.66593644147E+03  0.66593644147E+03  0.00000000000E+00 0. -1.
         23    2    1    2    0    0 -0.22108874579E+02  0.58437182995E+01 -0.38870324553E+03  0.40267344592E+03  0.10262913613E+03 0.  0.
         24    2    1    2    0    0 -0.41284851536E+02 -0.59087930586E+02 -0.19333685155E+03  0.22147273039E+03  0.80468687263E+02 0.  0.
        -11    1    4    4    0    0  0.26954854266E+01 -0.45269328867E+02 -0.37146644250E+02  0.58621250044E+02  0.00000000000E+00 0.  1.
         12    1    4    4    0    0 -0.43980336962E+02 -0.13818601720E+02 -0.15619020730E+03  0.16285148034E+03  0.00000000000E+00 0. -1.
        -11    1    3    3    0    0 -0.91134432499E+01  0.52337508650E+02 -0.25619600253E+03  0.26164606126E+03  0.00000000000E+00 0.  1.
         11    1    3    3    0    0 -0.12995431329E+02 -0.46493790350E+02 -0.13250724300E+03  0.14102738466E+03  0.00000000000E+00 0. -1.
          1    1    1    2  501    0  0.63393726115E+02  0.53244212287E+02 -0.35578225877E+02  0.90108383680E+02  0.00000000000E+00 0. -1.
<scales pt_clust_5="13000.00000" pt_clust_6="13000.00000" pt_clust_7="13000.00000" pt_clust_8="13000.00000" pt_clust_9="82.78714"></scales>
<clustering>
<clus scale="   80.469">  5  6 -1 -1</clus>
<clus scale="   82.787">  1  9  2 -1</clus>
<clus scale="   83.839">  1  5  2 -1</clus>
<clus scale="  102.629">  7  8 -1 -1</clus>
<clus scale="   82.787">  1  5  2 -1</clus>
</clustering>
</event>
<event>
 9    2  0.4653788E-005  0.1228595E+03  0.7546771E-02  0.1241106E+00
          2   -1    0    0  502    0 -0.00000000000E+00  0.00000000000E+00  0.22389760945E+03  0.22389760945E+03  0.00000000000E+00 0. -1.
         21   -1    0    0  501  502  0.00000000000E+00 -0.00000000000E+00 -0.24464469657E+03  0.24464469657E+03  0.00000000000E+00 0. -1.
         23    2    1    2    0    0 -0.32882627870E+02 -0.72765756764E+02  0.15349489533E+03  0.19414563164E+03  0.88066570381E+02 0.  0.
         24    2    1    2    0    0  0.79261151571E+02  0.97668867874E+02 -0.85744465881E+02  0.17142608225E+03  0.78824173622E+02 0.  0.
        -13    1    4    4    0    0 -0.76216760508E+01  0.46712032184E+02 -0.21713199233E+02  0.52072707991E+02  0.00000000000E+00 0.  1.
         14    1    4    4    0    0  0.86882827622E+02  0.50956835690E+02 -0.64031266648E+02  0.11935337426E+03  0.00000000000E+00 0. -1.
        -13    1    3    3    0    0 -0.46086257322E+02 -0.23382572740E+02  0.12581403622E+03  0.13601418872E+03  0.00000000000E+00 0. -1.
         13    1    3    3    0    0  0.13203629452E+02 -0.49383184024E+02  0.27680859107E+02  0.58131442920E+02  0.00000000000E+00 0.  1.
          1    1    1    2  501    0 -0.46378523701E+02 -0.24903111109E+02 -0.88497516574E+02  0.10297059213E+03  0.00000000000E+00 0. -1.
<scales pt_clust_5="13000.00000" pt_clust_6="13000.00000" pt_clust_7="13000.00000" pt_clust_8="13000.00000" pt_clust_9="52.64155"></scales>
<clustering>
<clus scale="   52.642">  2  9  1 -1</clus>
<clus scale="   78.824">  5  6 -1 -1</clus>
<clus scale="   88.067">  7  8 -1 -1</clus>
<clus scale="  116.413">  2  5  1 -1</clus>
<clus scale="   52.642">  2  5  1 -1</clus>
</clustering>
</event>
<event>
 9    2  0.4653788E-005  0.1172986E+03  0.7546771E-02  0.1250063E+00
          2   -1    0    0  502    0 -0.00000000000E+00  0.00000000000E+00  0.70141331400E+03  0.70141331400E+03  0.00000000000E+00 0. -1.
         21   -1    0    0  501  502  0.00000000000E+00 -0.00000000000E+00 -0.37490296155E+02  0.37490296155E+02  0.00000000000E+00 0.  1.
         23    2    1    2    0    0  0.76838563632E+02  0.48169595721E+02  0.26723277952E+03  0.29490759791E+03  0.85630940904E+02 0.  0.
         24    2    1    2    0    0 -0.71567052857E+02  0.11157392638E+01  0.10815407901E+03  0.15123339800E+03  0.77789124785E+02 0.  0.
        -11    1    4    4    0    0 -0.83950598354E+02 -0.10172713382E+02  0.70787610763E+02  0.11028178861E+03  0.00000000000E+00 0.  1.
         12    1    4    4    0    0  0.12383545497E+02  0.11288452646E+02  0.37366468247E+02  0.40951609388E+02  0.00000000000E+00 0. -1.
        -11    1    3    3    0    0  0.64961867125E+02 -0.96352619400E+01  0.14463026189E+03  0.15884204452E+03  0.00000000000E+00 0. -1.
         11    1    3    3    0    0  0.11876696507E+02  0.57804857661E+02  0.12260251763E+03  0.13606555339E+03  0.00000000000E+00 0.  1.
          1    1    1    2  501    0 -0.52715107746E+01 -0.49285334984E+02  0.28853615931E+03  0.29276261424E+03  0.00000000000E+00 0. -1.
<scales pt_clust_5="13000.00000" pt_clust_6="13000.00000" pt_clust_7="13000.00000" pt_clust_8="13000.00000" pt_clust_9="49.56648"></scales>
<clustering>
<clus scale="   49.566">  2  9  1 -1</clus>
<clus scale="   77.789">  5  6 -1 -1</clus>
<clus scale="   85.631">  7  8 -1 -1</clus>
<clus scale="  111.703">  2  5  1 -1</clus>
<clus scale="   49.566">  2  5  1 -1</clus>
</clustering>
</event>
<event>
 9    2  0.4653788E-005  0.9361856E+02  0.7546771E-02  0.1301171E+00
         21   -1    0    0  501  502  0.00000000000E+00  0.00000000000E+00  0.56601192431E+02  0.56601192431E+02  0.00000000000E+00 0. -1.
          2   -1    0    0  502    0 -0.00000000000E+00 -0.00000000000E+00 -0.21559312774E+03  0.21559312774E+03  0.00000000000E+00 0. -1.
         24    2    1    2    0    0  0.56169564656E+00 -0.15017415299E+02 -0.58961090235E+02  0.10213052965E+03  0.82026804525E+02 0.  0.
         23    2    1    2    0    0 -0.18919949857E+02 -0.16890088242E+02 -0.52544936136E+02  0.10998030005E+03  0.93227981325E+02 0.  0.
        -11    1    3    3    0    0  0.27588637049E+02 -0.95740906822E+01  0.75235678399E+01  0.30156262694E+02  0.00000000000E+00 0.  1.
         12    1    3    3    0    0 -0.27026941403E+02 -0.54433246172E+01 -0.66484658075E+02  0.71974266956E+02  0.00000000000E+00 0. -1.
        -13    1    4    4    0    0  0.33953061697E+02  0.11562300468E+02 -0.13322118182E+02  0.38261939621E+02  0.00000000000E+00 0.  1.
         13    1    4    4    0    0 -0.52873011554E+02 -0.28452388710E+02 -0.39222817954E+02  0.71718360427E+02  0.00000000000E+00 0. -1.
          1    1    1    2  501    0  0.18358254210E+02  0.31907503541E+02 -0.47485908942E+02  0.60083490477E+02  0.00000000000E+00 0. -1.
<scales pt_clust_5="13000.00000" pt_clust_6="13000.00000" pt_clust_7="13000.00000" pt_clust_8="13000.00000" pt_clust_9="36.81190"></scales>
<clustering>
<clus scale="   36.812">  1  9  2 -1</clus>
<clus scale="   82.027">  5  6 -1 -1</clus>
<clus scale="   82.470">  2  5  1 -1</clus>
<clus scale="   93.228">  7  8 -1 -1</clus>
<clus scale="   36.812">  1  5  2 -1</clus>
</clustering>
</event>
<event>
 9    2  0.7015816E-005  0.1007585E+03  0.7546771E-02  0.1285470E+00
         21   -1    0    0  501  502  0.00000000000E+00  0.00000000000E+00  0.24026531298E+03  0.24026531298E+03  0.00000000000E+00 0. -1.
         -1   -1    0    0    0  501 -0.00000000000E+00 -0.00000000000E+00 -0.21499381205E+03  0.21499381205E+03  0.00000000000E+00 0.  1.
         24    2    1    2    0    0 -0.35392371933E+02 -0.28506252980E+01 -0.18538497188E+03  0.20579429629E+03  0.81993649331E+02 0.  0.
         23    2    1    2    0    0  0.10573577372E+02 -0.14872366363E+01  0.11006892663E+03  0.14576987197E+03  0.94971967197E+02 0.  0.
        -11    1    3    3    0    0 -0.39215491871E+02 -0.31451795522E+02 -0.15877178401E+03  0.16653993408E+03  0.00000000000E+00 0.  1.
         12    1    3    3    0    0  0.38231199384E+01  0.28601170224E+02 -0.26613187874E+02  0.39254362217E+02  0.00000000000E+00 0. -1.
        -11    1    4    4    0    0 -0.20105096822E+02  0.72563150777E+01  0.11179778820E+03  0.11382273267E+03  0.00000000000E+00 0. -1.
         11    1    4    4    0    0  0.30678674194E+02 -0.87435517140E+01 -0.17288615718E+01  0.31947139296E+02  0.00000000000E+00 0.  1.
         -2    1    1    2    0  502  0.24818794561E+02  0.43378619343E+01  0.10058754620E+03  0.10369495677E+03  0.00000000000E+00 0.  1.
<scales pt_clust_5="13000.00000" pt_clust_6="13000.00000" pt_clust_7="13000.00000" pt_clust_8="13000.00000" pt_clust_9="25.19503"></scales>
<clustering>
<clus scale="   25.195">  1  9  2 -1</clus>
<clus scale="   81.994">  5  6 -1 -1</clus>
<clus scale="   88.632">  2  5  1 -1</clus>
<clus scale="   94.972">  7  8 -1 -1</clus>
<clus scale="   25.195">  1  5  2 -1</clus>
</clustering>
</event>
<event>
 9    2  0.4653788E-005  0.9740928E+02  0.7546771E-02  0.1291211E+00
         -1   -1    0    0    0  501 -0.00000000000E+00  0.00000000000E+00  0.11593929976E+04  0.11593929976E+04  0.00000000000E+00 0.  1.
         21   -1    0    0  501  502  0.00000000000E+00 -0.00000000000E+00 -0.31776589376E+02  0.31776589376E+02  0.00000000000E+00 0. -1.
         24    2    1    2    0    0 -0.31394262680E+02  0.10914889691E+02  0.85878179584E+03  0.86320839050E+03  0.80733004551E+02 0.  0.
         23    2    1    2    0    0  0.32340341585E+02 -0.34100345308E+02  0.28290539192E+03  0.30082363485E+03  0.90833183717E+02 0.  0.
        -11    1    3    3    0    0 -0.38207699631E+02  0.13910722459E+02  0.18631167905E+03  0.19069708509E+03  0.00000000000E+00 0.  1.
         12    1    3    3    0    0  0.68134369518E+01 -0.29958327684E+01  0.67247011679E+03  0.67251130542E+03  0.00000000000E+00 0. -1.
        -11    1    4    4    0    0 -0.27722286243E+02  0.60594657296E+01  0.57490295144E+02  0.64112216584E+02  0.00000000000E+00 0.  1.
         11    1    4    4    0    0  0.60062627828E+02 -0.40159811038E+02  0.22541509677E+03  0.23671141826E+03  0.00000000000E+00 0. -1.
         -2    1    1    2    0  502 -0.94607890527E+00  0.23185455617E+02 -0.14070779493E+02  0.27137561663E+02  0.00000000000E+00 0.  1.
<scales pt_clust_5="13000.00000" pt_clust_6="13000.00000" pt_clust_7="13000.00000" pt_clust_8="13000.00000" pt_clust_9="23.20475"></scales>
<clustering>
<clus scale="   23.205">  2  9  1 -1</clus>
<clus scale="   80.733">  5  6 -1 -1</clus>
<clus scale="   88.067">  1  5  2 -1</clus>
<clus scale="   90.833">  7  8 -1 -1</clus>
<clus scale="   23.205">  2  5  1 -1</clus>
</clustering>
</event>
<event>
 9    2  0.4653788E-005  0.3862824E+03  0.7546771E-02  0.1048636E+00
         21   -1    0    0  501  502  0.00000000000E+00  0.00000000000E+00  0.13057901089E+03  0.13057901089E+03  0.00000000000E+00 0. -1.
          2   -1    0    0  502    0 -0.00000000000E+00 -0.00000000000E+00 -0.10173829520E+04  0.10173829520E+04  0.00000000000E+00 0. -1.
         24    2    1    2    0    0  0.20702561601E+03  0.13919338205E+03 -0.37702833420E+03  0.45857883199E+03  0.76875074443E+02 0.  0.
         23    2    1    2    0    0  0.80286971002E+02  0.16880806406E+02 -0.21983523816E+03  0.25237844856E+03  0.92932179706E+02 0.  0.
        -13    1    3    3    0    0  0.73912334755E+02  0.86311893384E+02 -0.12688999427E+03  0.17033451446E+03  0.00000000000E+00 0.  1.
         14    1    3    3    0    0  0.13311328125E+03  0.52881488662E+02 -0.25013833992E+03  0.28824431753E+03  0.00000000000E+00 0. -1.
        -11    1    4    4    0    0  0.48631488166E+02 -0.13075988865E+01 -0.26050846221E+02  0.55184944006E+02  0.00000000000E+00 0.  1.
         11    1    4    4    0    0  0.31655482836E+02  0.18188405292E+02 -0.19378439194E+03  0.19719350456E+03  0.00000000000E+00 0. -1.
          1    1    1    2  501    0 -0.28731258701E+03 -0.15607418845E+03 -0.28994036877E+03  0.43700468235E+03  0.00000000000E+00 0. -1.
<scales pt_clust_5="13000.00000" pt_clust_6="13000.00000" pt_clust_7="13000.00000" pt_clust_8="13000.00000" pt_clust_9="326.96739"></scales>
<clustering>
<clus scale="   76.875">  5  6 -1 -1</clus>
<clus scale="   92.932">  7  8 -1 -1</clus>
<clus scale="  101.514">  5  7 -1 -1</clus>
<clus scale="  326.967">  1  9  2 -1</clus>
<clus scale="  326.967">  1  5  2 -1</clus>
</clustering>
</event>
<event>
 9    2  0.4653788E-005  0.9316258E+02  0.7546771E-02  0.1301153E+00
         21   -1    0    0  501  502  0.00000000000E+00  0.00000000000E+00  0.14670782042E+03  0.14670782042E+03  0.00000000000E+00 0.  1.
         -3   -1    0    0    0  501 -0.00000000000E+00 -0.00000000000E+00 -0.23120245623E+03  0.23120245623E+03  0.00000000000E+00 0.  1.
         23    2    1    2    0    0 -0.14034907620E+02 -0.32086208973E+02 -0.16760970060E+03  0.19354274357E+03  0.90217949523E+02 0.  0.
         24    2    1    2    0    0 -0.24804806841E+02 -0.31173621432E+02  0.37717080024E+02  0.97354277857E+02  0.80425146416E+02 0.  0.
        -11    1    4    4    0    0  0.29547877479E+02 -0.78915836839E+01  0.11513391170E+02  0.32678927962E+02  0.00000000000E+00 0.  1.
         12    1    4    4    0    0 -0.54352684320E+02 -0.23282037748E+02  0.26203688855E+02  0.64675349895E+02  0.00000000000E+00 0. -1.
        -11    1    3    3    0    0 -0.31754923555E+02 -0.55316098247E+02 -0.13757557812E+03  0.15164196514E+03  0.00000000000E+00 0.  1.
         11    1    3    3    0    0  0.17720015935E+02  0.23229889274E+02 -0.30034122479E+02  0.41900778435E+02  0.00000000000E+00 0. -1.
         -4    1    1    2    0  502  0.38839714461E+02  0.63259830405E+02  0.45397984775E+02  0.87013255220E+02  0.00000000000E+00 0.  1.
<scales pt_clust_5="13000.00000" pt_clust_6="13000.00000" pt_clust_7="13000.00000" pt_clust_8="13000.00000" pt_clust_9="74.23159"></scales>
<clustering>
<clus scale="   74.232">  1  9  2 -1</clus>
<clus scale="   80.425">  5  6 -1 -1</clus>
<clus scale="   83.715">  1  5  2 -1</clus>
<clus scale="   90.218">  7  8 -1 -1</clus>
<clus scale="   74.232">  1  5  2 -1</clus>
</clustering>
</event>
<event>
 9    2  0.4653788E-005  0.3356996E+03  0.7546771E-02  0.1068992E+00
         21   -1    0    0  501  502  0.00000000000E+00  0.00000000000E+00  0.31972176055E+03  0.31972176055E+03  0.00000000000E+00 0. -1.
          2   -1    0    0  502    0 -0.00000000000E+00 -0.00000000000E+00 -0.49561779596E+03  0.49561779596E+03  0.00000000000E+00 0. -1.
         23    2    1    2    0    0 -0.96203015190E+02 -0.25767533418E+03 -0.26938751042E+02  0.29128245949E+03  0.92022697849E+02 0.  0.
         24    2    1    2    0    0  0.18441711936E+03  0.33079878175E+03 -0.10180350643E+03  0.40015291818E+03  0.79504063337E+02 0.  0.
        -11    1    4    4    0    0  0.15243527872E+02  0.84647043742E+02 -0.49104612160E+01  0.86148707394E+02  0.00000000000E+00 0.  1.
         12    1    4    4    0    0  0.16917359149E+03  0.24615173801E+03 -0.96893045217E+02  0.31400421079E+03  0.00000000000E+00 0. -1.
        -11    1    3    3    0    0 -0.73120221955E+02 -0.20020087969E+03  0.19273516448E+02  0.21400567171E+03  0.00000000000E+00 0. -1.
         11    1    3    3    0    0 -0.23082793235E+02 -0.57474454492E+02 -0.46212267490E+02  0.77276787778E+02  0.00000000000E+00 0.  1.
          1    1    1    2  501    0 -0.88214104171E+02 -0.73123447571E+02 -0.47153777939E+02  0.12390417884E+03  0.00000000000E+00 0. -1.
<scales pt_clust_5="13000.00000" pt_clust_6="13000.00000" pt_clust_7="13000.00000" pt_clust_8="13000.00000" pt_clust_9="114.58089"></scales>
<clustering>
<clus scale="   79.504">  5  6 -1 -1</clus>
<clus scale="   92.023">  7  8 -1 -1</clus>
<clus scale="  114.581">  1  9  2 -1</clus>
<clus scale="  332.486">  1  5  2 -1</clus>
<clus scale="  114.581">  1  5  2 -1</clus>
</clustering>
</event>
<event>
 9    2  0.4653788E-005  0.1229125E+03  0.7546771E-02  0.1241274E+00
          2   -1    0    0  502    0 -0.00000000000E+00  0.00000000000E+00  0.16968138578E+03  0.16968138578E+03  0.00000000000E+00 0. -1.
         21   -1    0    0  501  502  0.00000000000E+00 -0.00000000000E+00 -0.24346397638E+03  0.24346397638E+03  0.00000000000E+00 0. -1.
         24    2    1    2    0    0 -0.81338724771E+02 -0.27460158361E+01  0.65711436094E+02  0.13218450849E+03  0.80815980476E+02 0.  0.
         23    2    1    2    0    0  0.80006714193E+02  0.49406485252E+02  0.33930154926E+01  0.13064225708E+03  0.90630081545E+02 0.  0.
        -11    1    3    3    0    0 -0.33055014509E+02 -0.27552763894E+02 -0.46879461312E+01  0.43287014465E+02  0.00000000000E+00 0.  1.
         12    1    3    3    0    0 -0.48283710263E+02  0.24806748058E+02  0.70399382225E+02  0.88897494023E+02  0.00000000000E+00 0. -1.
        -11    1    4    4    0    0 -0.12987987345E+02  0.33078534775E+02 -0.48475377555E+01  0.35866082869E+02  0.00000000000E+00 0. -1.
         11    1    4    4    0    0  0.92994701538E+02  0.16327950477E+02  0.82405532481E+01  0.94776174214E+02  0.00000000000E+00 0.  1.
          1    1    1    2  501    0  0.13320105778E+01 -0.46660469416E+02 -0.14288704219E+03  0.15031859660E+03  0.00000000000E+00 0. -1.
<scales pt_clust_5="13000.00000" pt_clust_6="13000.00000" pt_clust_7="13000.00000" pt_clust_8="13000.00000" pt_clust_9="46.67948"></scales>
<clustering>
<clus scale="   46.679">  2  9  1 -1</clus>
<clus scale="   80.816">  5  6 -1 -1</clus>
<clus scale="   90.630">  7  8 -1 -1</clus>
<clus scale="  115.866">  1  5  2 -1</clus>
<clus scale="   46.679">  2  5  1 -1</clus>
</clustering>
</event>
<event>
 9    2  0.4653788E-005  0.8997744E+02  0.7546771E-02  0.1310584E+00
         21   -1    0    0  501  502  0.00000000000E+00  0.00000000000E+00  0.50547604654E+02  0.50547604654E+02  0.00000000000E+00 0.  1.
          4   -1    0    0  502    0 -0.00000000000E+00 -0.00000000000E+00 -0.82374938518E+03  0.82374938518E+03  0.00000000000E+00 0. -1.
         24    2    1    2    0    0  0.21313654058E+01  0.71293558519E+01 -0.68742397772E+03  0.69182572829E+03  0.77561219335E+02 0.  0.
         23    2    1    2    0    0  0.19084300200E+02 -0.37184715801E+02 -0.10229605072E+03  0.14214407912E+03  0.89406619616E+02 0.  0.
        -11    1    3    3    0    0 -0.19317008900E+02  0.22410658269E+02 -0.11334337317E+03  0.11714138756E+03  0.00000000000E+00 0.  1.
         12    1    3    3    0    0  0.21448374306E+02 -0.15281302417E+02 -0.57408060454E+03  0.57468434073E+03  0.00000000000E+00 0. -1.
        -13    1    4    4    0    0  0.47875895894E+02  0.43464102253E+01 -0.52837266528E+02  0.71433671498E+02  0.00000000000E+00 0. -1.
         13    1    4    4    0    0 -0.28791595694E+02 -0.41531126027E+02 -0.49458784194E+02  0.70710407619E+02  0.00000000000E+00 0.  1.
          3    1    1    2  501    0 -0.21215665606E+02  0.30055359949E+02  0.16518247913E+02  0.40327182432E+02  0.00000000000E+00 0. -1.
<scales pt_clust_5="13000.00000" pt_clust_6="13000.00000" pt_clust_7="13000.00000" pt_clust_8="13000.00000" pt_clust_9="36.78898"></scales>
<clustering>
<clus scale="   36.789">  1  9  2 -1</clus>
<clus scale="   77.561">  5  6 -1 -1</clus>
<clus scale="   78.219">  2  5  1 -1</clus>
<clus scale="   89.407">  7  8 -1 -1</clus>
<clus scale="   36.789">  1  5  2 -1</clus>
</clustering>
</event>
<event>
 9    2  0.4653788E-005  0.1006919E+03  0.7546771E-02  0.1286097E+00
         21   -1    0    0  501  502  0.00000000000E+00  0.00000000000E+00  0.42149524236E+02  0.42149524236E+02  0.00000000000E+00 0. -1.
          2   -1    0    0  502    0 -0.00000000000E+00 -0.00000000000E+00 -0.41472064981E+03  0.41472064981E+03  0.00000000000E+00 0. -1.
         24    2    1    2    0    0 -0.29530833622E+02  0.31259941293E+02 -0.30606691389E+03  0.31859219042E+03  0.77296662009E+02 0.  0.
         23    2    1    2    0    0  0.37530283320E+02 -0.11304897181E+02 -0.54637597146E+02  0.11372169071E+03  0.91711684370E+02 0.  0.
        -11    1    3    3    0    0  0.15102221780E+02 -0.16449319495E+02 -0.60729103728E+02  0.64704569036E+02  0.00000000000E+00 0.  1.
         12    1    3    3    0    0 -0.44633055402E+02  0.47709260788E+02 -0.24533781016E+03  0.25388762139E+03  0.00000000000E+00 0. -1.
        -11    1    4    4    0    0  0.62052228300E+02 -0.16734316531E+02 -0.13730137381E+02  0.65719350722E+02  0.00000000000E+00 0. -1.
         11    1    4    4    0    0 -0.24521944980E+02  0.54294193501E+01 -0.40907459764E+02  0.48002339989E+02  0.00000000000E+00 0.  1.
          1    1    1    2  501    0 -0.79994496986E+01 -0.19955044112E+02 -0.11866614542E+02  0.24556292914E+02  0.00000000000E+00 0. -1.
<scales pt_clust_5="13000.00000" pt_clust_6="13000.00000" pt_clust_7="13000.00000" pt_clust_8="13000.00000" pt_clust_9="21.49872"></scales>
<clustering>
<clus scale="   21.499">  1  9  2 -1</clus>
<clus scale="   77.297">  5  6 -1 -1</clus>
<clus scale="   87.764">  2  5  1 -1</clus>
<clus scale="   91.712">  7  8 -1 -1</clus>
<clus scale="   21.499">  1  5  2 -1</clus>
</clustering>
</event>
<event>
 9    2  0.4653788E-005  0.1135700E+03  0.7546771E-02  0.1257851E+00
         21   -1    0    0  501  502  0.00000000000E+00  0.00000000000E+00  0.11351668997E+04  0.11351668997E+04  0.00000000000E+00 0. -1.
         -1   -1    0    0    0  501 -0.00000000000E+00 -0.00000000000E+00 -0.22451213486E+02  0.22451213486E+02  0.00000000000E+00 0.  1.
         23    2    1    2    0    0  0.31854888606E+02  0.45709712541E+02  0.27627959922E+03  0.29618817279E+03  0.91065388638E+02 0.  0.
         24    2    1    2    0    0 -0.82731000844E+02 -0.60851508841E+02  0.73917671377E+03  0.75062814226E+03  0.80703588096E+02 0.  0.
        -11    1    4    4    0    0 -0.38214079027E+02 -0.25697859093E+02  0.11497692497E+03  0.12385632431E+03  0.00000000000E+00 0.  1.
         12    1    4    4    0    0 -0.44516921818E+02 -0.35153649748E+02  0.62419978881E+03  0.62677181794E+03  0.00000000000E+00 0. -1.
        -13    1    3    3    0    0  0.27507889492E+02 -0.19761503522E+02  0.15114993659E+03  0.15489836777E+03  0.00000000000E+00 0. -1.
         13    1    3    3    0    0  0.43469991134E+01  0.65471216062E+02  0.12512966264E+03  0.14128980503E+03  0.00000000000E+00 0.  1.
         -2    1    1    2    0  502  0.50876112238E+02  0.15141796300E+02  0.97259373226E+02  0.11080179814E+03  0.00000000000E+00 0.  1.
<scales pt_clust_5="13000.00000" pt_clust_6="13000.00000" pt_clust_7="13000.00000" pt_clust_8="13000.00000" pt_clust_9="53.08159"></scales>
<clustering>
<clus scale="   53.082">  1  9  2 -1</clus>
<clus scale="   80.704">  5  6 -1 -1</clus>
<clus scale="   91.065">  7  8 -1 -1</clus>
<clus scale="  105.443">  1  5  2 -1</clus>
<clus scale="   53.082">  1  5  2 -1</clus>
</clustering>
</event>
<event>
 9    2  0.4653788E-005  0.1306820E+03  0.7546771E-02  0.1230049E+00
          2   -1    0    0  502    0 -0.00000000000E+00  0.00000000000E+00  0.89599957363E+03  0.89599957363E+03  0.00000000000E+00 0. -1.
         21   -1    0    0  501  502  0.00000000000E+00 -0.00000000000E+00 -0.31872960768E+02  0.31872960768E+02  0.00000000000E+00 0.  1.
         23    2    1    2    0    0 -0.46624455758E+02 -0.99377056290E+02  0.49388593485E+03  0.51461448605E+03  0.94101612220E+02 0.  0.
         24    2    1    2    0    0 -0.94881868682E+01  0.67010814863E+02  0.14673727177E+03  0.18055657682E+03  0.80550453188E+02 0.  0.
        -11    1    4    4    0    0 -0.37027887024E+02  0.58245481310E+02  0.12993006454E+03  0.14712383282E+03  0.00000000000E+00 0.  1.
         12    1    4    4    0    0  0.27539700156E+02  0.87653335535E+01  0.16807207227E+02  0.33432744006E+02  0.00000000000E+00 0. -1.
        -11    1    3    3    0    0 -0.72512911805E+02 -0.48773448969E+02  0.28141061362E+03  0.29466744842E+03  0.00000000000E+00 0.  1.
         11    1    3    3    0    0  0.25888456047E+02 -0.50603607321E+02  0.21247532123E+03  0.21994703763E+03  0.00000000000E+00 0. -1.
          1    1    1    2  501    0  0.56112642627E+02  0.32366241427E+02  0.22350340624E+03  0.23270147152E+03  0.00000000000E+00 0. -1.
<scales pt_clust_5="13000.00000" pt_clust_6="13000.00000" pt_clust_7="13000.00000" pt_clust_8="13000.00000" pt_clust_9="64.77813"></scales>
<clustering>
<clus scale="   64.778">  2  9  1 -1</clus>
<clus scale="   80.550">  5  6 -1 -1</clus>
<clus scale="   94.102">  7  8 -1 -1</clus>
<clus scale="  121.289">  2  5  1 -1</clus>
<clus scale="   64.778">  2  5  1 -1</clus>
</clustering>
</event>
<event>
 9    2  0.4653788E-005  0.1291703E+03  0.7546771E-02  0.1237628E+00
         21   -1    0    0  501  502  0.00000000000E+00  0.00000000000E+00  0.16730873808E+03  0.16730873808E+03  0.00000000000E+00 0.  1.
         -1   -1    0    0    0  501 -0.00000000000E+00 -0.00000000000E+00 -0.40766173830E+03  0.40766173830E+03  0.00000000000E+00 0.  1.
         23    2    1    2    0    0  0.80470438247E+02 -0.29462447165E+02 -0.15626197582E+03  0.20030170061E+03  0.91429967487E+02 0.  0.
         24    2    1    2    0    0 -0.11814889732E+03  0.47530654399E+02  0.10906246482E+03  0.17704692275E+03  0.56856543832E+02 0.  0.
        -11    1    4    4    0    0 -0.28501074532E+02  0.33698650704E+02  0.15618937549E+02  0.46817320715E+02  0.00000000000E+00 0.  1.
         12    1    4    4    0    0 -0.89647822791E+02  0.13832003695E+02  0.93443527270E+02  0.13022960204E+03  0.00000000000E+00 0. -1.
        -11    1    3    3    0    0  0.71342029758E+02  0.18222735102E+02 -0.11516561126E+03  0.13669261612E+03  0.00000000000E+00 0.  1.
         11    1    3    3    0    0  0.91284084888E+01 -0.47685182268E+02 -0.41096364559E+02  0.63609084488E+02  0.00000000000E+00 0. -1.
         -2    1    1    2    0  502  0.37678459076E+02 -0.18068207234E+02 -0.19315348922E+03  0.19762185302E+03  0.00000000000E+00 0.  1.
<scales pt_clust_5="13000.00000" pt_clust_6="13000.00000" pt_clust_7="13000.00000" pt_clust_8="13000.00000" pt_clust_9="41.78670"></scales>
<clustering>
<clus scale="   41.787">  1  9  2 -1</clus>
<clus scale="   56.857">  5  6 -1 -1</clus>
<clus scale="   91.430">  7  8 -1 -1</clus>
<clus scale="  107.509">  1  5  2 -1</clus>
<clus scale="   41.787">  1  5  2 -1</clus>
</clustering>
</event>
<event>
 9    2  0.4653788E-005  0.3861569E+03  0.7546771E-02  0.1077957E+00
         -3   -1    0    0    0  501 -0.00000000000E+00  0.00000000000E+00  0.72185647738E+03  0.72185647738E+03  0.00000000000E+00 0.  1.
         21   -1    0    0  501  502  0.00000000000E+00 -0.00000000000E+00 -0.36387661614E+03  0.36387661614E+03  0.00000000000E+00 0.  1.
         23    2    1    2    0    0  0.11749302638E+03  0.87994892329E+02  0.22220072774E+03  0.28041708574E+03  0.87822925491E+02 0.  0.
         24    2    1    2    0    0  0.19610706275E+03 -0.32416882610E+03 -0.74681108876E+01  0.38741300957E+03  0.80558422465E+02 0.  0.
        -13    1    4    4    0    0  0.13603892924E+03 -0.17403618008E+03 -0.34158178722E+02  0.22352172919E+03  0.00000000000E+00 0.  1.
         14    1    4    4    0    0  0.60068133502E+02 -0.15013264602E+03  0.26690067835E+02  0.16389128038E+03  0.00000000000E+00 0. -1.
        -13    1    3    3    0    0  0.33627068436E+02 -0.11746090923E+02  0.79803183980E+02  0.87391638942E+02  0.00000000000E+00 0.  1.
         13    1    3    3    0    0  0.83865957949E+02  0.99740983253E+02  0.14239754376E+03  0.19302544680E+03  0.00000000000E+00 0. -1.
         -4    1    1    2    0  502 -0.31360008913E+03  0.23617393377E+03  0.14324724439E+03  0.41790299822E+03  0.00000000000E+00 0.  1.
<scales pt_clust_5="13000.00000" pt_clust_6="13000.00000" pt_clust_7="13000.00000" pt_clust_8="13000.00000" pt_clust_9="377.66077"></scales>
<clustering>
<clus scale="   80.558">  5  6 -1 -1</clus>
<clus scale="   87.823">  7  8 -1 -1</clus>
<clus scale="  171.057">  1  7  2 -1</clus>
<clus scale="  377.661">  2  9  1 -1</clus>
<clus scale="  377.661">  2  5  1 -1</clus>
</clustering>
</event>
<event>
 9    2  0.4653788E-005  0.8978056E+02  0.7546771E-02  0.1309069E+00
         21   -1    0    0  501  502  0.00000000000E+00  0.00000000000E+00  0.12329715529E+03  0.12329715529E+03  0.00000000000E+00 0.  1.
          2   -1    0    0  502    0 -0.00000000000E+00 -0.00000000000E+00 -0.20336749695E+03  0.20336749695E+03  0.00000000000E+00 0. -1.
         24    2    1    2    0    0 -0.21924131894E+02  0.64777000650E+01 -0.13543295287E+03  0.15881403906E+03  0.79731964253E+02 0.  0.
         23    2    1    2    0    0 -0.35901788831E+02  0.14820802156E+02  0.33733149764E+02  0.10254137258E+03  0.88702948546E+02 0.  0.
        -13    1    3    3    0    0  0.14851067649E+02 -0.22572308072E+02 -0.88323260714E+02  0.92363746595E+02  0.00000000000E+00 0.  1.
         14    1    3    3    0    0 -0.36775199543E+02  0.29050008137E+02 -0.47109692152E+02  0.66450292467E+02  0.00000000000E+00 0. -1.
        -13    1    4    4    0    0 -0.19818342566E+01 -0.32059271883E+02  0.30957286503E+02  0.44610292179E+02  0.00000000000E+00 0.  1.
         13    1    4    4    0    0 -0.33919954575E+02  0.46880074038E+02  0.27758632615E+01  0.57931080406E+02  0.00000000000E+00 0. -1.
          1    1    1    2  501    0  0.57825920726E+02 -0.21298502221E+02  0.21629461448E+02  0.65309240595E+02  0.00000000000E+00 0. -1.
<scales pt_clust_5="13000.00000" pt_clust_6="13000.00000" pt_clust_7="13000.00000" pt_clust_8="13000.00000" pt_clust_9="61.62356"></scales>
<clustering>
<clus scale="   61.624">  1  9  2 -1</clus>
<clus scale="   79.732">  5  6 -1 -1</clus>
<clus scale="   80.929">  2  5  1 -1</clus>
<clus scale="   88.703">  7  8 -1 -1</clus>
<clus scale="   61.624">  1  5  2 -1</clus>
</clustering>
</event>
<event>
 9    2  0.4653788E-005  0.1208846E+03  0.7546771E-02  0.1245026E+00
          2   -1    0    0  502    0 -0.00000000000E+00  0.00000000000E+00  0.60758677914E+03  0.60758677914E+03  0.00000000000E+00 0. -1.
         21   -1    0    0  501  502  0.00000000000E+00 -0.00000000000E+00 -0.80156875947E+02  0.80156875947E+02  0.00000000000E+00 0. -1.
         24    2    1    2    0    0 -0.61655001412E+01  0.69127358870E+02  0.27109446034E+03  0.29122339610E+03  0.80636560403E+02 0.  0.
         23    2    1    2    0    0 -0.37810615356E+02 -0.90871087787E+02  0.30134330768E+03  0.32994401414E+03  0.91477134603E+02 0.  0.
        -11    1    3    3    0    0 -0.24270460292E+02  0.41568070161E+02  0.57003789200E+02  0.74608254791E+02  0.00000000000E+00 0.  1.
         12    1    3    3    0    0  0.18104960151E+02  0.27559288709E+02  0.21409067114E+03  0.21661514131E+03  0.00000000000E+00 0. -1.
        -11    1    4    4    0    0 -0.52612074854E+02 -0.14537038557E+02  0.96937084799E+02  0.11124816547E+03  0.00000000000E+00 0. -1.
         11    1    4    4    0    0  0.14801459498E+02 -0.76334049230E+02  0.20440622288E+03  0.21869584867E+03  0.00000000000E+00 0.  1.
          1    1    1    2  501    0  0.43976115497E+02  0.21743728917E+02 -0.45007864826E+02  0.66576244844E+02  0.00000000000E+00 0. -1.
<scales pt_clust_5="13000.00000" pt_clust_6="13000.00000" pt_clust_7="13000.00000" pt_clust_8="13000.00000" pt_clust_9="49.05801"></scales>
<clustering>
<clus scale="   49.058">  2  9  1 -1</clus>
<clus scale="   80.637">  5  6 -1 -1</clus>
<clus scale="   91.477">  7  8 -1 -1</clus>
<clus scale="  112.904">  1  5  2 -1</clus>
<clus scale="   49.058">  2  5  1 -1</clus>
</clustering>
</event>
<event>
 9    2  0.4653788E-005  0.9432969E+02  0.7546771E-02  0.1299302E+00
         21   -1    0    0  501  502  0.00000000000E+00  0.00000000000E+00  0.16932818597E+03  0.16932818597E+03  0.00000000000E+00 0.  1.
          4   -1    0    0  502    0 -0.00000000000E+00 -0.00000000000E+00 -0.93556708923E+02  0.93556708923E+02  0.00000000000E+00 0. -1.
         24    2    1    2    0    0 -0.14488846348E+02  0.22937960884E+02 -0.27474399922E+02  0.88789659566E+02  0.79954263656E+02 0.  0.
         23    2    1    2    0    0  0.27810003160E+02  0.84856721007E+01  0.10203366625E+03  0.13994311411E+03  0.91256798281E+02 0.  0.
        -11    1    3    3    0    0  0.26754299353E+01  0.28778375692E+02 -0.51281053998E+02  0.58865094343E+02  0.00000000000E+00 0.  1.
         12    1    3    3    0    0 -0.17164276284E+02 -0.58404148085E+01  0.23806654077E+02  0.29924565223E+02  0.00000000000E+00 0. -1.
        -11    1    4    4    0    0 -0.13069842509E+02  0.27623728081E+02  0.25107882609E+01  0.30662602531E+02  0.00000000000E+00 0.  1.
         11    1    4    4    0    0  0.40879845669E+02 -0.19138055980E+02  0.99522877985E+02  0.10928051158E+03  0.00000000000E+00 0. -1.
          3    1    1    2  501    0 -0.13321156811E+02 -0.31423632984E+02  0.12122107228E+01  0.34152121216E+02  0.00000000000E+00 0. -1.
<scales pt_clust_5="13000.00000" pt_clust_6="13000.00000" pt_clust_7="13000.00000" pt_clust_8="13000.00000" pt_clust_9="34.13062"></scales>
<clustering>
<clus scale="   34.131">  1  9  2 -1</clus>
<clus scale="   79.954">  5  6 -1 -1</clus>
<clus scale="   83.444">  2  5  1 -1</clus>
<clus scale="   91.257">  7  8 -1 -1</clus>
<clus scale="   34.131">  1  5  2 -1</clus>
</clustering>
</event>
<event>
 9    2  0.4653788E-005  0.1450607E+03  0.7546771E-02  0.1211189E+00
          4   -1    0    0  502    0 -0.00000000000E+00  0.00000000000E+00  0.10831522674E+04  0.10831522674E+04  0.00000000000E+00 0. -1.
         21   -1    0    0  501  502  0.00000000000E+00 -0.00000000000E+00 -0.26548327729E+02  0.26548327729E+02  0.00000000000E+00 0.  1.
         24    2    1    2    0    0 -0.10555539296E+03  0.35434652528E+02  0.75326917837E+03  0.76566613380E+03  0.80203602044E+02 0.  0.
         23    2    1    2    0    0  0.76850178944E+02 -0.40933533430E+02  0.25085392647E+03  0.28396396085E+03  0.10062968981E+03 0.  0.
        -11    1    3    3    0    0 -0.54603616300E+02 -0.14318355640E+02  0.19936248073E+03  0.20720031116E+03  0.00000000000E+00 0.  1.
         12    1    3    3    0    0 -0.50951776661E+02  0.49753008168E+02  0.55390669764E+03  0.55846582264E+03  0.00000000000E+00 0. -1.
        -13    1    4    4    0    0  0.61068412775E+02  0.74401727437E+01  0.20965026595E+03  0.21849013988E+03  0.00000000000E+00 0.  1.
         13    1    4    4    0    0  0.15781766168E+02 -0.48373706174E+02  0.41203660516E+02  0.65473820969E+02  0.00000000000E+00 0. -1.
          3    1    1    2  501    0  0.28705214018E+02  0.54988809023E+01  0.52480834780E+02  0.60070500432E+02  0.00000000000E+00 0. -1.
<scales pt_clust_5="13000.00000" pt_clust_6="13000.00000" pt_clust_7="13000.00000" pt_clust_8="13000.00000" pt_clust_9="29.22716"></scales>
<clustering>
<clus scale="   29.227">  2  9  1 -1</clus>
<clus scale="   80.204">  5  6 -1 -1</clus>
<clus scale="  100.630">  7  8 -1 -1</clus>
<clus scale="  131.715">  1  5  2 -1</clus>
<clus scale="   29.227">  2  5  1 -1</clus>
</clustering>
</event>
<event>
 9    2  0.6077894E-005  0.9896640E+02  0.7546771E-02  0.1289905E+00
         -3   -1    0    0    0  501 -0.00000000000E+00  0.00000000000E+00  0.36571857011E+03  0.36571857011E+03  0.00000000000E+00 0.  1.
         21   -1    0    0  501  502  0.00000000000E+00 -0.00000000000E+00 -0.36601521525E+03  0.36601521525E+03  0.00000000000E+00 0.  1.
         23    2    1    2    0    0  0.19730452570E+02 -0.28846510632E+02  0.34116287157E+03  0.35517572297E+03  0.92391976478E+02 0.  0.
         24    2    1    2    0    0 -0.52362570865E+02  0.19169049607E+02 -0.12654615751E+03  0.15896610401E+03  0.78402812143E+02 0.  0.
        -11    1    4    4    0    0 -0.64082662265E+02  0.17879195925E+02 -0.54617456123E+02  0.86077405649E+02  0.00000000000E+00 0.  1.
         12    1    4    4    0    0  0.11720091400E+02  0.12898536817E+01 -0.71928701387E+02  0.72888698357E+02  0.00000000000E+00 0. -1.
        -11    1    3    3    0    0 -0.26334296546E+02  0.50773345408E+01  0.37104384230E+02  0.45782199922E+02  0.00000000000E+00 0. -1.
         11    1    3    3    0    0  0.46064749116E+02 -0.33923845173E+02  0.30405848734E+03  0.30939352305E+03  0.00000000000E+00 0.  1.
         -4    1    1    2    0  502  0.32632118295E+02  0.96774610255E+01 -0.21491335919E+03  0.21759195838E+03  0.00000000000E+00 0.  1.
<scales pt_clust_5="13000.00000" pt_clust_6="13000.00000" pt_clust_7="13000.00000" pt_clust_8="13000.00000" pt_clust_9="34.03687"></scales>
<clustering>
<clus scale="   34.037">  2  9  1 -1</clus>
<clus scale="   78.403">  5  6 -1 -1</clus>
<clus scale="   86.053">  2  5  1 -1</clus>
<clus scale="   92.392">  7  8 -1 -1</clus>
<clus scale="   34.037">  2  5  1 -1</clus>
</clustering>
</event>
<event>
 9    2  0.4653788E-005  0.1014941E+03  0.7546771E-02  0.1281945E+00
          2   -1    0    0  502    0 -0.00000000000E+00  0.00000000000E+00  0.42734798762E+02  0.42734798762E+02  0.00000000000E+00 0. -1.
         21   -1    0    0  501  502  0.00000000000E+00 -0.00000000000E+00 -0.33286690170E+03  0.33286690170E+03  0.00000000000E+00 0. -1.
         24    2    1    2    0    0 -0.39740826959E+02  0.44801890956E+01 -0.58014656519E+02  0.10796423672E+03  0.81799575905E+02 0.  0.
         23    2    1    2    0    0  0.47219400589E+02 -0.29259010717E+02 -0.18122000687E+03  0.21053695220E+03  0.91647999732E+02 0.  0.
        -11    1    3    3    0    0  0.20209193478E+02  0.17310291824E+02 -0.53489775716E+01  0.27141651850E+02  0.00000000000E+00 0.  1.
         12    1    3    3    0    0 -0.59950020437E+02 -0.12830102729E+02 -0.52665678947E+02  0.80822584872E+02  0.00000000000E+00 0. -1.
        -11    1    4    4    0    0 -0.12701391190E+02 -0.39658524152E+02 -0.44746510728E+02  0.61125887302E+02  0.00000000000E+00 0.  1.
         11    1    4    4    0    0  0.59920791780E+02  0.10399513435E+02 -0.13647349614E+03  0.14941106490E+03  0.00000000000E+00 0. -1.
          1    1    1    2  501    0 -0.74785736306E+01  0.24778821621E+02 -0.50897439557E+02  0.57100511539E+02  0.00000000000E+00 0. -1.
<scales pt_clust_5="13000.00000" pt_clust_6="13000.00000" pt_clust_7="13000.00000" pt_clust_8="13000.00000" pt_clust_9="25.88279"></scales>
<clustering>
<clus scale="   25.883">  2  9  1 -1</clus>
<clus scale="   81.800">  5  6 -1 -1</clus>
<clus scale="   91.648">  7  8 -1 -1</clus>
<clus scale="   92.698">  1  5  2 -1</clus>
<clus scale="   25.883">  2  5  1 -1</clus>
</clustering>
</event>
<event>
 9    2  0.4653788E-005  0.1524893E+03  0.7546771E-02  0.1213550E+00
         21   -1    0    0  501  502  0.00000000000E+00  0.00000000000E+00  0.85473897329E+02  0.85473897329E+02  0.00000000000E+00 0.  1.
         -3   -1    0    0    0  501 -0.00000000000E+00 -0.00000000000E+00 -0.59291021990E+03  0.59291021990E+03  0.00000000000E+00 0.  1.
         23    2    1    2    0    0  0.53957085684E+02  0.13997621787E+02 -0.86471761746E+02  0.13822192460E+03  0.92307282206E+02 0.  0.
         24    2    1    2    0    0  0.26724143364E+02 -0.12179958106E+03 -0.36630257617E+03  0.39483960075E+03  0.78558355565E+02 0.  0.
        -13    1    4    4    0    0 -0.24674612340E+02 -0.16771555271E+02 -0.60842121655E+02  0.67763451269E+02  0.00000000000E+00 0.  1.
         14    1    4    4    0    0  0.51398755704E+02 -0.10502802579E+03 -0.30546045451E+03  0.32707614948E+03  0.00000000000E+00 0. -1.
        -13    1    3    3    0    0  0.25320164685E+02 -0.27329366541E+02  0.10670976014E+01  0.37271218286E+02  0.00000000000E+00 0.  1.
         13    1    3    3    0    0  0.28636920999E+02  0.41326988328E+02 -0.87538859348E+02  0.10095070631E+03  0.00000000000E+00 0. -1.
         -4    1    1    2    0  502 -0.80681229048E+02  0.10780195928E+03 -0.54661984657E+02  0.14532259188E+03  0.00000000000E+00 0.  1.
<scales pt_clust_5="13000.00000" pt_clust_6="13000.00000" pt_clust_7="13000.00000" pt_clust_8="13000.00000" pt_clust_9="130.69654"></scales>
<clustering>
<clus scale="   78.558">  5  6 -1 -1</clus>
<clus scale="   92.307">  7  8 -1 -1</clus>
<clus scale="  107.833">  2  7  1 -1</clus>
<clus scale="  130.697">  1  9  2 -1</clus>
<clus scale="  130.697">  1  5  2 -1</clus>
</clustering>
</event>
<event>
 9    2  0.4653788E-005  0.1633131E+03  0.7546771E-02  0.1186585E+00
         -3   -1    0    0    0  501 -0.00000000000E+00  0.00000000000E+00  0.11325028521E+03  0.11325028521E+03  0.00000000000E+00 0.  1.
         21   -1    0    0  501  502  0.00000000000E+00 -0.00000000000E+00 -0.41672892504E+03  0.41672892504E+03  0.00000000000E+00 0.  1.
         24    2    1    2    0    0  0.67117477446E+02 -0.14859482684E+03 -0.11509238420E+03  0.21538829293E+03  0.80998033841E+02 0.  0.
         23    2    1    2    0    0 -0.79117855580E+02  0.70232708817E+02 -0.18923129019E+03  0.23531075145E+03  0.91489890701E+02 0.  0.
        -13    1    3    3    0    0  0.36056600578E+02 -0.14647578390E+03 -0.92986152771E+02  0.17720513063E+03  0.00000000000E+00 0.  1.
         14    1    3    3    0    0  0.31060876868E+02 -0.21190429388E+01 -0.22106231426E+02  0.38183162292E+02  0.00000000000E+00 0. -1.
        -11    1    4    4    0    0 -0.20842923796E+02  0.77342225306E+02 -0.94703986868E+02  0.12403665755E+03  0.00000000000E+00 0.  1.
         11    1    4    4    0    0 -0.58274931784E+02 -0.71095164891E+01 -0.94527303326E+02  0.11127409390E+03  0.00000000000E+00 0. -1.
         -4    1    1    2    0  502  0.12000378134E+02  0.78362118026E+02  0.84503456455E+00  0.79280165870E+02  0.00000000000E+00 0.  1.
<scales pt_clust_5="13000.00000" pt_clust_6="13000.00000" pt_clust_7="13000.00000" pt_clust_8="13000.00000" pt_clust_9="79.27570"></scales>
<clustering>
<clus scale="   79.276">  2  9  1 -1</clus>
<clus scale="   80.998">  5  6 -1 -1</clus>
<clus scale="   91.490">  7  8 -1 -1</clus>
<clus scale="  157.675">  1  5  2 -1</clus>
<clus scale="   79.276">  2  5  1 -1</clus>
</clustering>
</event>
<event>
 9    2  0.4653788E-005  0.1916482E+03  0.7546771E-02  0.1157830E+00
         21   -1    0    0  501  502  0.00000000000E+00  0.00000000000E+00  0.15240380321E+03  0.15240380321E+03  0.00000000000E+00 0. -1.
          2   -1    0    0  502    0 -0.00000000000E+00 -0.00000000000E+00 -0.35798331805E+03  0.35798331805E+03  0.00000000000E+00 0. -1.
         24    2    1    2    0    0 -0.25347074224E+02  0.13827259330E+03 -0.45593313167E+02  0.17018572533E+03  0.84395774023E+02 0.  0.
         23    2    1    2    0    0  0.40835521525E+02 -0.19870253285E+03 -0.75895044063E+02  0.23549708664E+03  0.92458551371E+02 0.  0.
        -11    1    3    3    0    0  0.22521304423E+02  0.69708013556E+01 -0.11981399667E+02  0.26445324018E+02  0.00000000000E+00 0.  1.
         12    1    3    3    0    0 -0.47868378647E+02  0.13130179194E+03 -0.33611913499E+02  0.14374040131E+03  0.00000000000E+00 0. -1.
        -13    1    4    4    0    0 -0.29581635238E+02 -0.60550799431E+02 -0.30149489273E+02  0.73827258912E+02  0.00000000000E+00 0.  1.
         13    1    4    4    0    0  0.70417156763E+02 -0.13815173342E+03 -0.45745554790E+02  0.16166982773E+03  0.00000000000E+00 0. -1.
          1    1    1    2  501    0 -0.15488447301E+02  0.60429939557E+02 -0.84091157617E+02  0.10470430929E+03  0.00000000000E+00 0. -1.
<scales pt_clust_5="13000.00000" pt_clust_6="13000.00000" pt_clust_7="13000.00000" pt_clust_8="13000.00000" pt_clust_9="62.38328"></scales>
<clustering>
<clus scale="   62.383">  1  9  2 -1</clus>
<clus scale="   84.396">  5  6 -1 -1</clus>
<clus scale="   92.459">  7  8 -1 -1</clus>
<clus scale="  187.891">  2  5  1 -1</clus>
<clus scale="   62.383">  1  5  2 -1</clus>
</clustering>
</event>
<event>
 9    2  0.4653788E-005  0.1839753E+03  0.7546771E-02  0.1198560E+00
          2   -1    0    0  502    0 -0.00000000000E+00  0.00000000000E+00  0.34608691668E+03  0.34608691668E+03  0.00000000000E+00 0. -1.
         21   -1    0    0  501  502  0.00000000000E+00 -0.00000000000E+00 -0.33686232765E+03  0.33686232765E+03  0.00000000000E+00 0. -1.
         24    2    1    2    0    0  0.16454776675E+02 -0.11959602054E+02  0.23297082785E+03  0.24790775409E+03  0.82274273934E+02 0.  0.
         23    2    1    2    0    0  0.23334288594E+02 -0.14648077658E+03 -0.23023023145E+02  0.17624362973E+03  0.92361520631E+02 0.  0.
        -13    1    3    3    0    0  0.40323738316E+02  0.14483315703E+02  0.17234482127E+03  0.17759084359E+03  0.00000000000E+00 0.  1.
         14    1    3    3    0    0 -0.23868961641E+02 -0.26442917757E+02  0.60626006579E+02  0.70316910505E+02  0.00000000000E+00 0. -1.
        -11    1    4    4    0    0 -0.27355072738E+02 -0.99258568575E+02 -0.28264838762E+02  0.10676827502E+03  0.00000000000E+00 0.  1.
         11    1    4    4    0    0  0.50689361332E+02 -0.47222208002E+02  0.52418156167E+01  0.69475354708E+02  0.00000000000E+00 0. -1.
          1    1    1    2  501    0 -0.39789065268E+02  0.15844037863E+03 -0.20072321568E+03  0.25879786052E+03  0.00000000000E+00 0. -1.
<scales pt_clust_5="13000.00000" pt_clust_6="13000.00000" pt_clust_7="13000.00000" pt_clust_8="13000.00000" pt_clust_9="159.11085"></scales>
<clustering>
<clus scale="   82.274">  5  6 -1 -1</clus>
<clus scale="   84.752">  1  5  2 -1</clus>
<clus scale="   92.362">  7  8 -1 -1</clus>
<clus scale="  159.111">  2  9  1 -1</clus>
<clus scale="  159.111">  2  5  1 -1</clus>
</clustering>
</event>
<event>
 9    2  0.4937882E-005  0.1000446E+03  0.7546771E-02  0.1286723E+00
         -3   -1    0    0    0  501 -0.00000000000E+00  0.00000000000E+00  0.14862530634E+03  0.14862530634E+03  0.00000000000E+00 0.  1.
         21   -1    0    0  501  502  0.00000000000E+00 -0.00000000000E+00 -0.17279976595E+03  0.17279976595E+03  0.00000000000E+00 0.  1.
         23    2    1    2    0    0  0.71927028604E+01 -0.36811819586E+02  0.87584627801E+02  0.13337390226E+03  0.93331054532E+02 0.  0.
         24    2    1    2    0    0 -0.34926559301E+02  0.22426365982E+02 -0.22589739312E+02  0.93566881877E+02  0.80756786874E+02 0.  0.
        -13    1    4    4    0    0 -0.19484814913E+02 -0.16380914190E+02  0.21144936635E+02  0.33092305861E+02  0.00000000000E+00 0.  1.
         14    1    4    4    0    0 -0.15441744388E+02  0.38807280172E+02 -0.43734675947E+02  0.60474576016E+02  0.00000000000E+00 0. -1.
        -13    1    3    3    0    0  0.28027739976E+02 -0.46246036100E+02  0.95015074723E+02  0.10932572656E+03  0.00000000000E+00 0.  1.
         13    1    3    3    0    0 -0.20835037115E+02  0.94342165146E+01 -0.74304469221E+01  0.24048175696E+02  0.00000000000E+00 0. -1.
         -4    1    1    2    0  502  0.27733856441E+02  0.14385453604E+02 -0.89169348102E+02  0.94484288162E+02  0.00000000000E+00 0.  1.
<scales pt_clust_5="13000.00000" pt_clust_6="13000.00000" pt_clust_7="13000.00000" pt_clust_8="13000.00000" pt_clust_9="31.24273"></scales>
<clustering>
<clus scale="   31.243">  2  9  1 -1</clus>
<clus scale="   80.757">  5  6 -1 -1</clus>
<clus scale="   88.430">  2  5  1 -1</clus>
<clus scale="   93.331">  7  8 -1 -1</clus>
<clus scale="   31.243">  2  5  1 -1</clus>
</clustering>
</event>
<event>
 9    2  0.4653788E-005  0.1193473E+03  0.7546771E-02  0.1250313E+00
         21   -1    0    0  501  502  0.00000000000E+00  0.00000000000E+00  0.17769332413E+03  0.17769332413E+03  0.00000000000E+00 0.  1.
          2   -1    0    0  502    0 -0.00000000000E+00 -0.00000000000E+00 -0.22672016309E+03  0.22672016309E+03  0.00000000000E+00 0. -1.
         23    2    1    2    0    0  0.70788674968E+02  0.39927932683E+01 -0.18408684035E+03  0.22029167686E+03  0.98048351344E+02 0.  0.
         24    2    1    2    0    0 -0.45521727015E+02 -0.15234583276E+02  0.12089719319E+03  0.15305121916E+03  0.80648770640E+02 0.  0.
        -11    1    4    4    0    0 -0.49498912634E+02 -0.31595407543E+02  0.12278838513E+03  0.13610804404E+03  0.00000000000E+00 0.  1.
         12    1    4    4    0    0  0.39771856192E+01  0.16360824267E+02 -0.18911919353E+01  0.16943175118E+02  0.00000000000E+00 0. -1.
        -13    1    3    3    0    0 -0.12599550434E+02  0.28488372735E+02 -0.29251761697E+02  0.42731740131E+02  0.00000000000E+00 0.  1.
         13    1    3    3    0    0  0.83388225402E+02 -0.24495579467E+02 -0.15483507865E+03  0.17755993673E+03  0.00000000000E+00 0. -1.
          1    1    1    2  501    0 -0.25266947953E+02  0.11241790008E+02  0.14162808199E+02  0.31070591200E+02  0.00000000000E+00 0. -1.
<scales pt_clust_5="13000.00000" pt_clust_6="13000.00000" pt_clust_7="13000.00000" pt_clust_8="13000.00000" pt_clust_9="27.65495"></scales>
<clustering>
<clus scale="   27.655">  1  9  2 -1</clus>
<clus scale="   80.649">  5  6 -1 -1</clus>
<clus scale="   98.048">  7  8 -1 -1</clus>
<clus scale="  105.520">  1  5  2 -1</clus>
<clus scale="   27.655">  1  5  2 -1</clus>
</clustering>
</event>
<event>
 9    2  0.4653788E-005  0.1359032E+03  0.7546771E-02  0.1222005E+00
         21   -1    0    0  501  502  0.00000000000E+00  0.00000000000E+00  0.19740149902E+03  0.19740149902E+03  0.00000000000E+00 0.  1.
         -1   -1    0    0    0  501 -0.00000000000E+00 -0.00000000000E+00 -0.30809307356E+03  0.30809307356E+03  0.00000000000E+00 0.  1.
         24    2    1    2    0    0 -0.62577364515E+02  0.67099157669E+02 -0.19751193993E+03  0.23195277427E+03  0.79830442619E+02 0.  0.
         23    2    1    2    0    0  0.13282614344E+03 -0.69905451747E+02  0.21769473268E+02  0.17775878941E+03  0.92707716409E+02 0.  0.
        -13    1    3    3    0    0 -0.61490455231E+02  0.25894951364E+02 -0.16938505952E+03  0.18205197878E+03  0.00000000000E+00 0.  1.
         14    1    3    3    0    0 -0.10869092842E+01  0.41204206304E+02 -0.28126880413E+02  0.49900795492E+02  0.00000000000E+00 0. -1.
        -13    1    4    4    0    0  0.55337411076E+02 -0.22894595390E+02 -0.36383725616E+02  0.70072584171E+02  0.00000000000E+00 0.  1.
         13    1    4    4    0    0  0.77488732364E+02 -0.47010856357E+02  0.58153198885E+02  0.10768620524E+03  0.00000000000E+00 0. -1.
         -2    1    1    2    0  502 -0.70248778925E+02  0.28062940784E+01  0.65050892120E+02  0.95783008893E+02  0.00000000000E+00 0.  1.
<scales pt_clust_5="13000.00000" pt_clust_6="13000.00000" pt_clust_7="13000.00000" pt_clust_8="13000.00000" pt_clust_9="70.30481"></scales>
<clustering>
<clus scale="   70.305">  1  9  2 -1</clus>
<clus scale="   79.830">  5  6 -1 -1</clus>
<clus scale="   92.708">  7  8 -1 -1</clus>
<clus scale="  127.467">  2  5  1 -1</clus>
<clus scale="   70.305">  1  5  2 -1</clus>
</clustering>
</event>
<event>
 9    2  0.4653788E-005  0.9701903E+02  0.7546771E-02  0.1292037E+00
         -3   -1    0    0    0  501 -0.00000000000E+00  0.00000000000E+00  0.71682291079E+02  0.71682291079E+02  0.00000000000E+00 0.  1.
         21   -1    0    0  501  502  0.00000000000E+00 -0.00000000000E+00 -0.31139341251E+03  0.31139341251E+03  0.00000000000E+00 0. -1.
         23    2    1    2    0    0 -0.39179009504E+02  0.68278114655E+01  0.19562518415E+02  0.10089248275E+03  0.90636566321E+02 0.  0.
         24    2    1    2    0    0  0.12317961761E+02 -0.30668297842E+00 -0.16713732892E+03  0.18598997370E+03  0.80657035422E+02 0.  0.
        -11    1    4    4    0    0 -0.16765988726E+02  0.24807960982E+02 -0.25807432900E+02  0.39529190467E+02  0.00000000000E+00 0.  1.
         12    1    4    4    0    0  0.29083950487E+02 -0.25114643961E+02 -0.14132989602E+03  0.14646078324E+03  0.00000000000E+00 0. -1.
        -13    1    3    3    0    0 -0.17984129092E+02 -0.41703110218E+02  0.14592945450E+02  0.47702540372E+02  0.00000000000E+00 0.  1.
         13    1    3    3    0    0 -0.21194880412E+02  0.48530921683E+02  0.49695729652E+01  0.53189942382E+02  0.00000000000E+00 0. -1.
         -4    1    1    2    0  502  0.26861047743E+02 -0.65211284871E+01 -0.92136310921E+02  0.96193247127E+02  0.00000000000E+00 0.  1.
<scales pt_clust_5="13000.00000" pt_clust_6="13000.00000" pt_clust_7="13000.00000" pt_clust_8="13000.00000" pt_clust_9="27.64129"></scales>
<clustering>
<clus scale="   27.641">  2  9  1 -1</clus>
<clus scale="   80.657">  5  6 -1 -1</clus>
<clus scale="   87.768">  2  5  1 -1</clus>
<clus scale="   90.637">  7  8 -1 -1</clus>
<clus scale="   27.641">  2  5  1 -1</clus>
</clustering>
</event>
<event>
 9    2  0.4653788E-005  0.1377566E+03  0.7546771E-02  0.1218465E+00
          2   -1    0    0  502    0 -0.00000000000E+00  0.00000000000E+00  0.30597665506E+03  0.30597665506E+03  0.00000000000E+00 0. -1.
         21   -1    0    0  501  502  0.00000000000E+00 -0.00000000000E+00 -0.13373166554E+03  0.13373166554E+03  0.00000000000E+00 0. -1.
         23    2    1    2    0    0  0.52921086978E+02  0.70330862022E+02  0.99969958311E+02  0.16107193892E+03  0.90570996154E+02 0.  0.
         24    2    1    2    0    0 -0.13663264561E+00 -0.14597804664E+03  0.81570666111E+02  0.18592659801E+03  0.81273104455E+02 0.  0.
        -11    1    4    4    0    0 -0.12187290405E+02 -0.20324690508E+02  0.50717041047E+02  0.55980722970E+02  0.00000000000E+00 0.  1.
         12    1    4    4    0    0  0.12050657759E+02 -0.12565335613E+03  0.30853625064E+02  0.12994587504E+03  0.00000000000E+00 0. -1.
        -11    1    3    3    0    0 -0.21051592809E+02 -0.76029283813E+00  0.58959855527E+01  0.21874877157E+02  0.00000000000E+00 0.  1.
         11    1    3    3    0    0  0.73972679786E+02  0.71091154860E+02  0.94073972758E+02  0.13919706177E+03  0.00000000000E+00 0. -1.
          1    1    1    2  501    0 -0.52784454332E+02  0.75647184621E+02 -0.92956349031E+01  0.92709783671E+02  0.00000000000E+00 0. -1.
<scales pt_clust_5="13000.00000" pt_clust_6="13000.00000" pt_clust_7="13000.00000" pt_clust_8="13000.00000" pt_clust_9="92.24259"></scales>
<clustering>
<clus scale="   81.273">  5  6 -1 -1</clus>
<clus scale="   90.571">  7  8 -1 -1</clus>
<clus scale="   92.243">  2  9  1 -1</clus>
<clus scale="  131.830">  2  5  1 -1</clus>
<clus scale="   92.243">  2  5  1 -1</clus>
</clustering>
</event>
<event>
 9    2  0.4653788E-005  0.1209233E+03  0.7546771E-02  0.1246073E+00
         21   -1    0    0  501  502  0.00000000000E+00  0.00000000000E+00  0.55331038759E+02  0.55331038759E+02  0.00000000000E+00 0.  1.
          2   -1    0    0  502    0 -0.00000000000E+00 -0.00000000000E+00 -0.54600935635E+03  0.54600935635E+03  0.00000000000E+00 0. -1.
         23    2    1    2    0    0 -0.67892213913E+02 -0.70799971176E+02 -0.23386354520E+03  0.26940787286E+03  0.90920050364E+02 0.  0.
         24    2    1    2    0    0  0.20372705046E+02  0.41307542387E+02 -0.23880050585E+02  0.92377744165E+02  0.76433177561E+02 0.  0.
        -13    1    4    4    0    0 -0.22758899633E+02  0.40067578499E+02 -0.11703320363E+02  0.47543096942E+02  0.00000000000E+00 0.  1.
         14    1    4    4    0    0  0.43131604680E+02  0.12399638877E+01 -0.12176730222E+02  0.44834647223E+02  0.00000000000E+00 0. -1.
        -13    1    3    3    0    0 -0.58340168895E+02  0.93991170005E+00 -0.13328621133E+03  0.14549801673E+03  0.00000000000E+00 0. -1.
         13    1    3    3    0    0 -0.95520450183E+01 -0.71739882876E+02 -0.10057733387E+03  0.12390985613E+03  0.00000000000E+00 0.  1.
          1    1    1    2  501    0  0.47519508867E+02  0.29492428789E+02 -0.23293472181E+03  0.23955477808E+03  0.00000000000E+00 0. -1.
<scales pt_clust_5="13000.00000" pt_clust_6="13000.00000" pt_clust_7="13000.00000" pt_clust_8="13000.00000" pt_clust_9="55.92772"></scales>
<clustering>
<clus scale="   55.928">  1  9  2 -1</clus>
<clus scale="   76.433">  5  6 -1 -1</clus>
<clus scale="   90.920">  7  8 -1 -1</clus>
<clus scale="  110.445">  1  5  2 -1</clus>
<clus scale="   55.928">  1  5  2 -1</clus>
</clustering>
</event>
<event>
 9    2  0.4653788E-005  0.2113481E+03  0.7546771E-02  0.1140503E+00
         21   -1    0    0  501  502  0.00000000000E+00  0.00000000000E+00  0.11159345240E+03  0.11159345240E+03  0.00000000000E+00 0.  1.
         -1   -1    0    0    0  501 -0.00000000000E+00 -0.00000000000E+00 -0.22257680942E+03  0.22257680942E+03  0.00000000000E+00 0.  1.
         24    2    1    2    0    0  0.55108111849E+02 -0.43151846879E+02 -0.60423939131E+02  0.12384473783E+03  0.82386168670E+02 0.  0.
         23    2    1    2    0    0  0.31296267448E+02 -0.14434536986E+02 -0.12307288238E+02  0.99667791353E+02  0.92705917153E+02 0.  0.
        -13    1    3    3    0    0  0.28995246130E+02 -0.37959854676E+02  0.97836138931E+01  0.48758527110E+02  0.00000000000E+00 0.  1.
         14    1    3    3    0    0  0.26112865719E+02 -0.51919922032E+01 -0.70207553024E+02  0.75086210723E+02  0.00000000000E+00 0. -1.
        -11    1    4    4    0    0  0.23932248678E+02  0.37794415600E+02  0.27388056917E+01  0.44818204270E+02  0.00000000000E+00 0.  1.
         11    1    4    4    0    0  0.73640187699E+01 -0.52228952586E+02 -0.15046093930E+02  0.54849587084E+02  0.00000000000E+00 0. -1.
         -2    1    1    2    0  502 -0.86404379297E+02  0.57586383865E+02 -0.38252129660E+02  0.11065773263E+03  0.00000000000E+00 0.  1.
<scales pt_clust_5="13000.00000" pt_clust_6="13000.00000" pt_clust_7="13000.00000" pt_clust_8="13000.00000" pt_clust_9="103.83602"></scales>
<clustering>
<clus scale="   82.386">  5  6 -1 -1</clus>
<clus scale="   92.706">  7  8 -1 -1</clus>
<clus scale="   98.309">  5  7 -1 -1</clus>
<clus scale="  103.836">  1  9  2 -1</clus>
<clus scale="  103.836">  1  5  2 -1</clus>
</clustering>
</event>
<event>
 9    2  0.4653788E-005  0.1366401E+03  0.7546771E-02  0.1222587E+00
         21   -1    0    0  501  502  0.00000000000E+00  0.00000000000E+00  0.23731062426E+03  0.23731062426E+03  0.00000000000E+00 0. -1.
         -1   -1    0    0    0  501 -0.00000000000E+00 -0.00000000000E+00 -0.14728596050E+03  0.14728596050E+03  0.00000000000E+00 0.  1.
         23    2    1    2    0    0  0.12953836335E+03 -0.58481073671E+01  0.22041006350E+02  0.14272418612E+03  0.55407575315E+02 0.  0.
         24    2    1    2    0    0 -0.75455497831E+02  0.36708215452E+02  0.11544431880E+03  0.16357925084E+03  0.79935945156E+02 0.  0.
        -13    1    4    4    0    0 -0.51840012813E+02  0.20441770063E+02  0.13032388710E+02  0.57228454874E+02  0.00000000000E+00 0.  1.
         14    1    4    4    0    0 -0.23615485018E+02  0.16266445389E+02  0.10241193009E+03  0.10635079597E+03  0.00000000000E+00 0. -1.
        -11    1    3    3    0    0  0.97613380112E+02 -0.30600045478E+00 -0.87755457795E+01  0.98007529389E+02  0.00000000000E+00 0.  1.
         11    1    3    3    0    0  0.31924983243E+02 -0.55421069123E+01  0.30816552129E+02  0.44716656731E+02  0.00000000000E+00 0. -1.
         -2    1    1    2    0  502 -0.54082865523E+02 -0.30860108085E+02 -0.47460661387E+02  0.78293147807E+02  0.00000000000E+00 0.  1.
<scales pt_clust_5="13000.00000" pt_clust_6="13000.00000" pt_clust_7="13000.00000" pt_clust_8="13000.00000" pt_clust_9="62.26802"></scales>
<clustering>
<clus scale="   55.408">  7  8 -1 -1</clus>
<clus scale="   62.268">  1  9  2 -1</clus>
<clus scale="   79.936">  5  6 -1 -1</clus>
<clus scale="  123.898">  2  7  1 -1</clus>
<clus scale="   62.268">  1  5  2 -1</clus>
</clustering>
</event>
<event>
 9    2  0.4653788E-005  0.9310807E+02  0.7546771E-02  0.1301949E+00
         21   -1    0    0  501  502  0.00000000000E+00  0.00000000000E+00  0.70661315196E+02  0.70661315196E+02  0.00000000000E+00 0. -1.
          2   -1    0    0  502    0 -0.00000000000E+00 -0.00000000000E+00 -0.44967512431E+03  0.44967512431E+03  0.00000000000E+00 0. -1.
         24    2    1    2    0    0  0.15133656525E+02 -0.11045968738E+02 -0.32917256719E+03  0.33958936041E+03  0.81334578928E+02 0.  0.
         23    2    1    2    0    0  0.16733340301E+02  0.14815240079E+02 -0.89147722040E+02  0.13000545640E+03  0.91948933294E+02 0.  0.
        -11    1    3    3    0    0 -0.24561321594E+02 -0.25946368797E+02 -0.92717974331E+02  0.99363450707E+02  0.00000000000E+00 0.  1.
         12    1    3    3    0    0  0.39694978119E+02  0.14900400059E+02 -0.23645459286E+03  0.24022590971E+03  0.00000000000E+00 0. -1.
        -11    1    4    4    0    0 -0.39289182481E+01  0.50838296416E+02 -0.62507394935E+02  0.80666865581E+02  0.00000000000E+00 0.  1.
         11    1    4    4    0    0  0.20662258549E+02 -0.36023056337E+02 -0.26640327105E+02  0.49338590824E+02  0.00000000000E+00 0. -1.
          1    1    1    2  501    0 -0.31866996826E+02 -0.37692713403E+01  0.39306480121E+02  0.50741622684E+02  0.00000000000E+00 0. -1.
<scales pt_clust_5="13000.00000" pt_clust_6="13000.00000" pt_clust_7="13000.00000" pt_clust_8="13000.00000" pt_clust_9="32.08914"></scales>
<clustering>
<clus scale="   32.089">  1  9  2 -1</clus>
<clus scale="   81.335">  5  6 -1 -1</clus>
<clus scale="   82.643">  2  5  1 -1</clus>
<clus scale="   91.949">  7  8 -1 -1</clus>
<clus scale="   32.089">  1  5  2 -1</clus>
</clustering>
</event>
<event>
 9    2  0.4653788E-005  0.1341899E+03  0.7546771E-02  0.1223853E+00
         -3   -1    0    0    0  501 -0.00000000000E+00  0.00000000000E+00  0.69694499935E+02  0.69694499935E+02  0.00000000000E+00 0.  1.
         21   -1    0    0  501  502  0.00000000000E+00 -0.00000000000E+00 -0.34482849911E+03  0.34482849911E+03  0.00000000000E+00 0.  1.
         23    2    1    2    0    0 -0.50387876727E+02 -0.86042942720E+02 -0.71140510770E+02  0.15322362272E+03  0.92055310411E+02 0.  0.
         24    2    1    2    0    0  0.69050258771E+02  0.66738626507E+02 -0.19633025797E+03  0.23337687234E+03  0.81836494572E+02 0.  0.
        -11    1    4    4    0    0  0.81519055570E+02  0.46993070578E+02 -0.18470318123E+03  0.20728958068E+03  0.00000000000E+00 0.  1.
         12    1    4    4    0    0 -0.12468796799E+02  0.19745555929E+02 -0.11627076748E+02  0.26087291662E+02  0.00000000000E+00 0. -1.
        -13    1    3    3    0    0 -0.64084779531E+02 -0.18410014808E+02 -0.33496631765E+02  0.74617772363E+02  0.00000000000E+00 0.  1.
         13    1    3    3    0    0  0.13696902804E+02 -0.67632927912E+02 -0.37643879005E+02  0.78605850361E+02  0.00000000000E+00 0. -1.
         -4    1    1    2    0  502 -0.18662382044E+02  0.19304316213E+02 -0.76632304342E+01  0.27922503983E+02  0.00000000000E+00 0.  1.
<scales pt_clust_5="13000.00000" pt_clust_6="13000.00000" pt_clust_7="13000.00000" pt_clust_8="13000.00000" pt_clust_9="26.85036"></scales>
<clustering>
<clus scale="   26.850">  2  9  1 -1</clus>
<clus scale="   81.836">  5  6 -1 -1</clus>
<clus scale="   92.055">  7  8 -1 -1</clus>
<clus scale="  127.397">  2  5  1 -1</clus>
<clus scale="   26.850">  2  5  1 -1</clus>
</clustering>
</event>
<event>
 9    2  0.4653788E-005  0.1349929E+03  0.7546771E-02  0.1237030E+00
          2   -1    0    0  502    0 -0.00000000000E+00  0.00000000000E+00  0.26956226517E+03  0.26956226517E+03  0.00000000000E+00 0. -1.
         21   -1    0    0  501  502  0.00000000000E+00 -0.00000000000E+00 -0.26144294528E+03  0.26144294528E+03  0.00000000000E+00 0. -1.
         23    2    1    2    0    0  0.11830589633E+01 -0.27150271645E+02  0.12846015028E+03  0.15997786980E+03  0.91391311056E+02 0.  0.
         24    2    1    2    0    0 -0.17210566114E+02  0.13064950506E+03  0.57086535658E+02  0.16499471575E+03  0.81233533190E+02 0.  0.
        -11    1    4    4    0    0  0.92080017301E+01  0.40314458045E+02 -0.17501942329E+02  0.44903906385E+02  0.00000000000E+00 0.  1.
         12    1    4    4    0    0 -0.26418567844E+02  0.90335047016E+02  0.74588477987E+02  0.12009080937E+03  0.00000000000E+00 0. -1.
        -11    1    3    3    0    0 -0.29245085069E+02  0.21658344553E+02  0.36718291843E+02  0.51697116412E+02  0.00000000000E+00 0.  1.
         11    1    3    3    0    0  0.30428144033E+02 -0.48808616198E+02  0.91741858436E+02  0.10828075339E+03  0.00000000000E+00 0. -1.
          1    1    1    2  501    0  0.16027507150E+02 -0.10349923342E+03 -0.17742736605E+03  0.20603262491E+03  0.00000000000E+00 0. -1.
<scales pt_clust_5="13000.00000" pt_clust_6="13000.00000" pt_clust_7="13000.00000" pt_clust_8="13000.00000" pt_clust_9="107.81562"></scales>
<clustering>
<clus scale="   81.234">  5  6 -1 -1</clus>
<clus scale="   91.391">  7  8 -1 -1</clus>
<clus scale="   95.346">  1  7  2 -1</clus>
<clus scale="  107.816">  2  9  1 -1</clus>
<clus scale="  107.816">  2  5  1 -1</clus>
</clustering>
</event>
<event>
 9    2  0.4653788E-005  0.9458112E+02  0.7546771E-02  0.1299014E+00
         21   -1    0    0  501  502  0.00000000000E+00  0.00000000000E+00  0.31515605553E+03  0.31515605553E+03  0.00000000000E+00 0.  1.
         -1   -1    0    0    0  501 -0.00000000000E+00 -0.00000000000E+00 -0.11043845091E+03  0.11043845091E+03  0.00000000000E+00 0.  1.
         23    2    1    2    0    0  0.10126350111E+02 -0.54710906794E+01 -0.32530718171E+02  0.98327525697E+02  0.92073768714E+02 0.  0.
         24    2    1    2    0    0 -0.12595156310E+02  0.36449293495E+02  0.11601636635E+01  0.89142301345E+02  0.80360531050E+02 0.  0.
        -11    1    4    4    0    0 -0.46554689251E+02  0.15055842968E+02 -0.11160060430E+01  0.48941423848E+02  0.00000000000E+00 0.  1.
         12    1    4    4    0    0  0.33959532941E+02  0.21393450527E+02  0.22761697066E+01  0.40200877497E+02  0.00000000000E+00 0. -1.
        -13    1    3    3    0    0 -0.20999001692E+02 -0.16108088373E+02 -0.53242220811E+02  0.59457233874E+02  0.00000000000E+00 0.  1.
         13    1    3    3    0    0  0.31125351803E+02  0.10636997693E+02  0.20711502640E+02  0.38870291823E+02  0.00000000000E+00 0. -1.
         -2    1    1    2    0  502  0.24688061997E+01 -0.30978202816E+02  0.23608815913E+03  0.23812467939E+03  0.00000000000E+00 0.  1.
<scales pt_clust_5="13000.00000" pt_clust_6="13000.00000" pt_clust_7="13000.00000" pt_clust_8="13000.00000" pt_clust_9="31.07642"></scales>
<clustering>
<clus scale="   31.076">  1  9  2 -1</clus>
<clus scale="   80.361">  5  6 -1 -1</clus>
<clus scale="   83.222">  1  5  2 -1</clus>
<clus scale="   92.074">  7  8 -1 -1</clus>
<clus scale="   31.076">  1  5  2 -1</clus>
</clustering>
</event>
<event>
 9    2  0.4653788E-005  0.1039222E+03  0.7546771E-02  0.1279637E+00
         -3   -1    0    0    0  501 -0.00000000000E+00  0.00000000000E+00  0.32194788115E+03  0.32194788115E+03  0.00000000000E+00 0.  1.
         21   -1    0    0  501  502  0.00000000000E+00 -0.00000000000E+00 -0.41820302310E+02  0.41820302310E+02  0.00000000000E+00 0. -1.
         24    2    1    2    0    0  0.42369768839E+02 -0.36282765104E+02  0.16699123523E+03  0.19251816100E+03  0.77881533849E+02 0.  0.
         23    2    1    2    0    0 -0.21388681791E+02  0.21325498953E+02  0.10608076432E+03  0.14453472678E+03  0.93407205676E+02 0.  0.
        -11    1    3    3    0    0  0.61909025570E+02 -0.34692235458E+02  0.15229277708E+03  0.16801597722E+03  0.00000000000E+00 0.  1.
         12    1    3    3    0    0 -0.19539256731E+02 -0.15905296457E+01  0.14698458148E+02  0.24502183782E+02  0.00000000000E+00 0. -1.
        -13    1    4    4    0    0  0.26585168977E+02  0.33392524961E+02  0.74452850074E+02  0.85819920863E+02  0.00000000000E+00 0.  1.
         13    1    4    4    0    0 -0.47973850768E+02 -0.12067026008E+02  0.31627914244E+02  0.58714805915E+02  0.00000000000E+00 0. -1.
         -4    1    1    2    0  502 -0.20981087049E+02  0.14957266151E+02  0.70555792922E+01  0.26715295686E+02  0.00000000000E+00 0.  1.
<scales pt_clust_5="13000.00000" pt_clust_6="13000.00000" pt_clust_7="13000.00000" pt_clust_8="13000.00000" pt_clust_9="25.76676"></scales>
<clustering>
<clus scale="   25.767">  2  9  1 -1</clus>
<clus scale="   77.882">  5  6 -1 -1</clus>
<clus scale="   90.224">  1  5  2 -1</clus>
<clus scale="   93.407">  7  8 -1 -1</clus>
<clus scale="   25.767">  2  5  1 -1</clus>
</clustering>
</event>
<event>
 9    2  0.4653788E-005  0.2102006E+03  0.7546771E-02  0.1162366E+00
         21   -1    0    0  501  502  0.00000000000E+00  0.00000000000E+00  0.91600482693E+03  0.91600482693E+03  0.00000000000E+00 0.  1.
          2   -1    0    0  502    0 -0.00000000000E+00 -0.00000000000E+00 -0.22501294567E+03  0.22501294567E+03  0.00000000000E+00 0. -1.
         23    2    1    2    0    0  0.91511832046E+02  0.12260595464E+02  0.64091617085E+03  0.65359922060E+03  0.88846302741E+02 0.  0.
         24    2    1    2    0    0  0.38779582327E+02  0.15104829562E+03 -0.12478138033E+03  0.21498388323E+03  0.79550195199E+02 0.  0.
        -11    1    4    4    0    0  0.19914153118E+02  0.26617835586E+01  0.15239931101E+00  0.20091834452E+02  0.00000000000E+00 0.  1.
         12    1    4    4    0    0  0.18865429209E+02  0.14838651207E+03 -0.12493377964E+03  0.19489204878E+03  0.00000000000E+00 0. -1.
        -13    1    3    3    0    0  0.47490532232E+02  0.49549148527E+02  0.29290122158E+03  0.30083482905E+03  0.00000000000E+00 0.  1.
         13    1    3    3    0    0  0.44021299814E+02 -0.37288553063E+02  0.34801494927E+03  0.35276439155E+03  0.00000000000E+00 0. -1.
          1    1    1    2  501    0 -0.13029141437E+03 -0.16330889109E+03  0.17485709073E+03  0.27243466877E+03  0.00000000000E+00 0. -1.
<scales pt_clust_5="13000.00000" pt_clust_6="13000.00000" pt_clust_7="13000.00000" pt_clust_8="13000.00000" pt_clust_9="194.56633"></scales>
<clustering>
<clus scale="   79.550">  5  6 -1 -1</clus>
<clus scale="   88.846">  7  8 -1 -1</clus>
<clus scale="  128.134">  2  7  1 -1</clus>
<clus scale="  194.566">  1  9  2 -1</clus>
<clus scale="  194.566">  1  5  2 -1</clus>
</clustering>
</event>
<event>
 9    2  0.4653788E-005  0.1383820E+03  0.7546771E-02  0.1219078E+00
         -3   -1    0    0    0  501 -0.00000000000E+00  0.00000000000E+00  0.12482210129E+03  0.12482210129E+03  0.00000000000E+00 0.  1.
         21   -1    0    0  501  502  0.00000000000E+00 -0.00000000000E+00 -0.23505179476E+03  0.23505179476E+03  0.00000000000E+00 0. -1.
         23    2    1    2    0    0  0.80269316031E+02 -0.74800621905E+02 -0.18167948247E+02  0.14687046682E+03  0.95929992941E+02 0.  0.
         24    2    1    2    0    0 -0.19706142924E+02  0.95468840348E+02 -0.73256092294E+02  0.14630466034E+03  0.80845327832E+02 0.  0.
        -11    1    4    4    0    0 -0.18907009882E+02  0.36315943170E+02  0.11881035057E+02  0.42631933395E+02  0.00000000000E+00 0.  1.
         12    1    4    4    0    0 -0.79913304162E+00  0.59152897178E+02 -0.85137127351E+02  0.10367272694E+03  0.00000000000E+00 0. -1.
        -13    1    3    3    0    0  0.22132285139E+02 -0.78455266371E+00 -0.44010625034E+02  0.49268536453E+02  0.00000000000E+00 0. -1.
         13    1    3    3    0    0  0.58137030892E+02 -0.74016069241E+02  0.25842676787E+02  0.97601930362E+02  0.00000000000E+00 0.  1.
         -4    1    1    2    0  502 -0.60563173107E+02 -0.20668218443E+02 -0.18805652934E+02  0.66698768899E+02  0.00000000000E+00 0.  1.
<scales pt_clust_5="13000.00000" pt_clust_6="13000.00000" pt_clust_7="13000.00000" pt_clust_8="13000.00000" pt_clust_9="63.99279"></scales>
<clustering>
<clus scale="   63.993">  2  9  1 -1</clus>
<clus scale="   80.845">  5  6 -1 -1</clus>
<clus scale="   95.930">  7  8 -1 -1</clus>
<clus scale="  128.386">  2  5  1 -1</clus>
<clus scale="   63.993">  2  5  1 -1</clus>
</clustering>
</event>
<event>
 9    2  0.4653788E-005  0.1496244E+03  0.7546771E-02  0.1209422E+00
         21   -1    0    0  501  502  0.00000000000E+00  0.00000000000E+00  0.35546126430E+03  0.35546126430E+03  0.00000000000E+00 0. -1.
         -3   -1    0    0    0  501 -0.00000000000E+00 -0.00000000000E+00 -0.93608399632E+02  0.93608399632E+02  0.00000000000E+00 0.  1.
         23    2    1    2    0    0  0.46670309018E+02  0.77773486332E+02  0.32510813672E+02  0.15073740107E+03  0.11592229361E+03 0.  0.
         24    2    1    2    0    0 -0.11775922933E+02 -0.10599261249E+03  0.11901819265E+03  0.17923024365E+03  0.81148282745E+02 0.  0.
        -13    1    4    4    0    0 -0.25601500811E+02 -0.12390067493E+02  0.16740306966E+01  0.28491279280E+02  0.00000000000E+00 0.  1.
         14    1    4    4    0    0  0.13825577878E+02 -0.93602544997E+02  0.11734416195E+03  0.15073896437E+03  0.00000000000E+00 0. -1.
        -13    1    3    3    0    0  0.11549761507E+02  0.66727161708E+02  0.70555214196E+02  0.97795446472E+02  0.00000000000E+00 0. -1.
         13    1    3    3    0    0  0.35120547511E+02  0.11046324624E+02 -0.38044400524E+02  0.52941954596E+02  0.00000000000E+00 0.  1.
         -4    1    1    2    0  502 -0.34894386086E+02  0.28219126158E+02  0.11032385835E+03  0.11910201922E+03  0.00000000000E+00 0.  1.
<scales pt_clust_5="13000.00000" pt_clust_6="13000.00000" pt_clust_7="13000.00000" pt_clust_8="13000.00000" pt_clust_9="44.87691"></scales>
<clustering>
<clus scale="   44.877">  1  9  2 -1</clus>
<clus scale="   81.148">  5  6 -1 -1</clus>
<clus scale="  115.922">  7  8 -1 -1</clus>
<clus scale="  124.638">  1  5  2 -1</clus>
<clus scale="   44.877">  1  5  2 -1</clus>
</clustering>
</event>
<event>
 9    2  0.4653788E-005  0.1001222E+03  0.7546771E-02  0.1286122E+00
         -3   -1    0    0    0  501 -0.00000000000E+00  0.00000000000E+00  0.24673349508E+03  0.24673349508E+03  0.00000000000E+00 0.  1.
         21   -1    0    0  501  502  0.00000000000E+00 -0.00000000000E+00 -0.12101258376E+03  0.12101258376E+03  0.00000000000E+00 0.  1.
         24    2    1    2    0    0 -0.19193716742E+02 -0.44091742313E+02  0.41730190886E+02  0.10281568221E+03  0.80729023119E+02 0.  0.
         23    2    1    2    0    0  0.31127769523E+01  0.84501838395E+01 -0.63291138315E+02  0.11254646300E+03  0.92627442789E+02 0.  0.
        -11    1    3    3    0    0 -0.29577817458E+02 -0.37543375407E+02  0.62505221772E+02  0.78684528793E+02  0.00000000000E+00 0.  1.
         12    1    3    3    0    0  0.10384100716E+02 -0.65483669054E+01 -0.20775030886E+02  0.24131153415E+02  0.00000000000E+00 0. -1.
        -13    1    4    4    0    0  0.46360364607E+01 -0.28159412093E+02  0.10298081916E+02  0.30339673938E+02  0.00000000000E+00 0. -1.
         13    1    4    4    0    0 -0.15232595084E+01  0.36609595933E+02 -0.73589220231E+02  0.82206789063E+02  0.00000000000E+00 0.  1.
         -4    1    1    2    0  502  0.16080939790E+02  0.35641558473E+02  0.14728185875E+03  0.15238393364E+03  0.00000000000E+00 0.  1.
<scales pt_clust_5="13000.00000" pt_clust_6="13000.00000" pt_clust_7="13000.00000" pt_clust_8="13000.00000" pt_clust_9="39.10139"></scales>
<clustering>
<clus scale="   39.101">  2  9  1 -1</clus>
<clus scale="   80.729">  5  6 -1 -1</clus>
<clus scale="   89.229">  1  5  2 -1</clus>
<clus scale="   92.627">  7  8 -1 -1</clus>
<clus scale="   39.101">  2  5  1 -1</clus>
</clustering>
</event>
<event>
 9    2  0.4653788E-005  0.1627694E+03  0.7546771E-02  0.1187505E+00
         21   -1    0    0  501  502  0.00000000000E+00  0.00000000000E+00  0.14605153034E+03  0.14605153034E+03  0.00000000000E+00 0. -1.
          2   -1    0    0  502    0 -0.00000000000E+00 -0.00000000000E+00 -0.36913125410E+03  0.36913125410E+03  0.00000000000E+00 0. -1.
         24    2    1    2    0    0 -0.94213604079E+02  0.14432961667E+03 -0.22763515235E+03  0.29642950305E+03  0.79658309362E+02 0.  0.
         23    2    1    2    0    0  0.43175880623E+02 -0.54648456411E+02  0.11679069341E+01  0.11551067864E+03  0.92145224599E+02 0.  0.
        -13    1    3    3    0    0 -0.86511096446E+02  0.68111224395E+02 -0.10704597041E+03  0.15356480221E+03  0.00000000000E+00 0.  1.
         14    1    3    3    0    0 -0.77025076334E+01  0.76218392279E+02 -0.12058918193E+03  0.14286470083E+03  0.00000000000E+00 0. -1.
        -13    1    4    4    0    0  0.41044613442E+02 -0.81843946089E+00 -0.32171363910E+02  0.52156752119E+02  0.00000000000E+00 0.  1.
         13    1    4    4    0    0  0.21312671813E+01 -0.53830016950E+02  0.33339270844E+02  0.63353926517E+02  0.00000000000E+00 0. -1.
          1    1    1    2  501    0  0.51037723456E+02 -0.89681160263E+02  0.33875216442E+01  0.10324260276E+03  0.00000000000E+00 0. -1.
<scales pt_clust_5="13000.00000" pt_clust_6="13000.00000" pt_clust_7="13000.00000" pt_clust_8="13000.00000" pt_clust_9="103.18701"></scales>
<clustering>
<clus scale="   79.658">  5  6 -1 -1</clus>
<clus scale="   92.145">  7  8 -1 -1</clus>
<clus scale="  103.187">  1  9  2 -1</clus>
<clus scale="  156.040">  2  5  1 -1</clus>
<clus scale="  103.187">  1  5  2 -1</clus>
</clustering>
</event>
<event>
 9    2  0.4653788E-005  0.2231144E+03  0.7546771E-02  0.1133817E+00
         -1   -1    0    0    0  501 -0.00000000000E+00  0.00000000000E+00  0.62359641190E+03  0.62359641190E+03  0.00000000000E+00 0.  1.
         21   -1    0    0  501  502  0.00000000000E+00 -0.00000000000E+00 -0.26384647435E+03  0.26384647435E+03  0.00000000000E+00 0.  1.
         24    2    1    2    0    0 -0.11299307893E+03 -0.15973790182E+03  0.38477326111E+03  0.43488417243E+03  0.52821849582E+02 0.  0.
         23    2    1    2    0    0  0.96512103214E+02  0.27097982557E+03 -0.10010265107E+03  0.31734298404E+03  0.89114403077E+02 0.  0.
        -13    1    3    3    0    0 -0.10909313870E+03 -0.11790487870E+03  0.30252986108E+03  0.34253056824E+03  0.00000000000E+00 0.  1.
         14    1    3    3    0    0 -0.38999402328E+01 -0.41833023119E+02  0.82243400034E+02  0.92353604187E+02  0.00000000000E+00 0. -1.
        -11    1    4    4    0    0  0.65299052726E+02  0.17702730358E+03 -0.10905916946E+03  0.21793699764E+03  0.00000000000E+00 0.  1.
         11    1    4    4    0    0  0.31213050489E+02  0.93952521995E+02  0.89565183918E+01  0.99405986397E+02  0.00000000000E+00 0. -1.
         -2    1    1    2    0  502  0.16480975718E+02 -0.11124192375E+03  0.75079327504E+02  0.13521572978E+03  0.00000000000E+00 0.  1.
<scales pt_clust_5="13000.00000" pt_clust_6="13000.00000" pt_clust_7="13000.00000" pt_clust_8="13000.00000" pt_clust_9="112.45622"></scales>
<clustering>
<clus scale="   52.822">  5  6 -1 -1</clus>
<clus scale="   89.114">  7  8 -1 -1</clus>
<clus scale="  112.456">  2  9  1 -1</clus>
<clus scale="  211.255">  1  5  2 -1</clus>
<clus scale="  112.456">  2  5  1 -1</clus>
</clustering>
</event>
<event>
 9    2  0.4653788E-005  0.1262171E+03  0.7546771E-02  0.1235010E+00
         21   -1    0    0  501  502  0.00000000000E+00  0.00000000000E+00  0.84800988641E+02  0.84800988641E+02  0.00000000000E+00 0. -1.
          2   -1    0    0  502    0 -0.00000000000E+00 -0.00000000000E+00 -0.12610194603E+04  0.12610194603E+04  0.00000000000E+00 0. -1.
         24    2    1    2    0    0 -0.33995679494E+02 -0.99328049325E+02 -0.85139511490E+03  0.86194301876E+03  0.83966411793E+02 0.  0.
         23    2    1    2    0    0  0.99326787271E+02 -0.11163537632E+01 -0.33759868034E+03  0.36337663915E+03  0.90568515460E+02 0.  0.
        -11    1    3    3    0    0 -0.47478748916E+02 -0.10255604647E+03 -0.62582537889E+03  0.63594762294E+03  0.00000000000E+00 0.  1.
         12    1    3    3    0    0  0.13483069422E+02  0.32279971477E+01 -0.22556973601E+03  0.22599539581E+03  0.00000000000E+00 0. -1.
        -11    1    4    4    0    0  0.72207743655E+02  0.39931600521E+02 -0.17460769954E+03  0.19312260278E+03  0.00000000000E+00 0.  1.
         11    1    4    4    0    0  0.27119043615E+02 -0.41047954284E+02 -0.16299098080E+03  0.17025403637E+03  0.00000000000E+00 0. -1.
          1    1    1    2  501    0 -0.65331107777E+02  0.10044440309E+03  0.12775323553E+02  0.12050079106E+03  0.00000000000E+00 0. -1.
<scales pt_clust_5="13000.00000" pt_clust_6="13000.00000" pt_clust_7="13000.00000" pt_clust_8="13000.00000" pt_clust_9="119.82167"></scales>
<clustering>
<clus scale="   83.966">  5  6 -1 -1</clus>
<clus scale="   90.569">  7  8 -1 -1</clus>
<clus scale="  119.822">  1  9  2 -1</clus>
<clus scale="  121.567">  2  5  1 -1</clus>
<clus scale="  119.822">  1  5  2 -1</clus>
</clustering>
</event>
<event>
 9    2  0.4653788E-005  0.1227918E+03  0.7546771E-02  0.1238845E+00
         21   -1    0    0  501  502  0.00000000000E+00  0.00000000000E+00  0.29237314797E+02  0.29237314797E+02  0.00000000000E+00 0. -1.
          2   -1    0    0  502    0 -0.00000000000E+00 -0.00000000000E+00 -0.10516158022E+04  0.10516158022E+04  0.00000000000E+00 0. -1.
         23    2    1    2    0    0  0.44558119399E+01  0.84750606259E+02 -0.62012093282E+03  0.63338234474E+03  0.97060310057E+02 0.  0.
         24    2    1    2    0    0 -0.59840547740E+01 -0.60714573875E+02 -0.40689701756E+03  0.42294342028E+03  0.97948381627E+02 0.  0.
        -13    1    4    4    0    0  0.68102001978E+01 -0.59124923960E+02 -0.10440761434E+03  0.12017938838E+03  0.00000000000E+00 0.  1.
         14    1    4    4    0    0 -0.12794254972E+02 -0.15896499144E+01 -0.30248940322E+03  0.30276403190E+03  0.00000000000E+00 0. -1.
        -13    1    3    3    0    0  0.44390021913E+02  0.13262515917E+02 -0.25707066015E+03  0.26121196887E+03  0.00000000000E+00 0.  1.
         13    1    3    3    0    0 -0.39934209973E+02  0.71488090342E+02 -0.36305027267E+03  0.37217037587E+03  0.00000000000E+00 0. -1.
          1    1    1    2  501    0  0.15282428341E+01 -0.24036032384E+02  0.46394629670E+01  0.24527351988E+02  0.00000000000E+00 0. -1.
<scales pt_clust_5="13000.00000" pt_clust_6="13000.00000" pt_clust_7="13000.00000" pt_clust_8="13000.00000" pt_clust_9="24.08457"></scales>
<clustering>
<clus scale="   24.085">  1  9  2 -1</clus>
<clus scale="   97.060">  7  8 -1 -1</clus>
<clus scale="   97.948">  5  6 -1 -1</clus>
<clus scale="  122.085">  2  7  1 -1</clus>
<clus scale="   24.085">  1  5  2 -1</clus>
</clustering>
</event>
<event>
 9    2  0.4653788E-005  0.1880059E+03  0.7546771E-02  0.1190688E+00
          2   -1    0    0  502    0 -0.00000000000E+00  0.00000000000E+00  0.97201973220E+03  0.97201973220E+03  0.00000000000E+00 0. -1.
         21   -1    0    0  501  502  0.00000000000E+00 -0.00000000000E+00 -0.76229748270E+02  0.76229748270E+02  0.00000000000E+00 0.  1.
         23    2    1    2    0    0  0.23298252689E+02  0.21138050091E+02  0.18896173694E+03  0.21121724251E+03  0.88975051358E+02 0.  0.
         24    2    1    2    0    0 -0.17295125662E+03  0.49253125615E+02  0.11662193697E+03  0.22409306677E+03  0.65414209792E+02 0.  0.
        -13    1    4    4    0    0 -0.94126736382E+02  0.25241736703E+02  0.10076527409E+03  0.14018069852E+03  0.00000000000E+00 0.  1.
         14    1    4    4    0    0 -0.78824520233E+02  0.24011388912E+02  0.15856662874E+02  0.83912368248E+02  0.00000000000E+00 0. -1.
        -13    1    3    3    0    0  0.54879403508E+02 -0.20550110009E+01  0.11808863065E+03  0.13023400742E+03  0.00000000000E+00 0.  1.
         13    1    3    3    0    0 -0.31581150819E+02  0.23193061092E+02  0.70873106293E+02  0.80983235089E+02  0.00000000000E+00 0. -1.
          1    1    1    2  501    0  0.14965300393E+03 -0.70391175706E+02  0.59020631001E+03  0.61293917119E+03  0.00000000000E+00 0. -1.
<scales pt_clust_5="13000.00000" pt_clust_6="13000.00000" pt_clust_7="13000.00000" pt_clust_8="13000.00000" pt_clust_9="176.25901"></scales>
<clustering>
<clus scale="   65.414">  5  6 -1 -1</clus>
<clus scale="   88.975">  7  8 -1 -1</clus>
<clus scale="   94.373">  1  7  2 -1</clus>
<clus scale="  176.259">  2  9  1 -1</clus>
<clus scale="  176.259">  2  5  1 -1</clus>
</clustering>
</event>
<event>
 9    2  0.4653788E-005  0.9417733E+02  0.7546771E-02  0.1296221E+00
         21   -1    0    0  501  502  0.00000000000E+00  0.00000000000E+00  0.70736954825E+02  0.70736954825E+02  0.00000000000E+00 0.  1.
         -3   -1    0    0    0  501 -0.00000000000E+00 -0.00000000000E+00 -0.28077908614E+03  0.28077908614E+03  0.00000000000E+00 0.  1.
         24    2    1    2    0    0  0.19272779394E+02 -0.33338591352E+02 -0.13841427659E+03  0.16722597887E+03  0.85575197026E+02 0.  0.
         23    2    1    2    0    0  0.39440764103E+02 -0.22211890757E+01 -0.29084980896E+02  0.10353317826E+03  0.91173874175E+02 0.  0.
        -13    1    3    3    0    0 -0.71748497619E+01 -0.51424557945E+02 -0.11881935473E+03  0.12966881926E+03  0.00000000000E+00 0.  1.
         14    1    3    3    0    0  0.26447629156E+02  0.18085966593E+02 -0.19594921864E+02  0.37557159616E+02  0.00000000000E+00 0. -1.
        -13    1    4    4    0    0  0.34785039121E+02 -0.42663371604E+02 -0.30242554558E+02  0.62807438488E+02  0.00000000000E+00 0.  1.
         13    1    4    4    0    0  0.46557249818E+01  0.40442182528E+02  0.11575736628E+01  0.40725739767E+02  0.00000000000E+00 0. -1.
         -4    1    1    2    0  502 -0.58713543496E+02  0.35559780428E+02 -0.42542873829E+02  0.80756883840E+02  0.00000000000E+00 0.  1.
<scales pt_clust_5="13000.00000" pt_clust_6="13000.00000" pt_clust_7="13000.00000" pt_clust_8="13000.00000" pt_clust_9="68.64239"></scales>
<clustering>
<clus scale="   68.642">  1  9  2 -1</clus>
<clus scale="   85.575">  5  6 -1 -1</clus>
<clus scale="   88.768">  2  5  1 -1</clus>
<clus scale="   91.174">  7  8 -1 -1</clus>
<clus scale="   68.642">  1  5  2 -1</clus>
</clustering>
</event>
<event>
 9    2  0.4653788E-005  0.2313096E+03  0.7546771E-02  0.1125721E+00
          2   -1    0    0  502    0 -0.00000000000E+00  0.00000000000E+00  0.51250776190E+03  0.51250776190E+03  0.00000000000E+00 0. -1.
         21   -1    0    0  501  502  0.00000000000E+00 -0.00000000000E+00 -0.71536882824E+02  0.71536882824E+02  0.00000000000E+00 0.  1.
         24    2    1    2    0    0 -0.19594810007E+02  0.93156847488E+02  0.16489822342E+03  0.20689227998E+03  0.80937238754E+02 0.  0.
         23    2    1    2    0    0  0.21240749680E+02  0.55713666517E+02  0.13690244313E+03  0.17335470256E+03  0.88059024972E+02 0.  0.
        -11    1    3    3    0    0 -0.13125481253E+02  0.10044626314E+03  0.10386222995E+03  0.14508305499E+03  0.00000000000E+00 0.  1.
         12    1    3    3    0    0 -0.64693287541E+01 -0.72894156481E+01  0.61035993472E+02  0.61809224993E+02  0.00000000000E+00 0. -1.
        -11    1    4    4    0    0 -0.33641322446E+02  0.24123324737E+02  0.69324966501E+02  0.80744190829E+02  0.00000000000E+00 0. -1.
         11    1    4    4    0    0  0.54882072125E+02  0.31590341781E+02  0.67577476632E+02  0.92610511728E+02  0.00000000000E+00 0.  1.
          1    1    1    2  501    0 -0.16459396729E+01 -0.14887051401E+03  0.13917021253E+03  0.20379766219E+03  0.00000000000E+00 0. -1.
<scales pt_clust_5="13000.00000" pt_clust_6="13000.00000" pt_clust_7="13000.00000" pt_clust_8="13000.00000" pt_clust_9="148.87961"></scales>
<clustering>
<clus scale="   80.937">  5  6 -1 -1</clus>
<clus scale="   88.059">  7  8 -1 -1</clus>
<clus scale="   94.262">  5  7 -1 -1</clus>
<clus scale="  148.880">  2  9  1 -1</clus>
<clus scale="  148.880">  2  5  1 -1</clus>
</clustering>
</event>
<event>
 9    2  0.4653788E-005  0.1274971E+03  0.7546771E-02  0.1234403E+00
          2   -1    0    0  502    0 -0.00000000000E+00  0.00000000000E+00  0.26607792554E+03  0.26607792554E+03  0.00000000000E+00 0. -1.
         21   -1    0    0  501  502  0.00000000000E+00 -0.00000000000E+00 -0.11430915956E+03  0.11430915956E+03  0.00000000000E+00 0.  1.
         24    2    1    2    0    0  0.31675398874E+02  0.89155309712E+02  0.17610056211E+03  0.21548238814E+03  0.80431657211E+02 0.  0.
         23    2    1    2    0    0 -0.14864549600E+02 -0.70693478591E+02  0.15396142292E+02  0.11798185654E+03  0.92000839812E+02 0.  0.
        -11    1    3    3    0    0  0.22778545055E+02  0.41935846460E+02  0.19288220409E+02  0.51473418185E+02  0.00000000000E+00 0.  1.
         12    1    3    3    0    0  0.88968538186E+01  0.47219463252E+02  0.15681234170E+03  0.16400896996E+03  0.00000000000E+00 0. -1.
        -13    1    4    4    0    0 -0.31316400647E+02 -0.85876711739E+02  0.23141724630E+02  0.94292449260E+02  0.00000000000E+00 0.  1.
         13    1    4    4    0    0  0.16451851048E+02  0.15183233148E+02 -0.77455823373E+01  0.23689407284E+02  0.00000000000E+00 0. -1.
          1    1    1    2  501    0 -0.16810849274E+02 -0.18461831121E+02 -0.39727938417E+02  0.46922840414E+02  0.00000000000E+00 0. -1.
<scales pt_clust_5="13000.00000" pt_clust_6="13000.00000" pt_clust_7="13000.00000" pt_clust_8="13000.00000" pt_clust_9="24.96886"></scales>
<clustering>
<clus scale="   24.969">  2  9  1 -1</clus>
<clus scale="   80.432">  5  6 -1 -1</clus>
<clus scale="   92.001">  7  8 -1 -1</clus>
<clus scale="  119.418">  1  5  2 -1</clus>
<clus scale="   24.969">  2  5  1 -1</clus>
</clustering>
</event>
<event>
 9    2  0.4653788E-005  0.1449853E+03  0.7546771E-02  0.1214604E+00
         21   -1    0    0  501  502  0.00000000000E+00  0.00000000000E+00  0.46093680486E+02  0.46093680486E+02  0.00000000000E+00 0. -1.
          2   -1    0    0  502    0 -0.00000000000E+00 -0.00000000000E+00 -0.98567074130E+03  0.98567074130E+03  0.00000000000E+00 0. -1.
         24    2    1    2    0    0  0.87036422838E+02 -0.42601924882E+02 -0.14312273733E+03  0.18851028214E+03  0.75244572081E+02 0.  0.
         23    2    1    2    0    0  0.45325190696E+02  0.90186030948E+02 -0.39692073868E+03  0.41968486635E+03  0.91659266665E+02 0.  0.
        -13    1    3    3    0    0  0.49291369351E+02  0.16832882390E+02 -0.66117679841E+02  0.84169665614E+02  0.00000000000E+00 0.  1.
         14    1    3    3    0    0  0.37745053487E+02 -0.59434807272E+02 -0.77005057490E+02  0.10434061653E+03  0.00000000000E+00 0. -1.
        -13    1    4    4    0    0  0.69145883822E+02  0.69496653069E+02 -0.23348435512E+03  0.25323088699E+03  0.00000000000E+00 0. -1.
         13    1    4    4    0    0 -0.23820693126E+02  0.20689377879E+02 -0.16343638355E+03  0.16645397937E+03  0.00000000000E+00 0.  1.
          1    1    1    2  501    0 -0.13236161353E+03 -0.47584106065E+02 -0.39953358481E+03  0.42356927329E+03  0.00000000000E+00 0. -1.
<scales pt_clust_5="13000.00000" pt_clust_6="13000.00000" pt_clust_7="13000.00000" pt_clust_8="13000.00000" pt_clust_9="112.33584"></scales>
<clustering>
<clus scale="   75.245">  5  6 -1 -1</clus>
<clus scale="   91.659">  7  8 -1 -1</clus>
<clus scale="  122.687">  2  5  1 -1</clus>
<clus scale="  112.336">  1  9  2 -1</clus>
<clus scale="  112.336">  1  5  2 -1</clus>
</clustering>
</event>
<event>
 9    2  0.4653788E-005  0.9608884E+02  0.7546771E-02  0.1293446E+00
         21   -1    0    0  501  502  0.00000000000E+00  0.00000000000E+00  0.66597459041E+02  0.66597459041E+02  0.00000000000E+00 0.  1.
         -1   -1    0    0    0  501 -0.00000000000E+00 -0.00000000000E+00 -0.23911828567E+03  0.23911828567E+03  0.00000000000E+00 0.  1.
         24    2    1    2    0    0 -0.20844380491E+02  0.52479858737E+02 -0.95321771966E+02  0.13769186054E+03  0.81756861964E+02 0.  0.
         23    2    1    2    0    0 -0.27690820978E+00  0.14207167875E+01 -0.37824809108E+02  0.98011656009E+02  0.90407264173E+02 0.  0.
        -11    1    3    3    0    0  0.84299940787E+01  0.57998780828E+02 -0.29873208399E+02  0.65782459347E+02  0.00000000000E+00 0.  1.
         12    1    3    3    0    0 -0.29274374570E+02 -0.55189220909E+01 -0.65448563568E+02  0.71909401197E+02  0.00000000000E+00 0. -1.
        -13    1    4    4    0    0  0.38266662939E+02 -0.21521717414E+02 -0.93692076712E+01  0.44892135896E+02  0.00000000000E+00 0.  1.
         13    1    4    4    0    0 -0.38543571148E+02  0.22942434201E+02 -0.28455601436E+02  0.53119520113E+02  0.00000000000E+00 0. -1.
         -2    1    1    2    0  502  0.21121288701E+02 -0.53900575525E+02 -0.39374245551E+02  0.70012228153E+02  0.00000000000E+00 0.  1.
<scales pt_clust_5="13000.00000" pt_clust_6="13000.00000" pt_clust_7="13000.00000" pt_clust_8="13000.00000" pt_clust_9="57.89111"></scales>
<clustering>
<clus scale="   57.891">  1  9  2 -1</clus>
<clus scale="   81.757">  5  6 -1 -1</clus>
<clus scale="   87.999">  2  5  1 -1</clus>
<clus scale="   90.407">  7  8 -1 -1</clus>
<clus scale="   57.891">  1  5  2 -1</clus>
</clustering>
</event>
<event>
 9    2  0.4653788E-005  0.1106495E+03  0.7546771E-02  0.1264651E+00
         21   -1    0    0  501  502  0.00000000000E+00  0.00000000000E+00  0.25099330343E+02  0.25099330343E+02  0.00000000000E+00 0. -1.
          2   -1    0    0  502    0 -0.00000000000E+00 -0.00000000000E+00 -0.11470075409E+04  0.11470075409E+04  0.00000000000E+00 0. -1.
         24    2    1    2    0    0  0.73253294545E+02  0.31289797507E+02 -0.81037326115E+03  0.81819682906E+03  0.79975822020E+02 0.  0.
         23    2    1    2    0    0 -0.86801750434E+01 -0.73098333765E+01 -0.22130807681E+03  0.24039521946E+03  0.93187003247E+02 0.  0.
        -13    1    3    3    0    0  0.30102287714E+02  0.43130999670E+02 -0.22288115926E+03  0.22900314847E+03  0.00000000000E+00 0.  1.
         14    1    3    3    0    0  0.43151006832E+02 -0.11841202163E+02 -0.58749210189E+03  0.58919368059E+03  0.00000000000E+00 0. -1.
        -11    1    4    4    0    0 -0.41688465334E+02  0.23413638972E+02 -0.13103463708E+03  0.13948549296E+03  0.00000000000E+00 0. -1.
         11    1    4    4    0    0  0.33008290290E+02 -0.30723472349E+02 -0.90273439730E+02  0.10090972650E+03  0.00000000000E+00 0.  1.
          1    1    1    2  501    0 -0.64573119502E+02 -0.23979964131E+02 -0.90226872643E+02  0.11351482277E+03  0.00000000000E+00 0. -1.
<scales pt_clust_5="13000.00000" pt_clust_6="13000.00000" pt_clust_7="13000.00000" pt_clust_8="13000.00000" pt_clust_9="68.88197"></scales>
<clustering>
<clus scale="   68.882">  1  9  2 -1</clus>
<clus scale="   79.976">  5  6 -1 -1</clus>
<clus scale="   93.187">  7  8 -1 -1</clus>
<clus scale="   99.778">  2  5  1 -1</clus>
<clus scale="   68.882">  1  5  2 -1</clus>
</clustering>
</event>
<event>
 9    2  0.4653788E-005  0.2548754E+03  0.7546771E-02  0.1129392E+00
         21   -1    0    0  501  502  0.00000000000E+00  0.00000000000E+00  0.32353292460E+03  0.32353292460E+03  0.00000000000E+00 0. -1.
          4   -1    0    0  502    0 -0.00000000000E+00 -0.00000000000E+00 -0.67831147485E+03  0.67831147485E+03  0.00000000000E+00 0. -1.
         23    2    1    2    0    0 -0.18869797136E+02  0.11940011883E+03 -0.20378984602E+03  0.25782228076E+03  0.10163448969E+03 0.  0.
         24    2    1    2    0    0 -0.19177458787E+03  0.21692303099E+02 -0.35980503235E+03  0.41556757489E+03  0.77386687685E+02 0.  0.
        -11    1    4    4    0    0 -0.93829997821E+02 -0.18431488441E+02 -0.22268880378E+03  0.24235117410E+03  0.00000000000E+00 0.  1.
         12    1    4    4    0    0 -0.97944590044E+02  0.40123791540E+02 -0.13711622857E+03  0.17321640079E+03  0.00000000000E+00 0. -1.
        -11    1    3    3    0    0 -0.15251087428E+02  0.91043393762E+02 -0.20926037819E+03  0.22871685792E+03  0.00000000000E+00 0. -1.
         11    1    3    3    0    0 -0.36187097088E+01  0.28356725067E+02  0.54705321714E+01  0.29105422841E+02  0.00000000000E+00 0.  1.
          3    1    1    2  501    0  0.21064438500E+03 -0.14109242193E+03  0.20881632812E+03  0.32845454381E+03  0.00000000000E+00 0. -1.
<scales pt_clust_5="13000.00000" pt_clust_6="13000.00000" pt_clust_7="13000.00000" pt_clust_8="13000.00000" pt_clust_9="242.84310"></scales>
<clustering>
<clus scale="   77.387">  5  6 -1 -1</clus>
<clus scale="  101.634">  7  8 -1 -1</clus>
<clus scale="  157.930">  2  7  1 -1</clus>
<clus scale="  242.843">  1  9  2 -1</clus>
<clus scale="  242.843">  1  5  2 -1</clus>
</clustering>
</event>
<event>
 9    2  0.4653788E-005  0.3567325E+03  0.7546771E-02  0.1060140E+00
          4   -1    0    0  502    0 -0.00000000000E+00  0.00000000000E+00  0.42564529414E+03  0.42564529414E+03  0.00000000000E+00 0. -1.
         21   -1    0    0  501  502  0.00000000000E+00 -0.00000000000E+00 -0.66954690591E+03  0.66954690591E+03  0.00000000000E+00 0.  1.
         24    2    1    2    0    0  0.34012665361E+03 -0.27655244045E+02  0.25285989485E+03  0.43239139135E+03  0.81075494879E+02 0.  0.
         23    2    1    2    0    0 -0.35992309600E+03  0.33480071778E+02 -0.33979023367E+03  0.50447895839E+03  0.91520851845E+02 0.  0.
        -13    1    3    3    0    0  0.21725142661E+03 -0.23384789686E+02  0.11239719233E+03  0.24571967686E+03  0.00000000000E+00 0.  1.
         14    1    3    3    0    0  0.12287522700E+03 -0.42704543582E+01  0.14046270252E+03  0.18667171449E+03  0.00000000000E+00 0. -1.
        -13    1    4    4    0    0 -0.13478802861E+03 -0.21618360141E+02 -0.16518083676E+03  0.21428923208E+03  0.00000000000E+00 0.  1.
         13    1    4    4    0    0 -0.22513506740E+03  0.55098431920E+02 -0.17460939691E+03  0.29018972632E+03  0.00000000000E+00 0. -1.
          3    1    1    2  501    0  0.19796442396E+02 -0.58248277337E+01 -0.15697127296E+03  0.15832185031E+03  0.00000000000E+00 0. -1.
<scales pt_clust_5="13000.00000" pt_clust_6="13000.00000" pt_clust_7="13000.00000" pt_clust_8="13000.00000" pt_clust_9="20.63559"></scales>
<clustering>
<clus scale="   20.636">  2  9  1 -1</clus>
<clus scale="   81.075">  5  6 -1 -1</clus>
<clus scale="   91.521">  7  8 -1 -1</clus>
<clus scale="  354.197">  1  5  2 -1</clus>
<clus scale="   20.636">  2  5  1 -1</clus>
</clustering>
</event>
<event>
 9    2  0.4653788E-005  0.1210295E+03  0.7546771E-02  0.1243867E+00
          2   -1    0    0  502    0 -0.00000000000E+00  0.00000000000E+00  0.71434582263E+03  0.71434582263E+03  0.00000000000E+00 0. -1.
         21   -1    0    0  501  502  0.00000000000E+00 -0.00000000000E+00 -0.25468062595E+02  0.25468062595E+02  0.00000000000E+00 0. -1.
         23    2    1    2    0    0 -0.26392862765E+02 -0.71759896609E+02  0.31006460305E+03  0.33203235181E+03  0.90881013504E+02 0.  0.
         24    2    1    2    0    0  0.52338101871E+02  0.68312534682E+02  0.26036322555E+03  0.28647437784E+03  0.82901632317E+02 0.  0.
        -11    1    4    4    0    0  0.25865815457E+02 -0.10315771120E+02  0.12205108265E+03  0.12518754858E+03  0.00000000000E+00 0.  1.
         12    1    4    4    0    0  0.26472286414E+02  0.78628305802E+02  0.13831214290E+03  0.16128682927E+03  0.00000000000E+00 0. -1.
        -11    1    3    3    0    0 -0.26689678860E+02  0.12652247434E+02  0.12781027771E+03  0.13117882989E+03  0.00000000000E+00 0.  1.
         11    1    3    3    0    0  0.29681609458E+00 -0.84412144043E+02  0.18225432534E+03  0.20085352192E+03  0.00000000000E+00 0. -1.
          1    1    1    2  501    0 -0.25945239105E+02  0.34473619272E+01  0.11844993143E+03  0.12130715557E+03  0.00000000000E+00 0. -1.
<scales pt_clust_5="13000.00000" pt_clust_6="13000.00000" pt_clust_7="13000.00000" pt_clust_8="13000.00000" pt_clust_9="26.17328"></scales>
<clustering>
<clus scale="   26.173">  2  9  1 -1</clus>
<clus scale="   82.902">  5  6 -1 -1</clus>
<clus scale="   90.881">  7  8 -1 -1</clus>
<clus scale="  115.158">  2  5  1 -1</clus>
<clus scale="   26.173">  2  5  1 -1</clus>
</clustering>
</event>
<event>
 9    2  0.4653788E-005  0.9432133E+02  0.7546771E-02  0.1298712E+00
         -1   -1    0    0    0  501 -0.00000000000E+00  0.00000000000E+00  0.10618665186E+03  0.10618665186E+03  0.00000000000E+00 0.  1.
         21   -1    0    0  501  502  0.00000000000E+00 -0.00000000000E+00 -0.13240711856E+03  0.13240711856E+03  0.00000000000E+00 0.  1.
         23    2    1    2    0    0  0.15068577100E+02  0.33833201903E+02  0.89715666171E+01  0.99120052595E+02  0.91501629778E+02 0.  0.
         24    2    1    2    0    0 -0.19233369424E+02  0.11536295373E+02 -0.40718627823E+02  0.93579491337E+02  0.81216414208E+02 0.  0.
        -13    1    4    4    0    0  0.14187804416E+02  0.35964127574E+02 -0.51540339387E+01  0.39003542559E+02  0.00000000000E+00 0.  1.
         14    1    4    4    0    0 -0.33421173840E+02 -0.24427832201E+02 -0.35564593884E+02  0.54575948778E+02  0.00000000000E+00 0. -1.
        -11    1    3    3    0    0 -0.26928688728E+02  0.97897544135E+00  0.31309608927E+02  0.41308646561E+02  0.00000000000E+00 0.  1.
         11    1    3    3    0    0  0.41997265828E+02  0.32854226462E+02 -0.22338042310E+02  0.57811406035E+02  0.00000000000E+00 0. -1.
         -2    1    1    2    0  502  0.41647923234E+01 -0.45369497276E+02  0.55265945122E+01  0.45894226490E+02  0.00000000000E+00 0.  1.
<scales pt_clust_5="13000.00000" pt_clust_6="13000.00000" pt_clust_7="13000.00000" pt_clust_8="13000.00000" pt_clust_9="45.56028"></scales>
<clustering>
<clus scale="   45.560">  2  9  1 -1</clus>
<clus scale="   81.216">  5  6 -1 -1</clus>
<clus scale="   84.381">  2  5  1 -1</clus>
<clus scale="   91.502">  7  8 -1 -1</clus>
<clus scale="   45.560">  2  5  1 -1</clus>
</clustering>
</event>
<event>
 9    2  0.4653788E-005  0.9115878E+02  0.7546771E-02  0.1305297E+00
         -1   -1    0    0    0  501 -0.00000000000E+00  0.00000000000E+00  0.87796158513E+02  0.87796158513E+02  0.00000000000E+00 0.  1.
         21   -1    0    0  501  502  0.00000000000E+00 -0.00000000000E+00 -0.23443521164E+03  0.23443521164E+03  0.00000000000E+00 0.  1.
         23    2    1    2    0    0 -0.18634437449E+02 -0.75997419821E+01  0.43944101637E+02  0.10163864763E+03  0.89411029998E+02 0.  0.
         24    2    1    2    0    0 -0.20759813978E+01  0.19022517650E+02 -0.11863975417E+03  0.14486126181E+03  0.80890222082E+02 0.  0.
        -11    1    4    4    0    0  0.28485333566E+02  0.26269287115E+02 -0.10243409028E+03  0.10951818354E+03  0.00000000000E+00 0.  1.
         12    1    4    4    0    0 -0.30561314964E+02 -0.72467694651E+01 -0.16205663890E+02  0.35343078277E+02  0.00000000000E+00 0. -1.
        -11    1    3    3    0    0 -0.49708031893E+02 -0.34148184096E+01  0.27924791324E+01  0.49903380237E+02  0.00000000000E+00 0.  1.
         11    1    3    3    0    0  0.31073594444E+02 -0.41849235725E+01  0.41151622505E+02  0.51735267388E+02  0.00000000000E+00 0. -1.
         -2    1    1    2    0  502  0.20710418846E+02 -0.11422775668E+02 -0.71943400600E+02  0.75731460719E+02  0.00000000000E+00 0.  1.
<scales pt_clust_5="13000.00000" pt_clust_6="13000.00000" pt_clust_7="13000.00000" pt_clust_8="13000.00000" pt_clust_9="23.65166"></scales>
<clustering>
<clus scale="   23.652">  2  9  1 -1</clus>
<clus scale="   80.890">  5  6 -1 -1</clus>
<clus scale="   82.818">  2  5  1 -1</clus>
<clus scale="   89.411">  7  8 -1 -1</clus>
<clus scale="   23.652">  2  5  1 -1</clus>
</clustering>
</event>
<event>
 9    2  0.4653789E-005  0.1828152E+03  0.7546771E-02  0.1191575E+00
         -3   -1    0    0    0  501 -0.00000000000E+00  0.00000000000E+00  0.30573371659E+03  0.30573371659E+03  0.00000000000E+00 0.  1.
         21   -1    0    0  501  502  0.00000000000E+00 -0.00000000000E+00 -0.21035433448E+03  0.21035433448E+03  0.00000000000E+00 0.  1.
         23    2    1    2    0    0 -0.25134372958E+02 -0.29917250964E+02  0.12072851955E+03  0.15718375090E+03  0.92760861924E+02 0.  0.
         24    2    1    2    0    0 -0.85560468068E+02 -0.11945190925E+03 -0.36377584258E+02  0.17266219835E+03  0.83063552672E+02 0.  0.
        -13    1    4    4    0    0 -0.77474150270E+02 -0.13120912304E+03 -0.25000103024E+02  0.15441205614E+03  0.00000000000E+00 0.  1.
         14    1    4    4    0    0 -0.80863177979E+01  0.11757213788E+02 -0.11377481234E+02  0.18250142214E+02  0.00000000000E+00 0. -1.
        -11    1    3    3    0    0  0.10094202961E+02 -0.55483000114E+02  0.58633032790E+02  0.81351636549E+02  0.00000000000E+00 0.  1.
         11    1    3    3    0    0 -0.35228575919E+02  0.25565749150E+02  0.62095486760E+02  0.75832114351E+02  0.00000000000E+00 0. -1.
         -4    1    1    2    0  502  0.11069484103E+03  0.14936916022E+03  0.11028446820E+02  0.18624210183E+03  0.00000000000E+00 0.  1.
<scales pt_clust_5="13000.00000" pt_clust_6="13000.00000" pt_clust_7="13000.00000" pt_clust_8="13000.00000" pt_clust_9="162.85531"></scales>
<clustering>
<clus scale="   83.064">  5  6 -1 -1</clus>
<clus scale="   92.761">  7  8 -1 -1</clus>
<clus scale="  100.655">  1  7  2 -1</clus>
<clus scale="  162.855">  2  9  1 -1</clus>
<clus scale="  162.855">  2  5  1 -1</clus>
</clustering>
</event>
<event>
 9    2  0.4653788E-005  0.1103366E+03  0.7546771E-02  0.1263578E+00
         21   -1    0    0  501  502  0.00000000000E+00  0.00000000000E+00  0.14952198183E+03  0.14952198183E+03  0.00000000000E+00 0. -1.
          2   -1    0    0  502    0 -0.00000000000E+00 -0.00000000000E+00 -0.29269316393E+03  0.29269316393E+03  0.00000000000E+00 0. -1.
         24    2    1    2    0    0 -0.75088246699E+01 -0.64735296164E+02 -0.17345256219E+03  0.20257452838E+03  0.81875559219E+02 0.  0.
         23    2    1    2    0    0  0.30783639259E+02  0.51142012895E+02 -0.74120194062E+02  0.13181583808E+03  0.91205669076E+02 0.  0.
        -13    1    3    3    0    0 -0.26087263960E+02  0.77743435426E+01 -0.68095780709E+02  0.73334992390E+02  0.00000000000E+00 0.  1.
         14    1    3    3    0    0  0.18578439290E+02 -0.72509639706E+02 -0.10535678149E+03  0.12923953599E+03  0.00000000000E+00 0. -1.
        -13    1    4    4    0    0  0.49850000571E+02  0.57593713718E+02 -0.27409167144E+02  0.80952584025E+02  0.00000000000E+00 0.  1.
         13    1    4    4    0    0 -0.19066361312E+02 -0.64517008238E+01 -0.46711026918E+02  0.50863254054E+02  0.00000000000E+00 0. -1.
          1    1    1    2  501    0 -0.23274814589E+02  0.13593283269E+02  0.10440157416E+03  0.10782477930E+03  0.00000000000E+00 0. -1.
<scales pt_clust_5="13000.00000" pt_clust_6="13000.00000" pt_clust_7="13000.00000" pt_clust_8="13000.00000" pt_clust_9="26.95356"></scales>
<clustering>
<clus scale="   26.954">  1  9  2 -1</clus>
<clus scale="   81.876">  5  6 -1 -1</clus>
<clus scale="   91.206">  7  8 -1 -1</clus>
<clus scale="  102.758">  2  5  1 -1</clus>
<clus scale="   26.954">  1  5  2 -1</clus>
</clustering>
</event>
<event>
 9    2  0.4653788E-005  0.1232673E+03  0.7546771E-02  0.1256779E+00
         21   -1    0    0  501  502  0.00000000000E+00  0.00000000000E+00  0.48631267714E+02  0.48631267714E+02  0.00000000000E+00 0.  1.
         -1   -1    0    0    0  501 -0.00000000000E+00 -0.00000000000E+00 -0.48856196631E+03  0.48856196631E+03  0.00000000000E+00 0.  1.
         24    2    1    2    0    0 -0.27267181029E+02 -0.58538550527E+01 -0.21210612220E+03  0.22821774323E+03  0.79476817183E+02 0.  0.
         23    2    1    2    0    0 -0.12447191615E+02 -0.72071900699E+02 -0.15833507873E+03  0.19726853000E+03  0.92171494088E+02 0.  0.
        -13    1    3    3    0    0 -0.32936650410E+02 -0.22618416895E+02 -0.20546750885E+03  0.20931629873E+03  0.00000000000E+00 0.  1.
         14    1    3    3    0    0  0.56694693808E+01  0.16764561842E+02 -0.66386133535E+01  0.18901444497E+02  0.00000000000E+00 0. -1.
        -13    1    4    4    0    0 -0.19142783583E+02  0.17662799361E+02 -0.22996305631E+02  0.34745513628E+02  0.00000000000E+00 0. -1.
         13    1    4    4    0    0  0.66955919687E+01 -0.89734700060E+02 -0.13533877310E+03  0.16252301637E+03  0.00000000000E+00 0.  1.
         -2    1    1    2    0  502  0.39714372643E+02  0.77925755752E+02 -0.69489497659E+02  0.11170696079E+03  0.00000000000E+00 0.  1.
<scales pt_clust_5="13000.00000" pt_clust_6="13000.00000" pt_clust_7="13000.00000" pt_clust_8="13000.00000" pt_clust_9="81.84896"></scales>
<clustering>
<clus scale="   79.477">  5  6 -1 -1</clus>
<clus scale="   84.228">  2  5  1 -1</clus>
<clus scale="   81.849">  1  9  2 -1</clus>
<clus scale="   92.171">  7  8 -1 -1</clus>
<clus scale="   81.849">  1  5  2 -1</clus>
</clustering>
</event>
<event>
 9    2  0.4653788E-005  0.1008642E+03  0.7546771E-02  0.1285586E+00
          2   -1    0    0  502    0 -0.00000000000E+00  0.00000000000E+00  0.48083283413E+03  0.48083283413E+03  0.00000000000E+00 0. -1.
         21   -1    0    0  501  502  0.00000000000E+00 -0.00000000000E+00 -0.14281092453E+03  0.14281092453E+03  0.00000000000E+00 0. -1.
         23    2    1    2    0    0  0.34425559101E+02  0.33255797281E+01  0.42615612015E+03  0.43787239913E+03  0.94482911548E+02 0.  0.
         24    2    1    2    0    0 -0.37273028006E+02 -0.30288487999E+02 -0.43968588066E+00  0.93981184895E+02  0.80781177688E+02 0.  0.
        -11    1    4    4    0    0 -0.27626569946E+02  0.25128929658E+02 -0.43319235728E+01  0.37595957689E+02  0.00000000000E+00 0.  1.
         12    1    4    4    0    0 -0.96464580601E+01 -0.55417417657E+02  0.38922376922E+01  0.56385227206E+02  0.00000000000E+00 0. -1.
        -13    1    3    3    0    0 -0.98711228211E+01 -0.38441439306E+02  0.16195512191E+03  0.16674724836E+03  0.00000000000E+00 0. -1.
         13    1    3    3    0    0  0.44296681923E+02  0.41767019034E+02  0.26420099824E+03  0.27112515077E+03  0.00000000000E+00 0.  1.
          1    1    1    2  501    0  0.28474689045E+01  0.26962908271E+02 -0.87694524677E+02  0.91790174637E+02  0.00000000000E+00 0. -1.
<scales pt_clust_5="13000.00000" pt_clust_6="13000.00000" pt_clust_7="13000.00000" pt_clust_8="13000.00000" pt_clust_9="27.11285"></scales>
<clustering>
<clus scale="   27.113">  2  9  1 -1</clus>
<clus scale="   80.781">  5  6 -1 -1</clus>
<clus scale="   88.160">  2  5  1 -1</clus>
<clus scale="   94.483">  7  8 -1 -1</clus>
<clus scale="   27.113">  2  5  1 -1</clus>
</clustering>
</event>
<event>
 9    2  0.4653788E-005  0.1691900E+03  0.7546771E-02  0.1206606E+00
          2   -1    0    0  502    0 -0.00000000000E+00  0.00000000000E+00  0.45266359183E+03  0.45266359183E+03  0.00000000000E+00 0. -1.
         21   -1    0    0  501  502  0.00000000000E+00 -0.00000000000E+00 -0.12218472506E+03  0.12218472506E+03  0.00000000000E+00 0.  1.
         23    2    1    2    0    0 -0.26649511471E+02 -0.19742595059E+01  0.76084534044E+02  0.11905245108E+03  0.87581594097E+02 0.  0.
         24    2    1    2    0    0  0.14655826167E+03 -0.78176206100E+02  0.25085407236E+03  0.31152272571E+03  0.80794800290E+02 0.  0.
        -11    1    4    4    0    0  0.12679814237E+03 -0.81720235483E+02  0.24930015545E+03  0.29138725659E+03  0.00000000000E+00 0.  1.
         12    1    4    4    0    0  0.19760119301E+02  0.35440293831E+01  0.15539169068E+01  0.20135469123E+02  0.00000000000E+00 0. -1.
        -11    1    3    3    0    0 -0.20750461403E+02  0.32895038874E+02  0.44280419313E+01  0.39144256109E+02  0.00000000000E+00 0.  1.
         11    1    3    3    0    0 -0.58990500678E+01 -0.34869298380E+02  0.71656492112E+02  0.79908194968E+02  0.00000000000E+00 0. -1.
          1    1    1    2  501    0 -0.11990875020E+03  0.80150465606E+02  0.35402603680E+01  0.14427314010E+03  0.00000000000E+00 0. -1.
<scales pt_clust_5="13000.00000" pt_clust_6="13000.00000" pt_clust_7="13000.00000" pt_clust_8="13000.00000" pt_clust_9="148.65210"></scales>
<clustering>
<clus scale="   80.795">  5  6 -1 -1</clus>
<clus scale="   87.582">  7  8 -1 -1</clus>
<clus scale="   91.568">  1  7  2 -1</clus>
<clus scale="  148.652">  2  9  1 -1</clus>
<clus scale="  148.652">  2  5  1 -1</clus>
</clustering>
</event>
<event>
 9    2  0.4653788E-005  0.1125191E+03  0.7546771E-02  0.1262972E+00
          2   -1    0    0  502    0 -0.00000000000E+00  0.00000000000E+00  0.60683580405E+03  0.60683580405E+03  0.00000000000E+00 0. -1.
         21   -1    0    0  501  502  0.00000000000E+00 -0.00000000000E+00 -0.45037330421E+02  0.45037330421E+02  0.00000000000E+00 0.  1.
         23    2    1    2    0    0  0.24943977797E+02 -0.27670796244E+02  0.31158979241E+03  0.32665243876E+03  0.90695876533E+02 0.  0.
         24    2    1    2    0    0  0.66889388567E+02 -0.67238870670E+01  0.92984964054E+02  0.13992185962E+03  0.80078226127E+02 0.  0.
        -11    1    4    4    0    0  0.53177381951E+02  0.75352769267E+01  0.10025414171E+02  0.54636281708E+02  0.00000000000E+00 0.  1.
         12    1    4    4    0    0  0.13712006615E+02 -0.14259163994E+02  0.82959549883E+02  0.85285577913E+02  0.00000000000E+00 0. -1.
        -13    1    3    3    0    0 -0.16832803032E+02  0.21868413453E+02  0.49529621482E+02  0.56698802183E+02  0.00000000000E+00 0.  1.
         13    1    3    3    0    0  0.41776780829E+02 -0.49539209697E+02  0.26206017093E+03  0.26995363657E+03  0.00000000000E+00 0. -1.
          1    1    1    2  501    0 -0.91833366364E+02  0.34394683311E+02  0.15722371717E+03  0.18529883609E+03  0.00000000000E+00 0. -1.
<scales pt_clust_5="13000.00000" pt_clust_6="13000.00000" pt_clust_7="13000.00000" pt_clust_8="13000.00000" pt_clust_9="79.04454"></scales>
<clustering>
<clus scale="   80.078">  5  6 -1 -1</clus>
<clus scale="   90.696">  7  8 -1 -1</clus>
<clus scale="   98.049">  1  7  2 -1</clus>
<clus scale="   79.045">  2  9  1 -1</clus>
<clus scale="   79.045">  2  5  1 -1</clus>
</clustering>
</event>
<event>
 9    2  0.4653788E-005  0.2049725E+03  0.7546771E-02  0.1146963E+00
         21   -1    0    0  501  502  0.00000000000E+00  0.00000000000E+00  0.15090467436E+03  0.15090467436E+03  0.00000000000E+00 0. -1.
          4   -1    0    0  502    0 -0.00000000000E+00 -0.00000000000E+00 -0.10287453589E+04  0.10287453589E+04  0.00000000000E+00 0. -1.
         23    2    1    2    0    0  0.15347675381E+03 -0.93373627140E+02 -0.83269815665E+03  0.85709326481E+03  0.94598606204E+02 0.  0.
         24    2    1    2    0    0 -0.20789764355E+03  0.48380229189E+02  0.17105100212E+02  0.22842491249E+03  0.79519050714E+02 0.  0.
        -11    1    4    4    0    0 -0.90709017224E+02  0.55285299368E+02 -0.13568002620E+02  0.10709192699E+03  0.00000000000E+00 0.  1.
         12    1    4    4    0    0 -0.11718862632E+03 -0.69050701792E+01  0.30673102831E+02  0.12133298550E+03  0.00000000000E+00 0. -1.
        -13    1    3    3    0    0  0.47817143802E+02  0.21461747028E+01 -0.10240220470E+03  0.11303670569E+03  0.00000000000E+00 0.  1.
         13    1    3    3    0    0  0.10565961001E+03 -0.95519801843E+02 -0.73029595195E+03  0.74405655912E+03  0.00000000000E+00 0. -1.
          3    1    1    2  501    0  0.54420889732E+02  0.44993397951E+02 -0.62247628093E+02  0.94131855934E+02  0.00000000000E+00 0. -1.
<scales pt_clust_5="13000.00000" pt_clust_6="13000.00000" pt_clust_7="13000.00000" pt_clust_8="13000.00000" pt_clust_9="70.61189"></scales>
<clustering>
<clus scale="   70.612">  1  9  2 -1</clus>
<clus scale="   79.519">  5  6 -1 -1</clus>
<clus scale="   94.599">  7  8 -1 -1</clus>
<clus scale="  198.464">  1  5  2 -1</clus>
<clus scale="   70.612">  1  5  2 -1</clus>
</clustering>
</event>
<event>
 9    2  0.4653788E-005  0.1201241E+03  0.7546771E-02  0.1244233E+00
          2   -1    0    0  502    0 -0.00000000000E+00  0.00000000000E+00  0.25401674515E+03  0.25401674515E+03  0.00000000000E+00 0. -1.
         21   -1    0    0  501  502  0.00000000000E+00 -0.00000000000E+00 -0.86715505865E+02  0.86715505865E+02  0.00000000000E+00 0. -1.
         24    2    1    2    0    0  0.67162451561E+02  0.52484932355E+02  0.14340039550E+03  0.18873840124E+03  0.88278239945E+02 0.  0.
         23    2    1    2    0    0 -0.38925286053E+02 -0.39156693642E+02 -0.71611125011E+01  0.10795040996E+03  0.92485593073E+02 0.  0.
        -11    1    3    3    0    0  0.55932673796E+02 -0.69080840186E+01  0.40509108546E+02  0.69405860688E+02  0.00000000000E+00 0.  1.
         12    1    3    3    0    0  0.11229777766E+02  0.59393016374E+02  0.10289128695E+03  0.11933254055E+03  0.00000000000E+00 0. -1.
        -11    1    4    4    0    0 -0.65217090158E+02 -0.46708245177E+02 -0.77309355319E+01  0.80589679118E+02  0.00000000000E+00 0.  1.
         11    1    4    4    0    0  0.26291804105E+02  0.75515515346E+01  0.56982303082E+00  0.27360730837E+02  0.00000000000E+00 0. -1.
          1    1    1    2  501    0 -0.28237165508E+02 -0.13328238713E+02  0.31061956291E+02  0.44043439827E+02  0.00000000000E+00 0. -1.
<scales pt_clust_5="13000.00000" pt_clust_6="13000.00000" pt_clust_7="13000.00000" pt_clust_8="13000.00000" pt_clust_9="31.22468"></scales>
<clustering>
<clus scale="   31.225">  2  9  1 -1</clus>
<clus scale="   88.278">  5  6 -1 -1</clus>
<clus scale="   92.486">  7  8 -1 -1</clus>
<clus scale="  116.916">  1  5  2 -1</clus>
<clus scale="   31.225">  2  5  1 -1</clus>
</clustering>
</event>
<event>
 9    2  0.4653788E-005  0.1240605E+03  0.7546771E-02  0.1254020E+00
         21   -1    0    0  501  502  0.00000000000E+00  0.00000000000E+00  0.12516581464E+03  0.12516581464E+03  0.00000000000E+00 0.  1.
          2   -1    0    0  502    0 -0.00000000000E+00 -0.00000000000E+00 -0.15875124488E+03  0.15875124488E+03  0.00000000000E+00 0. -1.
         23    2    1    2    0    0  0.36484722552E+02  0.14404026011E+00 -0.56565651764E+02  0.13248628968E+03  0.11411305037E+03 0.  0.
         24    2    1    2    0    0 -0.73012188277E+02 -0.15067973561E+01  0.40944201333E+02  0.11070218738E+03  0.72425800595E+02 0.  0.
        -11    1    4    4    0    0 -0.76106605355E+02 -0.13380723144E+02  0.52839474786E+02  0.93612334797E+02  0.00000000000E+00 0.  1.
         12    1    4    4    0    0  0.30944170773E+01  0.11873925788E+02 -0.11895273453E+02  0.17089852579E+02  0.00000000000E+00 0. -1.
        -11    1    3    3    0    0 -0.19632054443E+02  0.34358169893E+02  0.79795423537E+01  0.40367988508E+02  0.00000000000E+00 0.  1.
         11    1    3    3    0    0  0.56116776994E+02 -0.34214129632E+02 -0.64545194117E+02  0.92118301170E+02  0.00000000000E+00 0. -1.
          1    1    1    2  501    0  0.36527465726E+02  0.13627570960E+01 -0.17963979808E+02  0.40728582467E+02  0.00000000000E+00 0. -1.
<scales pt_clust_5="13000.00000" pt_clust_6="13000.00000" pt_clust_7="13000.00000" pt_clust_8="13000.00000" pt_clust_9="36.55290"></scales>
<clustering>
<clus scale="   36.553">  1  9  2 -1</clus>
<clus scale="   72.426">  5  6 -1 -1</clus>
<clus scale="   87.262">  1  5  2 -1</clus>
<clus scale="  114.113">  7  8 -1 -1</clus>
<clus scale="   36.553">  1  5  2 -1</clus>
</clustering>
</event>
<event>
 9    2  0.4653788E-005  0.9955920E+02  0.7546771E-02  0.1286711E+00
         21   -1    0    0  501  502  0.00000000000E+00  0.00000000000E+00  0.70568965069E+03  0.70568965069E+03  0.00000000000E+00 0.  1.
         -1   -1    0    0    0  501 -0.00000000000E+00 -0.00000000000E+00 -0.32525879397E+02  0.32525879397E+02  0.00000000000E+00 0.  1.
         24    2    1    2    0    0  0.41949391574E+02 -0.52933480629E+02  0.12638331412E+03  0.16425568043E+03  0.80283757022E+02 0.  0.
         23    2    1    2    0    0 -0.63165965569E+01 -0.67027868429E+00  0.18299896736E+03  0.20452781068E+03  0.91118903748E+02 0.  0.
        -13    1    3    3    0    0  0.59423277927E+02 -0.54134286196E+02  0.12216578451E+03  0.14623995968E+03  0.00000000000E+00 0.  1.
         14    1    3    3    0    0 -0.17473886353E+02  0.12008055671E+01  0.42175296084E+01  0.18015720754E+02  0.00000000000E+00 0. -1.
        -11    1    4    4    0    0 -0.31670176739E+02 -0.17159238923E+02  0.25453790006E+02  0.44105951988E+02  0.00000000000E+00 0. -1.
         11    1    4    4    0    0  0.25353580182E+02  0.16488960239E+02  0.15754517736E+03  0.16042185869E+03  0.00000000000E+00 0.  1.
         -2    1    1    2    0  502 -0.35632795017E+02  0.53603759313E+02  0.36378148980E+03  0.36943203897E+03  0.00000000000E+00 0.  1.
<scales pt_clust_5="13000.00000" pt_clust_6="13000.00000" pt_clust_7="13000.00000" pt_clust_8="13000.00000" pt_clust_9="64.36660"></scales>
<clustering>
<clus scale="   64.367">  1  9  2 -1</clus>
<clus scale="   80.284">  5  6 -1 -1</clus>
<clus scale="   89.749">  2  5  1 -1</clus>
<clus scale="   91.119">  7  8 -1 -1</clus>
<clus scale="   64.367">  1  5  2 -1</clus>
</clustering>
</event>
<event>
 9    2  0.4653788E-005  0.1163328E+03  0.7546771E-02  0.1250574E+00
         21   -1    0    0  501  502  0.00000000000E+00  0.00000000000E+00  0.19051765299E+02  0.19051765299E+02  0.00000000000E+00 0. -1.
          2   -1    0    0  502    0 -0.00000000000E+00 -0.00000000000E+00 -0.10095847793E+04  0.10095847793E+04  0.00000000000E+00 0. -1.
         24    2    1    2    0    0 -0.77976574907E+02  0.35381686383E+02 -0.53215392147E+03  0.54490950113E+03  0.80039729632E+02 0.  0.
         23    2    1    2    0    0  0.48568354491E+02 -0.61037920600E+02 -0.36129783778E+03  0.37909504164E+03  0.84216448540E+02 0.  0.
        -13    1    3    3    0    0 -0.56543841741E+02  0.17959481983E+02 -0.14356861993E+03  0.15534380471E+03  0.00000000000E+00 0.  1.
         14    1    3    3    0    0 -0.21432733167E+02  0.17422204400E+02 -0.38858530154E+03  0.38956569642E+03  0.00000000000E+00 0. -1.
        -11    1    4    4    0    0  0.56759016722E+02 -0.11620449272E+02 -0.12831809619E+03  0.14079117384E+03  0.00000000000E+00 0.  1.
         11    1    4    4    0    0 -0.81906622312E+01 -0.49417471328E+02 -0.23297974159E+03  0.23830386780E+03  0.00000000000E+00 0. -1.
          1    1    1    2  501    0  0.29408220417E+02  0.25656234217E+02 -0.97081254755E+02  0.10463200183E+03  0.00000000000E+00 0. -1.
<scales pt_clust_5="13000.00000" pt_clust_6="13000.00000" pt_clust_7="13000.00000" pt_clust_8="13000.00000" pt_clust_9="39.02673"></scales>
<clustering>
<clus scale="   39.027">  1  9  2 -1</clus>
<clus scale="   80.040">  5  6 -1 -1</clus>
<clus scale="   84.216">  7  8 -1 -1</clus>
<clus scale="  113.346">  2  5  1 -1</clus>
<clus scale="   39.027">  1  5  2 -1</clus>
</clustering>
</event>
<event>
 9    2  0.4653788E-005  0.9153935E+02  0.7546771E-02  0.1305840E+00
         21   -1    0    0  501  502  0.00000000000E+00  0.00000000000E+00  0.90730475905E+02  0.90730475905E+02  0.00000000000E+00 0.  1.
          2   -1    0    0  502    0 -0.00000000000E+00 -0.00000000000E+00 -0.22240037029E+03  0.22240037029E+03  0.00000000000E+00 0. -1.
         24    2    1    2    0    0  0.71441893574E+01  0.55402992847E+01 -0.13352937818E+03  0.15624619573E+03  0.80629054851E+02 0.  0.
         23    2    1    2    0    0  0.30411465361E+02 -0.18109426011E+02  0.36330405241E+02  0.10438079753E+03  0.91228526302E+02 0.  0.
        -11    1    3    3    0    0 -0.32361729324E+02  0.18349901328E+02 -0.82147650498E+02  0.90178915972E+02  0.00000000000E+00 0.  1.
         12    1    3    3    0    0  0.39505918682E+02 -0.12809602043E+02 -0.51381727681E+02  0.66067279760E+02  0.00000000000E+00 0. -1.
        -13    1    4    4    0    0  0.58587446875E+02  0.83657500011E+01  0.22689322224E+02  0.63382016751E+02  0.00000000000E+00 0.  1.
         13    1    4    4    0    0 -0.28175981514E+02 -0.26475176012E+02  0.13641083017E+02  0.40998780775E+02  0.00000000000E+00 0. -1.
          1    1    1    2  501    0 -0.37555654719E+02  0.12569126727E+02 -0.34470921449E+02  0.52503852940E+02  0.00000000000E+00 0. -1.
<scales pt_clust_5="13000.00000" pt_clust_6="13000.00000" pt_clust_7="13000.00000" pt_clust_8="13000.00000" pt_clust_9="39.60318"></scales>
<clustering>
<clus scale="   39.603">  1  9  2 -1</clus>
<clus scale="   80.629">  5  6 -1 -1</clus>
<clus scale="   80.981">  2  5  1 -1</clus>
<clus scale="   91.229">  7  8 -1 -1</clus>
<clus scale="   39.603">  1  5  2 -1</clus>
</clustering>
</event>
<event>
 9    2  0.4653788E-005  0.2149922E+03  0.7546771E-02  0.1153514E+00
          2   -1    0    0  502    0 -0.00000000000E+00  0.00000000000E+00  0.26841936494E+03  0.26841936494E+03  0.00000000000E+00 0. -1.
         21   -1    0    0  501  502  0.00000000000E+00 -0.00000000000E+00 -0.45220596120E+03  0.45220596120E+03  0.00000000000E+00 0. -1.
         23    2    1    2    0    0  0.48642668347E+02 -0.10483016730E+03  0.10481698905E+03  0.18076285512E+03  0.91286008990E+02 0.  0.
         24    2    1    2    0    0 -0.20137981249E+03 -0.35410082459E+02 -0.52987316560E+02  0.22599786813E+03  0.80372121181E+02 0.  0.
        -13    1    4    4    0    0 -0.22932752642E+02 -0.34251921711E+02 -0.11339606187E+02  0.42751514045E+02  0.00000000000E+00 0.  1.
         14    1    4    4    0    0 -0.17844705985E+03 -0.11581607476E+01 -0.41647710373E+02  0.18324635408E+03  0.00000000000E+00 0. -1.
        -11    1    3    3    0    0 -0.11510759508E+02 -0.53889469168E+02  0.81829795534E+02  0.98654386161E+02  0.00000000000E+00 0. -1.
         11    1    3    3    0    0  0.60153427855E+02 -0.50940698128E+02  0.22987193513E+02  0.82108468954E+02  0.00000000000E+00 0.  1.
          1    1    1    2  501    0  0.15273714414E+03  0.14024024976E+03 -0.23561626875E+03  0.31386460290E+03  0.00000000000E+00 0. -1.
<scales pt_clust_5="13000.00000" pt_clust_6="13000.00000" pt_clust_7="13000.00000" pt_clust_8="13000.00000" pt_clust_9="199.40403"></scales>
<clustering>
<clus scale="   80.372">  5  6 -1 -1</clus>
<clus scale="   91.286">  7  8 -1 -1</clus>
<clus scale="  147.271">  1  7  2 -1</clus>
<clus scale="  199.404">  2  9  1 -1</clus>
<clus scale="  199.404">  2  5  1 -1</clus>
</clustering>
</event>
<event>
 9    2  0.4653788E-005  0.9187861E+02  0.7546771E-02  0.1302079E+00
         -1   -1    0    0    0  501 -0.00000000000E+00  0.00000000000E+00  0.12976998632E+03  0.12976998632E+03  0.00000000000E+00 0.  1.
         21   -1    0    0  501  502  0.00000000000E+00 -0.00000000000E+00 -0.13645683875E+03  0.13645683875E+03  0.00000000000E+00 0. -1.
         23    2    1    2    0    0 -0.47317707554E+01 -0.90071804132E+01  0.80528154736E+02  0.12246734880E+03  0.91705773343E+02 0.  0.
         24    2    1    2    0    0 -0.67404769294E+01 -0.13795460425E+02 -0.77333307852E+02  0.11638757686E+03  0.85614711267E+02 0.  0.
        -13    1    4    4    0    0 -0.21207193106E+02 -0.40975739473E+02 -0.17970510301E+02  0.49514598911E+02  0.00000000000E+00 0.  1.
         14    1    4    4    0    0  0.14466716176E+02  0.27180279049E+02 -0.59362797551E+02  0.66872977945E+02  0.00000000000E+00 0. -1.
        -11    1    3    3    0    0 -0.43865116831E+02  0.15048760822E+01  0.16899930891E+02  0.47032125092E+02  0.00000000000E+00 0.  1.
         11    1    3    3    0    0  0.39133346075E+02 -0.10512056495E+02  0.63628223845E+02  0.75435223712E+02  0.00000000000E+00 0. -1.
         -2    1    1    2    0  502  0.11472247685E+02  0.22802640838E+02 -0.98816993079E+01  0.27371899410E+02  0.00000000000E+00 0.  1.
<scales pt_clust_5="13000.00000" pt_clust_6="13000.00000" pt_clust_7="13000.00000" pt_clust_8="13000.00000" pt_clust_9="25.52593"></scales>
<clustering>
<clus scale="   25.526">  2  9  1 -1</clus>
<clus scale="   85.615">  5  6 -1 -1</clus>
<clus scale="   85.800">  2  5  1 -1</clus>
<clus scale="   91.706">  7  8 -1 -1</clus>
<clus scale="   25.526">  2  5  1 -1</clus>
</clustering>
</event>
<event>
 9    2  0.4653788E-005  0.1160201E+03  0.7546771E-02  0.1256192E+00
         21   -1    0    0  501  502  0.00000000000E+00  0.00000000000E+00  0.32211808023E+03  0.32211808023E+03  0.00000000000E+00 0. -1.
         -3   -1    0    0    0  501 -0.00000000000E+00 -0.00000000000E+00 -0.93012733074E+02  0.93012733074E+02  0.00000000000E+00 0.  1.
         23    2    1    2    0    0 -0.14647131305E+02 -0.44394522342E+02 -0.41219624264E+02  0.11131264860E+03  0.92228174896E+02 0.  0.
         24    2    1    2    0    0  0.21307235625E+02  0.22077349341E+02  0.19194710371E+03  0.22205323734E+03  0.10734310386E+03 0.  0.
        -11    1    4    4    0    0  0.36615543693E+02  0.52389041428E+02  0.67098513244E+02  0.92668873854E+02  0.00000000000E+00 0.  1.
         12    1    4    4    0    0 -0.15308308068E+02 -0.30311692087E+02  0.12484859047E+03  0.12938436349E+03  0.00000000000E+00 0. -1.
        -11    1    3    3    0    0  0.12675396982E+02 -0.38963583242E+02  0.18847352099E+02  0.45100434464E+02  0.00000000000E+00 0.  1.
         11    1    3    3    0    0 -0.27322528287E+02 -0.54309390995E+01 -0.60066976363E+02  0.66212214137E+02  0.00000000000E+00 0. -1.
         -4    1    1    2    0  502 -0.66601043196E+01  0.22317173000E+02  0.78377867707E+02  0.81764927362E+02  0.00000000000E+00 0.  1.
<scales pt_clust_5="13000.00000" pt_clust_6="13000.00000" pt_clust_7="13000.00000" pt_clust_8="13000.00000" pt_clust_9="23.28977"></scales>
<clustering>
<clus scale="   23.290">  1  9  2 -1</clus>
<clus scale="   92.228">  7  8 -1 -1</clus>
<clus scale="  102.197">  2  7  1 -1</clus>
<clus scale="  107.343">  5  6 -1 -1</clus>
<clus scale="   23.290">  1  5  2 -1</clus>
</clustering>
</event>
<event>
 9    2  0.4653788E-005  0.9909007E+02  0.7546771E-02  0.1288459E+00
         21   -1    0    0  501  502  0.00000000000E+00  0.00000000000E+00  0.21232369476E+03  0.21232369476E+03  0.00000000000E+00 0.  1.
         -1   -1    0    0    0  501 -0.00000000000E+00 -0.00000000000E+00 -0.59480639279E+02  0.59480639279E+02  0.00000000000E+00 0.  1.
         23    2    1    2    0    0 -0.41439196346E+02 -0.68738010353E+01  0.21526063992E+02  0.10377544677E+03  0.92420321282E+02 0.  0.
         24    2    1    2    0    0  0.21863036505E+02  0.12458883816E+02  0.10249162257E+03  0.13273978021E+03  0.80511492366E+02 0.  0.
        -11    1    4    4    0    0  0.13685833561E+02  0.27257341263E+02  0.11006561174E+03  0.11421341244E+03  0.00000000000E+00 0.  1.
         12    1    4    4    0    0  0.81772029436E+01 -0.14798457447E+02 -0.75739891745E+01  0.18526367772E+02  0.00000000000E+00 0. -1.
        -13    1    3    3    0    0 -0.39037099719E+02  0.25856753630E+02 -0.19940703348E+02  0.50893010451E+02  0.00000000000E+00 0.  1.
         13    1    3    3    0    0 -0.24020966273E+01 -0.32730554666E+02  0.41466767340E+02  0.52882436314E+02  0.00000000000E+00 0. -1.
         -2    1    1    2    0  502  0.19576159841E+02 -0.55850827804E+01  0.28825368922E+02  0.35289107063E+02  0.00000000000E+00 0.  1.
<scales pt_clust_5="13000.00000" pt_clust_6="13000.00000" pt_clust_7="13000.00000" pt_clust_8="13000.00000" pt_clust_9="20.35729"></scales>
<clustering>
<clus scale="   20.357">  1  9  2 -1</clus>
<clus scale="   80.511">  5  6 -1 -1</clus>
<clus scale="   88.088">  1  5  2 -1</clus>
<clus scale="   92.420">  7  8 -1 -1</clus>
<clus scale="   20.357">  1  5  2 -1</clus>
</clustering>
</event>
<event>
 9    2  0.4653788E-005  0.1285832E+03  0.7546771E-02  0.1230499E+00
          2   -1    0    0  502    0 -0.00000000000E+00  0.00000000000E+00  0.95790911546E+02  0.95790911546E+02  0.00000000000E+00 0. -1.
         21   -1    0    0  501  502  0.00000000000E+00 -0.00000000000E+00 -0.54287380274E+03  0.54287380274E+03  0.00000000000E+00 0. -1.
         24    2    1    2    0    0 -0.95706265547E+02  0.12274275105E+02 -0.86090887967E+02  0.15663374025E+03  0.88386313980E+02 0.  0.
         23    2    1    2    0    0  0.62560369488E+02 -0.37691804773E+02 -0.40482368751E+03  0.42148415095E+03  0.91827008872E+02 0.  0.
        -11    1    3    3    0    0 -0.23304542655E+02 -0.17771323156E+02  0.11479091760E+02  0.31475247143E+02  0.00000000000E+00 0.  1.
         12    1    3    3    0    0 -0.72401722892E+02  0.30045598260E+02 -0.97569979727E+02  0.12515849311E+03  0.00000000000E+00 0. -1.
        -13    1    4    4    0    0  0.72178087187E+02 -0.59471310949E+02 -0.32244704068E+03  0.33573591875E+03  0.00000000000E+00 0. -1.
         13    1    4    4    0    0 -0.96177176987E+01  0.21779506176E+02 -0.82376646826E+02  0.85748232199E+02  0.00000000000E+00 0.  1.
          1    1    1    2  501    0  0.33145896059E+02  0.25417529668E+02  0.43831684275E+02  0.60546823091E+02  0.00000000000E+00 0. -1.
<scales pt_clust_5="13000.00000" pt_clust_6="13000.00000" pt_clust_7="13000.00000" pt_clust_8="13000.00000" pt_clust_9="41.76964"></scales>
<clustering>
<clus scale="   41.770">  2  9  1 -1</clus>
<clus scale="   88.386">  5  6 -1 -1</clus>
<clus scale="   91.827">  7  8 -1 -1</clus>
<clus scale="  126.149">  1  5  2 -1</clus>
<clus scale="   41.770">  2  5  1 -1</clus>
</clustering>
</event>
<event>
 9    2  0.4653788E-005  0.1008680E+03  0.7546771E-02  0.1284830E+00
          2   -1    0    0  502    0 -0.00000000000E+00  0.00000000000E+00  0.47811104731E+03  0.47811104731E+03  0.00000000000E+00 0. -1.
         21   -1    0    0  501  502  0.00000000000E+00 -0.00000000000E+00 -0.68824416888E+02  0.68824416888E+02  0.00000000000E+00 0. -1.
         23    2    1    2    0    0 -0.39944265653E+02  0.25711454547E+02  0.33682630310E+03  0.35238325573E+03  0.92007484505E+02 0.  0.
         24    2    1    2    0    0  0.19016492345E+02 -0.25479161869E+02  0.11727677723E+03  0.14508969905E+03  0.79286591683E+02 0.  0.
        -13    1    4    4    0    0  0.25520806175E+02  0.68543599503E+01  0.35325211360E+01  0.26660317022E+02  0.00000000000E+00 0.  1.
         14    1    4    4    0    0 -0.65043138301E+01 -0.32333521820E+02  0.11374425610E+03  0.11842938202E+03  0.00000000000E+00 0. -1.
        -13    1    3    3    0    0 -0.91540443836E+01  0.57201200369E+02  0.16030360772E+03  0.17044946612E+03  0.00000000000E+00 0. -1.
         13    1    3    3    0    0 -0.30790221269E+02 -0.31489745822E+02  0.17652269538E+03  0.18193378961E+03  0.00000000000E+00 0.  1.
          1    1    1    2  501    0  0.20927773308E+02 -0.23229267823E+00 -0.44816449912E+02  0.49462509421E+02  0.00000000000E+00 0. -1.
<scales pt_clust_5="13000.00000" pt_clust_6="13000.00000" pt_clust_7="13000.00000" pt_clust_8="13000.00000" pt_clust_9="20.92906"></scales>
<clustering>
<clus scale="   20.929">  2  9  1 -1</clus>
<clus scale="   79.287">  5  6 -1 -1</clus>
<clus scale="   89.417">  2  5  1 -1</clus>
<clus scale="   92.007">  7  8 -1 -1</clus>
<clus scale="   20.929">  2  5  1 -1</clus>
</clustering>
</event>
<event>
 9    2  0.4653788E-005  0.1562230E+03  0.7546771E-02  0.1193333E+00
         21   -1    0    0  501  502  0.00000000000E+00  0.00000000000E+00  0.13885737276E+03  0.13885737276E+03  0.00000000000E+00 0. -1.
          4   -1    0    0  502    0 -0.00000000000E+00 -0.00000000000E+00 -0.70889089149E+03  0.70889089149E+03  0.00000000000E+00 0. -1.
         24    2    1    2    0    0 -0.13076073401E+03 -0.84063705702E+01 -0.58124036378E+03  0.60257528427E+03  0.89930951814E+02 0.  0.
         23    2    1    2    0    0  0.10694083529E+03  0.15777927386E+02 -0.71510084312E+02  0.15877959002E+03  0.91716851253E+02 0.  0.
        -11    1    3    3    0    0 -0.13999170515E+02  0.29412675834E+02 -0.18211941408E+03  0.18500963018E+03  0.00000000000E+00 0.  1.
         12    1    3    3    0    0 -0.11676156350E+03 -0.37819046404E+02 -0.39912094971E+03  0.41756565409E+03  0.00000000000E+00 0. -1.
        -11    1    4    4    0    0  0.83220662749E+02  0.40472082684E+02 -0.16524136111E+02  0.94003804494E+02  0.00000000000E+00 0.  1.
         11    1    4    4    0    0  0.23720172545E+02 -0.24694155298E+02 -0.54985948201E+02  0.64775785529E+02  0.00000000000E+00 0. -1.
          3    1    1    2  501    0  0.23819898719E+02 -0.73715568157E+01  0.82716929362E+02  0.86393389956E+02  0.00000000000E+00 0. -1.
<scales pt_clust_5="13000.00000" pt_clust_6="13000.00000" pt_clust_7="13000.00000" pt_clust_8="13000.00000" pt_clust_9="24.93446"></scales>
<clustering>
<clus scale="   24.934">  1  9  2 -1</clus>
<clus scale="   89.931">  5  6 -1 -1</clus>
<clus scale="   91.717">  7  8 -1 -1</clus>
<clus scale="  155.181">  2  5  1 -1</clus>
<clus scale="   24.934">  1  5  2 -1</clus>
</clustering>
</event>
<event>
 9    2  0.4653788E-005  0.2514589E+03  0.7546771E-02  0.1136123E+00
         21   -1    0    0  501  502  0.00000000000E+00  0.00000000000E+00  0.81085587769E+02  0.81085587769E+02  0.00000000000E+00 0. -1.
          2   -1    0    0  502    0 -0.00000000000E+00 -0.00000000000E+00 -0.15050701522E+04  0.15050701522E+04  0.00000000000E+00 0. -1.
         23    2    1    2    0    0 -0.99123906718E+02  0.53973465719E+01 -0.12072290872E+03  0.18449429302E+03  0.98027767677E+02 0.  0.
         24    2    1    2    0    0  0.14081226591E+03 -0.22839369643E+03 -0.84481295266E+03  0.89015337792E+03  0.81684370891E+02 0.  0.
        -11    1    4    4    0    0  0.50134799555E+02 -0.14381953217E+03 -0.54045671736E+03  0.56150780876E+03  0.00000000000E+00 0.  1.
         12    1    4    4    0    0  0.90677466352E+02 -0.84574164252E+02 -0.30435623530E+03  0.32864556916E+03  0.00000000000E+00 0. -1.
        -13    1    3    3    0    0 -0.37235172579E+02  0.28775946968E+02 -0.25882398156E+00  0.47059326289E+02  0.00000000000E+00 0. -1.
         13    1    3    3    0    0 -0.61888734139E+02 -0.23378600396E+02 -0.12046408474E+03  0.13743496674E+03  0.00000000000E+00 0.  1.
          1    1    1    2  501    0 -0.41688359189E+02  0.22299634985E+03 -0.45844870301E+03  0.51150806898E+03  0.00000000000E+00 0. -1.
<scales pt_clust_5="13000.00000" pt_clust_6="13000.00000" pt_clust_7="13000.00000" pt_clust_8="13000.00000" pt_clust_9="237.82192"></scales>
<clustering>
<clus scale="   81.684">  5  6 -1 -1</clus>
<clus scale="   98.028">  7  8 -1 -1</clus>
<clus scale="  139.514">  2  7  1 -1</clus>
<clus scale="  237.822">  1  9  2 -1</clus>
<clus scale="  237.822">  1  5  2 -1</clus>
</clustering>
</event>
<event>
 9    2  0.4653788E-005  0.1330653E+03  0.7546771E-02  0.1223646E+00
         21   -1    0    0  501  502  0.00000000000E+00  0.00000000000E+00  0.66568390050E+02  0.66568390050E+02  0.00000000000E+00 0.  1.
          2   -1    0    0  502    0 -0.00000000000E+00 -0.00000000000E+00 -0.68631669331E+03  0.68631669331E+03  0.00000000000E+00 0. -1.
         23    2    1    2    0    0  0.74652696051E+02 -0.57408066853E+02 -0.54766074943E+03  0.56331711188E+03  0.92331797877E+02 0.  0.
         24    2    1    2    0    0 -0.44364148724E+02  0.84466134603E+02 -0.58266235643E+02  0.14666617705E+03  0.94938441566E+02 0.  0.
        -13    1    4    4    0    0 -0.49353191210E+02  0.63374378295E+02  0.43125885303E+01  0.80440336441E+02  0.00000000000E+00 0.  1.
         14    1    4    4    0    0  0.49890424868E+01  0.21091756308E+02 -0.62578824173E+02  0.66225840606E+02  0.00000000000E+00 0. -1.
        -13    1    3    3    0    0  0.51935661519E+02  0.13764720863E+02 -0.29456258853E+03  0.29942260943E+03  0.00000000000E+00 0. -1.
         13    1    3    3    0    0  0.22717034532E+02 -0.71172787717E+02 -0.25309816091E+03  0.26389450245E+03  0.00000000000E+00 0.  1.
          1    1    1    2  501    0 -0.30288547327E+02 -0.27058067749E+02 -0.13821318189E+02  0.42901794438E+02  0.00000000000E+00 0. -1.
<scales pt_clust_5="13000.00000" pt_clust_6="13000.00000" pt_clust_7="13000.00000" pt_clust_8="13000.00000" pt_clust_9="40.61447"></scales>
<clustering>
<clus scale="   40.614">  1  9  2 -1</clus>
<clus scale="   92.332">  7  8 -1 -1</clus>
<clus scale="   94.938">  5  6 -1 -1</clus>
<clus scale="  131.218">  2  7  1 -1</clus>
<clus scale="   40.614">  1  5  2 -1</clus>
</clustering>
</event>
<event>
 9    2  0.4653788E-005  0.9622100E+02  0.7546771E-02  0.1288911E+00
         21   -1    0    0  501  502  0.00000000000E+00  0.00000000000E+00  0.19098385380E+03  0.19098385380E+03  0.00000000000E+00 0.  1.
          2   -1    0    0  502    0 -0.00000000000E+00 -0.00000000000E+00 -0.11857973431E+03  0.11857973431E+03  0.00000000000E+00 0. -1.
         23    2    1    2    0    0 -0.52547331318E+02 -0.10461142965E+02 -0.44921471100E+02  0.10789315710E+03  0.82172606393E+02 0.  0.
         24    2    1    2    0    0  0.37020276083E+02 -0.21565079691E+02  0.13394608534E+03  0.16238927488E+03  0.81198333201E+02 0.  0.
        -11    1    4    4    0    0  0.35581307274E+02  0.21395673110E+02  0.97722781006E+02  0.10617695693E+03  0.00000000000E+00 0.  1.
         12    1    4    4    0    0  0.14389688088E+01 -0.42960752800E+02  0.36223304330E+02  0.56212317947E+02  0.00000000000E+00 0. -1.
        -11    1    3    3    0    0 -0.38586569893E+02  0.33779300248E+02 -0.28572712842E+02  0.58705744357E+02  0.00000000000E+00 0. -1.
         11    1    3    3    0    0 -0.13960761425E+02 -0.44240443214E+02 -0.16348758258E+02  0.49187412738E+02  0.00000000000E+00 0.  1.
          1    1    1    2  501    0  0.15527055235E+02  0.32026222656E+02 -0.16620494741E+02  0.39281156135E+02  0.00000000000E+00 0. -1.
<scales pt_clust_5="13000.00000" pt_clust_6="13000.00000" pt_clust_7="13000.00000" pt_clust_8="13000.00000" pt_clust_9="35.59171"></scales>
<clustering>
<clus scale="   35.592">  1  9  2 -1</clus>
<clus scale="   81.198">  5  6 -1 -1</clus>
<clus scale="   82.173">  7  8 -1 -1</clus>
<clus scale="   95.390">  1  5  2 -1</clus>
<clus scale="   35.592">  1  5  2 -1</clus>
</clustering>
</event>
<event>
 9    2  0.4653788E-005  0.6250434E+03  0.7546771E-02  0.1017510E+00
         21   -1    0    0  501  502  0.00000000000E+00  0.00000000000E+00  0.43552715382E+03  0.43552715382E+03  0.00000000000E+00 0.  1.
          2   -1    0    0  502    0 -0.00000000000E+00 -0.00000000000E+00 -0.15313040584E+04  0.15313040584E+04  0.00000000000E+00 0. -1.
         23    2    1    2    0    0 -0.20779155136E+03  0.21561388175E+02 -0.40005854337E+03  0.46066045433E+03  0.92298395344E+02 0.  0.
         24    2    1    2    0    0  0.59655487287E+03 -0.33073089451E+03 -0.47943047675E+02  0.68987696235E+03  0.91493422915E+02 0.  0.
        -11    1    4    4    0    0  0.57953092063E+03 -0.30656216235E+03 -0.59103798799E+02  0.65827783373E+03  0.00000000000E+00 0.  1.
         12    1    4    4    0    0  0.17023952245E+02 -0.24168732157E+02  0.11160751124E+02  0.31599128623E+02  0.00000000000E+00 0. -1.
        -13    1    3    3    0    0 -0.82426597994E+02  0.66539431585E+01 -0.73836711726E+02  0.11086153082E+03  0.00000000000E+00 0. -1.
         13    1    3    3    0    0 -0.12536495336E+03  0.14907445017E+02 -0.32622183165E+03  0.34979892351E+03  0.00000000000E+00 0.  1.
          1    1    1    2  501    0 -0.38876332152E+03  0.30916950633E+03 -0.64777531354E+03  0.81629379554E+03  0.00000000000E+00 0. -1.
<scales pt_clust_5="13000.00000" pt_clust_6="13000.00000" pt_clust_7="13000.00000" pt_clust_8="13000.00000" pt_clust_9="618.31110"></scales>
<clustering>
<clus scale="   91.493">  5  6 -1 -1</clus>
<clus scale="   92.298">  7  8 -1 -1</clus>
<clus scale="  228.388">  2  7  1 -1</clus>
<clus scale="  618.311">  1  9  2 -1</clus>
<clus scale="  618.311">  1  5  2 -1</clus>
</clustering>
</event>
<event>
 9    2  0.4653788E-005  0.1998290E+03  0.7546771E-02  0.1150319E+00
         21   -1    0    0  501  502  0.00000000000E+00  0.00000000000E+00  0.13974880679E+03  0.13974880679E+03  0.00000000000E+00 0. -1.
         -3   -1    0    0    0  501 -0.00000000000E+00 -0.00000000000E+00 -0.44030451622E+03  0.44030451622E+03  0.00000000000E+00 0.  1.
         23    2    1    2    0    0 -0.18332222440E+03 -0.24752612226E+02 -0.28970528542E+03  0.35513636688E+03  0.89291415658E+02 0.  0.
         24    2    1    2    0    0  0.15833506287E+03  0.46448087936E+02 -0.28180523002E+02  0.18756211389E+03  0.84604891606E+02 0.  0.
        -11    1    4    4    0    0  0.15689377644E+03  0.57962088764E+02 -0.12050165243E+02  0.16769158387E+03  0.00000000000E+00 0.  1.
         12    1    4    4    0    0  0.14412864260E+01 -0.11514000828E+02 -0.16130357759E+02  0.19870530014E+02  0.00000000000E+00 0. -1.
        -11    1    3    3    0    0 -0.65003438957E+02 -0.17482043536E+02 -0.18538848956E+03  0.19723073032E+03  0.00000000000E+00 0.  1.
         11    1    3    3    0    0 -0.11831878545E+03 -0.72705686895E+01 -0.10431679586E+03  0.15790563656E+03  0.00000000000E+00 0. -1.
         -4    1    1    2    0  502  0.24987161538E+02 -0.21695475711E+02  0.17330098993E+02  0.37354842245E+02  0.00000000000E+00 0.  1.
<scales pt_clust_5="13000.00000" pt_clust_6="13000.00000" pt_clust_7="13000.00000" pt_clust_8="13000.00000" pt_clust_9="33.09157"></scales>
<clustering>
<clus scale="   33.092">  1  9  2 -1</clus>
<clus scale="   84.605">  5  6 -1 -1</clus>
<clus scale="   89.291">  7  8 -1 -1</clus>
<clus scale="  197.779">  1  5  2 -1</clus>
<clus scale="   33.092">  1  5  2 -1</clus>
</clustering>
</event>
<event>
 9    2  0.4653788E-005  0.9487347E+02  0.7546771E-02  0.1298680E+00
         21   -1    0    0  501  502  0.00000000000E+00  0.00000000000E+00  0.52408537407E+03  0.52408537407E+03  0.00000000000E+00 0. -1.
          2   -1    0    0  502    0 -0.00000000000E+00 -0.00000000000E+00 -0.11696723221E+03  0.11696723221E+03  0.00000000000E+00 0. -1.
         23    2    1    2    0    0 -0.11221883422E+02 -0.18846291070E+02 -0.81356529198E+02  0.12454718694E+03  0.91716975395E+02 0.  0.
         24    2    1    2    0    0  0.55259043066E+02  0.15836635816E+02  0.18041882318E+03  0.20530333891E+03  0.79335668742E+02 0.  0.
        -11    1    4    4    0    0 -0.18664216941E+01  0.36962515750E+02  0.71575049397E+02  0.80577284620E+02  0.00000000000E+00 0.  1.
         12    1    4    4    0    0  0.57125464760E+02 -0.21125879935E+02  0.10884377378E+03  0.12472605429E+03  0.00000000000E+00 0. -1.
        -13    1    3    3    0    0 -0.30871908012E+02  0.47841848651E+01  0.61153857478E+01  0.31833332719E+02  0.00000000000E+00 0.  1.
         13    1    3    3    0    0  0.19650024591E+02 -0.23630475935E+02 -0.87471914946E+02  0.92713854216E+02  0.00000000000E+00 0. -1.
          1    1    1    2  501    0 -0.44037159644E+02  0.30096552540E+01  0.30805584788E+03  0.31120208044E+03  0.00000000000E+00 0. -1.
<scales pt_clust_5="13000.00000" pt_clust_6="13000.00000" pt_clust_7="13000.00000" pt_clust_8="13000.00000" pt_clust_9="44.13989"></scales>
<clustering>
<clus scale="   44.140">  1  9  2 -1</clus>
<clus scale="   79.336">  5  6 -1 -1</clus>
<clus scale="   82.965">  1  5  2 -1</clus>
<clus scale="   91.717">  7  8 -1 -1</clus>
<clus scale="   44.140">  1  5  2 -1</clus>
</clustering>
</event>
<event>
 9    2  0.4653788E-005  0.1236202E+03  0.7546771E-02  0.1240278E+00
         21   -1    0    0  501  502  0.00000000000E+00  0.00000000000E+00  0.26012632708E+03  0.26012632708E+03  0.00000000000E+00 0.  1.
         -1   -1    0    0    0  501 -0.00000000000E+00 -0.00000000000E+00 -0.91664667619E+02  0.91664667619E+02  0.00000000000E+00 0.  1.
         24    2    1    2    0    0 -0.58052601457E+02 -0.35275266776E+02  0.89909385829E+02  0.13732806609E+03  0.78491089257E+02 0.  0.
         23    2    1    2    0    0  0.95848794179E+02  0.47248218836E+02  0.98121116892E+02  0.17024931768E+03  0.89093720672E+02 0.  0.
        -13    1    3    3    0    0 -0.75380637583E+01 -0.50488161106E+02  0.44480999427E+02  0.67708464221E+02  0.00000000000E+00 0.  1.
         14    1    3    3    0    0 -0.50514537699E+02  0.15212894330E+02  0.45428386402E+02  0.69619601865E+02  0.00000000000E+00 0. -1.
        -11    1    4    4    0    0  0.78877291540E+02 -0.95887206035E+01  0.50131297968E+02  0.93950613194E+02  0.00000000000E+00 0. -1.
         11    1    4    4    0    0  0.16971502639E+02  0.56836939439E+02  0.47989818924E+02  0.76298704491E+02  0.00000000000E+00 0.  1.
         -2    1    1    2    0  502 -0.37796192722E+02 -0.11972952060E+02 -0.19568843256E+02  0.44213610932E+02  0.00000000000E+00 0.  1.
<scales pt_clust_5="13000.00000" pt_clust_6="13000.00000" pt_clust_7="13000.00000" pt_clust_8="13000.00000" pt_clust_9="39.64726"></scales>
<clustering>
<clus scale="   39.647">  1  9  2 -1</clus>
<clus scale="   78.491">  5  6 -1 -1</clus>
<clus scale="   89.094">  7  8 -1 -1</clus>
<clus scale="  116.211">  2  5  1 -1</clus>
<clus scale="   39.647">  1  5  2 -1</clus>
</clustering>
</event>
<event>
 9    2  0.4653788E-005  0.1093542E+03  0.7546771E-02  0.1267039E+00
         -3   -1    0    0    0  501 -0.00000000000E+00  0.00000000000E+00  0.27806574499E+03  0.27806574499E+03  0.00000000000E+00 0.  1.
         21   -1    0    0  501  502  0.00000000000E+00 -0.00000000000E+00 -0.98973156297E+02  0.98973156297E+02  0.00000000000E+00 0.  1.
         23    2    1    2    0    0  0.10538929912E+02  0.75153927025E+02  0.19898829428E+03  0.23211674192E+03  0.92318247540E+02 0.  0.
         24    2    1    2    0    0 -0.59892942404E+01 -0.19165170964E+02  0.78908243754E+01  0.82252140712E+02  0.79372376296E+02 0.  0.
        -11    1    4    4    0    0 -0.18220391248E+02  0.24480630762E+02  0.18517813817E+02  0.35695845252E+02  0.00000000000E+00 0.  1.
         12    1    4    4    0    0  0.12231097007E+02 -0.43645801727E+02 -0.10626989442E+02  0.46556295460E+02  0.00000000000E+00 0. -1.
        -11    1    3    3    0    0 -0.62546176814E+01  0.34848148088E+02  0.81287315802E+01  0.36326160610E+02  0.00000000000E+00 0. -1.
         11    1    3    3    0    0  0.16793547593E+02  0.40305778937E+02  0.19085956270E+03  0.19579058131E+03  0.00000000000E+00 0.  1.
         -4    1    1    2    0  502 -0.45496356711E+01 -0.55988756061E+02 -0.27786529966E+02  0.62670018650E+02  0.00000000000E+00 0.  1.
<scales pt_clust_5="13000.00000" pt_clust_6="13000.00000" pt_clust_7="13000.00000" pt_clust_8="13000.00000" pt_clust_9="56.17330"></scales>
<clustering>
<clus scale="   56.173">  2  9  1 -1</clus>
<clus scale="   79.372">  5  6 -1 -1</clus>
<clus scale="   92.318">  7  8 -1 -1</clus>
<clus scale="   98.669">  2  5  1 -1</clus>
<clus scale="   56.173">  2  5  1 -1</clus>
</clustering>
</event>
<event>
 9    2  0.4653788E-005  0.1184393E+03  0.7546771E-02  0.1248859E+00
          2   -1    0    0  502    0 -0.00000000000E+00  0.00000000000E+00  0.17156759077E+03  0.17156759077E+03  0.00000000000E+00 0. -1.
         21   -1    0    0  501  502  0.00000000000E+00 -0.00000000000E+00 -0.20987969542E+03  0.20987969542E+03  0.00000000000E+00 0.  1.
         24    2    1    2    0    0  0.42608938294E+02  0.73941778787E+02  0.11247068376E+03  0.16235496471E+03  0.80165900406E+02 0.  0.
         23    2    1    2    0    0  0.55723369173E+01 -0.41506605618E+02 -0.10972184941E+03  0.14796232463E+03  0.90000644575E+02 0.  0.
        -11    1    3    3    0    0  0.65239141938E+01  0.56451510395E+02  0.17813044019E+02  0.59553665038E+02  0.00000000000E+00 0.  1.
         12    1    3    3    0    0  0.36085024100E+02  0.17490268393E+02  0.94657639746E+02  0.10280129968E+03  0.00000000000E+00 0. -1.
        -11    1    4    4    0    0 -0.21035530549E+02 -0.18847568981E+02  0.44219271152E+01  0.28588071663E+02  0.00000000000E+00 0. -1.
         11    1    4    4    0    0  0.26607867467E+02 -0.22659036637E+02 -0.11414377653E+03  0.11937425297E+03  0.00000000000E+00 0.  1.
          1    1    1    2  501    0 -0.48181275211E+02 -0.32435173170E+02 -0.41060938997E+02  0.71129996843E+02  0.00000000000E+00 0. -1.
<scales pt_clust_5="13000.00000" pt_clust_6="13000.00000" pt_clust_7="13000.00000" pt_clust_8="13000.00000" pt_clust_9="58.08163"></scales>
<clustering>
<clus scale="   58.082">  2  9  1 -1</clus>
<clus scale="   80.166">  5  6 -1 -1</clus>
<clus scale="   90.001">  7  8 -1 -1</clus>
<clus scale="  111.150">  1  5  2 -1</clus>
<clus scale="   58.082">  2  5  1 -1</clus>
</clustering>
</event>
<event>
 9    2  0.4653788E-005  0.1242123E+03  0.7546771E-02  0.1240199E+00
          2   -1    0    0  502    0 -0.00000000000E+00  0.00000000000E+00  0.10242840426E+03  0.10242840426E+03  0.00000000000E+00 0. -1.
         21   -1    0    0  501  502  0.00000000000E+00 -0.00000000000E+00 -0.21064378609E+03  0.21064378609E+03  0.00000000000E+00 0. -1.
         24    2    1    2    0    0 -0.39150938616E+02 -0.68366263290E+02  0.33471302848E+01  0.11054514437E+03  0.77474406822E+02 0.  0.
         23    2    1    2    0    0  0.72293228893E+02  0.70398607634E+02 -0.89205782690E+02  0.16249749216E+03  0.90914731434E+02 0.  0.
        -11    1    3    3    0    0 -0.39778706193E+02 -0.62121946394E+02 -0.27755791536E+02  0.78815389703E+02  0.00000000000E+00 0.  1.
         12    1    3    3    0    0  0.62776757753E+00 -0.62443168962E+01  0.31102921821E+02  0.31729754670E+02  0.00000000000E+00 0. -1.
        -11    1    4    4    0    0  0.24430327088E+02 -0.19572198090E+02 -0.35401180064E+02  0.47256273336E+02  0.00000000000E+00 0.  1.
         11    1    4    4    0    0  0.47862901805E+02  0.89970805724E+02 -0.53804602626E+02  0.11524121882E+03  0.00000000000E+00 0. -1.
          1    1    1    2  501    0 -0.33142290277E+02 -0.20323443437E+01 -0.22356729429E+02  0.40029553821E+02  0.00000000000E+00 0. -1.
<scales pt_clust_5="13000.00000" pt_clust_6="13000.00000" pt_clust_7="13000.00000" pt_clust_8="13000.00000" pt_clust_9="33.20455"></scales>
<clustering>
<clus scale="   33.205">  2  9  1 -1</clus>
<clus scale="   77.474">  5  6 -1 -1</clus>
<clus scale="   90.915">  7  8 -1 -1</clus>
<clus scale="  114.741">  1  5  2 -1</clus>
<clus scale="   33.205">  2  5  1 -1</clus>
</clustering>
</event>
<event>
 9    2  0.4653788E-005  0.9180414E+02  0.7546771E-02  0.1312461E+00
         21   -1    0    0  501  502  0.00000000000E+00  0.00000000000E+00  0.65611398027E+02  0.65611398027E+02  0.00000000000E+00 0.  1.
         -1   -1    0    0    0  501 -0.00000000000E+00 -0.00000000000E+00 -0.61340831626E+03  0.61340831626E+03  0.00000000000E+00 0.  1.
         24    2    1    2    0    0  0.27882871565E+01 -0.20223118572E+02 -0.47276972660E+03  0.47822797582E+03  0.69094380328E+02 0.  0.
         23    2    1    2    0    0  0.19212951631E+02 -0.11717844747E+01 -0.11688535072E+03  0.14888892672E+03  0.90195436124E+02 0.  0.
        -13    1    3    3    0    0  0.35599428309E+01 -0.42971612524E+02 -0.20461171834E+03  0.20910568610E+03  0.00000000000E+00 0.  1.
         14    1    3    3    0    0 -0.77165567442E+00  0.22748493952E+02 -0.26815800826E+03  0.26912228972E+03  0.00000000000E+00 0. -1.
        -13    1    4    4    0    0 -0.82833062564E+01  0.34338860632E+02 -0.89665436519E+02  0.96372511736E+02  0.00000000000E+00 0. -1.
         13    1    4    4    0    0  0.27496257887E+02 -0.35510645107E+02 -0.27219914202E+02  0.52516414985E+02  0.00000000000E+00 0.  1.
         -2    1    1    2    0  502 -0.22001238787E+02  0.21394903047E+02  0.41858159093E+02  0.51902811747E+02  0.00000000000E+00 0.  1.
<scales pt_clust_5="13000.00000" pt_clust_6="13000.00000" pt_clust_7="13000.00000" pt_clust_8="13000.00000" pt_clust_9="30.68870"></scales>
<clustering>
<clus scale="   30.689">  1  9  2 -1</clus>
<clus scale="   69.094">  5  6 -1 -1</clus>
<clus scale="   71.182">  2  5  1 -1</clus>
<clus scale="   90.195">  7  8 -1 -1</clus>
<clus scale="   30.689">  1  5  2 -1</clus>
</clustering>
</event>
<event>
 9    2  0.4653788E-005  0.3810716E+03  0.7546771E-02  0.1050538E+00
          2   -1    0    0  502    0 -0.00000000000E+00  0.00000000000E+00  0.78139847117E+03  0.78139847117E+03  0.00000000000E+00 0. -1.
         21   -1    0    0  501  502  0.00000000000E+00 -0.00000000000E+00 -0.17423944625E+03  0.17423944625E+03  0.00000000000E+00 0. -1.
         24    2    1    2    0    0 -0.65137249188E+02  0.23934365313E+03  0.38699843641E+03  0.46672077337E+03  0.80822304993E+02 0.  0.
         23    2    1    2    0    0 -0.55761033989E+02  0.45251538079E+02  0.11241090993E+03  0.16147125392E+03  0.90993178641E+02 0.  0.
        -11    1    3    3    0    0 -0.67027327275E+02  0.13221089008E+03  0.27041292864E+03  0.30837563787E+03  0.00000000000E+00 0.  1.
         12    1    3    3    0    0  0.18900780864E+01  0.10713276304E+03  0.11658550777E+03  0.15834513550E+03  0.00000000000E+00 0. -1.
        -13    1    4    4    0    0  0.13283094644E+02  0.28578509770E+02  0.74648535426E+02  0.81028239925E+02  0.00000000000E+00 0.  1.
         13    1    4    4    0    0 -0.69044128632E+02  0.16673028309E+02  0.37762374508E+02  0.80443013991E+02  0.00000000000E+00 0. -1.
          1    1    1    2  501    0  0.12089828318E+03 -0.28459519121E+03  0.10774967858E+03  0.32744589014E+03  0.00000000000E+00 0. -1.
<scales pt_clust_5="13000.00000" pt_clust_6="13000.00000" pt_clust_7="13000.00000" pt_clust_8="13000.00000" pt_clust_9="309.20999"></scales>
<clustering>
<clus scale="   80.822">  5  6 -1 -1</clus>
<clus scale="   90.993">  7  8 -1 -1</clus>
<clus scale="  103.087">  5  7 -1 -1</clus>
<clus scale="  309.210">  2  9  1 -1</clus>
<clus scale="  309.210">  2  5  1 -1</clus>
</clustering>
</event>
<event>
 9    2  0.4653788E-005  0.1170543E+03  0.7546771E-02  0.1249580E+00
          2   -1    0    0  502    0 -0.00000000000E+00  0.00000000000E+00  0.43818711419E+03  0.43818711419E+03  0.00000000000E+00 0. -1.
         21   -1    0    0  501  502  0.00000000000E+00 -0.00000000000E+00 -0.21766968487E+03  0.21766968487E+03  0.00000000000E+00 0. -1.
         24    2    1    2    0    0  0.75083229429E+02  0.24547098656E+02  0.20427312695E+03  0.23352567528E+03  0.81035049359E+02 0.  0.
         23    2    1    2    0    0 -0.29877504163E+02 -0.10200414600E+03  0.18571260340E+03  0.23059521990E+03  0.85950411975E+02 0.  0.
        -13    1    3    3    0    0  0.24678566830E+02  0.47320506128E+02  0.67905137914E+02  0.86367642761E+02  0.00000000000E+00 0.  1.
         14    1    3    3    0    0  0.50404662599E+02 -0.22773407472E+02  0.13636798904E+03  0.14715803252E+03  0.00000000000E+00 0. -1.
        -11    1    4    4    0    0  0.25250989958E+02 -0.55900768875E+02  0.11169148529E+03  0.12742643502E+03  0.00000000000E+00 0.  1.
         11    1    4    4    0    0 -0.55128494121E+02 -0.46103377126E+02  0.74021118116E+02  0.10316878488E+03  0.00000000000E+00 0. -1.
          1    1    1    2  501    0 -0.45205725266E+02  0.77457047346E+02 -0.16946830104E+03  0.19173590389E+03  0.00000000000E+00 0. -1.
<scales pt_clust_5="13000.00000" pt_clust_6="13000.00000" pt_clust_7="13000.00000" pt_clust_8="13000.00000" pt_clust_9="89.68362"></scales>
<clustering>
<clus scale="   81.035">  5  6 -1 -1</clus>
<clus scale="   85.950">  7  8 -1 -1</clus>
<clus scale="   89.684">  2  9  1 -1</clus>
<clus scale="  113.494">  1  5  2 -1</clus>
<clus scale="   89.684">  2  5  1 -1</clus>
</clustering>
</event>
<event>
 9    2  0.4653788E-005  0.9525758E+02  0.7546771E-02  0.1296203E+00
         21   -1    0    0  501  502  0.00000000000E+00  0.00000000000E+00  0.26860494866E+03  0.26860494866E+03  0.00000000000E+00 0.  1.
         -1   -1    0    0    0  501 -0.00000000000E+00 -0.00000000000E+00 -0.80797261350E+02  0.80797261350E+02  0.00000000000E+00 0.  1.
         23    2    1    2    0    0 -0.98904280758E+01 -0.29825569267E+02  0.67653633949E+01  0.97007363469E+02  0.91527445478E+02 0.  0.
         24    2    1    2    0    0 -0.56244622786E+02  0.12705416918E+02  0.14217381725E+03  0.17379646628E+03  0.81651283943E+02 0.  0.
        -11    1    4    4    0    0 -0.61593679703E+02  0.37920671198E+02  0.11831451131E+03  0.13867257216E+03  0.00000000000E+00 0.  1.
         12    1    4    4    0    0  0.53490569168E+01 -0.25215254280E+02  0.23859305944E+02  0.35123894124E+02  0.00000000000E+00 0. -1.
        -13    1    3    3    0    0  0.33486137085E+02  0.98007476023E+01  0.14431187995E+02  0.37757584899E+02  0.00000000000E+00 0. -1.
         13    1    3    3    0    0 -0.43376565161E+02 -0.39626316869E+02 -0.76658246002E+01  0.59249778570E+02  0.00000000000E+00 0.  1.
         -2    1    1    2    0  502  0.66135050862E+02  0.17120152349E+02  0.38868506666E+02  0.78598380259E+02  0.00000000000E+00 0.  1.
<scales pt_clust_5="13000.00000" pt_clust_6="13000.00000" pt_clust_7="13000.00000" pt_clust_8="13000.00000" pt_clust_9="68.31507"></scales>
<clustering>
<clus scale="   68.315">  1  9  2 -1</clus>
<clus scale="   81.651">  5  6 -1 -1</clus>
<clus scale="   85.812">  1  5  2 -1</clus>
<clus scale="   91.527">  7  8 -1 -1</clus>
<clus scale="   68.315">  1  5  2 -1</clus>
</clustering>
</event>
<event>
 9    2  0.4653788E-005  0.1246808E+03  0.7546771E-02  0.1238493E+00
         21   -1    0    0  501  502  0.00000000000E+00  0.00000000000E+00  0.17478702895E+03  0.17478702895E+03  0.00000000000E+00 0. -1.
         -1   -1    0    0    0  501 -0.00000000000E+00 -0.00000000000E+00 -0.13330275845E+03  0.13330275845E+03  0.00000000000E+00 0.  1.
         24    2    1    2    0    0  0.67194748927E+02  0.65999532360E+02 -0.51197693914E+02  0.13395429755E+03  0.80321089482E+02 0.  0.
         23    2    1    2    0    0 -0.57020919771E+02 -0.37101196220E+02  0.56020605529E+02  0.12635813259E+03  0.90554874945E+02 0.  0.
        -13    1    3    3    0    0  0.76933732076E+02  0.55689389379E+02 -0.64261510229E+02  0.11467191861E+03  0.00000000000E+00 0.  1.
         14    1    3    3    0    0 -0.97389831487E+01  0.10310142980E+02  0.13063816314E+02  0.19282378944E+02  0.00000000000E+00 0. -1.
        -13    1    4    4    0    0 -0.71296923057E+02 -0.51725455965E+02  0.58545733606E+02  0.10576567002E+03  0.00000000000E+00 0. -1.
         13    1    4    4    0    0  0.14276003286E+02  0.14624259745E+02 -0.25251280776E+01  0.20592462570E+02  0.00000000000E+00 0.  1.
         -2    1    1    2    0  502 -0.10173829156E+02 -0.28898336139E+02  0.36661358884E+02  0.47777357258E+02  0.00000000000E+00 0.  1.
<scales pt_clust_5="13000.00000" pt_clust_6="13000.00000" pt_clust_7="13000.00000" pt_clust_8="13000.00000" pt_clust_9="30.63692"></scales>
<clustering>
<clus scale="   30.637">  1  9  2 -1</clus>
<clus scale="   80.321">  5  6 -1 -1</clus>
<clus scale="   90.555">  7  8 -1 -1</clus>
<clus scale="  117.459">  2  5  1 -1</clus>
<clus scale="   30.637">  1  5  2 -1</clus>
</clustering>
</event>
<event>
 9    2  0.4653788E-005  0.1065218E+03  0.7546771E-02  0.1269981E+00
         21   -1    0    0  501  502  0.00000000000E+00  0.00000000000E+00  0.75498059439E+02  0.75498059439E+02  0.00000000000E+00 0.  1.
          2   -1    0    0  502    0 -0.00000000000E+00 -0.00000000000E+00 -0.43507655733E+03  0.43507655733E+03  0.00000000000E+00 0. -1.
         24    2    1    2    0    0 -0.18925021606E+02  0.53938122415E+02 -0.33001973496E+03  0.34450131326E+03  0.80626620175E+02 0.  0.
         23    2    1    2    0    0  0.55803890161E+01 -0.89035193636E+02 -0.15637547109E+02  0.12602728152E+03  0.87635246115E+02 0.  0.
        -13    1    3    3    0    0 -0.31176861963E+02  0.36690187934E+02 -0.78470987311E+02  0.92064447329E+02  0.00000000000E+00 0.  1.
         14    1    3    3    0    0  0.12251840358E+02  0.17247934481E+02 -0.25154874765E+03  0.25243686593E+03  0.00000000000E+00 0. -1.
        -13    1    4    4    0    0 -0.28972481400E+02 -0.84926160107E+02 -0.60580889814E+01  0.89936409707E+02  0.00000000000E+00 0.  1.
         13    1    4    4    0    0  0.34552870416E+02 -0.41090335287E+01 -0.95794581275E+01  0.36090871817E+02  0.00000000000E+00 0. -1.
          1    1    1    2  501    0  0.13344632590E+02  0.35097071220E+02 -0.13921215826E+02  0.40046021991E+02  0.00000000000E+00 0. -1.
<scales pt_clust_5="13000.00000" pt_clust_6="13000.00000" pt_clust_7="13000.00000" pt_clust_8="13000.00000" pt_clust_9="37.54842"></scales>
<clustering>
<clus scale="   37.548">  1  9  2 -1</clus>
<clus scale="   80.627">  5  6 -1 -1</clus>
<clus scale="   87.635">  7  8 -1 -1</clus>
<clus scale="  100.835">  2  5  1 -1</clus>
<clus scale="   37.548">  1  5  2 -1</clus>
</clustering>
</event>
<event>
 9    2  0.4653788E-005  0.1831827E+03  0.7546771E-02  0.1166002E+00
          2   -1    0    0  502    0 -0.00000000000E+00  0.00000000000E+00  0.13644428695E+04  0.13644428695E+04  0.00000000000E+00 0. -1.
         21   -1    0    0  501  502  0.00000000000E+00 -0.00000000000E+00 -0.36003484251E+02  0.36003484251E+02  0.00000000000E+00 0. -1.
         23    2    1    2    0    0  0.13859001210E+03  0.28847463601E+02  0.52321689952E+03  0.54969267333E+03  0.91469905224E+02 0.  0.
         24    2    1    2    0    0 -0.15865391293E+03 -0.97571314272E+02  0.58813274937E+03  0.62216347634E+03  0.80597983587E+02 0.  0.
        -13    1    4    4    0    0 -0.38160292551E+02  0.12071123577E+02  0.11344856902E+03  0.12030169477E+03  0.00000000000E+00 0.  1.
         14    1    4    4    0    0 -0.12049362038E+03 -0.10964243785E+03  0.47468418034E+03  0.50186178157E+03  0.00000000000E+00 0. -1.
        -11    1    3    3    0    0  0.38672028426E+02 -0.12372062038E+01  0.41239103265E+02  0.56548387244E+02  0.00000000000E+00 0.  1.
         11    1    3    3    0    0  0.99917983671E+02  0.30084669804E+02  0.48197779625E+03  0.49314428609E+03  0.00000000000E+00 0. -1.
          1    1    1    2  501    0  0.20063900829E+02  0.68723850672E+02  0.21708973638E+03  0.22859020410E+03  0.00000000000E+00 0. -1.
<scales pt_clust_5="13000.00000" pt_clust_6="13000.00000" pt_clust_7="13000.00000" pt_clust_8="13000.00000" pt_clust_9="71.59283"></scales>
<clustering>
<clus scale="   71.593">  2  9  1 -1</clus>
<clus scale="   80.598">  5  6 -1 -1</clus>
<clus scale="   91.470">  7  8 -1 -1</clus>
<clus scale="  178.003">  2  5  1 -1</clus>
<clus scale="   71.593">  2  5  1 -1</clus>
</clustering>
</event>
<event>
 9    2  0.4653788E-005  0.1955729E+03  0.7546771E-02  0.1154555E+00
         21   -1    0    0  501  502  0.00000000000E+00  0.00000000000E+00  0.79458544780E+02  0.79458544780E+02  0.00000000000E+00 0.  1.
          2   -1    0    0  502    0 -0.00000000000E+00 -0.00000000000E+00 -0.11074079930E+04  0.11074079930E+04  0.00000000000E+00 0. -1.
         24    2    1    2    0    0 -0.13314030874E+03 -0.11493886600E+03 -0.71443696525E+03  0.74015507815E+03  0.80449224159E+02 0.  0.
         23    2    1    2    0    0  0.56744736907E+02  0.17383216971E+03 -0.13815252775E+03  0.24657196200E+03  0.90961657467E+02 0.  0.
        -11    1    3    3    0    0 -0.94654843840E+02 -0.12184865021E+03 -0.57424015003E+03  0.59460775552E+03  0.00000000000E+00 0.  1.
         12    1    3    3    0    0 -0.38485464898E+02  0.69097842125E+01 -0.14019681521E+03  0.14554732262E+03  0.00000000000E+00 0. -1.
        -11    1    4    4    0    0  0.20650517743E+02  0.85274407787E+02 -0.12092419148E+03  0.14940156824E+03  0.00000000000E+00 0. -1.
         11    1    4    4    0    0  0.36094219165E+02  0.88557761925E+02 -0.17228336271E+02  0.97170393768E+02  0.00000000000E+00 0.  1.
          1    1    1    2  501    0  0.76395571831E+02 -0.58893303712E+02 -0.17535995526E+03  0.20013949767E+03  0.00000000000E+00 0. -1.
<scales pt_clust_5="13000.00000" pt_clust_6="13000.00000" pt_clust_7="13000.00000" pt_clust_8="13000.00000" pt_clust_9="96.46095"></scales>
<clustering>
<clus scale="   80.449">  5  6 -1 -1</clus>
<clus scale="   90.962">  7  8 -1 -1</clus>
<clus scale="   96.461">  1  9  2 -1</clus>
<clus scale="  190.910">  2  5  1 -1</clus>
<clus scale="   96.461">  1  5  2 -1</clus>
</clustering>
</event>
<event>
 9    2  0.4653788E-005  0.9610709E+02  0.7546771E-02  0.1294319E+00
          2   -1    0    0  502    0 -0.00000000000E+00  0.00000000000E+00  0.94754918548E+03  0.94754918548E+03  0.00000000000E+00 0. -1.
         21   -1    0    0  501  502  0.00000000000E+00 -0.00000000000E+00 -0.27453924003E+02  0.27453924003E+02  0.00000000000E+00 0.  1.
         23    2    1    2    0    0 -0.52433057901E+01 -0.23845708508E+02  0.20944646818E+03  0.22734834046E+03  0.84990204191E+02 0.  0.
         24    2    1    2    0    0  0.64155963630E+02  0.59359716529E+02  0.18536536420E+03  0.21788630365E+03  0.73990265959E+02 0.  0.
        -11    1    4    4    0    0  0.47643514222E+02  0.61890242992E+02  0.82246464425E+02  0.11342304676E+03  0.00000000000E+00 0.  1.
         12    1    4    4    0    0  0.16512449408E+02 -0.25305264627E+01  0.10311889978E+03  0.10446325689E+03  0.00000000000E+00 0. -1.
        -13    1    3    3    0    0 -0.43655287118E+02 -0.18187154913E+02  0.14017508075E+03  0.14793785844E+03  0.00000000000E+00 0.  1.
         13    1    3    3    0    0  0.38411981327E+02 -0.56585535943E+01  0.69271387423E+02  0.79410482015E+02  0.00000000000E+00 0. -1.
          1    1    1    2  501    0 -0.58912657840E+02 -0.35514008021E+02  0.52528342909E+03  0.52976846537E+03  0.00000000000E+00 0. -1.
<scales pt_clust_5="13000.00000" pt_clust_6="13000.00000" pt_clust_7="13000.00000" pt_clust_8="13000.00000" pt_clust_9="68.78918"></scales>
<clustering>
<clus scale="   68.789">  2  9  1 -1</clus>
<clus scale="   73.990">  5  6 -1 -1</clus>
<clus scale="   84.990">  7  8 -1 -1</clus>
<clus scale="   86.532">  2  5  1 -1</clus>
<clus scale="   68.789">  2  5  1 -1</clus>
</clustering>
</event>
<event>
 9    2  0.4653788E-005  0.9812829E+02  0.7546771E-02  0.1289668E+00
          2   -1    0    0  502    0 -0.00000000000E+00  0.00000000000E+00  0.23112878717E+03  0.23112878717E+03  0.00000000000E+00 0. -1.
         21   -1    0    0  501  502  0.00000000000E+00 -0.00000000000E+00 -0.25154416553E+03  0.25154416553E+03  0.00000000000E+00 0.  1.
         23    2    1    2    0    0 -0.30230626561E+02  0.13816580723E+02  0.19142507297E+03  0.21467933573E+03  0.91317413149E+02 0.  0.
         24    2    1    2    0    0  0.55411310172E+02 -0.15693760605E+02 -0.64551635406E+02  0.11855605165E+03  0.81067356755E+02 0.  0.
        -11    1    4    4    0    0  0.54468588822E+02  0.19857627854E+02 -0.58718891570E+02  0.82517033269E+02  0.00000000000E+00 0.  1.
         12    1    4    4    0    0  0.94272135021E+00 -0.35551388459E+02 -0.58327438363E+01  0.36039018377E+02  0.00000000000E+00 0. -1.
        -11    1    3    3    0    0  0.22359048315E+02  0.94901981315E+01  0.13600236461E+03  0.13815438495E+03  0.00000000000E+00 0.  1.
         11    1    3    3    0    0 -0.52589674876E+02  0.43263825917E+01  0.55422708357E+02  0.76524950778E+02  0.00000000000E+00 0. -1.
          1    1    1    2  501    0 -0.25180683611E+02  0.18771798814E+01 -0.14728881592E+03  0.14943756531E+03  0.00000000000E+00 0. -1.
<scales pt_clust_5="13000.00000" pt_clust_6="13000.00000" pt_clust_7="13000.00000" pt_clust_8="13000.00000" pt_clust_9="25.25056"></scales>
<clustering>
<clus scale="   25.251">  2  9  1 -1</clus>
<clus scale="   81.067">  5  6 -1 -1</clus>
<clus scale="   88.669">  2  5  1 -1</clus>
<clus scale="   91.317">  7  8 -1 -1</clus>
<clus scale="   25.251">  2  5  1 -1</clus>
</clustering>
</event>
<event>
 9    2  0.4653788E-005  0.3017436E+03  0.7546771E-02  0.1114175E+00
          2   -1    0    0  502    0 -0.00000000000E+00  0.00000000000E+00  0.96610968606E+03  0.96610968606E+03  0.00000000000E+00 0. -1.
         21   -1    0    0  501  502  0.00000000000E+00 -0.00000000000E+00 -0.14914741506E+03  0.14914741506E+03  0.00000000000E+00 0. -1.
         23    2    1    2    0    0 -0.10371823578E+03 -0.94967781855E+01  0.21123700935E+03  0.25291548938E+03  0.92181936522E+02 0.  0.
         24    2    1    2    0    0  0.32764756524E+03  0.12687881160E+03  0.37422821010E+03  0.51953879489E+03  0.80141414536E+02 0.  0.
        -11    1    4    4    0    0  0.10456389239E+03  0.54390672197E+02  0.17919877727E+03  0.21448579111E+03  0.00000000000E+00 0.  1.
         12    1    4    4    0    0  0.22308367284E+03  0.72488139407E+02  0.19502943282E+03  0.30505300377E+03  0.00000000000E+00 0. -1.
        -11    1    3    3    0    0 -0.23776938284E+02  0.22797880641E+02  0.10708384620E+02  0.34637489185E+02  0.00000000000E+00 0.  1.
         11    1    3    3    0    0 -0.79941297493E+02 -0.32294658826E+02  0.20052862473E+03  0.21827800019E+03  0.00000000000E+00 0. -1.
          1    1    1    2  501    0 -0.22392932946E+03 -0.11738203342E+03  0.23149705156E+03  0.34280281685E+03  0.00000000000E+00 0. -1.
<scales pt_clust_5="13000.00000" pt_clust_6="13000.00000" pt_clust_7="13000.00000" pt_clust_8="13000.00000" pt_clust_9="290.90640"></scales>
<clustering>
<clus scale="   80.141">  5  6 -1 -1</clus>
<clus scale="   92.182">  7  8 -1 -1</clus>
<clus scale="  139.087">  1  7  2 -1</clus>
<clus scale="  290.906">  2  9  1 -1</clus>
<clus scale="  290.906">  2  5  1 -1</clus>
</clustering>
</event>
<event>
 9    2  0.4653788E-005  0.2081422E+03  0.7546771E-02  0.1145329E+00
         21   -1    0    0  501  502  0.00000000000E+00  0.00000000000E+00  0.21285524919E+03  0.21285524919E+03  0.00000000000E+00 0. -1.
          2   -1    0    0  502    0 -0.00000000000E+00 -0.00000000000E+00 -0.68747511298E+03  0.68747511298E+03  0.00000000000E+00 0. -1.
         23    2    1    2    0    0 -0.17288349776E+03 -0.21649547138E+02 -0.40880853237E+03  0.45382897781E+03  0.92081041885E+02 0.  0.
         24    2    1    2    0    0  0.51832230342E+02 -0.18037710440E+03 -0.15184289813E+02  0.20560457114E+03  0.82584484751E+02 0.  0.
        -13    1    4    4    0    0  0.59729905619E+01 -0.83434933346E+02 -0.44060293966E+02  0.94542975535E+02  0.00000000000E+00 0.  1.
         14    1    4    4    0    0  0.45859239780E+02 -0.96942171057E+02  0.28876004153E+02  0.11106159560E+03  0.00000000000E+00 0. -1.
        -13    1    3    3    0    0 -0.46188973933E+02 -0.40421181800E+02 -0.19667163456E+03  0.20602675819E+03  0.00000000000E+00 0.  1.
         13    1    3    3    0    0 -0.12669452383E+03  0.18771634662E+02 -0.21213689781E+03  0.24780221962E+03  0.00000000000E+00 0. -1.
          1    1    1    2  501    0  0.12105126742E+03  0.20202665154E+03 -0.50627041615E+02  0.24089681322E+03  0.00000000000E+00 0. -1.
<scales pt_clust_5="13000.00000" pt_clust_6="13000.00000" pt_clust_7="13000.00000" pt_clust_8="13000.00000" pt_clust_9="191.05766"></scales>
<clustering>
<clus scale="   82.584">  5  6 -1 -1</clus>
<clus scale="   92.081">  7  8 -1 -1</clus>
<clus scale="  197.069">  2  7  1 -1</clus>
<clus scale="  191.058">  1  9  2 -1</clus>
<clus scale="  191.058">  1  5  2 -1</clus>
</clustering>
</event>
<event>
 9    2  0.4653788E-005  0.1344307E+03  0.7546771E-02  0.1224620E+00
          2   -1    0    0  502    0 -0.00000000000E+00  0.00000000000E+00  0.21036595924E+03  0.21036595924E+03  0.00000000000E+00 0. -1.
         21   -1    0    0  501  502  0.00000000000E+00 -0.00000000000E+00 -0.14717255682E+03  0.14717255682E+03  0.00000000000E+00 0. -1.
         24    2    1    2    0    0 -0.10479270071E+03 -0.37602991887E+02  0.93597973922E+02  0.16559056719E+03  0.79146447170E+02 0.  0.
         23    2    1    2    0    0  0.54893575447E+02  0.14258886803E+02 -0.64531494065E+02  0.12714427006E+03  0.93726896905E+02 0.  0.
        -13    1    3    3    0    0 -0.28019772012E+02  0.26304510051E+01  0.70469559338E+02  0.75881392248E+02  0.00000000000E+00 0.  1.
         14    1    3    3    0    0 -0.76772928701E+02 -0.40233442892E+02  0.23128414583E+02  0.89709174946E+02  0.00000000000E+00 0. -1.
        -11    1    4    4    0    0  0.21855374055E+02  0.34023541519E+02 -0.76751254899E+02  0.86752601582E+02  0.00000000000E+00 0. -1.
         11    1    4    4    0    0  0.33038201392E+02 -0.19764654717E+02  0.12219760834E+02  0.40391668474E+02  0.00000000000E+00 0.  1.
          1    1    1    2  501    0  0.49899125266E+02  0.23344105084E+02  0.34126922561E+02  0.64803678815E+02  0.00000000000E+00 0. -1.
<scales pt_clust_5="13000.00000" pt_clust_6="13000.00000" pt_clust_7="13000.00000" pt_clust_8="13000.00000" pt_clust_9="55.08968"></scales>
<clustering>
<clus scale="   55.090">  2  9  1 -1</clus>
<clus scale="   79.146">  5  6 -1 -1</clus>
<clus scale="   93.727">  7  8 -1 -1</clus>
<clus scale="  124.704">  1  5  2 -1</clus>
<clus scale="   55.090">  2  5  1 -1</clus>
</clustering>
</event>
<event>
 9    2  0.4653788E-005  0.9490014E+02  0.7546771E-02  0.1296828E+00
         21   -1    0    0  501  502  0.00000000000E+00  0.00000000000E+00  0.23977498264E+03  0.23977498264E+03  0.00000000000E+00 0.  1.
         -1   -1    0    0    0  501 -0.00000000000E+00 -0.00000000000E+00 -0.10199567331E+03  0.10199567331E+03  0.00000000000E+00 0.  1.
         24    2    1    2    0    0  0.31939166285E+02 -0.15065118179E+02 -0.12194594902E+02  0.89513779828E+02  0.81344578834E+02 0.  0.
         23    2    1    2    0    0  0.76711194592E+01 -0.11695856763E+02  0.17544433611E+03  0.19809168973E+03  0.90906343723E+02 0.  0.
        -13    1    3    3    0    0 -0.39008190828E+00 -0.44686869072E+02 -0.86946190873E+01  0.45526528887E+02  0.00000000000E+00 0.  1.
         14    1    3    3    0    0  0.32329248193E+02  0.29621750894E+02 -0.34999758146E+01  0.43987250942E+02  0.00000000000E+00 0. -1.
        -11    1    4    4    0    0  0.99667479013E+01 -0.49142250921E+02  0.69496195546E+02  0.85697246658E+02  0.00000000000E+00 0.  1.
         11    1    4    4    0    0 -0.22956284421E+01  0.37446394158E+02  0.10594814056E+03  0.11239444307E+03  0.00000000000E+00 0. -1.
         -2    1    1    2    0  502 -0.39610285744E+02  0.26760974942E+02 -0.25470431871E+02  0.54165186386E+02  0.00000000000E+00 0.  1.
<scales pt_clust_5="13000.00000" pt_clust_6="13000.00000" pt_clust_7="13000.00000" pt_clust_8="13000.00000" pt_clust_9="47.80300"></scales>
<clustering>
<clus scale="   47.803">  1  9  2 -1</clus>
<clus scale="   81.345">  5  6 -1 -1</clus>
<clus scale="   85.785">  2  5  1 -1</clus>
<clus scale="   90.906">  7  8 -1 -1</clus>
<clus scale="   47.803">  1  5  2 -1</clus>
</clustering>
</event>
<event>
 9    2  0.4653788E-005  0.1248554E+03  0.7546771E-02  0.1236017E+00
         21   -1    0    0  501  502  0.00000000000E+00  0.00000000000E+00  0.93214660685E+02  0.93214660685E+02  0.00000000000E+00 0. -1.
          2   -1    0    0  502    0 -0.00000000000E+00 -0.00000000000E+00 -0.50877929990E+03  0.50877929990E+03  0.00000000000E+00 0. -1.
         23    2    1    2    0    0  0.14201090538E+02 -0.12153221302E+03 -0.13580406818E+03  0.19997302140E+03  0.81084613727E+02 0.  0.
         24    2    1    2    0    0  0.20584898764E+02  0.48733336182E+02  0.15701507970E+02  0.95740705323E+02  0.78237262163E+02 0.  0.
        -13    1    4    4    0    0  0.23164319415E+02 -0.68499116040E+01 -0.18500564503E+02  0.30426598066E+02  0.00000000000E+00 0.  1.
         14    1    4    4    0    0 -0.25794206509E+01  0.55583247786E+02  0.34202072473E+02  0.65314107257E+02  0.00000000000E+00 0. -1.
        -11    1    3    3    0    0 -0.27172027889E+02 -0.63830225978E+02 -0.96409413161E+02  0.11877454186E+03  0.00000000000E+00 0.  1.
         11    1    3    3    0    0  0.41373118427E+02 -0.57701987038E+02 -0.39394655014E+02  0.81198479543E+02  0.00000000000E+00 0. -1.
          1    1    1    2  501    0 -0.34785989302E+02  0.72798876833E+02 -0.29546207901E+03  0.30628023386E+03  0.00000000000E+00 0. -1.
<scales pt_clust_5="13000.00000" pt_clust_6="13000.00000" pt_clust_7="13000.00000" pt_clust_8="13000.00000" pt_clust_9="80.68301"></scales>
<clustering>
<clus scale="   78.237">  5  6 -1 -1</clus>
<clus scale="   80.683">  1  9  2 -1</clus>
<clus scale="   81.085">  7  8 -1 -1</clus>
<clus scale="  123.025">  1  5  2 -1</clus>
<clus scale="   80.683">  1  5  2 -1</clus>
</clustering>
</event>
<event>
 9    2  0.4653788E-005  0.1254364E+03  0.7546771E-02  0.1237364E+00
         21   -1    0    0  501  502  0.00000000000E+00  0.00000000000E+00  0.24422024311E+02  0.24422024311E+02  0.00000000000E+00 0.  1.
          2   -1    0    0  502    0 -0.00000000000E+00 -0.00000000000E+00 -0.12170047519E+04  0.12170047519E+04  0.00000000000E+00 0. -1.
         24    2    1    2    0    0 -0.10615764747E+03 -0.59169269447E+01 -0.53903265787E+03  0.55519168845E+03  0.79857050653E+02 0.  0.
         23    2    1    2    0    0  0.53707239694E+02 -0.59532747983E+02 -0.31343447933E+03  0.33593047738E+03  0.90440572320E+02 0.  0.
        -13    1    3    3    0    0 -0.63479567092E+02  0.28559580816E+02 -0.20043556427E+03  0.21217851097E+03  0.00000000000E+00 0.  1.
         14    1    3    3    0    0 -0.42678080378E+02 -0.34476507761E+02 -0.33859709360E+03  0.34301317748E+03  0.00000000000E+00 0. -1.
        -11    1    4    4    0    0 -0.22288244035E+00 -0.64607425372E+02 -0.20098863472E+03  0.21111750371E+03  0.00000000000E+00 0.  1.
         11    1    4    4    0    0  0.53930122135E+02  0.50746773895E+01 -0.11244584462E+03  0.12481297367E+03  0.00000000000E+00 0. -1.
          1    1    1    2  501    0  0.52450407776E+02  0.65449674927E+02 -0.34011559037E+03  0.35030461035E+03  0.00000000000E+00 0. -1.
<scales pt_clust_5="13000.00000" pt_clust_6="13000.00000" pt_clust_7="13000.00000" pt_clust_8="13000.00000" pt_clust_9="83.87319"></scales>
<clustering>
<clus scale="   79.857">  5  6 -1 -1</clus>
<clus scale="   83.873">  1  9  2 -1</clus>
<clus scale="   90.441">  7  8 -1 -1</clus>
<clus scale="  118.034">  2  5  1 -1</clus>
<clus scale="   83.873">  1  5  2 -1</clus>
</clustering>
</event>
<event>
 9    2  0.4653788E-005  0.8467214E+02  0.7546771E-02  0.1328512E+00
         -3   -1    0    0    0  501 -0.00000000000E+00  0.00000000000E+00  0.28628152470E+03  0.28628152470E+03  0.00000000000E+00 0.  1.
         21   -1    0    0  501  502  0.00000000000E+00 -0.00000000000E+00 -0.17586754058E+03  0.17586754058E+03  0.00000000000E+00 0.  1.
         23    2    1    2    0    0  0.13883435953E+02  0.16756559182E+02  0.25264219864E+03  0.26175946307E+03  0.64933842520E+02 0.  0.
         24    2    1    2    0    0  0.32875654828E+02 -0.90718986393E+01 -0.11620058099E+03  0.14632571144E+03  0.82131180320E+02 0.  0.
        -11    1    4    4    0    0  0.27007230522E+02 -0.12970575686E+02 -0.48803585090E-01  0.29960452531E+02  0.00000000000E+00 0.  1.
         12    1    4    4    0    0  0.58684243060E+01  0.38986770462E+01 -0.11615177741E+03  0.11636525891E+03  0.00000000000E+00 0. -1.
        -11    1    3    3    0    0  0.37918210288E+02  0.12756664397E+02  0.19692430000E+03  0.20094701562E+03  0.00000000000E+00 0.  1.
         11    1    3    3    0    0 -0.24034774335E+02  0.39998947852E+01  0.55717898641E+02  0.60812447447E+02  0.00000000000E+00 0. -1.
         -4    1    1    2    0  502 -0.46759090781E+02 -0.76846605430E+01 -0.26027633520E+02  0.54063890768E+02  0.00000000000E+00 0.  1.
<scales pt_clust_5="13000.00000" pt_clust_6="13000.00000" pt_clust_7="13000.00000" pt_clust_8="13000.00000" pt_clust_9="47.38635"></scales>
<clustering>
<clus scale="   47.386">  2  9  1 -1</clus>
<clus scale="   64.934">  7  8 -1 -1</clus>
<clus scale="   68.119">  1  7  2 -1</clus>
<clus scale="   82.131">  5  6 -1 -1</clus>
<clus scale="   47.386">  2  5  1 -1</clus>
</clustering>
</event>
<event>
 9    2  0.4653788E-005  0.1096750E+03  0.7546771E-02  0.1265625E+00
         21   -1    0    0  501  502  0.00000000000E+00  0.00000000000E+00  0.16040584341E+03  0.16040584341E+03  0.00000000000E+00 0.  1.
         -1   -1    0    0    0  501 -0.00000000000E+00 -0.00000000000E+00 -0.16070726208E+03  0.16070726208E+03  0.00000000000E+00 0.  1.
         23    2    1    2    0    0 -0.54115954385E+02  0.19789935962E+02 -0.72861206414E+02  0.13064332925E+03  0.91862647436E+02 0.  0.
         24    2    1    2    0    0  0.70123746512E+02  0.19615323962E+02  0.27828993419E+01  0.10875173616E+03  0.80728525502E+02 0.  0.
        -11    1    4    4    0    0  0.72351924628E+02  0.29634247008E+02  0.26785687757E+02  0.82646613129E+02  0.00000000000E+00 0.  1.
         12    1    4    4    0    0 -0.22281781153E+01 -0.10018923046E+02 -0.24002788415E+02  0.26105123030E+02  0.00000000000E+00 0. -1.
        -11    1    3    3    0    0 -0.47828879034E+02 -0.11236090527E+00  0.67848933761E+01  0.48307857257E+02  0.00000000000E+00 0. -1.
         11    1    3    3    0    0 -0.62870753502E+01  0.19902296868E+02 -0.79646099791E+02  0.82335471997E+02  0.00000000000E+00 0.  1.
         -2    1    1    2    0  502 -0.16007792128E+02 -0.39405259925E+02  0.69776888409E+02  0.81718040080E+02  0.00000000000E+00 0.  1.
<scales pt_clust_5="13000.00000" pt_clust_6="13000.00000" pt_clust_7="13000.00000" pt_clust_8="13000.00000" pt_clust_9="42.53262"></scales>
<clustering>
<clus scale="   42.533">  1  9  2 -1</clus>
<clus scale="   80.729">  5  6 -1 -1</clus>
<clus scale="   91.863">  7  8 -1 -1</clus>
<clus scale="  100.533">  1  5  2 -1</clus>
<clus scale="   42.533">  1  5  2 -1</clus>
</clustering>
</event>
<event>
 9    2  0.4653788E-005  0.2273496E+03  0.7546771E-02  0.1129269E+00
         -3   -1    0    0    0  501 -0.00000000000E+00  0.00000000000E+00  0.22960552746E+03  0.22960552746E+03  0.00000000000E+00 0.  1.
         21   -1    0    0  501  502  0.00000000000E+00 -0.00000000000E+00 -0.56958189922E+03  0.56958189922E+03  0.00000000000E+00 0.  1.
         23    2    1    2    0    0  0.76239382319E+02 -0.16654938376E+03  0.46157717720E+02  0.20959946864E+03  0.90830951225E+02 0.  0.
         24    2    1    2    0    0 -0.83369031874E+02  0.28689104568E+03 -0.20156985529E+03  0.36914090309E+03  0.79860705030E+02 0.  0.
        -13    1    4    4    0    0 -0.69424895417E+01  0.13057523560E+03 -0.55868761236E+02  0.14219496754E+03  0.00000000000E+00 0.  1.
         14    1    4    4    0    0 -0.76426542332E+02  0.15631581008E+03 -0.14570109405E+03  0.22694593555E+03  0.00000000000E+00 0. -1.
        -11    1    3    3    0    0  0.60326441254E+02 -0.10306779681E+03  0.71757921475E+02  0.13932497819E+03  0.00000000000E+00 0.  1.
         11    1    3    3    0    0  0.15912941065E+02 -0.63481586948E+02 -0.25600203756E+02  0.70274490444E+02  0.00000000000E+00 0. -1.
         -4    1    1    2    0  502  0.71296495547E+01 -0.12034166192E+03 -0.18456423419E+03  0.22044705496E+03  0.00000000000E+00 0.  1.
<scales pt_clust_5="13000.00000" pt_clust_6="13000.00000" pt_clust_7="13000.00000" pt_clust_8="13000.00000" pt_clust_9="120.55268"></scales>
<clustering>
<clus scale="   79.861">  5  6 -1 -1</clus>
<clus scale="   90.831">  7  8 -1 -1</clus>
<clus scale="  120.553">  2  9  1 -1</clus>
<clus scale="  223.193">  2  5  1 -1</clus>
<clus scale="  120.553">  2  5  1 -1</clus>
</clustering>
</event>
<event>
 9    2  0.4653788E-005  0.9407721E+02  0.7546771E-02  0.1296503E+00
         21   -1    0    0  501  502  0.00000000000E+00  0.00000000000E+00  0.17118461113E+03  0.17118461113E+03  0.00000000000E+00 0. -1.
          2   -1    0    0  502    0 -0.00000000000E+00 -0.00000000000E+00 -0.20794821820E+03  0.20794821820E+03  0.00000000000E+00 0. -1.
         24    2    1    2    0    0 -0.11460298956E+01  0.24286409536E+02 -0.14396959664E+03  0.16840908939E+03  0.83923974886E+02 0.  0.
         23    2    1    2    0    0 -0.21225515045E+02 -0.45249879474E+02  0.36766097290E+01  0.10275019880E+03  0.89699564180E+02 0.  0.
        -11    1    3    3    0    0  0.70471459445E+00  0.21467077864E+02  0.27471278701E+01  0.21653608618E+02  0.00000000000E+00 0.  1.
         12    1    3    3    0    0 -0.18507444900E+01  0.28193316721E+01 -0.14671672451E+03  0.14675548077E+03  0.00000000000E+00 0. -1.
        -11    1    4    4    0    0  0.34654976339E+02 -0.20428281944E+02  0.94811273027E+01  0.41330060043E+02  0.00000000000E+00 0.  1.
         11    1    4    4    0    0 -0.55880491384E+02 -0.24821597530E+02 -0.58045175738E+01  0.61420138762E+02  0.00000000000E+00 0. -1.
          1    1    1    2  501    0  0.22371544941E+02  0.20963469938E+02  0.10352937985E+03  0.10797354114E+03  0.00000000000E+00 0. -1.
<scales pt_clust_5="13000.00000" pt_clust_6="13000.00000" pt_clust_7="13000.00000" pt_clust_8="13000.00000" pt_clust_9="30.65865"></scales>
<clustering>
<clus scale="   30.659">  1  9  2 -1</clus>
<clus scale="   83.924">  5  6 -1 -1</clus>
<clus scale="   88.587">  2  5  1 -1</clus>
<clus scale="   89.700">  7  8 -1 -1</clus>
<clus scale="   30.659">  1  5  2 -1</clus>
</clustering>
</event>
<event>
 9    2  0.4653788E-005  0.4727119E+03  0.7546771E-02  0.1021289E+00
          2   -1    0    0  502    0 -0.00000000000E+00  0.00000000000E+00  0.20141809808E+04  0.20141809808E+04  0.00000000000E+00 0. -1.
         21   -1    0    0  501  502  0.00000000000E+00 -0.00000000000E+00 -0.16966291815E+03  0.16966291815E+03  0.00000000000E+00 0.  1.
         24    2    1    2    0    0 -0.44783900262E+03  0.43488212627E+01  0.12989672339E+04  0.13762938056E+04  0.79310025647E+02 0.  0.
         23    2    1    2    0    0  0.50989080843E+03 -0.44462666684E+02  0.49760599450E+03  0.71946914005E+03  0.89769440641E+02 0.  0.
        -13    1    3    3    0    0 -0.20829284148E+03 -0.37407594509E+02  0.59482993651E+03  0.63135401267E+03  0.00000000000E+00 0.  1.
         14    1    3    3    0    0 -0.23954616114E+03  0.41756415771E+02  0.70413729739E+03  0.74493979297E+03  0.00000000000E+00 0. -1.
        -11    1    4    4    0    0  0.38431474888E+03 -0.34854755772E+02  0.42517596676E+03  0.57418401486E+03  0.00000000000E+00 0. -1.
         11    1    4    4    0    0  0.12557605955E+03 -0.96079109124E+01  0.72430027738E+02  0.14528512519E+03  0.00000000000E+00 0.  1.
          1    1    1    2  501    0 -0.62051805810E+02  0.40113845422E+02  0.47944834289E+02  0.88080953298E+02  0.00000000000E+00 0. -1.
<scales pt_clust_5="13000.00000" pt_clust_6="13000.00000" pt_clust_7="13000.00000" pt_clust_8="13000.00000" pt_clust_9="73.88875"></scales>
<clustering>
<clus scale="   73.889">  2  9  1 -1</clus>
<clus scale="   79.310">  5  6 -1 -1</clus>
<clus scale="   89.769">  7  8 -1 -1</clus>
<clus scale="  470.838">  1  5  2 -1</clus>
<clus scale="   73.889">  2  5  1 -1</clus>
</clustering>
</event>
<event>
 9    2  0.4653788E-005  0.2216329E+03  0.7546771E-02  0.1165566E+00
         21   -1    0    0  501  502  0.00000000000E+00  0.00000000000E+00  0.37420387801E+02  0.37420387801E+02  0.00000000000E+00 0.  1.
         -1   -1    0    0    0  501 -0.00000000000E+00 -0.00000000000E+00 -0.19710086971E+04  0.19710086971E+04  0.00000000000E+00 0.  1.
         23    2    1    2    0    0  0.33404473943E+02  0.27070023696E+02 -0.37132044043E+03  0.38494774415E+03  0.91963314314E+02 0.  0.
         24    2    1    2    0    0 -0.67120048755E+02  0.18898587546E+03 -0.62852883959E+03  0.66447901211E+03  0.79139707294E+02 0.  0.
        -13    1    4    4    0    0 -0.18299345752E+02  0.93192168890E+02 -0.18318641535E+03  0.20634172909E+03  0.00000000000E+00 0.  1.
         14    1    4    4    0    0 -0.48820703003E+02  0.95793706573E+02 -0.44534242425E+03  0.45813728302E+03  0.00000000000E+00 0. -1.
        -13    1    3    3    0    0  0.41184051802E+02 -0.24402276996E+02 -0.14421656591E+03  0.15195399017E+03  0.00000000000E+00 0. -1.
         13    1    3    3    0    0 -0.77795778594E+01  0.51472300692E+02 -0.22710387452E+03  0.23299375397E+03  0.00000000000E+00 0.  1.
         -2    1    1    2    0  502  0.33715574812E+02 -0.21605589916E+03 -0.93373902928E+03  0.95900232864E+03  0.00000000000E+00 0.  1.
<scales pt_clust_5="13000.00000" pt_clust_6="13000.00000" pt_clust_7="13000.00000" pt_clust_8="13000.00000" pt_clust_9="207.02194"></scales>
<clustering>
<clus scale="   79.140">  5  6 -1 -1</clus>
<clus scale="   91.963">  7  8 -1 -1</clus>
<clus scale="  101.518">  2  7  1 -1</clus>
<clus scale="  207.022">  1  9  2 -1</clus>
<clus scale="  207.022">  1  5  2 -1</clus>
</clustering>
</event>
<event>
 9    2  0.4653788E-005  0.1360343E+03  0.7546771E-02  0.1221594E+00
         21   -1    0    0  501  502  0.00000000000E+00  0.00000000000E+00  0.11514967791E+03  0.11514967791E+03  0.00000000000E+00 0. -1.
          2   -1    0    0  502    0 -0.00000000000E+00 -0.00000000000E+00 -0.37275733253E+03  0.37275733253E+03  0.00000000000E+00 0. -1.
         23    2    1    2    0    0  0.80647812783E+02  0.66839024933E+02 -0.20640250745E+03  0.24945217376E+03  0.93020787740E+02 0.  0.
         24    2    1    2    0    0 -0.11285164159E+03  0.19312828568E+02 -0.39241154194E+02  0.14570589825E+03  0.81128677082E+02 0.  0.
        -11    1    4    4    0    0 -0.10817857924E+03  0.12634052519E+02 -0.59330712016E+02  0.12402563315E+03  0.00000000000E+00 0.  1.
         12    1    4    4    0    0 -0.46730623452E+01  0.66787760495E+01  0.20089557821E+02  0.21680265097E+02  0.00000000000E+00 0. -1.
        -11    1    3    3    0    0  0.88645479585E+02  0.43846634987E+02 -0.10131287638E+03  0.14157982685E+03  0.00000000000E+00 0.  1.
         11    1    3    3    0    0 -0.79976668020E+01  0.22992389947E+02 -0.10508963107E+03  0.10787234691E+03  0.00000000000E+00 0. -1.
          1    1    1    2  501    0  0.32203828806E+02 -0.86151853502E+02 -0.11963992981E+02  0.92748938429E+02  0.00000000000E+00 0. -1.
<scales pt_clust_5="13000.00000" pt_clust_6="13000.00000" pt_clust_7="13000.00000" pt_clust_8="13000.00000" pt_clust_9="91.97406"></scales>
<clustering>
<clus scale="   81.129">  5  6 -1 -1</clus>
<clus scale="   91.974">  1  9  2 -1</clus>
<clus scale="   93.021">  7  8 -1 -1</clus>
<clus scale="  128.196">  1  5  2 -1</clus>
<clus scale="   91.974">  1  5  2 -1</clus>
</clustering>
</event>
<event>
 9    2  0.1276798E-004  0.1024639E+03  0.7546771E-02  0.1280316E+00
         21   -1    0    0  501  502  0.00000000000E+00  0.00000000000E+00  0.15324139540E+03  0.15324139540E+03  0.00000000000E+00 0. -1.
         -1   -1    0    0    0  501 -0.00000000000E+00 -0.00000000000E+00 -0.33834672831E+03  0.33834672831E+03  0.00000000000E+00 0.  1.
         24    2    1    2    0    0 -0.47180893790E+02  0.21336635434E+01 -0.21954864626E+03  0.23895854351E+03  0.81663873185E+02 0.  0.
         23    2    1    2    0    0  0.59626374558E+00 -0.66074391430E+02  0.98887173564E+02  0.15059254986E+03  0.92375658290E+02 0.  0.
        -11    1    3    3    0    0 -0.53328496659E+02  0.50724725709E+00 -0.22459527087E+03  0.23084025115E+03  0.00000000000E+00 0.  1.
         12    1    3    3    0    0  0.61476028698E+01  0.16264162863E+01  0.50466246045E+01  0.81182923623E+01  0.00000000000E+00 0. -1.
        -13    1    4    4    0    0  0.31954890279E+02 -0.61945903293E+02  0.96271404262E+02  0.11885534580E+03  0.00000000000E+00 0. -1.
         13    1    4    4    0    0 -0.31358626533E+02 -0.41284881376E+01  0.26157693027E+01  0.31737204057E+02  0.00000000000E+00 0.  1.
         -2    1    1    2    0  502  0.46584630044E+02  0.63940727887E+02 -0.64443860214E+02  0.10203703033E+03  0.00000000000E+00 0.  1.
<scales pt_clust_5="13000.00000" pt_clust_6="13000.00000" pt_clust_7="13000.00000" pt_clust_8="13000.00000" pt_clust_9="79.11100"></scales>
<clustering>
<clus scale="   79.111">  1  9  2 -1</clus>
<clus scale="   81.664">  5  6 -1 -1</clus>
<clus scale="   92.376">  7  8 -1 -1</clus>
<clus scale="   92.922">  2  5  1 -1</clus>
<clus scale="   79.111">  1  5  2 -1</clus>
</clustering>
</event>
<event>
 9    2  0.4653788E-005  0.1303251E+03  0.7546771E-02  0.1230028E+00
         21   -1    0    0  501  502  0.00000000000E+00  0.00000000000E+00  0.99968222526E+03  0.99968222526E+03  0.00000000000E+00 0.  1.
          4   -1    0    0  502    0 -0.00000000000E+00 -0.00000000000E+00 -0.25641445677E+02  0.25641445677E+02  0.00000000000E+00 0. -1.
         24    2    1    2    0    0 -0.90221496855E+02 -0.52576955070E+02  0.26091890292E+03  0.29269384910E+03  0.81772615811E+02 0.  0.
         23    2    1    2    0    0  0.40703465026E+02  0.59398594608E+02  0.48882673349E+03  0.50283234254E+03  0.93294288278E+02 0.  0.
        -13    1    3    3    0    0 -0.69237046465E+02 -0.96389914543E+01  0.21628456213E+03  0.22730088116E+03  0.00000000000E+00 0.  1.
         14    1    3    3    0    0 -0.20984450391E+02 -0.42937963616E+02  0.44634340793E+02  0.65392967938E+02  0.00000000000E+00 0. -1.
        -11    1    4    4    0    0  0.33253043599E+02  0.83842603467E+02  0.41559808243E+03  0.42527298666E+03  0.00000000000E+00 0.  1.
         11    1    4    4    0    0  0.74504214269E+01 -0.24444008859E+02  0.73228651063E+02  0.77559355883E+02  0.00000000000E+00 0. -1.
          3    1    1    2  501    0  0.49518031830E+02 -0.68216395381E+01  0.22429514318E+03  0.22979747930E+03  0.00000000000E+00 0. -1.
<scales pt_clust_5="13000.00000" pt_clust_6="13000.00000" pt_clust_7="13000.00000" pt_clust_8="13000.00000" pt_clust_9="49.98570"></scales>
<clustering>
<clus scale="   49.986">  1  9  2 -1</clus>
<clus scale="   81.773">  5  6 -1 -1</clus>
<clus scale="   93.294">  7  8 -1 -1</clus>
<clus scale="  122.342">  2  5  1 -1</clus>
<clus scale="   49.986">  1  5  2 -1</clus>
</clustering>
</event>
<event>
 9    2  0.4653788E-005  0.1329112E+03  0.7546771E-02  0.1234216E+00
         21   -1    0    0  501  502  0.00000000000E+00  0.00000000000E+00  0.81515207138E+02  0.81515207138E+02  0.00000000000E+00 0. -1.
          2   -1    0    0  502    0 -0.00000000000E+00 -0.00000000000E+00 -0.38383387521E+03  0.38383387521E+03  0.00000000000E+00 0. -1.
         24    2    1    2    0    0  0.63077002849E+02 -0.13773861540E+02 -0.16237583571E+03  0.19381072012E+03  0.83834692475E+02 0.  0.
         23    2    1    2    0    0  0.27893376763E+02  0.71517526497E+02 -0.87578158077E+02  0.15173852949E+03  0.97272043759E+02 0.  0.
        -13    1    3    3    0    0  0.69216346519E+02 -0.34872016136E+02 -0.93127351819E+02  0.12115966239E+03  0.00000000000E+00 0.  1.
         14    1    3    3    0    0 -0.61393436699E+01  0.21098154596E+02 -0.69248483889E+02  0.72651057728E+02  0.00000000000E+00 0. -1.
        -11    1    4    4    0    0  0.29692000817E+02  0.95049300623E+02 -0.63963896903E+02  0.11835271255E+03  0.00000000000E+00 0. -1.
         11    1    4    4    0    0 -0.17986240543E+01 -0.23531774126E+02 -0.23614261174E+02  0.33385816941E+02  0.00000000000E+00 0.  1.
          1    1    1    2  501    0 -0.90970379611E+02 -0.57743664957E+02 -0.52364674285E+02  0.11979983273E+03  0.00000000000E+00 0. -1.
<scales pt_clust_5="13000.00000" pt_clust_6="13000.00000" pt_clust_7="13000.00000" pt_clust_8="13000.00000" pt_clust_9="90.57336"></scales>
<clustering>
<clus scale="   83.835">  5  6 -1 -1</clus>
<clus scale="   97.272">  7  8 -1 -1</clus>
<clus scale="  105.814">  2  5  1 -1</clus>
<clus scale="   90.573">  1  9  2 -1</clus>
<clus scale="   90.573">  1  5  2 -1</clus>
</clustering>
</event>
<event>
 9    2  0.4653788E-005  0.1394766E+03  0.7546771E-02  0.1216400E+00
         -1   -1    0    0    0  501 -0.00000000000E+00  0.00000000000E+00  0.32272938015E+03  0.32272938015E+03  0.00000000000E+00 0.  1.
         21   -1    0    0  501  502  0.00000000000E+00 -0.00000000000E+00 -0.10241152968E+03  0.10241152968E+03  0.00000000000E+00 0.  1.
         24    2    1    2    0    0  0.12144305119E+03  0.12889002560E+02  0.70576256313E+02  0.16258594677E+03  0.80861864074E+02 0.  0.
         23    2    1    2    0    0 -0.82847932478E+02 -0.24634738817E+02  0.21056043937E+02  0.12769386287E+03  0.91606306311E+02 0.  0.
        -13    1    3    3    0    0  0.59682959970E+02 -0.10748020378E+01 -0.95597722207E+01  0.60453289035E+02  0.00000000000E+00 0.  1.
         14    1    3    3    0    0  0.61760091223E+02  0.13963804598E+02  0.80136028533E+02  0.10213265773E+03  0.00000000000E+00 0. -1.
        -11    1    4    4    0    0 -0.87569778779E+02  0.19344407072E+01 -0.81015374699E+01  0.87965010803E+02  0.00000000000E+00 0.  1.
         11    1    4    4    0    0  0.47218463004E+01 -0.26569179524E+02  0.29157581407E+02  0.39728852067E+02  0.00000000000E+00 0. -1.
         -2    1    1    2    0  502 -0.38595118714E+02  0.11745736257E+02  0.12868555022E+03  0.13486110019E+03  0.00000000000E+00 0.  1.
<scales pt_clust_5="13000.00000" pt_clust_6="13000.00000" pt_clust_7="13000.00000" pt_clust_8="13000.00000" pt_clust_9="40.34287"></scales>
<clustering>
<clus scale="   40.343">  2  9  1 -1</clus>
<clus scale="   80.862">  5  6 -1 -1</clus>
<clus scale="   91.606">  7  8 -1 -1</clus>
<clus scale="  132.667">  1  5  2 -1</clus>
<clus scale="   40.343">  2  5  1 -1</clus>
</clustering>
</event>
<event>
 9    2  0.4653788E-005  0.9640696E+02  0.7546771E-02  0.1294250E+00
          2   -1    0    0  502    0 -0.00000000000E+00  0.00000000000E+00  0.77037682118E+02  0.77037682118E+02  0.00000000000E+00 0. -1.
         21   -1    0    0  501  502  0.00000000000E+00 -0.00000000000E+00 -0.42195024391E+03  0.42195024391E+03  0.00000000000E+00 0. -1.
         24    2    1    2    0    0  0.49863513916E+01 -0.34391586238E+02  0.24029783218E+02  0.91312343490E+02  0.80949791155E+02 0.  0.
         23    2    1    2    0    0  0.21464553053E+02  0.68251305294E+01 -0.10696196511E+03  0.14292422885E+03  0.92082374904E+02 0.  0.
        -13    1    3    3    0    0  0.35634964590E+02 -0.17335780622E+02 -0.11624377311E+02  0.41297774020E+02  0.00000000000E+00 0.  1.
         14    1    3    3    0    0 -0.30648613199E+02 -0.17055805616E+02  0.35654160530E+02  0.50014569470E+02  0.00000000000E+00 0. -1.
        -13    1    4    4    0    0  0.54364168581E+02  0.17458564984E+01 -0.90974799279E+02  0.10599492886E+03  0.00000000000E+00 0. -1.
         13    1    4    4    0    0 -0.32899615528E+02  0.50792740310E+01 -0.15987165834E+02  0.36929299993E+02  0.00000000000E+00 0.  1.
          1    1    1    2  501    0 -0.26450904445E+02  0.27566455709E+02 -0.26198037990E+03  0.26475135368E+03  0.00000000000E+00 0. -1.
<scales pt_clust_5="13000.00000" pt_clust_6="13000.00000" pt_clust_7="13000.00000" pt_clust_8="13000.00000" pt_clust_9="38.20419"></scales>
<clustering>
<clus scale="   38.204">  2  9  1 -1</clus>
<clus scale="   80.950">  5  6 -1 -1</clus>
<clus scale="   85.837">  1  5  2 -1</clus>
<clus scale="   92.082">  7  8 -1 -1</clus>
<clus scale="   38.204">  2  5  1 -1</clus>
</clustering>
</event>
<event>
 9    2  0.4653788E-005  0.1764381E+03  0.7546771E-02  0.1172557E+00
         21   -1    0    0  501  502  0.00000000000E+00  0.00000000000E+00  0.17319651960E+04  0.17319651960E+04  0.00000000000E+00 0. -1.
         -3   -1    0    0    0  501 -0.00000000000E+00 -0.00000000000E+00 -0.16681743450E+03  0.16681743450E+03  0.00000000000E+00 0.  1.
         23    2    1    2    0    0  0.71600546553E+02 -0.12577117428E+03  0.17310252146E+03  0.24302400351E+03  0.90283757124E+02 0.  0.
         24    2    1    2    0    0 -0.17575905121E+03  0.12768422400E+03  0.14929082863E+04  0.15107551513E+04  0.80071661462E+02 0.  0.
        -13    1    4    4    0    0 -0.19667939911E+01  0.25962068921E+02  0.98575862028E+02  0.10195635280E+03  0.00000000000E+00 0.  1.
         14    1    4    4    0    0 -0.17379225722E+03  0.10172215508E+03  0.13943324242E+04  0.14087987985E+04  0.00000000000E+00 0. -1.
        -13    1    3    3    0    0  0.48234677042E+02 -0.20243775206E+02  0.99022015140E+02  0.11198997270E+03  0.00000000000E+00 0. -1.
         13    1    3    3    0    0  0.23365869511E+02 -0.10552739907E+03  0.74080506322E+02  0.13103403081E+03  0.00000000000E+00 0.  1.
         -4    1    1    2    0  502  0.10415850466E+03 -0.19130497259E+01 -0.10086304623E+03  0.14500347564E+03  0.00000000000E+00 0.  1.
<scales pt_clust_5="13000.00000" pt_clust_6="13000.00000" pt_clust_7="13000.00000" pt_clust_8="13000.00000" pt_clust_9="104.17612"></scales>
<clustering>
<clus scale="   80.072">  5  6 -1 -1</clus>
<clus scale="   90.284">  7  8 -1 -1</clus>
<clus scale="  104.176">  1  9  2 -1</clus>
<clus scale="  171.437">  1  5  2 -1</clus>
<clus scale="  104.176">  1  5  2 -1</clus>
</clustering>
</event>
<event>
 9    2  0.4653788E-005  0.1757089E+03  0.7546771E-02  0.1173092E+00
         -1   -1    0    0    0  501 -0.00000000000E+00  0.00000000000E+00  0.33777372717E+03  0.33777372717E+03  0.00000000000E+00 0.  1.
         21   -1    0    0  501  502  0.00000000000E+00 -0.00000000000E+00 -0.23229724240E+03  0.23229724240E+03  0.00000000000E+00 0. -1.
         24    2    1    2    0    0  0.40125421915E+02 -0.14503200794E+03  0.19387619227E+03  0.25839286336E+03  0.80836632130E+02 0.  0.
         23    2    1    2    0    0  0.55615579686E+02  0.16832345832E+03 -0.42907309083E+02  0.20314981791E+03  0.89459108074E+02 0.  0.
        -13    1    3    3    0    0 -0.54391882381E+01 -0.11112385905E+03  0.14928478355E+03  0.18618282257E+03  0.00000000000E+00 0.  1.
         14    1    3    3    0    0  0.45564610153E+02 -0.33908148886E+02  0.44591408722E+02  0.72210040791E+02  0.00000000000E+00 0. -1.
        -13    1    4    4    0    0 -0.34381922805E+01  0.12521245553E+03 -0.22778170497E+02  0.12731388470E+03  0.00000000000E+00 0.  1.
         13    1    4    4    0    0  0.59053771967E+02  0.43111002793E+02 -0.20129138586E+02  0.75835933208E+02  0.00000000000E+00 0. -1.
         -2    1    1    2    0  502 -0.95741001601E+02 -0.23291450380E+02 -0.45492398413E+02  0.10852828830E+03  0.00000000000E+00 0.  1.
<scales pt_clust_5="13000.00000" pt_clust_6="13000.00000" pt_clust_7="13000.00000" pt_clust_8="13000.00000" pt_clust_9="98.53340"></scales>
<clustering>
<clus scale="   80.837">  5  6 -1 -1</clus>
<clus scale="   89.459">  7  8 -1 -1</clus>
<clus scale="   98.533">  2  9  1 -1</clus>
<clus scale="  171.480">  1  5  2 -1</clus>
<clus scale="   98.533">  2  5  1 -1</clus>
</clustering>
</event>
<event>
 9    2  0.4653788E-005  0.9249504E+02  0.7546771E-02  0.1303397E+00
         21   -1    0    0  501  502  0.00000000000E+00  0.00000000000E+00  0.17996359577E+02  0.17996359577E+02  0.00000000000E+00 0. -1.
          2   -1    0    0  502    0 -0.00000000000E+00 -0.00000000000E+00 -0.58075829815E+03  0.58075829815E+03  0.00000000000E+00 0. -1.
         24    2    1    2    0    0  0.61453617718E+01  0.41724097032E+01 -0.27328563119E+03  0.28536474015E+03  0.81809682980E+02 0.  0.
         23    2    1    2    0    0  0.16219230503E+02 -0.82396709110E+01 -0.25771799064E+03  0.27433472224E+03  0.92249777820E+02 0.  0.
        -11    1    3    3    0    0  0.99785137624E+01  0.38386363889E+02 -0.82998682941E+02  0.91988396222E+02  0.00000000000E+00 0.  1.
         12    1    3    3    0    0 -0.38331519906E+01 -0.34213954186E+02 -0.19028694825E+03  0.19337634393E+03  0.00000000000E+00 0. -1.
        -13    1    4    4    0    0  0.42109818268E+02  0.20191568477E+00 -0.23536812130E+03  0.23910547900E+03  0.00000000000E+00 0. -1.
         13    1    4    4    0    0 -0.25890587765E+02 -0.84415865958E+01 -0.22349869342E+02  0.35229243231E+02  0.00000000000E+00 0.  1.
          1    1    1    2  501    0 -0.22364592275E+02  0.40672612078E+01 -0.31758316735E+02  0.39055195342E+02  0.00000000000E+00 0. -1.
<scales pt_clust_5="13000.00000" pt_clust_6="13000.00000" pt_clust_7="13000.00000" pt_clust_8="13000.00000" pt_clust_9="22.73142"></scales>
<clustering>
<clus scale="   22.731">  1  9  2 -1</clus>
<clus scale="   81.810">  5  6 -1 -1</clus>
<clus scale="   82.086">  2  5  1 -1</clus>
<clus scale="   92.250">  7  8 -1 -1</clus>
<clus scale="   22.731">  1  5  2 -1</clus>
</clustering>
</event>
<event>
 9    2  0.4653788E-005  0.1700667E+03  0.7546771E-02  0.1179188E+00
         21   -1    0    0  501  502  0.00000000000E+00  0.00000000000E+00  0.56216642080E+02  0.56216642080E+02  0.00000000000E+00 0.  1.
          2   -1    0    0  502    0 -0.00000000000E+00 -0.00000000000E+00 -0.86348943523E+03  0.86348943523E+03  0.00000000000E+00 0. -1.
         23    2    1    2    0    0 -0.95995044734E+02  0.12749214689E+03 -0.40149876224E+03  0.44138649280E+03  0.90285568165E+02 0.  0.
         24    2    1    2    0    0  0.55968355776E+02 -0.10429767936E+03 -0.11343030475E+03  0.18233821115E+03  0.79814324772E+02 0.  0.
        -13    1    4    4    0    0  0.61090503703E+02 -0.11018356374E+03 -0.11856050161E+03  0.17300017313E+03  0.00000000000E+00 0.  1.
         14    1    4    4    0    0 -0.51221479267E+01  0.58858843742E+01  0.51301968560E+01  0.93380380183E+01  0.00000000000E+00 0. -1.
        -13    1    3    3    0    0 -0.10819010463E+03  0.82302500858E+02 -0.28219979623E+03  0.31323397865E+03  0.00000000000E+00 0.  1.
         13    1    3    3    0    0  0.12195059892E+02  0.45189646030E+02 -0.11929896601E+03  0.12815251416E+03  0.00000000000E+00 0. -1.
          1    1    1    2  501    0  0.40026688958E+02 -0.23194467525E+02 -0.29234372616E+03  0.29598137336E+03  0.00000000000E+00 0. -1.
<scales pt_clust_5="13000.00000" pt_clust_6="13000.00000" pt_clust_7="13000.00000" pt_clust_8="13000.00000" pt_clust_9="46.26144"></scales>
<clustering>
<clus scale="   46.261">  1  9  2 -1</clus>
<clus scale="   79.814">  5  6 -1 -1</clus>
<clus scale="   90.286">  7  8 -1 -1</clus>
<clus scale="  164.747">  1  5  2 -1</clus>
<clus scale="   46.261">  1  5  2 -1</clus>
</clustering>
</event>
<event>
 9    2  0.4653788E-005  0.2086291E+03  0.7546771E-02  0.1168774E+00
         21   -1    0    0  501  502  0.00000000000E+00  0.00000000000E+00  0.94816249298E+02  0.94816249298E+02  0.00000000000E+00 0.  1.
         -3   -1    0    0    0  501 -0.00000000000E+00 -0.00000000000E+00 -0.89666936421E+03  0.89666936421E+03  0.00000000000E+00 0.  1.
         23    2    1    2    0    0  0.10371102232E+02  0.65019337934E+02 -0.27354552024E+02  0.11631792817E+03  0.91904922779E+02 0.  0.
         24    2    1    2    0    0 -0.18939785703E+03  0.23167792549E+02 -0.36947670225E+03  0.42364774501E+03  0.80969645475E+02 0.  0.
        -11    1    4    4    0    0 -0.30870251378E+02  0.20552712691E+02 -0.13928204564E+03  0.14413491824E+03  0.00000000000E+00 0.  1.
         12    1    4    4    0    0 -0.15852760565E+03  0.26150798586E+01 -0.23019465661E+03  0.27951282677E+03  0.00000000000E+00 0. -1.
        -11    1    3    3    0    0 -0.75553095625E+01 -0.22293276103E+02 -0.96646331462E+01  0.25445588927E+02  0.00000000000E+00 0. -1.
         11    1    3    3    0    0  0.17926411794E+02  0.87312614038E+02 -0.17689918878E+02  0.90872339245E+02  0.00000000000E+00 0.  1.
         -4    1    1    2    0  502  0.17902675480E+03 -0.88187130484E+02 -0.40502186064E+03  0.45151994033E+03  0.00000000000E+00 0.  1.
<scales pt_clust_5="13000.00000" pt_clust_6="13000.00000" pt_clust_7="13000.00000" pt_clust_8="13000.00000" pt_clust_9="192.27602"></scales>
<clustering>
<clus scale="   80.970">  5  6 -1 -1</clus>
<clus scale="   91.905">  7  8 -1 -1</clus>
<clus scale="  113.056">  2  7  1 -1</clus>
<clus scale="  192.276">  1  9  2 -1</clus>
<clus scale="  192.276">  1  5  2 -1</clus>
</clustering>
</event>
<event>
 9    2  0.4653788E-005  0.1044078E+03  0.7546771E-02  0.1272386E+00
          2   -1    0    0  502    0 -0.00000000000E+00  0.00000000000E+00  0.40356419904E+03  0.40356419904E+03  0.00000000000E+00 0. -1.
         21   -1    0    0  501  502  0.00000000000E+00 -0.00000000000E+00 -0.42855804710E+02  0.42855804710E+02  0.00000000000E+00 0.  1.
         24    2    1    2    0    0  0.17438505868E+02  0.56204600319E+02  0.29031569433E+03  0.30870607990E+03  0.86909049039E+02 0.  0.
         23    2    1    2    0    0 -0.12896283154E+02 -0.35963457918E+02  0.53918070261E+02  0.11122337728E+03  0.89463942054E+02 0.  0.
        -11    1    3    3    0    0  0.28911342798E+02  0.22683574118E+02  0.34357968366E+02  0.50307854928E+02  0.00000000000E+00 0.  1.
         12    1    3    3    0    0 -0.11472836930E+02  0.33521026201E+02  0.25595772597E+03  0.25839822497E+03  0.00000000000E+00 0. -1.
        -11    1    4    4    0    0  0.90461294183E+01 -0.57450846530E+02  0.12207271117E+02  0.59426001822E+02  0.00000000000E+00 0.  1.
         11    1    4    4    0    0 -0.21942412572E+02  0.21487388612E+02  0.41710799144E+02  0.51797375456E+02  0.00000000000E+00 0. -1.
          1    1    1    2  501    0 -0.45422227142E+01 -0.20241142401E+02  0.16474629733E+02  0.26490546573E+02  0.00000000000E+00 0. -1.
<scales pt_clust_5="13000.00000" pt_clust_6="13000.00000" pt_clust_7="13000.00000" pt_clust_8="13000.00000" pt_clust_9="20.74453"></scales>
<clustering>
<clus scale="   20.745">  2  9  1 -1</clus>
<clus scale="   86.909">  5  6 -1 -1</clus>
<clus scale="   89.464">  7  8 -1 -1</clus>
<clus scale="  102.227">  1  5  2 -1</clus>
<clus scale="   20.745">  2  5  1 -1</clus>
</clustering>
</event>
<event>
 9    2  0.4653788E-005  0.9536590E+02  0.7546771E-02  0.1295791E+00
          2   -1    0    0  502    0 -0.00000000000E+00  0.00000000000E+00  0.66966801129E+02  0.66966801129E+02  0.00000000000E+00 0. -1.
         21   -1    0    0  501  502  0.00000000000E+00 -0.00000000000E+00 -0.40680583817E+03  0.40680583817E+03  0.00000000000E+00 0. -1.
         23    2    1    2    0    0  0.16748177273E+02 -0.40532391393E+02 -0.46716680517E+01  0.10144054900E+03  0.91350885626E+02 0.  0.
         24    2    1    2    0    0  0.10063881042E+02 -0.22787360377E+01 -0.89919470908E+02  0.12193598287E+03  0.81709230388E+02 0.  0.
        -11    1    4    4    0    0 -0.54507440266E+00  0.22176165004E+02  0.55069892208E+01  0.22856209892E+02  0.00000000000E+00 0.  1.
         12    1    4    4    0    0  0.10608955445E+02 -0.24454901041E+02 -0.95426460129E+02  0.99079772977E+02  0.00000000000E+00 0. -1.
        -11    1    3    3    0    0  0.41276310471E+02  0.12305361125E+02 -0.13553510347E+01  0.43092838093E+02  0.00000000000E+00 0.  1.
         11    1    3    3    0    0 -0.24528133198E+02 -0.52837752518E+02 -0.33163170170E+01  0.58347710905E+02  0.00000000000E+00 0. -1.
          1    1    1    2  501    0 -0.26812058315E+02  0.42811127431E+02 -0.24524789808E+03  0.25039610743E+03  0.00000000000E+00 0. -1.
<scales pt_clust_5="13000.00000" pt_clust_6="13000.00000" pt_clust_7="13000.00000" pt_clust_8="13000.00000" pt_clust_9="50.51415"></scales>
<clustering>
<clus scale="   50.514">  2  9  1 -1</clus>
<clus scale="   81.709">  5  6 -1 -1</clus>
<clus scale="   86.175">  2  5  1 -1</clus>
<clus scale="   91.351">  7  8 -1 -1</clus>
<clus scale="   50.514">  2  5  1 -1</clus>
</clustering>
</event>
<event>
 9    2  0.4653788E-005  0.1083329E+03  0.7546771E-02  0.1266987E+00
          2   -1    0    0  502    0 -0.00000000000E+00  0.00000000000E+00  0.11967627297E+04  0.11967627297E+04  0.00000000000E+00 0. -1.
         21   -1    0    0  501  502  0.00000000000E+00 -0.00000000000E+00 -0.13946802045E+02  0.13946802045E+02  0.00000000000E+00 0. -1.
         24    2    1    2    0    0 -0.39068798700E+02 -0.11927998643E+02  0.38146314645E+03  0.39233444741E+03  0.82119049807E+02 0.  0.
         23    2    1    2    0    0  0.82342829363E+02  0.83863483570E+01  0.57816759466E+03  0.59100575371E+03  0.90329181426E+02 0.  0.
        -13    1    3    3    0    0 -0.47765746789E+02 -0.37028859226E+02  0.19984893694E+03  0.20878769259E+03  0.00000000000E+00 0.  1.
         14    1    3    3    0    0  0.86969480893E+01  0.25100860583E+02  0.18161420951E+03  0.18354675482E+03  0.00000000000E+00 0. -1.
        -13    1    4    4    0    0  0.75381353374E+02  0.42521329523E+02  0.44628151792E+03  0.45459609011E+03  0.00000000000E+00 0.  1.
         13    1    4    4    0    0  0.69614759886E+01 -0.34134981166E+02  0.13188607673E+03  0.13640966360E+03  0.00000000000E+00 0. -1.
          1    1    1    2  501    0 -0.43274030663E+02  0.35416502860E+01  0.22318518657E+03  0.22736933065E+03  0.00000000000E+00 0. -1.
<scales pt_clust_5="13000.00000" pt_clust_6="13000.00000" pt_clust_7="13000.00000" pt_clust_8="13000.00000" pt_clust_9="43.41874"></scales>
<clustering>
<clus scale="   43.419">  2  9  1 -1</clus>
<clus scale="   82.119">  5  6 -1 -1</clus>
<clus scale="   90.329">  7  8 -1 -1</clus>
<clus scale="  101.588">  1  5  2 -1</clus>
<clus scale="   43.419">  2  5  1 -1</clus>
</clustering>
</event>
<event>
 9    2  0.4653788E-005  0.2883393E+03  0.7546771E-02  0.1091663E+00
          2   -1    0    0  502    0 -0.00000000000E+00  0.00000000000E+00  0.46825928454E+03  0.46825928454E+03  0.00000000000E+00 0. -1.
         21   -1    0    0  501  502  0.00000000000E+00 -0.00000000000E+00 -0.24608244277E+03  0.24608244277E+03  0.00000000000E+00 0. -1.
         24    2    1    2    0    0 -0.24411506520E+03  0.15223866449E+03  0.17957993169E+03  0.34849621083E+03  0.80199009205E+02 0.  0.
         23    2    1    2    0    0  0.18491581431E+03 -0.16972540553E+03 -0.31987168125E+02  0.26903063053E+03  0.91398739457E+02 0.  0.
        -13    1    3    3    0    0 -0.68010963265E+02  0.70954246967E+02  0.95689615625E+02  0.13717324384E+03  0.00000000000E+00 0.  1.
         14    1    3    3    0    0 -0.17610410194E+03  0.81284417519E+02  0.83890316062E+02  0.21132296699E+03  0.00000000000E+00 0. -1.
        -11    1    4    4    0    0  0.89394231944E+02 -0.12633644829E+03  0.12083534055E+02  0.15523607399E+03  0.00000000000E+00 0.  1.
         11    1    4    4    0    0  0.95521582369E+02 -0.43388957236E+02 -0.44070702180E+02  0.11379455654E+03  0.00000000000E+00 0. -1.
          1    1    1    2  501    0  0.59199250887E+02  0.17486741039E+02  0.74584078207E+02  0.96814885941E+02  0.00000000000E+00 0. -1.
<scales pt_clust_5="13000.00000" pt_clust_6="13000.00000" pt_clust_7="13000.00000" pt_clust_8="13000.00000" pt_clust_9="61.72796"></scales>
<clustering>
<clus scale="   61.728">  2  9  1 -1</clus>
<clus scale="   80.199">  5  6 -1 -1</clus>
<clus scale="   91.399">  7  8 -1 -1</clus>
<clus scale="  284.987">  1  5  2 -1</clus>
<clus scale="   61.728">  2  5  1 -1</clus>
</clustering>
</event>
<event>
 9    2  0.4653788E-005  0.1823872E+03  0.7546771E-02  0.1171272E+00
          2   -1    0    0  502    0 -0.00000000000E+00  0.00000000000E+00  0.43547306208E+03  0.43547306208E+03  0.00000000000E+00 0. -1.
         21   -1    0    0  501  502  0.00000000000E+00 -0.00000000000E+00 -0.21802034562E+03  0.21802034562E+03  0.00000000000E+00 0. -1.
         24    2    1    2    0    0 -0.13631782837E+03  0.96821180782E+02  0.29320880138E+03  0.34761166402E+03  0.83099797726E+02 0.  0.
         23    2    1    2    0    0 -0.54285870048E+01 -0.84363777169E+02 -0.67095673616E+01  0.14772152503E+03  0.12095418226E+03 0.  0.
        -13    1    3    3    0    0 -0.15443371454E+02  0.26461254956E+02  0.10832839302E+02  0.32496863587E+02  0.00000000000E+00 0.  1.
         14    1    3    3    0    0 -0.12087445691E+03  0.70359925826E+02  0.28237596207E+03  0.31511480044E+03  0.00000000000E+00 0. -1.
        -13    1    4    4    0    0 -0.26910285605E+01  0.24904434858E+02 -0.26694572796E+02  0.36607003798E+02  0.00000000000E+00 0. -1.
         13    1    4    4    0    0 -0.27375584444E+01 -0.10926821203E+03  0.19985005434E+02  0.11111452123E+03  0.00000000000E+00 0.  1.
          1    1    1    2  501    0  0.14174641537E+03 -0.12457403613E+02 -0.69046517557E+02  0.15816021865E+03  0.00000000000E+00 0. -1.
<scales pt_clust_5="13000.00000" pt_clust_6="13000.00000" pt_clust_7="13000.00000" pt_clust_8="13000.00000" pt_clust_9="142.29277"></scales>
<clustering>
<clus scale="   83.100">  5  6 -1 -1</clus>
<clus scale="  120.954">  7  8 -1 -1</clus>
<clus scale="  142.293">  2  9  1 -1</clus>
<clus scale="  159.815">  1  5  2 -1</clus>
<clus scale="  142.293">  2  5  1 -1</clus>
</clustering>
</event>
<event>
 9    2  0.4653788E-005  0.1234590E+03  0.7546771E-02  0.1239401E+00
          2   -1    0    0  502    0 -0.00000000000E+00  0.00000000000E+00  0.64892908511E+03  0.64892908511E+03  0.00000000000E+00 0. -1.
         21   -1    0    0  501  502  0.00000000000E+00 -0.00000000000E+00 -0.14982241664E+03  0.14982241664E+03  0.00000000000E+00 0.  1.
         24    2    1    2    0    0  0.83518229791E+02  0.11754751981E+02  0.54816540284E+03  0.56052500253E+03  0.81175739539E+02 0.  0.
         23    2    1    2    0    0 -0.10491710941E+03 -0.15439224986E+02  0.42484871707E+02  0.14414292358E+03  0.87899081787E+02 0.  0.
        -11    1    3    3    0    0  0.38063190429E+02 -0.11883049955E+01  0.67177400681E+02  0.77220604094E+02  0.00000000000E+00 0.  1.
         12    1    3    3    0    0  0.45455039363E+02  0.12943056976E+02  0.48098800216E+03  0.48330439844E+03  0.00000000000E+00 0. -1.
        -13    1    4    4    0    0 -0.86372212577E+02  0.77868701061E+01  0.63719751397E+02  0.10761506014E+03  0.00000000000E+00 0.  1.
         13    1    4    4    0    0 -0.18544896833E+02 -0.23226095092E+02 -0.21234879690E+02  0.36527863437E+02  0.00000000000E+00 0. -1.
          1    1    1    2  501    0  0.21398879618E+02  0.36844730054E+01 -0.91543606085E+02  0.94083575641E+02  0.00000000000E+00 0. -1.
<scales pt_clust_5="13000.00000" pt_clust_6="13000.00000" pt_clust_7="13000.00000" pt_clust_8="13000.00000" pt_clust_9="21.71376"></scales>
<clustering>
<clus scale="   21.714">  2  9  1 -1</clus>
<clus scale="   81.176">  5  6 -1 -1</clus>
<clus scale="   87.899">  7  8 -1 -1</clus>
<clus scale="  118.766">  1  5  2 -1</clus>
<clus scale="   21.714">  2  5  1 -1</clus>
</clustering>
</event>
<event>
 9    2  0.4653788E-005  0.1056498E+03  0.7546771E-02  0.1274378E+00
          2   -1    0    0  502    0 -0.00000000000E+00  0.00000000000E+00  0.32593525867E+03  0.32593525867E+03  0.00000000000E+00 0. -1.
         21   -1    0    0  501  502  0.00000000000E+00 -0.00000000000E+00 -0.57760459352E+02  0.57760459352E+02  0.00000000000E+00 0.  1.
         23    2    1    2    0    0  0.49908819186E+02 -0.35375659981E+01  0.21052498887E+03  0.23614039217E+03  0.94541574296E+02 0.  0.
         24    2    1    2    0    0 -0.36566049785E+02  0.30883228946E+02  0.66089139411E+02  0.11597943234E+03  0.82417258812E+02 0.  0.
        -13    1    4    4    0    0  0.16475773868E+02  0.36430862849E+02  0.16833226576E+02  0.43382213054E+02  0.00000000000E+00 0.  1.
         14    1    4    4    0    0 -0.53041823653E+02 -0.55476339031E+01  0.49255912835E+02  0.72597219283E+02  0.00000000000E+00 0. -1.
        -11    1    3    3    0    0 -0.84917205970E+01  0.33077075131E+02  0.42457665445E+02  0.54487205590E+02  0.00000000000E+00 0.  1.
         11    1    3    3    0    0  0.58400539783E+02 -0.36614641130E+02  0.16806732343E+03  0.18165318658E+03  0.00000000000E+00 0. -1.
          1    1    1    2  501    0 -0.13342769401E+02 -0.27345662948E+02 -0.84393289694E+01  0.31575893508E+02  0.00000000000E+00 0. -1.
<scales pt_clust_5="13000.00000" pt_clust_6="13000.00000" pt_clust_7="13000.00000" pt_clust_8="13000.00000" pt_clust_9="30.42720"></scales>
<clustering>
<clus scale="   30.427">  2  9  1 -1</clus>
<clus scale="   82.417">  5  6 -1 -1</clus>
<clus scale="   94.542">  7  8 -1 -1</clus>
<clus scale="   94.955">  2  5  1 -1</clus>
<clus scale="   30.427">  2  5  1 -1</clus>
</clustering>
</event>
<event>
 9    2  0.4653788E-005  0.1000619E+03  0.7546771E-02  0.1284227E+00
         21   -1    0    0  501  502  0.00000000000E+00  0.00000000000E+00  0.12784997711E+02  0.12784997711E+02  0.00000000000E+00 0.  1.
          2   -1    0    0  502    0 -0.00000000000E+00 -0.00000000000E+00 -0.11551702719E+04  0.11551702719E+04  0.00000000000E+00 0. -1.
         24    2    1    2    0    0 -0.21320387358E+02 -0.40858232634E+02 -0.75204746562E+03  0.75802291938E+03  0.83062636981E+02 0.  0.
         23    2    1    2    0    0  0.32346595596E+01  0.31940026380E+02 -0.36470670869E+03  0.37731975705E+03  0.91261094622E+02 0.  0.
        -13    1    3    3    0    0 -0.39831937642E+02 -0.66048778278E+01 -0.17221796263E+03  0.17688763190E+03  0.00000000000E+00 0.  1.
         14    1    3    3    0    0  0.18511550284E+02 -0.34253354806E+02 -0.57982950300E+03  0.58113528748E+03  0.00000000000E+00 0. -1.
        -13    1    4    4    0    0  0.12705384795E+02 -0.29471749246E+02 -0.86596078695E+02  0.92351998634E+02  0.00000000000E+00 0.  1.
         13    1    4    4    0    0 -0.94707252357E+01  0.61411775626E+02 -0.27811062999E+03  0.28496775841E+03  0.00000000000E+00 0. -1.
          1    1    1    2  501    0  0.18085727798E+02  0.89182062545E+01 -0.25631099863E+02  0.32612593165E+02  0.00000000000E+00 0. -1.
<scales pt_clust_5="13000.00000" pt_clust_6="13000.00000" pt_clust_7="13000.00000" pt_clust_8="13000.00000" pt_clust_9="20.16502"></scales>
<clustering>
<clus scale="   20.165">  1  9  2 -1</clus>
<clus scale="   83.063">  5  6 -1 -1</clus>
<clus scale="   91.261">  7  8 -1 -1</clus>
<clus scale="   92.646">  2  5  1 -1</clus>
<clus scale="   20.165">  1  5  2 -1</clus>
</clustering>
</event>
<event>
 9    2  0.4653788E-005  0.1847275E+03  0.7546771E-02  0.1164559E+00
         21   -1    0    0  501  502  0.00000000000E+00  0.00000000000E+00  0.16315442243E+03  0.16315442243E+03  0.00000000000E+00 0. -1.
          2   -1    0    0  502    0 -0.00000000000E+00 -0.00000000000E+00 -0.28483278441E+03  0.28483278441E+03  0.00000000000E+00 0. -1.
         24    2    1    2    0    0  0.12005076195E+03 -0.12473167167E+03 -0.13398734631E+03  0.23356562742E+03  0.81425536419E+02 0.  0.
         23    2    1    2    0    0 -0.74027416066E+02  0.11787836753E+03  0.40740909734E+01  0.16716769478E+03  0.92482820570E+02 0.  0.
        -13    1    3    3    0    0  0.34790433482E+02 -0.10959006399E+02  0.23943706921E+01  0.36554166577E+02  0.00000000000E+00 0.  1.
         14    1    3    3    0    0  0.85260328467E+02 -0.11377266527E+03 -0.13638171700E+03  0.19701146084E+03  0.00000000000E+00 0. -1.
        -13    1    4    4    0    0 -0.15722725092E+01  0.77807111324E+02 -0.21090807629E+02  0.80630272106E+02  0.00000000000E+00 0. -1.
         13    1    4    4    0    0 -0.72455143557E+02  0.40071256204E+02  0.25164898603E+02  0.86537422675E+02  0.00000000000E+00 0.  1.
          1    1    1    2  501    0 -0.46023345884E+02  0.68533041381E+01  0.82348933549E+01  0.47253884629E+02  0.00000000000E+00 0. -1.
<scales pt_clust_5="13000.00000" pt_clust_6="13000.00000" pt_clust_7="13000.00000" pt_clust_8="13000.00000" pt_clust_9="46.53081"></scales>
<clustering>
<clus scale="   46.531">  1  9  2 -1</clus>
<clus scale="   81.426">  5  6 -1 -1</clus>
<clus scale="   92.483">  7  8 -1 -1</clus>
<clus scale="  179.447">  2  5  1 -1</clus>
<clus scale="   46.531">  1  5  2 -1</clus>
</clustering>
</event>
<event>
 9    2  0.4653788E-005  0.9853103E+02  0.7546771E-02  0.1288052E+00
          2   -1    0    0  502    0 -0.00000000000E+00  0.00000000000E+00  0.16109528167E+04  0.16109528167E+04  0.00000000000E+00 0. -1.
         21   -1    0    0  501  502  0.00000000000E+00 -0.00000000000E+00 -0.28655765024E+02  0.28655765024E+02  0.00000000000E+00 0. -1.
         24    2    1    2    0    0  0.87630454069E+01  0.54448841859E+02  0.11034096442E+04  0.11077816355E+04  0.81399273836E+02 0.  0.
         23    2    1    2    0    0 -0.30258466234E+02  0.64477621252E+01  0.45178701221E+03  0.46179209119E+03  0.90461498266E+02 0.  0.
        -11    1    3    3    0    0  0.73654946561E+01  0.30349266909E+02  0.11759073411E+03  0.12166720701E+03  0.00000000000E+00 0.  1.
         12    1    3    3    0    0  0.13975507508E+01  0.24099574950E+02  0.98581891006E+03  0.98611442850E+03  0.00000000000E+00 0. -1.
        -11    1    4    4    0    0 -0.19429894074E+02  0.47626573076E+02  0.28822277672E+03  0.29277667303E+03  0.00000000000E+00 0. -1.
         11    1    4    4    0    0 -0.10828572160E+02 -0.41178810951E+02  0.16356423549E+03  0.16901541816E+03  0.00000000000E+00 0.  1.
          1    1    1    2  501    0  0.21495420827E+02 -0.60896603984E+02  0.27100395300E+02  0.70034855028E+02  0.00000000000E+00 0. -1.
<scales pt_clust_5="13000.00000" pt_clust_6="13000.00000" pt_clust_7="13000.00000" pt_clust_8="13000.00000" pt_clust_9="64.57902"></scales>
<clustering>
<clus scale="   64.579">  2  9  1 -1</clus>
<clus scale="   81.399">  5  6 -1 -1</clus>
<clus scale="   90.282">  1  5  2 -1</clus>
<clus scale="   90.461">  7  8 -1 -1</clus>
<clus scale="   64.579">  2  5  1 -1</clus>
</clustering>
</event>
<event>
 9    2  0.4653788E-005  0.1306130E+03  0.7546771E-02  0.1229104E+00
          2   -1    0    0  502    0 -0.00000000000E+00  0.00000000000E+00  0.11530430915E+04  0.11530430915E+04  0.00000000000E+00 0. -1.
         21   -1    0    0  501  502  0.00000000000E+00 -0.00000000000E+00 -0.55092288058E+02  0.55092288058E+02  0.00000000000E+00 0. -1.
         24    2    1    2    0    0 -0.87560693493E+02  0.48166135530E+02  0.78035494102E+03  0.79085779617E+03  0.80717830363E+02 0.  0.
         23    2    1    2    0    0  0.64934309641E+02 -0.51728355307E+02  0.35373013210E+03  0.37449524935E+03  0.90716030131E+02 0.  0.
        -13    1    3    3    0    0 -0.31181725623E+02  0.20739621245E+02  0.87567153081E+02  0.95238848171E+02  0.00000000000E+00 0.  1.
         14    1    3    3    0    0 -0.56378967870E+02  0.27426514285E+02  0.69278778794E+03  0.69561894800E+03  0.00000000000E+00 0. -1.
        -13    1    4    4    0    0  0.10099452738E+02  0.24924529561E+02  0.54505211540E+02  0.60778690382E+02  0.00000000000E+00 0.  1.
         13    1    4    4    0    0  0.54834856903E+02 -0.76652884868E+02  0.29922492056E+03  0.31371655897E+03  0.00000000000E+00 0. -1.
          1    1    1    2  501    0  0.22626383853E+02  0.35622197771E+01 -0.36134269702E+02  0.42782334005E+02  0.00000000000E+00 0. -1.
<scales pt_clust_5="13000.00000" pt_clust_6="13000.00000" pt_clust_7="13000.00000" pt_clust_8="13000.00000" pt_clust_9="22.90508"></scales>
<clustering>
<clus scale="   22.905">  2  9  1 -1</clus>
<clus scale="   80.718">  5  6 -1 -1</clus>
<clus scale="   90.716">  7  8 -1 -1</clus>
<clus scale="  123.878">  1  5  2 -1</clus>
<clus scale="   22.905">  2  5  1 -1</clus>
</clustering>
</event>
<event>
 9    2  0.4653788E-005  0.9899960E+02  0.7546771E-02  0.1287410E+00
         -1   -1    0    0    0  501 -0.00000000000E+00  0.00000000000E+00  0.10598684235E+03  0.10598684235E+03  0.00000000000E+00 0.  1.
         21   -1    0    0  501  502  0.00000000000E+00 -0.00000000000E+00 -0.36455800561E+03  0.36455800561E+03  0.00000000000E+00 0. -1.
         23    2    1    2    0    0  0.42236940825E+02 -0.15753967906E+02  0.63262095825E+02  0.11870657206E+03  0.89760853417E+02 0.  0.
         24    2    1    2    0    0 -0.28525338015E+02 -0.32999038411E+02 -0.19133638634E+03  0.21185864356E+03  0.79823810169E+02 0.  0.
        -13    1    4    4    0    0  0.27164899846E+02 -0.28767882965E+01 -0.66258709776E+02  0.71668851782E+02  0.00000000000E+00 0.  1.
         14    1    4    4    0    0 -0.55690237861E+02 -0.30122250115E+02 -0.12507767656E+03  0.14018979178E+03  0.00000000000E+00 0. -1.
        -11    1    3    3    0    0 -0.14670097520E+02  0.24370092223E+02  0.72777328183E+01  0.29361174213E+02  0.00000000000E+00 0. -1.
         11    1    3    3    0    0  0.56907038345E+02 -0.40124060129E+02  0.55984363006E+02  0.89345397842E+02  0.00000000000E+00 0.  1.
         -2    1    1    2    0  502 -0.13711602810E+02  0.48753006317E+02 -0.13049687274E+03  0.13997963234E+03  0.00000000000E+00 0.  1.
<scales pt_clust_5="13000.00000" pt_clust_6="13000.00000" pt_clust_7="13000.00000" pt_clust_8="13000.00000" pt_clust_9="50.64448"></scales>
<clustering>
<clus scale="   50.644">  2  9  1 -1</clus>
<clus scale="   79.824">  5  6 -1 -1</clus>
<clus scale="   89.761">  7  8 -1 -1</clus>
<clus scale="   90.087">  2  5  1 -1</clus>
<clus scale="   50.644">  2  5  1 -1</clus>
</clustering>
</event>
<event>
 9    2  0.4653788E-005  0.2159186E+03  0.7546771E-02  0.1136963E+00
          2   -1    0    0  502    0 -0.00000000000E+00  0.00000000000E+00  0.85495135427E+02  0.85495135427E+02  0.00000000000E+00 0. -1.
         21   -1    0    0  501  502  0.00000000000E+00 -0.00000000000E+00 -0.44760237139E+03  0.44760237139E+03  0.00000000000E+00 0.  1.
         24    2    1    2    0    0 -0.25725905671E+02  0.14662547887E+02 -0.13108717156E+03  0.15485682444E+03  0.76941386760E+02 0.  0.
         23    2    1    2    0    0 -0.71380210192E+02  0.88146124935E+02 -0.18800824206E+03  0.23042580556E+03  0.69886186314E+02 0.  0.
        -11    1    3    3    0    0 -0.26841888263E+02 -0.15459291189E+02 -0.11799644823E+03  0.12199441973E+03  0.00000000000E+00 0.  1.
         12    1    3    3    0    0  0.11159825926E+01  0.30121839077E+02 -0.13090723328E+02  0.32862404717E+02  0.00000000000E+00 0. -1.
        -11    1    4    4    0    0 -0.76353276251E+02  0.43104557741E+02 -0.13025668494E+03  0.15701792784E+03  0.00000000000E+00 0. -1.
         11    1    4    4    0    0  0.49730660590E+01  0.45041567194E+02 -0.57751557121E+02  0.73407877719E+02  0.00000000000E+00 0.  1.
          1    1    1    2  501    0  0.97106115862E+02 -0.10280867282E+03 -0.43011822343E+02  0.14781487681E+03  0.00000000000E+00 0. -1.
<scales pt_clust_5="13000.00000" pt_clust_6="13000.00000" pt_clust_7="13000.00000" pt_clust_8="13000.00000" pt_clust_9="141.41867"></scales>
<clustering>
<clus scale="   69.886">  7  8 -1 -1</clus>
<clus scale="   76.941">  5  6 -1 -1</clus>
<clus scale="   80.079">  5  7 -1 -1</clus>
<clus scale="  141.419">  2  9  1 -1</clus>
<clus scale="  141.419">  2  5  1 -1</clus>
</clustering>
</event>
<event>
 9    2  0.4999341E-005  0.1091849E+03  0.7546771E-02  0.1271352E+00
         -1   -1    0    0    0  501 -0.00000000000E+00  0.00000000000E+00  0.36733446946E+03  0.36733446946E+03  0.00000000000E+00 0.  1.
         21   -1    0    0  501  502  0.00000000000E+00 -0.00000000000E+00 -0.40498684853E+03  0.40498684853E+03  0.00000000000E+00 0.  1.
         23    2    1    2    0    0  0.34850219983E+02  0.30502923087E+02  0.34523940671E+03  0.36232034844E+03  0.99703664931E+02 0.  0.
         24    2    1    2    0    0  0.11001526411E+02 -0.28005366292E+02 -0.14846710604E+03  0.17112118616E+03  0.79590480925E+02 0.  0.
        -13    1    4    4    0    0  0.37980222826E+02  0.41587987259E+01 -0.42542990222E+02  0.57181281463E+02  0.00000000000E+00 0.  1.
         14    1    4    4    0    0 -0.26978696414E+02 -0.32164165018E+02 -0.10592411582E+03  0.11393990470E+03  0.00000000000E+00 0. -1.
        -11    1    3    3    0    0 -0.25859968331E+02  0.33044091231E+02  0.81448207683E+02  0.91621288258E+02  0.00000000000E+00 0. -1.
         11    1    3    3    0    0  0.60710188314E+02 -0.25411681446E+01  0.26379119903E+03  0.27069906019E+03  0.00000000000E+00 0.  1.
         -2    1    1    2    0  502 -0.45851746394E+02 -0.24975567948E+01 -0.23442467974E+03  0.23887978338E+03  0.00000000000E+00 0.  1.
<scales pt_clust_5="13000.00000" pt_clust_6="13000.00000" pt_clust_7="13000.00000" pt_clust_8="13000.00000" pt_clust_9="45.91972"></scales>
<clustering>
<clus scale="   45.920">  2  9  1 -1</clus>
<clus scale="   79.590">  5  6 -1 -1</clus>
<clus scale="   91.188">  2  5  1 -1</clus>
<clus scale="   99.704">  7  8 -1 -1</clus>
<clus scale="   45.920">  2  5  1 -1</clus>
</clustering>
</event>
<event>
 9    2  0.4653788E-005  0.1213421E+03  0.7546771E-02  0.1243471E+00
          2   -1    0    0  502    0 -0.00000000000E+00  0.00000000000E+00  0.29954946829E+03  0.29954946829E+03  0.00000000000E+00 0. -1.
         21   -1    0    0  501  502  0.00000000000E+00 -0.00000000000E+00 -0.14273497114E+03  0.14273497114E+03  0.00000000000E+00 0.  1.
         24    2    1    2    0    0  0.26994161673E+02 -0.90440562356E+02  0.88401676259E+02  0.15251053253E+03  0.80848166852E+02 0.  0.
         23    2    1    2    0    0  0.24305665250E+02  0.49188092514E+02 -0.77023765688E+02  0.13013293714E+03  0.89396236166E+02 0.  0.
        -13    1    3    3    0    0  0.18776163969E+02 -0.55426572274E+02  0.15883124598E+01  0.58542053123E+02  0.00000000000E+00 0.  1.
         14    1    3    3    0    0  0.82179977037E+01 -0.35013990082E+02  0.86813363799E+02  0.93968479406E+02  0.00000000000E+00 0. -1.
        -11    1    4    4    0    0  0.35543617308E+02  0.70863142179E+02 -0.50070168487E+02  0.93765427654E+02  0.00000000000E+00 0.  1.
         11    1    4    4    0    0 -0.11237952058E+02 -0.21675049665E+02 -0.26953597201E+02  0.36367509490E+02  0.00000000000E+00 0. -1.
          1    1    1    2  501    0 -0.51299826923E+02  0.41252469842E+02  0.14543658658E+03  0.15964096976E+03  0.00000000000E+00 0. -1.
<scales pt_clust_5="13000.00000" pt_clust_6="13000.00000" pt_clust_7="13000.00000" pt_clust_8="13000.00000" pt_clust_9="65.82889"></scales>
<clustering>
<clus scale="   65.829">  2  9  1 -1</clus>
<clus scale="   80.848">  5  6 -1 -1</clus>
<clus scale="   89.396">  7  8 -1 -1</clus>
<clus scale="  115.190">  1  5  2 -1</clus>
<clus scale="   65.829">  2  5  1 -1</clus>
</clustering>
</event>
<event>
 9    2  0.4653788E-005  0.9733496E+02  0.7546771E-02  0.1293253E+00
         21   -1    0    0  501  502  0.00000000000E+00  0.00000000000E+00  0.11439935077E+03  0.11439935077E+03  0.00000000000E+00 0.  1.
          2   -1    0    0  502    0 -0.00000000000E+00 -0.00000000000E+00 -0.34529723946E+03  0.34529723946E+03  0.00000000000E+00 0. -1.
         24    2    1    2    0    0 -0.11030995541E+02  0.32525693274E+02 -0.28908183985E+03  0.30106891216E+03  0.76776143139E+02 0.  0.
         23    2    1    2    0    0  0.23694549850E+02 -0.52163268473E+02  0.12931568497E+02  0.10769853019E+03  0.90273526966E+02 0.  0.
        -11    1    3    3    0    0  0.32116020570E+02  0.23228157853E+02 -0.15024009106E+03  0.15538040757E+03  0.00000000000E+00 0.  1.
         12    1    3    3    0    0 -0.43147016112E+02  0.92975354209E+01 -0.13884174879E+03  0.14568850460E+03  0.00000000000E+00 0. -1.
        -13    1    4    4    0    0  0.28026238660E+01 -0.72243241513E+02 -0.68374125728E+01  0.72620182150E+02  0.00000000000E+00 0.  1.
         13    1    4    4    0    0  0.20891925984E+02  0.20079973040E+02  0.19768981070E+02  0.35078348039E+02  0.00000000000E+00 0. -1.
          1    1    1    2  501    0 -0.12663554308E+02  0.19637575199E+02  0.45252382663E+02  0.50929147883E+02  0.00000000000E+00 0. -1.
<scales pt_clust_5="13000.00000" pt_clust_6="13000.00000" pt_clust_7="13000.00000" pt_clust_8="13000.00000" pt_clust_9="23.36664"></scales>
<clustering>
<clus scale="   23.367">  1  9  2 -1</clus>
<clus scale="   76.776">  5  6 -1 -1</clus>
<clus scale="   84.967">  2  5  1 -1</clus>
<clus scale="   90.274">  7  8 -1 -1</clus>
<clus scale="   23.367">  1  5  2 -1</clus>
</clustering>
</event>
<event>
 9    2  0.4653788E-005  0.1008403E+03  0.7546771E-02  0.1278539E+00
         21   -1    0    0  501  502  0.00000000000E+00  0.00000000000E+00  0.28269764165E+03  0.28269764165E+03  0.00000000000E+00 0.  1.
         -1   -1    0    0    0  501 -0.00000000000E+00 -0.00000000000E+00 -0.10277012908E+03  0.10277012908E+03  0.00000000000E+00 0.  1.
         24    2    1    2    0    0 -0.32595805106E+02 -0.15245923359E+01 -0.52174738558E+02  0.11406472705E+03  0.96040344242E+02 0.  0.
         23    2    1    2    0    0  0.19272389614E+02  0.24822664552E+02  0.12369815061E+03  0.15972599780E+03  0.96039430604E+02 0.  0.
        -11    1    3    3    0    0 -0.51032873529E+02 -0.78617343723E+01  0.66798364893E+01  0.52065163627E+02  0.00000000000E+00 0.  1.
         12    1    3    3    0    0  0.18437068423E+02  0.63371420364E+01 -0.58854575047E+02  0.61999563428E+02  0.00000000000E+00 0. -1.
        -11    1    4    4    0    0  0.38971669352E+02  0.53433470332E+02  0.76530953263E+02  0.10114797858E+03  0.00000000000E+00 0. -1.
         11    1    4    4    0    0 -0.19699279737E+02 -0.28610805780E+02  0.47167197346E+02  0.58578019214E+02  0.00000000000E+00 0.  1.
         -2    1    1    2    0  502  0.13323415492E+02 -0.23298072217E+02  0.10840410051E+03  0.11167704588E+03  0.00000000000E+00 0.  1.
<scales pt_clust_5="13000.00000" pt_clust_6="13000.00000" pt_clust_7="13000.00000" pt_clust_8="13000.00000" pt_clust_9="26.83866"></scales>
<clustering>
<clus scale="   26.839">  1  9  2 -1</clus>
<clus scale="   96.039">  7  8 -1 -1</clus>
<clus scale="   96.040">  5  6 -1 -1</clus>
<clus scale="  100.839">  1  7  2 -1</clus>
<clus scale="   26.839">  1  5  2 -1</clus>
</clustering>
</event>
<event>
 9    2  0.4653788E-005  0.1073184E+03  0.7546771E-02  0.1272884E+00
         21   -1    0    0  501  502  0.00000000000E+00  0.00000000000E+00  0.52891824974E+02  0.52891824974E+02  0.00000000000E+00 0. -1.
         -3   -1    0    0    0  501 -0.00000000000E+00 -0.00000000000E+00 -0.45602638174E+03  0.45602638174E+03  0.00000000000E+00 0.  1.
         23    2    1    2    0    0 -0.45789793487E+02 -0.28277517717E+02 -0.36653331778E+03  0.38269874534E+03  0.95996528306E+02 0.  0.
         24    2    1    2    0    0  0.17985000900E+02  0.25773305039E+02 -0.45126728890E+02  0.97029368017E+02  0.79940934992E+02 0.  0.
        -13    1    4    4    0    0  0.21720981312E+02  0.32284581050E+02  0.10973495128E+02  0.40429108301E+02  0.00000000000E+00 0.  1.
         14    1    4    4    0    0 -0.37359804123E+01 -0.65112760113E+01 -0.56100224018E+02  0.56600259715E+02  0.00000000000E+00 0. -1.
        -13    1    3    3    0    0 -0.61784583058E+02  0.75529693711E+01 -0.29098865108E+03  0.29757146555E+03  0.00000000000E+00 0.  1.
         13    1    3    3    0    0  0.15994789571E+02 -0.35830487088E+02 -0.75544666701E+02  0.85127279796E+02  0.00000000000E+00 0. -1.
         -4    1    1    2    0  502  0.27804792587E+02  0.25042126786E+01  0.85254899064E+01  0.29190093355E+02  0.00000000000E+00 0.  1.
<scales pt_clust_5="13000.00000" pt_clust_6="13000.00000" pt_clust_7="13000.00000" pt_clust_8="13000.00000" pt_clust_9="27.91733"></scales>
<clustering>
<clus scale="   27.917">  1  9  2 -1</clus>
<clus scale="   79.941">  5  6 -1 -1</clus>
<clus scale="   93.233">  1  5  2 -1</clus>
<clus scale="   95.997">  7  8 -1 -1</clus>
<clus scale="   27.917">  1  5  2 -1</clus>
</clustering>
</event>
<event>
 9    2  0.4653788E-005  0.9818239E+02  0.7546771E-02  0.1290321E+00
          2   -1    0    0  502    0 -0.00000000000E+00  0.00000000000E+00  0.10233783864E+04  0.10233783864E+04  0.00000000000E+00 0. -1.
         21   -1    0    0  501  502  0.00000000000E+00 -0.00000000000E+00 -0.86625852162E+02  0.86625852162E+02  0.00000000000E+00 0. -1.
         24    2    1    2    0    0 -0.10422121719E+02  0.30434209206E+02  0.88366784268E+03  0.88789910805E+03  0.80381018756E+02 0.  0.
         23    2    1    2    0    0 -0.27601934075E+02 -0.81461004445E+02  0.84003677641E+02  0.15135524469E+03  0.91945800495E+02 0.  0.
        -13    1    3    3    0    0 -0.11398734639E+02  0.21838606173E+02  0.70406633966E+02  0.74591889488E+02  0.00000000000E+00 0.  1.
         14    1    3    3    0    0  0.97661291959E+00  0.85956030323E+01  0.81326120871E+03  0.81330721856E+03  0.00000000000E+00 0. -1.
        -13    1    4    4    0    0  0.33409335097E+02 -0.39565712859E+02  0.37688200064E+02  0.64047089940E+02  0.00000000000E+00 0.  1.
         13    1    4    4    0    0 -0.61011269172E+02 -0.41895291585E+02  0.46315477577E+02  0.87308154752E+02  0.00000000000E+00 0. -1.
          1    1    1    2  501    0  0.38024055794E+02  0.51026795239E+02 -0.30918986043E+02  0.70749885861E+02  0.00000000000E+00 0. -1.
<scales pt_clust_5="13000.00000" pt_clust_6="13000.00000" pt_clust_7="13000.00000" pt_clust_8="13000.00000" pt_clust_9="63.63617"></scales>
<clustering>
<clus scale="   63.636">  2  9  1 -1</clus>
<clus scale="   80.381">  5  6 -1 -1</clus>
<clus scale="   87.446">  1  5  2 -1</clus>
<clus scale="   91.946">  7  8 -1 -1</clus>
<clus scale="   63.636">  2  5  1 -1</clus>
</clustering>
</event>
<event>
 9    2  0.4653788E-005  0.1336850E+03  0.7546771E-02  0.1223877E+00
         -1   -1    0    0    0  501 -0.00000000000E+00  0.00000000000E+00  0.67490824609E+03  0.67490824609E+03  0.00000000000E+00 0.  1.
         21   -1    0    0  501  502  0.00000000000E+00 -0.00000000000E+00 -0.11331639016E+03  0.11331639016E+03  0.00000000000E+00 0.  1.
         23    2    1    2    0    0  0.66316163281E+02  0.79794902753E+02  0.55806728629E+03  0.57475214690E+03  0.90199081633E+02 0.  0.
         24    2    1    2    0    0  0.96328098852E+01 -0.93930231311E+02  0.34547874301E+02  0.13022286790E+03  0.82757237301E+02 0.  0.
        -11    1    4    4    0    0  0.76739265708E+01 -0.90047538232E+02  0.57333420675E+02  0.10702602215E+03  0.00000000000E+00 0.  1.
         12    1    4    4    0    0  0.19588833143E+01 -0.38826930791E+01 -0.22785546374E+02  0.23196845754E+02  0.00000000000E+00 0. -1.
        -11    1    3    3    0    0  0.35681470602E+02 -0.12628156919E+02  0.11341898657E+03  0.11956798989E+03  0.00000000000E+00 0. -1.
         11    1    3    3    0    0  0.30634692679E+02  0.92423059673E+02  0.44464829972E+03  0.45518415701E+03  0.00000000000E+00 0.  1.
         -2    1    1    2    0  502 -0.75948973166E+02  0.14135328557E+02 -0.31023304654E+02  0.83249621441E+02  0.00000000000E+00 0.  1.
<scales pt_clust_5="13000.00000" pt_clust_6="13000.00000" pt_clust_7="13000.00000" pt_clust_8="13000.00000" pt_clust_9="77.25318"></scales>
<clustering>
<clus scale="   77.253">  2  9  1 -1</clus>
<clus scale="   82.757">  5  6 -1 -1</clus>
<clus scale="   90.199">  7  8 -1 -1</clus>
<clus scale="  128.781">  2  5  1 -1</clus>
<clus scale="   77.253">  2  5  1 -1</clus>
</clustering>
</event>
<event>
 9    2  0.4653788E-005  0.1081729E+03  0.7546771E-02  0.1265596E+00
         21   -1    0    0  501  502  0.00000000000E+00  0.00000000000E+00  0.17895597267E+02  0.17895597267E+02  0.00000000000E+00 0. -1.
          2   -1    0    0  502    0 -0.00000000000E+00 -0.00000000000E+00 -0.83735983121E+03  0.83735983121E+03  0.00000000000E+00 0. -1.
         24    2    1    2    0    0  0.52909164966E+02 -0.40409957151E+02 -0.42472322569E+03  0.43874164847E+03  0.87590360662E+02 0.  0.
         23    2    1    2    0    0 -0.24973306553E+02  0.42835362521E+02 -0.32776014609E+03  0.34390020916E+03  0.91553843020E+02 0.  0.
        -13    1    3    3    0    0 -0.35696290488E+01  0.24018099638E+02 -0.99904212510E+02  0.10281275718E+03  0.00000000000E+00 0.  1.
         14    1    3    3    0    0  0.56478794014E+02 -0.64428056789E+02 -0.32481901318E+03  0.33592889129E+03  0.00000000000E+00 0. -1.
        -11    1    4    4    0    0  0.34396774218E+02  0.22255693664E+02 -0.14260675929E+03  0.14837500387E+03  0.00000000000E+00 0.  1.
         11    1    4    4    0    0 -0.59370080772E+02  0.20579668857E+02 -0.18515338680E+03  0.19552520529E+03  0.00000000000E+00 0. -1.
          1    1    1    2  501    0 -0.27935858412E+02 -0.24254053703E+01 -0.66980862164E+02  0.72613570858E+02  0.00000000000E+00 0. -1.
<scales pt_clust_5="13000.00000" pt_clust_6="13000.00000" pt_clust_7="13000.00000" pt_clust_8="13000.00000" pt_clust_9="28.04095"></scales>
<clustering>
<clus scale="   28.041">  1  9  2 -1</clus>
<clus scale="   87.590">  5  6 -1 -1</clus>
<clus scale="   91.554">  7  8 -1 -1</clus>
<clus scale="  104.840">  2  5  1 -1</clus>
<clus scale="   28.041">  1  5  2 -1</clus>
</clustering>
</event>
<event>
 9    2  0.4653788E-005  0.1409178E+03  0.7546771E-02  0.1215443E+00
         21   -1    0    0  501  502  0.00000000000E+00  0.00000000000E+00  0.10052413210E+03  0.10052413210E+03  0.00000000000E+00 0. -1.
          2   -1    0    0  502    0 -0.00000000000E+00 -0.00000000000E+00 -0.39687654154E+03  0.39687654154E+03  0.00000000000E+00 0. -1.
         23    2    1    2    0    0 -0.28710672868E+02 -0.10093638429E+03 -0.27769666599E+03  0.31045450491E+03  0.90852104585E+02 0.  0.
         24    2    1    2    0    0  0.47013157950E+02  0.11277250059E+03  0.17801140178E+02  0.14447054074E+03  0.75013216426E+02 0.  0.
        -13    1    4    4    0    0 -0.20396000203E+02  0.26492717007E+02 -0.62507879311E+00  0.33440269170E+02  0.00000000000E+00 0.  1.
         14    1    4    4    0    0  0.67409158152E+02  0.86279783587E+02  0.18426218971E+02  0.11103027157E+03  0.00000000000E+00 0. -1.
        -11    1    3    3    0    0 -0.50008271375E+02 -0.70721497451E+02 -0.11706882959E+03  0.14562784167E+03  0.00000000000E+00 0. -1.
         11    1    3    3    0    0  0.21297598507E+02 -0.30214886841E+02 -0.16062783640E+03  0.16482666325E+03  0.00000000000E+00 0.  1.
          1    1    1    2  501    0 -0.18302485082E+02 -0.11836116302E+02 -0.36456883631E+02  0.42475627993E+02  0.00000000000E+00 0. -1.
<scales pt_clust_5="13000.00000" pt_clust_6="13000.00000" pt_clust_7="13000.00000" pt_clust_8="13000.00000" pt_clust_9="21.79622"></scales>
<clustering>
<clus scale="   21.796">  1  9  2 -1</clus>
<clus scale="   75.013">  5  6 -1 -1</clus>
<clus scale="   90.852">  7  8 -1 -1</clus>
<clus scale="  131.266">  1  5  2 -1</clus>
<clus scale="   21.796">  1  5  2 -1</clus>
</clustering>
</event>
<event>
 9    2  0.4653788E-005  0.2431193E+03  0.7546771E-02  0.1145113E+00
         21   -1    0    0  501  502  0.00000000000E+00  0.00000000000E+00  0.14071589044E+03  0.14071589044E+03  0.00000000000E+00 0. -1.
          2   -1    0    0  502    0 -0.00000000000E+00 -0.00000000000E+00 -0.10871057830E+04  0.10871057830E+04  0.00000000000E+00 0. -1.
         23    2    1    2    0    0 -0.64531175880E+02  0.48354321793E+02 -0.64977920637E+02  0.14026135501E+03  0.94597592161E+02 0.  0.
         24    2    1    2    0    0 -0.10470406297E+03 -0.20720845590E+03 -0.80769674109E+03  0.84402564480E+03  0.78147159302E+02 0.  0.
        -13    1    4    4    0    0 -0.67898490731E+02 -0.11178655328E+03 -0.57760072162E+03  0.59222380242E+03  0.00000000000E+00 0.  1.
         14    1    4    4    0    0 -0.36805572243E+02 -0.95421902623E+02 -0.23009601947E+03  0.25180184238E+03  0.00000000000E+00 0. -1.
        -13    1    3    3    0    0 -0.28330077899E+02 -0.21879247469E+02  0.31474861322E+01  0.35933291702E+02  0.00000000000E+00 0. -1.
         13    1    3    3    0    0 -0.36201097981E+02  0.70233569262E+02 -0.68125406769E+02  0.10432806331E+03  0.00000000000E+00 0.  1.
          1    1    1    2  501    0  0.16923523885E+03  0.15885413411E+03 -0.73715230790E+02  0.24353467360E+03  0.00000000000E+00 0. -1.
<scales pt_clust_5="13000.00000" pt_clust_6="13000.00000" pt_clust_7="13000.00000" pt_clust_8="13000.00000" pt_clust_9="230.21736"></scales>
<clustering>
<clus scale="   78.147">  5  6 -1 -1</clus>
<clus scale="   94.598">  7  8 -1 -1</clus>
<clus scale="  124.303">  2  7  1 -1</clus>
<clus scale="  230.217">  1  9  2 -1</clus>
<clus scale="  230.217">  1  5  2 -1</clus>
</clustering>
</event>
<event>
 9    2  0.4653788E-005  0.1960494E+03  0.7546771E-02  0.1183084E+00
          2   -1    0    0  502    0 -0.00000000000E+00  0.00000000000E+00  0.95484516635E+03  0.95484516635E+03  0.00000000000E+00 0. -1.
         21   -1    0    0  501  502  0.00000000000E+00 -0.00000000000E+00 -0.10294554526E+03  0.10294554526E+03  0.00000000000E+00 0. -1.
         23    2    1    2    0    0  0.44934377371E+02 -0.10945435172E+02  0.73238567969E+01  0.98814160940E+02  0.87015508405E+02 0.  0.
         24    2    1    2    0    0  0.12741355090E+03 -0.65121820809E+02  0.70688378146E+03  0.72563320290E+03  0.79898686830E+02 0.  0.
        -11    1    4    4    0    0  0.33495386493E+02 -0.10061716489E+02  0.58377212903E+02  0.68052024520E+02  0.00000000000E+00 0.  1.
         12    1    4    4    0    0  0.93918164403E+02 -0.55060104320E+02  0.64850656856E+03  0.65758117837E+03  0.00000000000E+00 0. -1.
        -11    1    3    3    0    0  0.23211609395E+02 -0.30823107556E+02 -0.31693481254E+02  0.49933150553E+02  0.00000000000E+00 0. -1.
         11    1    3    3    0    0  0.21722767976E+02  0.19877672384E+02  0.39017338051E+02  0.48881010387E+02  0.00000000000E+00 0.  1.
          1    1    1    2  501    0 -0.17234792827E+03  0.76067255981E+02  0.13769198283E+03  0.23334334777E+03  0.00000000000E+00 0. -1.
<scales pt_clust_5="13000.00000" pt_clust_6="13000.00000" pt_clust_7="13000.00000" pt_clust_8="13000.00000" pt_clust_9="179.02956"></scales>
<clustering>
<clus scale="   79.899">  5  6 -1 -1</clus>
<clus scale="   87.016">  7  8 -1 -1</clus>
<clus scale="   98.542">  1  7  2 -1</clus>
<clus scale="  179.030">  2  9  1 -1</clus>
<clus scale="  179.030">  2  5  1 -1</clus>
</clustering>
</event>
<event>
 9    2  0.4653788E-005  0.9631534E+02  0.7546771E-02  0.1292214E+00
         -1   -1    0    0    0  501 -0.00000000000E+00  0.00000000000E+00  0.78306696765E+03  0.78306696765E+03  0.00000000000E+00 0.  1.
         21   -1    0    0  501  502  0.00000000000E+00 -0.00000000000E+00 -0.27337474883E+02  0.27337474883E+02  0.00000000000E+00 0.  1.
         24    2    1    2    0    0  0.41487701687E+02 -0.19917149345E+02  0.55579905220E+03  0.56356212191E+03  0.81066371527E+02 0.  0.
         23    2    1    2    0    0 -0.20039316956E+02 -0.19877380054E+02  0.16613740587E+03  0.19040113910E+03  0.88624328942E+02 0.  0.
        -11    1    3    3    0    0  0.29439754457E+02 -0.45229856800E+02  0.21718290657E+03  0.22378751974E+03  0.00000000000E+00 0.  1.
         12    1    3    3    0    0  0.12047947231E+02  0.25312707455E+02  0.33861614564E+03  0.33977460217E+03  0.00000000000E+00 0. -1.
        -13    1    4    4    0    0 -0.29343925519E+02 -0.45384354867E+02  0.59583869507E+02  0.80442794189E+02  0.00000000000E+00 0.  1.
         13    1    4    4    0    0  0.93046085626E+01  0.25506974813E+02  0.10655353636E+03  0.10995834491E+03  0.00000000000E+00 0. -1.
         -2    1    1    2    0  502 -0.21448384731E+02  0.39794529399E+02  0.33793034694E+02  0.56441181521E+02  0.00000000000E+00 0.  1.
<scales pt_clust_5="13000.00000" pt_clust_6="13000.00000" pt_clust_7="13000.00000" pt_clust_8="13000.00000" pt_clust_9="45.20661"></scales>
<clustering>
<clus scale="   45.207">  2  9  1 -1</clus>
<clus scale="   81.066">  5  6 -1 -1</clus>
<clus scale="   88.624">  7  8 -1 -1</clus>
<clus scale="   89.410">  1  5  2 -1</clus>
<clus scale="   45.207">  2  5  1 -1</clus>
</clustering>
</event>
<event>
 9    2  0.4653788E-005  0.9207995E+02  0.7546771E-02  0.1305038E+00
         -3   -1    0    0    0  501 -0.00000000000E+00  0.00000000000E+00  0.16025798027E+03  0.16025798027E+03  0.00000000000E+00 0.  1.
         21   -1    0    0  501  502  0.00000000000E+00 -0.00000000000E+00 -0.26754435143E+03  0.26754435143E+03  0.00000000000E+00 0. -1.
         23    2    1    2    0    0 -0.65721568860E+01  0.96829948551E+01  0.13254779072E+03  0.16129886390E+03  0.91167170817E+02 0.  0.
         24    2    1    2    0    0  0.10423335583E+02 -0.31939995612E+02 -0.22019694676E+03  0.23657311736E+03  0.79695264931E+02 0.  0.
        -11    1    4    4    0    0 -0.17081604119E+02  0.18651592073E+02 -0.39328156081E+02  0.46758602918E+02  0.00000000000E+00 0.  1.
         12    1    4    4    0    0  0.27504939702E+02 -0.50591587685E+02 -0.18086879068E+03  0.18981451445E+03  0.00000000000E+00 0. -1.
        -11    1    3    3    0    0 -0.22046411205E+01 -0.32680438876E+02  0.14531575109E+02  0.35833478798E+02  0.00000000000E+00 0. -1.
         11    1    3    3    0    0 -0.43675157655E+01  0.42363433731E+02  0.11801621561E+03  0.12546538510E+03  0.00000000000E+00 0.  1.
         -4    1    1    2    0  502 -0.38511786973E+01  0.22257000757E+02 -0.19637215122E+02  0.29930350445E+02  0.00000000000E+00 0.  1.
<scales pt_clust_5="13000.00000" pt_clust_6="13000.00000" pt_clust_7="13000.00000" pt_clust_8="13000.00000" pt_clust_9="22.58773"></scales>
<clustering>
<clus scale="   22.588">  2  9  1 -1</clus>
<clus scale="   79.695">  5  6 -1 -1</clus>
<clus scale="   80.738">  2  5  1 -1</clus>
<clus scale="   91.167">  7  8 -1 -1</clus>
<clus scale="   22.588">  2  5  1 -1</clus>
</clustering>
</event>
<event>
 9    2  0.4653788E-005  0.9318395E+02  0.7546771E-02  0.1301541E+00
         21   -1    0    0  501  502  0.00000000000E+00  0.00000000000E+00  0.16802289573E+02  0.16802289573E+02  0.00000000000E+00 0.  1.
         -1   -1    0    0    0  501 -0.00000000000E+00 -0.00000000000E+00 -0.86096275476E+03  0.86096275476E+03  0.00000000000E+00 0.  1.
         24    2    1    2    0    0 -0.36827908437E+02  0.19437005104E+02 -0.36307236667E+03  0.37403308715E+03  0.79656229106E+02 0.  0.
         23    2    1    2    0    0 -0.14934676438E+02 -0.12563361967E+02 -0.24148397874E+03  0.25850400939E+03  0.90160569325E+02 0.  0.
        -11    1    3    3    0    0 -0.26861750314E+02  0.42030978929E+02 -0.12352584962E+03  0.13321708728E+03  0.00000000000E+00 0.  1.
         12    1    3    3    0    0 -0.99661581224E+01 -0.22593973825E+02 -0.23954651704E+03  0.24081599986E+03  0.00000000000E+00 0. -1.
        -13    1    4    4    0    0  0.33246612451E+02  0.79233539448E+01 -0.14233138941E+03  0.14637739302E+03  0.00000000000E+00 0. -1.
         13    1    4    4    0    0 -0.48181288889E+02 -0.20486715912E+02 -0.99152589327E+02  0.11212661637E+03  0.00000000000E+00 0.  1.
         -2    1    1    2    0  502  0.51762584875E+02 -0.68736431370E+01 -0.23960411978E+03  0.24522794779E+03  0.00000000000E+00 0.  1.
<scales pt_clust_5="13000.00000" pt_clust_6="13000.00000" pt_clust_7="13000.00000" pt_clust_8="13000.00000" pt_clust_9="52.21700"></scales>
<clustering>
<clus scale="   52.217">  1  9  2 -1</clus>
<clus scale="   79.656">  5  6 -1 -1</clus>
<clus scale="   83.063">  2  5  1 -1</clus>
<clus scale="   90.161">  7  8 -1 -1</clus>
<clus scale="   52.217">  1  5  2 -1</clus>
</clustering>
</event>
<event>
 9    2  0.4653788E-005  0.1104813E+03  0.7546771E-02  0.1266444E+00
         -1   -1    0    0    0  501 -0.00000000000E+00  0.00000000000E+00  0.52091502934E+03  0.52091502934E+03  0.00000000000E+00 0.  1.
         21   -1    0    0  501  502  0.00000000000E+00 -0.00000000000E+00 -0.52762394421E+02  0.52762394421E+02  0.00000000000E+00 0. -1.
         23    2    1    2    0    0 -0.55111058730E+02 -0.33262545171E+02  0.41261615454E+03  0.42874188090E+03  0.97076689986E+02 0.  0.
         24    2    1    2    0    0  0.18342685242E+02  0.97942018647E+01  0.56930977394E+02  0.10129357856E+03  0.81159548908E+02 0.  0.
        -13    1    4    4    0    0 -0.28209724134E+02 -0.48648964442E+01  0.40899414035E+02  0.49922117559E+02  0.00000000000E+00 0.  1.
         14    1    4    4    0    0  0.46552409376E+02  0.14659098309E+02  0.16031563359E+02  0.51371461004E+02  0.00000000000E+00 0. -1.
        -11    1    3    3    0    0  0.27859778527E+02 -0.82462639950E+01  0.83629004931E+02  0.88532359028E+02  0.00000000000E+00 0. -1.
         11    1    3    3    0    0 -0.82970837257E+02 -0.25016281176E+02  0.32898714961E+03  0.34020952187E+03  0.00000000000E+00 0.  1.
         -2    1    1    2    0  502  0.36768373488E+02  0.23468343306E+02 -0.13944970150E+01  0.43641964305E+02  0.00000000000E+00 0.  1.
<scales pt_clust_5="13000.00000" pt_clust_6="13000.00000" pt_clust_7="13000.00000" pt_clust_8="13000.00000" pt_clust_9="43.61968"></scales>
<clustering>
<clus scale="   43.620">  2  9  1 -1</clus>
<clus scale="   81.160">  5  6 -1 -1</clus>
<clus scale="   96.794">  2  5  1 -1</clus>
<clus scale="   97.077">  7  8 -1 -1</clus>
<clus scale="   43.620">  2  5  1 -1</clus>
</clustering>
</event>
<event>
 9    2  0.4653788E-005  0.9329128E+02  0.7546771E-02  0.1302283E+00
         21   -1    0    0  501  502  0.00000000000E+00  0.00000000000E+00  0.61269344194E+02  0.61269344194E+02  0.00000000000E+00 0.  1.
          2   -1    0    0  502    0 -0.00000000000E+00 -0.00000000000E+00 -0.39006731974E+03  0.39006731974E+03  0.00000000000E+00 0. -1.
         23    2    1    2    0    0 -0.13251794476E+02  0.23089565629E+02 -0.18862112241E+03  0.21179611946E+03  0.92579318978E+02 0.  0.
         24    2    1    2    0    0 -0.90445025264E+00  0.56963781324E+02 -0.12051764025E+03  0.15590190343E+03  0.80840654807E+02 0.  0.
        -13    1    4    4    0    0  0.22113959946E+01  0.47577271954E+02 -0.15018778678E+02  0.49940472483E+02  0.00000000000E+00 0.  1.
         14    1    4    4    0    0 -0.31158462472E+01  0.93865093704E+01 -0.10549886157E+03  0.10596143095E+03  0.00000000000E+00 0. -1.
        -13    1    3    3    0    0  0.30740266579E+01  0.55216053595E+02 -0.14516437980E+03  0.15534142840E+03  0.00000000000E+00 0.  1.
         13    1    3    3    0    0 -0.16325821134E+02 -0.32126487965E+02 -0.43456742603E+02  0.56454691057E+02  0.00000000000E+00 0. -1.
          1    1    1    2  501    0  0.14156244729E+02 -0.80053346954E+02 -0.19659212886E+02  0.83638641037E+02  0.00000000000E+00 0. -1.
<scales pt_clust_5="13000.00000" pt_clust_6="13000.00000" pt_clust_7="13000.00000" pt_clust_8="13000.00000" pt_clust_9="81.29537"></scales>
<clustering>
<clus scale="   80.841">  5  6 -1 -1</clus>
<clus scale="   81.295">  1  9  2 -1</clus>
<clus scale="   81.655">  1  5  2 -1</clus>
<clus scale="   92.579">  7  8 -1 -1</clus>
<clus scale="   81.295">  1  5  2 -1</clus>
</clustering>
</event>
<event>
 9    2  0.4653788E-005  0.9290676E+02  0.7546771E-02  0.1303274E+00
         -3   -1    0    0    0  501 -0.00000000000E+00  0.00000000000E+00  0.32961820805E+03  0.32961820805E+03  0.00000000000E+00 0.  1.
         21   -1    0    0  501  502  0.00000000000E+00 -0.00000000000E+00 -0.81916375282E+02  0.81916375282E+02  0.00000000000E+00 0.  1.
         23    2    1    2    0    0  0.17116352567E+02 -0.42878670571E+01  0.23115788115E+03  0.24908164449E+03  0.91084270173E+02 0.  0.
         24    2    1    2    0    0  0.10452549354E+02  0.59645991319E+02  0.67433632461E+01  0.99838101890E+02  0.79090287474E+02 0.  0.
        -11    1    4    4    0    0 -0.14238229533E+02  0.64362915529E+02 -0.13831104507E+02  0.67354372742E+02  0.00000000000E+00 0.  1.
         12    1    4    4    0    0  0.24690778887E+02 -0.47169242095E+01  0.20574467753E+02  0.32483729148E+02  0.00000000000E+00 0. -1.
        -13    1    3    3    0    0  0.29857961908E+02  0.26572157723E+02  0.46006081139E+02  0.60943719587E+02  0.00000000000E+00 0.  1.
         13    1    3    3    0    0 -0.12741609341E+02 -0.30860024780E+02  0.18515180001E+03  0.18813792490E+03  0.00000000000E+00 0. -1.
         -4    1    1    2    0  502 -0.27568901921E+02 -0.55358124262E+02  0.98005883757E+01  0.62614836960E+02  0.00000000000E+00 0.  1.
<scales pt_clust_5="13000.00000" pt_clust_6="13000.00000" pt_clust_7="13000.00000" pt_clust_8="13000.00000" pt_clust_9="61.84308"></scales>
<clustering>
<clus scale="   61.843">  2  9  1 -1</clus>
<clus scale="   79.090">  5  6 -1 -1</clus>
<clus scale="   81.182">  2  5  1 -1</clus>
<clus scale="   91.084">  7  8 -1 -1</clus>
<clus scale="   61.843">  2  5  1 -1</clus>
</clustering>
</event>
<event>
 9    2  0.4653788E-005  0.1748923E+03  0.7546771E-02  0.1190551E+00
         21   -1    0    0  501  502  0.00000000000E+00  0.00000000000E+00  0.82786972751E+02  0.82786972751E+02  0.00000000000E+00 0. -1.
          2   -1    0    0  502    0 -0.00000000000E+00 -0.00000000000E+00 -0.67168105044E+03  0.67168105044E+03  0.00000000000E+00 0. -1.
         24    2    1    2    0    0  0.30193288407E+02 -0.79655324978E+02 -0.61695199135E+02  0.13279138961E+03  0.81059546612E+02 0.  0.
         23    2    1    2    0    0  0.85756894316E+02 -0.58894698842E+02 -0.28261159999E+03  0.31759853373E+03  0.10087954055E+03 0.  0.
        -13    1    3    3    0    0 -0.13659539137E+01 -0.34188564866E+02  0.15697588082E+02  0.37644894333E+02  0.00000000000E+00 0.  1.
         14    1    3    3    0    0  0.31559242320E+02 -0.45466760111E+02 -0.77392787217E+02  0.95146495280E+02  0.00000000000E+00 0. -1.
        -11    1    4    4    0    0  0.76582220265E+02  0.25642765421E+01 -0.20036208455E+03  0.21451428134E+03  0.00000000000E+00 0.  1.
         11    1    4    4    0    0  0.91746740514E+01 -0.61458975384E+02 -0.82249515446E+02  0.10308425239E+03  0.00000000000E+00 0. -1.
          1    1    1    2  501    0 -0.11595018272E+03  0.13855002382E+03 -0.24458727856E+03  0.30407809985E+03  0.00000000000E+00 0. -1.
<scales pt_clust_5="13000.00000" pt_clust_6="13000.00000" pt_clust_7="13000.00000" pt_clust_8="13000.00000" pt_clust_9="142.86582"></scales>
<clustering>
<clus scale="   81.060">  5  6 -1 -1</clus>
<clus scale="  100.880">  7  8 -1 -1</clus>
<clus scale="  117.589">  2  5  1 -1</clus>
<clus scale="  142.866">  1  9  2 -1</clus>
<clus scale="  142.866">  1  5  2 -1</clus>
</clustering>
</event>
<event>
 9    2  0.4653788E-005  0.1047556E+03  0.7546771E-02  0.1275506E+00
         21   -1    0    0  501  502  0.00000000000E+00  0.00000000000E+00  0.10068810782E+03  0.10068810782E+03  0.00000000000E+00 0.  1.
         -1   -1    0    0    0  501 -0.00000000000E+00 -0.00000000000E+00 -0.18357310957E+03  0.18357310957E+03  0.00000000000E+00 0.  1.
         24    2    1    2    0    0 -0.33206925652E+02 -0.18002798776E+02 -0.44618375689E+02  0.99013024489E+02  0.79912320040E+02 0.  0.
         23    2    1    2    0    0  0.43599729870E+02  0.73223970901E+02 -0.20520055706E+02  0.12632172185E+03  0.90958333136E+02 0.  0.
        -13    1    3    3    0    0  0.62756085345E+01 -0.36731897020E+02 -0.10112422076E+01  0.37277850420E+02  0.00000000000E+00 0.  1.
         14    1    3    3    0    0 -0.39482534186E+02  0.18729098244E+02 -0.43607133481E+02  0.61735174068E+02  0.00000000000E+00 0. -1.
        -13    1    4    4    0    0  0.14572459443E+02 -0.17704437834E+02  0.11489879369E+02  0.25648021779E+02  0.00000000000E+00 0. -1.
         13    1    4    4    0    0  0.29027270427E+02  0.90928408735E+02 -0.32009935076E+02  0.10067370008E+03  0.00000000000E+00 0.  1.
         -2    1    1    2    0  502 -0.10392804218E+02 -0.55221172125E+02 -0.17746570353E+02  0.58926471044E+02  0.00000000000E+00 0.  1.
<scales pt_clust_5="13000.00000" pt_clust_6="13000.00000" pt_clust_7="13000.00000" pt_clust_8="13000.00000" pt_clust_9="56.19067"></scales>
<clustering>
<clus scale="   56.191">  1  9  2 -1</clus>
<clus scale="   79.912">  5  6 -1 -1</clus>
<clus scale="   90.958">  7  8 -1 -1</clus>
<clus scale="   95.322">  2  5  1 -1</clus>
<clus scale="   56.191">  1  5  2 -1</clus>
</clustering>
</event>
<event>
 9    2  0.4653788E-005  0.9288103E+02  0.7546771E-02  0.1301880E+00
         -1   -1    0    0    0  501 -0.00000000000E+00  0.00000000000E+00  0.14482865734E+03  0.14482865734E+03  0.00000000000E+00 0.  1.
         21   -1    0    0  501  502  0.00000000000E+00 -0.00000000000E+00 -0.25020340139E+03  0.25020340139E+03  0.00000000000E+00 0.  1.
         23    2    1    2    0    0  0.45825574260E+02  0.27709289438E+02  0.58589224862E+02  0.11984157082E+03  0.89785950178E+02 0.  0.
         24    2    1    2    0    0  0.12620385104E+02 -0.37033661693E+01  0.17675506695E+02  0.82875346496E+02  0.79893119095E+02 0.  0.
        -11    1    4    4    0    0 -0.31158013115E+02  0.10460599549E+02  0.16667229357E+02  0.36851627625E+02  0.00000000000E+00 0.  1.
         12    1    4    4    0    0  0.43778398219E+02 -0.14163965718E+02  0.10082773371E+01  0.46023718871E+02  0.00000000000E+00 0. -1.
        -13    1    3    3    0    0  0.57144434688E+02  0.47533615851E+02  0.61957918721E+02  0.96766289295E+02  0.00000000000E+00 0.  1.
         13    1    3    3    0    0 -0.11318860428E+02 -0.19824326414E+02 -0.33686938595E+01  0.23075281525E+02  0.00000000000E+00 0. -1.
         -2    1    1    2    0  502 -0.58445959364E+02 -0.24005923268E+02 -0.18163947561E+03  0.19231514141E+03  0.00000000000E+00 0.  1.
<scales pt_clust_5="13000.00000" pt_clust_6="13000.00000" pt_clust_7="13000.00000" pt_clust_8="13000.00000" pt_clust_9="63.18397"></scales>
<clustering>
<clus scale="   63.184">  2  9  1 -1</clus>
<clus scale="   79.893">  5  6 -1 -1</clus>
<clus scale="   83.356">  2  5  1 -1</clus>
<clus scale="   89.786">  7  8 -1 -1</clus>
<clus scale="   63.184">  2  5  1 -1</clus>
</clustering>
</event>
<event>
 9    2  0.4653788E-005  0.1695183E+03  0.7546771E-02  0.1200800E+00
         -1   -1    0    0    0  501 -0.00000000000E+00  0.00000000000E+00  0.32707999639E+03  0.32707999639E+03  0.00000000000E+00 0.  1.
         21   -1    0    0  501  502  0.00000000000E+00 -0.00000000000E+00 -0.18115849572E+03  0.18115849572E+03  0.00000000000E+00 0.  1.
         23    2    1    2    0    0 -0.99216921013E+01 -0.29310396164E+02  0.14320160358E+03  0.17650739759E+03  0.98440961177E+02 0.  0.
         24    2    1    2    0    0 -0.49790070797E+02 -0.11877660258E+03  0.58272457106E+02  0.16267092550E+03  0.80493591528E+02 0.  0.
        -11    1    4    4    0    0 -0.62982451475E+02 -0.84311549144E+02  0.66990407506E+02  0.12475151787E+03  0.00000000000E+00 0.  1.
         12    1    4    4    0    0  0.13192380678E+02 -0.34465053432E+02 -0.87179503999E+01  0.37919407633E+02  0.00000000000E+00 0. -1.
        -11    1    3    3    0    0 -0.14816187753E+02  0.35354425608E+02  0.52233019670E+02  0.64789992850E+02  0.00000000000E+00 0. -1.
         11    1    3    3    0    0  0.48944956517E+01 -0.64664821773E+02  0.90968583912E+02  0.11171740474E+03  0.00000000000E+00 0.  1.
         -2    1    1    2    0  502  0.59711762898E+02  0.14808699874E+03 -0.55552560017E+02  0.16906016902E+03  0.00000000000E+00 0.  1.
<scales pt_clust_5="13000.00000" pt_clust_6="13000.00000" pt_clust_7="13000.00000" pt_clust_8="13000.00000" pt_clust_9="149.18854"></scales>
<clustering>
<clus scale="   80.494">  5  6 -1 -1</clus>
<clus scale="   98.441">  7  8 -1 -1</clus>
<clus scale="  103.190">  1  7  2 -1</clus>
<clus scale="  149.189">  2  9  1 -1</clus>
<clus scale="  149.189">  2  5  1 -1</clus>
</clustering>
</event>
<event>
 9    2  0.4653788E-005  0.9766524E+02  0.7546771E-02  0.1291753E+00
          2   -1    0    0  502    0 -0.00000000000E+00  0.00000000000E+00  0.87476323321E+02  0.87476323321E+02  0.00000000000E+00 0. -1.
         21   -1    0    0  501  502  0.00000000000E+00 -0.00000000000E+00 -0.16576555655E+03  0.16576555655E+03  0.00000000000E+00 0. -1.
         24    2    1    2    0    0 -0.21518575164E+02 -0.16860045905E+02  0.12155184857E+02  0.84806898220E+02  0.79354591813E+02 0.  0.
         23    2    1    2    0    0  0.34329063785E+02  0.34689345804E+02 -0.35932542495E+02  0.10966817866E+03  0.91400910648E+02 0.  0.
        -11    1    3    3    0    0  0.17907154212E+02  0.19953511787E+02  0.15127851829E+02  0.30784098258E+02  0.00000000000E+00 0.  1.
         12    1    3    3    0    0 -0.39425729376E+02 -0.36813557692E+02 -0.29726669717E+01  0.54022799962E+02  0.00000000000E+00 0. -1.
        -13    1    4    4    0    0 -0.17862022240E+02 -0.13724961300E+02 -0.30984563667E+02  0.38307565661E+02  0.00000000000E+00 0.  1.
         13    1    4    4    0    0  0.52191086025E+02  0.48414307104E+02 -0.49479788278E+01  0.71360612997E+02  0.00000000000E+00 0. -1.
          1    1    1    2  501    0 -0.12810488621E+02 -0.17829299898E+02 -0.54511875588E+02  0.58766802990E+02  0.00000000000E+00 0. -1.
<scales pt_clust_5="13000.00000" pt_clust_6="13000.00000" pt_clust_7="13000.00000" pt_clust_8="13000.00000" pt_clust_9="21.95433"></scales>
<clustering>
<clus scale="   21.954">  2  9  1 -1</clus>
<clus scale="   79.355">  5  6 -1 -1</clus>
<clus scale="   86.496">  1  5  2 -1</clus>
<clus scale="   91.401">  7  8 -1 -1</clus>
<clus scale="   21.954">  2  5  1 -1</clus>
</clustering>
</event>
<event>
 9    2  0.4653788E-005  0.1060670E+03  0.7546771E-02  0.1275649E+00
         21   -1    0    0  501  502  0.00000000000E+00  0.00000000000E+00  0.26904269172E+03  0.26904269172E+03  0.00000000000E+00 0. -1.
          2   -1    0    0  502    0 -0.00000000000E+00 -0.00000000000E+00 -0.11140963391E+03  0.11140963391E+03  0.00000000000E+00 0. -1.
         24    2    1    2    0    0 -0.32036354371E+02  0.63921759332E+02 -0.65845963038E+01  0.10767734975E+03  0.80241731189E+02 0.  0.
         23    2    1    2    0    0  0.42655976795E+02  0.41612266956E+02  0.56449755717E+02  0.12156609052E+03  0.89669539570E+02 0.  0.
        -13    1    3    3    0    0 -0.44412361145E+01  0.25699086286E+02  0.35793310626E+02  0.44286890834E+02  0.00000000000E+00 0.  1.
         14    1    3    3    0    0 -0.27595118256E+02  0.38222673046E+02 -0.42377906930E+02  0.63390458921E+02  0.00000000000E+00 0. -1.
        -13    1    4    4    0    0 -0.15425159329E+02  0.43745848239E+02  0.10710217846E+02  0.47606129278E+02  0.00000000000E+00 0.  1.
         13    1    4    4    0    0  0.58081136124E+02 -0.21335812838E+01  0.45739537872E+02  0.73959961244E+02  0.00000000000E+00 0. -1.
          1    1    1    2  501    0 -0.10619622424E+02 -0.10553402629E+03  0.10776789840E+03  0.15120888536E+03  0.00000000000E+00 0. -1.
<scales pt_clust_5="13000.00000" pt_clust_6="13000.00000" pt_clust_7="13000.00000" pt_clust_8="13000.00000" pt_clust_9="106.06699"></scales>
<clustering>
<clus scale="   80.242">  5  6 -1 -1</clus>
<clus scale="   89.670">  7  8 -1 -1</clus>
<clus scale="  106.067">  1  9  2 -1</clus>
<clus scale="   91.579">  2  5  1 -1</clus>
<clus scale="  106.067">  1  5  2 -1</clus>
</clustering>
</event>
<event>
 9    2  0.4653788E-005  0.9799165E+02  0.7546771E-02  0.1287901E+00
         -1   -1    0    0    0  501 -0.00000000000E+00  0.00000000000E+00  0.45223949539E+02  0.45223949539E+02  0.00000000000E+00 0.  1.
         21   -1    0    0  501  502  0.00000000000E+00 -0.00000000000E+00 -0.41214448125E+03  0.41214448125E+03  0.00000000000E+00 0. -1.
         24    2    1    2    0    0  0.26303127003E+02  0.33817100435E+02 -0.25580107838E+02  0.96330461026E+02  0.82400030538E+02 0.  0.
         23    2    1    2    0    0 -0.51869277312E+01 -0.35758560277E+02 -0.28990475310E+03  0.30540262698E+03  0.88996740657E+02 0.  0.
        -11    1    3    3    0    0 -0.15079998547E+02  0.41667542875E+02  0.45454290664E+01  0.44544936982E+02  0.00000000000E+00 0.  1.
         12    1    3    3    0    0  0.41383125549E+02 -0.78504424399E+01 -0.30125536904E+02  0.51785524044E+02  0.00000000000E+00 0. -1.
        -13    1    4    4    0    0 -0.45889763368E+02 -0.75497508942E+01 -0.13705471643E+03  0.14473031616E+03  0.00000000000E+00 0.  1.
         13    1    4    4    0    0  0.40702835637E+02 -0.28208809382E+02 -0.15285003666E+03  0.16067231082E+03  0.00000000000E+00 0. -1.
         -2    1    1    2    0  502 -0.21116199272E+02  0.19414598420E+01 -0.51435670778E+02  0.55635342781E+02  0.00000000000E+00 0.  1.
<scales pt_clust_5="13000.00000" pt_clust_6="13000.00000" pt_clust_7="13000.00000" pt_clust_8="13000.00000" pt_clust_9="21.20526"></scales>
<clustering>
<clus scale="   21.205">  2  9  1 -1</clus>
<clus scale="   82.400">  5  6 -1 -1</clus>
<clus scale="   88.997">  7  8 -1 -1</clus>
<clus scale="   92.042">  1  5  2 -1</clus>
<clus scale="   21.205">  2  5  1 -1</clus>
</clustering>
</event>
<event>
 9    2  0.4653788E-005  0.3006678E+03  0.7546771E-02  0.1133587E+00
          2   -1    0    0  502    0 -0.00000000000E+00  0.00000000000E+00  0.10216767373E+04  0.10216767373E+04  0.00000000000E+00 0. -1.
         21   -1    0    0  501  502  0.00000000000E+00 -0.00000000000E+00 -0.12895881315E+03  0.12895881315E+03  0.00000000000E+00 0. -1.
         23    2    1    2    0    0 -0.12361967958E+02 -0.32055799496E+01  0.20715052697E+02  0.89246866895E+02  0.85864986157E+02 0.  0.
         24    2    1    2    0    0  0.29141792893E+03  0.62791371934E+02  0.55511885771E+03  0.63496380845E+03  0.78453337481E+02 0.  0.
        -11    1    4    4    0    0  0.27206454135E+02 -0.82021847865E+01  0.22708670855E+02  0.36375138678E+02  0.00000000000E+00 0.  1.
         12    1    4    4    0    0  0.26421147479E+03  0.70993556721E+02  0.53241018686E+03  0.59858866977E+03  0.00000000000E+00 0. -1.
        -11    1    3    3    0    0 -0.19213285890E+02  0.23818859269E+02 -0.22385308727E+02  0.37915570131E+02  0.00000000000E+00 0.  1.
         11    1    3    3    0    0  0.68513179324E+01 -0.27024439218E+02  0.43100361425E+02  0.51331296763E+02  0.00000000000E+00 0. -1.
          1    1    1    2  501    0 -0.27905596097E+03 -0.59585791985E+02  0.31688401378E+03  0.42642487515E+03  0.00000000000E+00 0. -1.
<scales pt_clust_5="13000.00000" pt_clust_6="13000.00000" pt_clust_7="13000.00000" pt_clust_8="13000.00000" pt_clust_9="290.25194"></scales>
<clustering>
<clus scale="   78.453">  5  6 -1 -1</clus>
<clus scale="   85.865">  7  8 -1 -1</clus>
<clus scale="   86.810">  1  7  2 -1</clus>
<clus scale="  290.252">  2  9  1 -1</clus>
<clus scale="  290.252">  2  5  1 -1</clus>
</clustering>
</event>
<event>
 9    2  0.4653788E-005  0.2360562E+03  0.7546771E-02  0.1123816E+00
          2   -1    0    0  502    0 -0.00000000000E+00  0.00000000000E+00  0.13119442478E+04  0.13119442478E+04  0.00000000000E+00 0. -1.
         21   -1    0    0  501  502  0.00000000000E+00 -0.00000000000E+00 -0.19863672794E+03  0.19863672794E+03  0.00000000000E+00 0.  1.
         24    2    1    2    0    0  0.19886632077E+03  0.73875683655E+02  0.11851055009E+04  0.12066354024E+04  0.80551324083E+02 0.  0.
         23    2    1    2    0    0 -0.22009362542E+03 -0.69900559441E+02 -0.25973542970E+02  0.25328711696E+03  0.10075934957E+03 0.  0.
        -11    1    3    3    0    0  0.91655005870E+02 -0.78055776186E+01  0.50272936769E+03  0.51107571286E+03  0.00000000000E+00 0.  1.
         12    1    3    3    0    0  0.10721131490E+03  0.81681261274E+02  0.68237613325E+03  0.69555968954E+03  0.00000000000E+00 0. -1.
        -11    1    4    4    0    0 -0.46279387514E+02 -0.34104959375E+01 -0.46947621581E+02  0.66011304814E+02  0.00000000000E+00 0. -1.
         11    1    4    4    0    0 -0.17381423790E+03 -0.66490063503E+02  0.20974078611E+02  0.18727581215E+03  0.00000000000E+00 0.  1.
          1    1    1    2  501    0  0.21227304644E+02 -0.39751242147E+01 -0.45824438100E+02  0.50658456374E+02  0.00000000000E+00 0. -1.
<scales pt_clust_5="13000.00000" pt_clust_6="13000.00000" pt_clust_7="13000.00000" pt_clust_8="13000.00000" pt_clust_9="21.59630"></scales>
<clustering>
<clus scale="   21.596">  2  9  1 -1</clus>
<clus scale="   80.551">  5  6 -1 -1</clus>
<clus scale="  100.759">  7  8 -1 -1</clus>
<clus scale="  228.164">  1  5  2 -1</clus>
<clus scale="   21.596">  2  5  1 -1</clus>
</clustering>
</event>
<event>
 9    2  0.4653788E-005  0.1139169E+03  0.7546771E-02  0.1257122E+00
         21   -1    0    0  501  502  0.00000000000E+00  0.00000000000E+00  0.43691306085E+02  0.43691306085E+02  0.00000000000E+00 0.  1.
          2   -1    0    0  502    0 -0.00000000000E+00 -0.00000000000E+00 -0.84814867057E+03  0.84814867057E+03  0.00000000000E+00 0. -1.
         23    2    1    2    0    0  0.49646137947E+02  0.34923140136E+02 -0.53661559732E+03  0.54758246833E+03  0.90586398569E+02 0.  0.
         24    2    1    2    0    0 -0.11510774737E+03 -0.41835156872E+01 -0.20464859984E+03  0.24821833291E+03  0.80398980503E+02 0.  0.
        -13    1    4    4    0    0 -0.50239922048E+02  0.34790840154E+02 -0.12006994896E+03  0.13472655629E+03  0.00000000000E+00 0.  1.
         14    1    4    4    0    0 -0.64867825319E+02 -0.38974355841E+02 -0.84578650881E+02  0.11349177662E+03  0.00000000000E+00 0. -1.
        -11    1    3    3    0    0 -0.17196159274E+02 -0.15618480888E+02 -0.78481937038E+02  0.81847781157E+02  0.00000000000E+00 0.  1.
         11    1    3    3    0    0  0.66842297221E+02  0.50541621024E+02 -0.45813366028E+03  0.46573468717E+03  0.00000000000E+00 0. -1.
          1    1    1    2  501    0  0.65461609419E+02 -0.30739624449E+02 -0.63193167325E+02  0.96039175421E+02  0.00000000000E+00 0. -1.
<scales pt_clust_5="13000.00000" pt_clust_6="13000.00000" pt_clust_7="13000.00000" pt_clust_8="13000.00000" pt_clust_9="72.31975"></scales>
<clustering>
<clus scale="   72.320">  1  9  2 -1</clus>
<clus scale="   80.399">  5  6 -1 -1</clus>
<clus scale="   90.586">  7  8 -1 -1</clus>
<clus scale="  105.996">  1  5  2 -1</clus>
<clus scale="   72.320">  1  5  2 -1</clus>
</clustering>
</event>
<event>
 9    2  0.4653788E-005  0.9128028E+02  0.7546771E-02  0.1306432E+00
         21   -1    0    0  501  502  0.00000000000E+00  0.00000000000E+00  0.40280986168E+02  0.40280986168E+02  0.00000000000E+00 0.  1.
          2   -1    0    0  502    0 -0.00000000000E+00 -0.00000000000E+00 -0.49809556958E+03  0.49809556958E+03  0.00000000000E+00 0. -1.
         23    2    1    2    0    0  0.12416323548E+02  0.67447360774E+01 -0.15876939463E+03  0.18328844715E+03  0.90483576585E+02 0.  0.
         24    2    1    2    0    0  0.44169145755E+02 -0.17054500731E+02 -0.63208741462E+02  0.11233919209E+03  0.79893551990E+02 0.  0.
        -13    1    4    4    0    0  0.22777388472E+02  0.15244384671E+02  0.10273450555E+02  0.29270197742E+02  0.00000000000E+00 0.  1.
         14    1    4    4    0    0  0.21391757283E+02 -0.32298885402E+02 -0.73482192016E+02  0.83068994345E+02  0.00000000000E+00 0. -1.
        -11    1    3    3    0    0  0.31129295165E+02  0.40417712944E+02 -0.10903254030E+03  0.12037740395E+03  0.00000000000E+00 0.  1.
         11    1    3    3    0    0 -0.18712971617E+02 -0.33672976867E+02 -0.49736854333E+02  0.62911043202E+02  0.00000000000E+00 0. -1.
          1    1    1    2  501    0 -0.56585469303E+02  0.10309764654E+02 -0.23583644732E+03  0.24274891651E+03  0.00000000000E+00 0. -1.
<scales pt_clust_5="13000.00000" pt_clust_6="13000.00000" pt_clust_7="13000.00000" pt_clust_8="13000.00000" pt_clust_9="57.51704"></scales>
<clustering>
<clus scale="   57.517">  1  9  2 -1</clus>
<clus scale="   79.894">  5  6 -1 -1</clus>
<clus scale="   80.795">  1  5  2 -1</clus>
<clus scale="   90.484">  7  8 -1 -1</clus>
<clus scale="   57.517">  1  5  2 -1</clus>
</clustering>
</event>
<event>
 9    2  0.4653788E-005  0.1018653E+03  0.7546771E-02  0.1280742E+00
          2   -1    0    0  502    0 -0.00000000000E+00  0.00000000000E+00  0.92754785646E+03  0.92754785646E+03  0.00000000000E+00 0. -1.
         21   -1    0    0  501  502  0.00000000000E+00 -0.00000000000E+00 -0.34845526235E+02  0.34845526235E+02  0.00000000000E+00 0. -1.
         24    2    1    2    0    0 -0.35560126070E+02 -0.40523085262E+02  0.76012455498E+03  0.76632049014E+03  0.80938936993E+02 0.  0.
         23    2    1    2    0    0 -0.78736179240E+01  0.21156913312E+02  0.10819576319E+03  0.14263113693E+03  0.90153808615E+02 0.  0.
        -11    1    3    3    0    0 -0.11412271668E+02  0.22883126470E+02  0.12545021996E+03  0.12802982117E+03  0.00000000000E+00 0.  1.
         12    1    3    3    0    0 -0.24147854401E+02 -0.63406211732E+02  0.63467433502E+03  0.63829066897E+03  0.00000000000E+00 0. -1.
        -13    1    4    4    0    0  0.33702660184E+02  0.68715589545E+01  0.87546601916E+02  0.94061124451E+02  0.00000000000E+00 0.  1.
         13    1    4    4    0    0 -0.41576278108E+02  0.14285354358E+02  0.20649161278E+02  0.48570012476E+02  0.00000000000E+00 0. -1.
          1    1    1    2  501    0  0.43433743994E+02  0.19366171950E+02  0.24382012058E+02  0.53441755634E+02  0.00000000000E+00 0. -1.
<scales pt_clust_5="13000.00000" pt_clust_6="13000.00000" pt_clust_7="13000.00000" pt_clust_8="13000.00000" pt_clust_9="47.55564"></scales>
<clustering>
<clus scale="   47.556">  2  9  1 -1</clus>
<clus scale="   80.939">  5  6 -1 -1</clus>
<clus scale="   90.154">  7  8 -1 -1</clus>
<clus scale="   93.808">  1  5  2 -1</clus>
<clus scale="   47.556">  2  5  1 -1</clus>
</clustering>
</event>
<event>
 9    2  0.4653788E-005  0.1178604E+03  0.7546771E-02  0.1251564E+00
         -3   -1    0    0    0  501 -0.00000000000E+00  0.00000000000E+00  0.73304211950E+02  0.73304211950E+02  0.00000000000E+00 0.  1.
         21   -1    0    0  501  502  0.00000000000E+00 -0.00000000000E+00 -0.51651654337E+03  0.51651654337E+03  0.00000000000E+00 0.  1.
         24    2    1    2    0    0  0.30573738208E+02 -0.78772926575E+02 -0.32250974358E+02  0.11931486577E+03  0.77820205714E+02 0.  0.
         23    2    1    2    0    0 -0.81306307297E+02  0.80347899900E+01 -0.14328554049E+03  0.18903116545E+03  0.92340467502E+02 0.  0.
        -13    1    3    3    0    0 -0.23522055792E+02 -0.18017803620E+02  0.46427155442E+01  0.29991384823E+02  0.00000000000E+00 0.  1.
         14    1    3    3    0    0  0.54095794001E+02 -0.60755122956E+02 -0.36893689902E+02  0.89323480947E+02  0.00000000000E+00 0. -1.
        -13    1    4    4    0    0 -0.32149860760E+02  0.63108408771E+01 -0.13528780077E+03  0.13919852476E+03  0.00000000000E+00 0. -1.
         13    1    4    4    0    0 -0.49156446537E+02  0.17239491129E+01 -0.79977397265E+01  0.49832640683E+02  0.00000000000E+00 0.  1.
         -4    1    1    2    0  502  0.50732569089E+02  0.70738136585E+02 -0.26767581657E+03  0.28147472411E+03  0.00000000000E+00 0.  1.
<scales pt_clust_5="13000.00000" pt_clust_6="13000.00000" pt_clust_7="13000.00000" pt_clust_8="13000.00000" pt_clust_9="87.04986"></scales>
<clustering>
<clus scale="   77.820">  5  6 -1 -1</clus>
<clus scale="   87.050">  2  9  1 -1</clus>
<clus scale="   92.340">  7  8 -1 -1</clus>
<clus scale="  106.866">  1  5  2 -1</clus>
<clus scale="   87.050">  2  5  1 -1</clus>
</clustering>
</event>
<event>
 9    2  0.4653788E-005  0.1024024E+03  0.7546771E-02  0.1281134E+00
         21   -1    0    0  501  502  0.00000000000E+00  0.00000000000E+00  0.67474123068E+02  0.67474123068E+02  0.00000000000E+00 0. -1.
         -3   -1    0    0    0  501 -0.00000000000E+00 -0.00000000000E+00 -0.20735339254E+03  0.20735339254E+03  0.00000000000E+00 0.  1.
         24    2    1    2    0    0 -0.26868632976E+01 -0.49822040456E+02 -0.10797701047E+03  0.14329104056E+03  0.79898889629E+02 0.  0.
         23    2    1    2    0    0 -0.16640858972E+02  0.34777451443E+02 -0.37180080112E+02  0.10648141763E+03  0.92030128915E+02 0.  0.
        -11    1    3    3    0    0 -0.87526637288E+01 -0.70965886936E+02 -0.89557899886E+02  0.11460097584E+03  0.00000000000E+00 0.  1.
         12    1    3    3    0    0  0.60658004312E+01  0.21143846480E+02 -0.18419110586E+02  0.28690064720E+02  0.00000000000E+00 0. -1.
        -11    1    4    4    0    0 -0.26645495337E+02  0.13252460505E+02 -0.64051769450E+02  0.70627468458E+02  0.00000000000E+00 0.  1.
         11    1    4    4    0    0  0.10004636365E+02  0.21524990938E+02  0.26871689338E+02  0.35853949176E+02  0.00000000000E+00 0. -1.
         -4    1    1    2    0  502  0.19327722269E+02  0.15044589013E+02  0.52778211073E+01  0.25055057420E+02  0.00000000000E+00 0.  1.
<scales pt_clust_5="13000.00000" pt_clust_6="13000.00000" pt_clust_7="13000.00000" pt_clust_8="13000.00000" pt_clust_9="24.49287"></scales>
<clustering>
<clus scale="   24.493">  1  9  2 -1</clus>
<clus scale="   79.899">  5  6 -1 -1</clus>
<clus scale="   91.654">  2  5  1 -1</clus>
<clus scale="   92.030">  7  8 -1 -1</clus>
<clus scale="   24.493">  1  5  2 -1</clus>
</clustering>
</event>
<event>
 9    2  0.4653788E-005  0.1141664E+03  0.7546771E-02  0.1257332E+00
          2   -1    0    0  502    0 -0.00000000000E+00  0.00000000000E+00  0.44040951110E+03  0.44040951110E+03  0.00000000000E+00 0. -1.
         21   -1    0    0  501  502  0.00000000000E+00 -0.00000000000E+00 -0.16425289214E+03  0.16425289214E+03  0.00000000000E+00 0.  1.
         23    2    1    2    0    0  0.58810892692E+02  0.33360287928E+02  0.32980422331E+03  0.34881417434E+03  0.91262657179E+02 0.  0.
         24    2    1    2    0    0 -0.98419982195E+02  0.71974089949E+01 -0.11590175397E+03  0.17164973785E+03  0.79322886608E+02 0.  0.
        -11    1    4    4    0    0 -0.42533757060E+02  0.28531928903E+02 -0.95641574050E+02  0.10849194506E+03  0.00000000000E+00 0.  1.
         12    1    4    4    0    0 -0.55886225134E+02 -0.21334519908E+02 -0.20260179916E+02  0.63157792787E+02  0.00000000000E+00 0. -1.
        -11    1    3    3    0    0  0.24661319464E+02  0.56273113859E+02  0.26525815322E+03  0.27228061236E+03  0.00000000000E+00 0. -1.
         11    1    3    3    0    0  0.34149573228E+02 -0.22912825931E+02  0.64546070092E+02  0.76533561972E+02  0.00000000000E+00 0.  1.
          1    1    1    2  501    0  0.39609089503E+02 -0.40557696923E+02  0.62254149614E+02  0.84198491050E+02  0.00000000000E+00 0. -1.
<scales pt_clust_5="13000.00000" pt_clust_6="13000.00000" pt_clust_7="13000.00000" pt_clust_8="13000.00000" pt_clust_9="56.69048"></scales>
<clustering>
<clus scale="   56.690">  2  9  1 -1</clus>
<clus scale="   79.323">  5  6 -1 -1</clus>
<clus scale="   91.263">  7  8 -1 -1</clus>
<clus scale="  104.868">  2  5  1 -1</clus>
<clus scale="   56.690">  2  5  1 -1</clus>
</clustering>
</event>
<event>
 9    2  0.4653788E-005  0.1115062E+03  0.7546771E-02  0.1260678E+00
         21   -1    0    0  501  502  0.00000000000E+00  0.00000000000E+00  0.67252339631E+02  0.67252339631E+02  0.00000000000E+00 0. -1.
          2   -1    0    0  502    0 -0.00000000000E+00 -0.00000000000E+00 -0.22594163132E+03  0.22594163132E+03  0.00000000000E+00 0. -1.
         24    2    1    2    0    0 -0.55032297306E+02 -0.11207700192E+02 -0.60200194870E+02  0.11683151784E+03  0.82893750110E+02 0.  0.
         23    2    1    2    0    0  0.71852243656E+02  0.26761446500E+02 -0.63604292051E+02  0.13462782453E+03  0.90555095013E+02 0.  0.
        -11    1    3    3    0    0  0.21634196186E+02  0.29199076055E+01 -0.93016604217E+01  0.23729416167E+02  0.00000000000E+00 0.  1.
         12    1    3    3    0    0 -0.76666493492E+02 -0.14127607798E+02 -0.50898534449E+02  0.93102101670E+02  0.00000000000E+00 0. -1.
        -13    1    4    4    0    0  0.38974328259E+02  0.52218976791E+02 -0.66298778420E+02  0.92958850145E+02  0.00000000000E+00 0.  1.
         13    1    4    4    0    0  0.32877915398E+02 -0.25457530291E+02  0.26944863690E+01  0.41668974384E+02  0.00000000000E+00 0. -1.
          1    1    1    2  501    0 -0.16819946350E+02 -0.15553746308E+02 -0.34884804771E+02  0.41734628588E+02  0.00000000000E+00 0. -1.
<scales pt_clust_5="13000.00000" pt_clust_6="13000.00000" pt_clust_7="13000.00000" pt_clust_8="13000.00000" pt_clust_9="22.90917"></scales>
<clustering>
<clus scale="   22.909">  1  9  2 -1</clus>
<clus scale="   82.894">  5  6 -1 -1</clus>
<clus scale="   90.555">  7  8 -1 -1</clus>
<clus scale="  105.379">  2  5  1 -1</clus>
<clus scale="   22.909">  1  5  2 -1</clus>
</clustering>
</event>
<event>
 9    2  0.4653788E-005  0.1041862E+03  0.7546771E-02  0.1283889E+00
         -1   -1    0    0    0  501 -0.00000000000E+00  0.00000000000E+00  0.12947839965E+03  0.12947839965E+03  0.00000000000E+00 0.  1.
         21   -1    0    0  501  502  0.00000000000E+00 -0.00000000000E+00 -0.19411991898E+03  0.19411991898E+03  0.00000000000E+00 0. -1.
         23    2    1    2    0    0 -0.19760846141E+02 -0.98680799483E+01  0.85245036483E+02  0.13406405289E+03  0.10108701198E+03 0.  0.
         24    2    1    2    0    0  0.27804707364E+02  0.33332675279E+02 -0.10446271491E+03  0.13777891568E+03  0.78653682725E+02 0.  0.
        -11    1    4    4    0    0 -0.13190906224E+02 -0.19071326789E+02 -0.30091412144E+02  0.37989585380E+02  0.00000000000E+00 0.  1.
         12    1    4    4    0    0  0.40995613588E+02  0.52404002068E+02 -0.74371302770E+02  0.99789330301E+02  0.00000000000E+00 0. -1.
        -11    1    3    3    0    0 -0.91055455243E+01 -0.44309164605E+02  0.86906351478E+02  0.97974113696E+02  0.00000000000E+00 0.  1.
         11    1    3    3    0    0 -0.10655300617E+02  0.34441084657E+02 -0.16613149954E+01  0.36089939195E+02  0.00000000000E+00 0. -1.
         -2    1    1    2    0  502 -0.80438612224E+01 -0.23464595331E+02 -0.45423840898E+02  0.51755350055E+02  0.00000000000E+00 0.  1.
<scales pt_clust_5="13000.00000" pt_clust_6="13000.00000" pt_clust_7="13000.00000" pt_clust_8="13000.00000" pt_clust_9="24.80506"></scales>
<clustering>
<clus scale="   24.805">  2  9  1 -1</clus>
<clus scale="   78.654">  5  6 -1 -1</clus>
<clus scale="   82.599">  2  5  1 -1</clus>
<clus scale="  101.087">  7  8 -1 -1</clus>
<clus scale="   24.805">  2  5  1 -1</clus>
</clustering>
</event>
<event>
 9    2  0.4653788E-005  0.9946611E+02  0.7546771E-02  0.1284630E+00
         21   -1    0    0  501  502  0.00000000000E+00  0.00000000000E+00  0.16362394064E+03  0.16362394064E+03  0.00000000000E+00 0.  1.
         -3   -1    0    0    0  501 -0.00000000000E+00 -0.00000000000E+00 -0.11944523881E+03  0.11944523881E+03  0.00000000000E+00 0.  1.
         24    2    1    2    0    0 -0.51780600702E+01  0.12688988175E+01 -0.37779732766E+02  0.10622976610E+03  0.99141477629E+02 0.  0.
         23    2    1    2    0    0 -0.27774829598E+02  0.99372397566E+01  0.11800153210E+02  0.98521759360E+02  0.93258262682E+02 0.  0.
        -11    1    3    3    0    0  0.15844279554E+02  0.36889598222E+02 -0.49025184449E+02  0.63366808044E+02  0.00000000000E+00 0.  1.
         12    1    3    3    0    0 -0.21022339624E+02 -0.35620699404E+02  0.11245451683E+02  0.42862958051E+02  0.00000000000E+00 0. -1.
        -11    1    4    4    0    0  0.32845134751E+00  0.41593683603E+02 -0.19437659244E+02  0.45912579897E+02  0.00000000000E+00 0. -1.
         11    1    4    4    0    0 -0.28103280945E+02 -0.31656443846E+02  0.31237812453E+02  0.52609179463E+02  0.00000000000E+00 0.  1.
         -4    1    1    2    0  502  0.32952889668E+02 -0.11206138574E+02  0.70158281385E+02  0.78317653987E+02  0.00000000000E+00 0.  1.
<scales pt_clust_5="13000.00000" pt_clust_6="13000.00000" pt_clust_7="13000.00000" pt_clust_8="13000.00000" pt_clust_9="34.80618"></scales>
<clustering>
<clus scale="   34.806">  1  9  2 -1</clus>
<clus scale="   93.258">  7  8 -1 -1</clus>
<clus scale="   93.603">  1  7  2 -1</clus>
<clus scale="   99.141">  5  6 -1 -1</clus>
<clus scale="   34.806">  1  5  2 -1</clus>
</clustering>
</event>
<event>
 9    2  0.4653788E-005  0.1037901E+03  0.7546771E-02  0.1275113E+00
         21   -1    0    0  501  502  0.00000000000E+00  0.00000000000E+00  0.12709020028E+03  0.12709020028E+03  0.00000000000E+00 0. -1.
          2   -1    0    0  502    0 -0.00000000000E+00 -0.00000000000E+00 -0.24212667626E+03  0.24212667626E+03  0.00000000000E+00 0. -1.
         23    2    1    2    0    0 -0.80697052047E+01  0.52781318576E+02 -0.19631544327E+03  0.22203212579E+03  0.88924259244E+02 0.  0.
         24    2    1    2    0    0  0.29219191251E+02 -0.50155337250E+02  0.69614039560E+02  0.12288933808E+03  0.82984070263E+02 0.  0.
        -13    1    4    4    0    0  0.10152738778E+01 -0.58014805558E+02  0.73182739949E+02  0.93394121182E+02  0.00000000000E+00 0.  1.
         14    1    4    4    0    0  0.28203917373E+02  0.78594683082E+01 -0.35687003890E+01  0.29495216896E+02  0.00000000000E+00 0. -1.
        -13    1    3    3    0    0  0.21808781370E+02  0.37864990450E+02 -0.17930857161E+03  0.18455607359E+03  0.00000000000E+00 0. -1.
         13    1    3    3    0    0 -0.29878486574E+02  0.14916328126E+02 -0.17006871668E+02  0.37476052202E+02  0.00000000000E+00 0.  1.
          1    1    1    2  501    0 -0.21149486046E+02 -0.26259813262E+01  0.11664927729E+02  0.24295412671E+02  0.00000000000E+00 0. -1.
<scales pt_clust_5="13000.00000" pt_clust_6="13000.00000" pt_clust_7="13000.00000" pt_clust_8="13000.00000" pt_clust_9="21.31189"></scales>
<clustering>
<clus scale="   21.312">  1  9  2 -1</clus>
<clus scale="   82.984">  5  6 -1 -1</clus>
<clus scale="   88.924">  7  8 -1 -1</clus>
<clus scale="   98.748">  1  5  2 -1</clus>
<clus scale="   21.312">  1  5  2 -1</clus>
</clustering>
</event>
<event>
 9    2  0.4653788E-005  0.4637799E+03  0.7546771E-02  0.1023691E+00
          2   -1    0    0  502    0 -0.00000000000E+00  0.00000000000E+00  0.38560571111E+03  0.38560571111E+03  0.00000000000E+00 0. -1.
         21   -1    0    0  501  502  0.00000000000E+00 -0.00000000000E+00 -0.51743900068E+03  0.51743900068E+03  0.00000000000E+00 0. -1.
         24    2    1    2    0    0  0.28623638875E+03  0.19087947090E+03  0.32049462103E+02  0.35434127197E+03  0.78513224015E+02 0.  0.
         23    2    1    2    0    0  0.50061727016E+02  0.35643691937E+02  0.18286864875E+01  0.11067439203E+03  0.92026233603E+02 0.  0.
        -11    1    3    3    0    0  0.63770646921E+02  0.64596376224E+02  0.38142606243E+02  0.98459360352E+02  0.00000000000E+00 0.  1.
         12    1    3    3    0    0  0.22246574182E+03  0.12628309468E+03 -0.60931441392E+01  0.25588191162E+03  0.00000000000E+00 0. -1.
        -11    1    4    4    0    0  0.36106130971E+02  0.65043263325E+02 -0.11927298503E+02  0.75342811517E+02  0.00000000000E+00 0.  1.
         11    1    4    4    0    0  0.13955596045E+02 -0.29399571388E+02  0.13755984990E+02  0.35331580517E+02  0.00000000000E+00 0. -1.
          1    1    1    2  501    0 -0.33629811576E+03 -0.22652316284E+03 -0.16571143817E+03  0.43802904779E+03  0.00000000000E+00 0. -1.
<scales pt_clust_5="13000.00000" pt_clust_6="13000.00000" pt_clust_7="13000.00000" pt_clust_8="13000.00000" pt_clust_9="405.47400"></scales>
<clustering>
<clus scale="   78.513">  5  6 -1 -1</clus>
<clus scale="   92.026">  7  8 -1 -1</clus>
<clus scale="   92.093">  5  7 -1 -1</clus>
<clus scale="  405.474">  2  9  1 -1</clus>
<clus scale="  405.474">  2  5  1 -1</clus>
</clustering>
</event>
<event>
 9    2  0.4653788E-005  0.1868372E+03  0.7546771E-02  0.1162561E+00
          4   -1    0    0  502    0 -0.00000000000E+00  0.00000000000E+00  0.37469684160E+03  0.37469684160E+03  0.00000000000E+00 0. -1.
         21   -1    0    0  501  502  0.00000000000E+00 -0.00000000000E+00 -0.30721770171E+03  0.30721770171E+03  0.00000000000E+00 0. -1.
         23    2    1    2    0    0 -0.86373085397E+02 -0.12439978608E+03  0.22739469086E+03  0.28830646699E+03  0.92068761354E+02 0.  0.
         24    2    1    2    0    0  0.75809732044E+02  0.19462488732E+03 -0.60080664888E+01  0.22410685786E+03  0.81005090210E+02 0.  0.
        -11    1    4    4    0    0  0.49535295944E+02  0.35708873365E+02 -0.14665859437E+02  0.62800928451E+02  0.00000000000E+00 0.  1.
         12    1    4    4    0    0  0.26274436100E+02  0.15891601396E+03  0.86577929482E+01  0.16130592941E+03  0.00000000000E+00 0. -1.
        -11    1    3    3    0    0 -0.66213630130E+02 -0.90300509353E+02  0.85217517604E+02  0.14071407929E+03  0.00000000000E+00 0.  1.
         11    1    3    3    0    0 -0.20159455267E+02 -0.34099276724E+02  0.14217717326E+03  0.14759238770E+03  0.00000000000E+00 0. -1.
          3    1    1    2  501    0  0.10563353353E+02 -0.70225101245E+02 -0.15390748449E+03  0.16950121846E+03  0.00000000000E+00 0. -1.
<scales pt_clust_5="13000.00000" pt_clust_6="13000.00000" pt_clust_7="13000.00000" pt_clust_8="13000.00000" pt_clust_9="71.01513"></scales>
<clustering>
<clus scale="   71.015">  2  9  1 -1</clus>
<clus scale="   81.005">  5  6 -1 -1</clus>
<clus scale="   92.069">  7  8 -1 -1</clus>
<clus scale="  181.641">  2  5  1 -1</clus>
<clus scale="   71.015">  2  5  1 -1</clus>
</clustering>
</event>
<event>
 9    2  0.4653788E-005  0.1033157E+03  0.7546771E-02  0.1278808E+00
         21   -1    0    0  501  502  0.00000000000E+00  0.00000000000E+00  0.55428749189E+02  0.55428749189E+02  0.00000000000E+00 0.  1.
         -1   -1    0    0    0  501 -0.00000000000E+00 -0.00000000000E+00 -0.50518310713E+03  0.50518310713E+03  0.00000000000E+00 0.  1.
         23    2    1    2    0    0  0.29282250510E+02 -0.34187789070E+02 -0.37700159613E+03  0.39034371243E+03  0.90618735542E+02 0.  0.
         24    2    1    2    0    0 -0.51487734007E+02  0.41575757045E+02 -0.93386357071E+02  0.13906861151E+03  0.78990738023E+02 0.  0.
        -13    1    4    4    0    0 -0.33534274379E+02 -0.18458833681E+02 -0.49467169266E+02  0.62548196889E+02  0.00000000000E+00 0.  1.
         14    1    4    4    0    0 -0.17953459628E+02  0.60034590726E+02 -0.43919187805E+02  0.76520414621E+02  0.00000000000E+00 0. -1.
        -11    1    3    3    0    0  0.14963244337E+02 -0.63113369740E+02 -0.29850123189E+03  0.30546715300E+03  0.00000000000E+00 0.  1.
         11    1    3    3    0    0  0.14319006173E+02  0.28925580670E+02 -0.78500364238E+02  0.84876559428E+02  0.00000000000E+00 0. -1.
         -2    1    1    2    0  502  0.22205483497E+02 -0.73879679746E+01  0.20633595253E+02  0.31199532387E+02  0.00000000000E+00 0.  1.
<scales pt_clust_5="13000.00000" pt_clust_6="13000.00000" pt_clust_7="13000.00000" pt_clust_8="13000.00000" pt_clust_9="23.40226"></scales>
<clustering>
<clus scale="   23.402">  1  9  2 -1</clus>
<clus scale="   78.991">  5  6 -1 -1</clus>
<clus scale="   90.619">  7  8 -1 -1</clus>
<clus scale="   93.284">  1  5  2 -1</clus>
<clus scale="   23.402">  1  5  2 -1</clus>
</clustering>
</event>
<event>
 9    2  0.4653788E-005  0.2463888E+03  0.7546771E-02  0.1115984E+00
         21   -1    0    0  501  502  0.00000000000E+00  0.00000000000E+00  0.24034697135E+03  0.24034697135E+03  0.00000000000E+00 0. -1.
          2   -1    0    0  502    0 -0.00000000000E+00 -0.00000000000E+00 -0.65626168958E+03  0.65626168958E+03  0.00000000000E+00 0. -1.
         23    2    1    2    0    0  0.90230392486E+02  0.20521638367E+03 -0.23044567712E+03  0.33566885351E+03  0.96504306948E+02 0.  0.
         24    2    1    2    0    0  0.17872517868E+03 -0.16017480103E+03 -0.12087342231E+03  0.28069270681E+03  0.81113223699E+02 0.  0.
        -13    1    4    4    0    0  0.23598431588E+02 -0.28731039178E+02  0.10478510767E+02  0.38628458079E+02  0.00000000000E+00 0.  1.
         14    1    4    4    0    0  0.15512674709E+03 -0.13144376185E+03 -0.13135193307E+03  0.24206424873E+03  0.00000000000E+00 0. -1.
        -13    1    3    3    0    0  0.50975554026E+02  0.12234666867E+03 -0.19826822097E+03  0.23849004569E+03  0.00000000000E+00 0. -1.
         13    1    3    3    0    0  0.39254838460E+02  0.82869714998E+02 -0.32177456148E+02  0.97178807826E+02  0.00000000000E+00 0.  1.
          1    1    1    2  501    0 -0.26895557117E+03 -0.45041582641E+02 -0.64595618798E+02  0.28024710060E+03  0.00000000000E+00 0. -1.
<scales pt_clust_5="13000.00000" pt_clust_6="13000.00000" pt_clust_7="13000.00000" pt_clust_8="13000.00000" pt_clust_9="232.65446"></scales>
<clustering>
<clus scale="   81.113">  5  6 -1 -1</clus>
<clus scale="   96.504">  7  8 -1 -1</clus>
<clus scale="  244.066">  2  7  1 -1</clus>
<clus scale="  232.654">  1  9  2 -1</clus>
<clus scale="  232.654">  1  5  2 -1</clus>
</clustering>
</event>
<event>
 9    2  0.4653788E-005  0.1964372E+03  0.7546771E-02  0.1170610E+00
          2   -1    0    0  502    0 -0.00000000000E+00  0.00000000000E+00  0.26705752373E+04  0.26705752373E+04  0.00000000000E+00 0. -1.
         21   -1    0    0  501  502  0.00000000000E+00 -0.00000000000E+00 -0.32894479578E+02  0.32894479578E+02  0.00000000000E+00 0. -1.
         24    2    1    2    0    0  0.89575929162E+02 -0.49003716929E+02  0.11540783088E+04  0.11613619949E+04  0.80247921363E+02 0.  0.
         23    2    1    2    0    0  0.10624896993E+03 -0.95544570856E+02  0.46317880243E+03  0.49305766749E+03  0.90297573700E+02 0.  0.
        -11    1    3    3    0    0  0.15889439660E+01 -0.31121353192E+02  0.14574524504E+03  0.14903939016E+03  0.00000000000E+00 0.  1.
         12    1    3    3    0    0  0.87986985196E+02 -0.17882363737E+02  0.10083330638E+04  0.10123226047E+04  0.00000000000E+00 0. -1.
        -13    1    4    4    0    0  0.54077648626E+02  0.62508045730E+01  0.13815879933E+03  0.14849686350E+03  0.00000000000E+00 0. -1.
         13    1    4    4    0    0  0.52171321307E+02 -0.10179537543E+03  0.32502000311E+03  0.34456080399E+03  0.00000000000E+00 0.  1.
          1    1    1    2  501    0 -0.19582489910E+03  0.14454828779E+03  0.10204236465E+04  0.10490500545E+04  0.00000000000E+00 0. -1.
<scales pt_clust_5="13000.00000" pt_clust_6="13000.00000" pt_clust_7="13000.00000" pt_clust_8="13000.00000" pt_clust_9="174.45334"></scales>
<clustering>
<clus scale="   80.248">  5  6 -1 -1</clus>
<clus scale="   90.298">  7  8 -1 -1</clus>
<clus scale="  129.865">  1  5  2 -1</clus>
<clus scale="  174.453">  2  9  1 -1</clus>
<clus scale="  174.453">  2  5  1 -1</clus>
</clustering>
</event>
<event>
 9    2  0.4653788E-005  0.9261610E+02  0.7546771E-02  0.1304289E+00
         -3   -1    0    0    0  501 -0.00000000000E+00  0.00000000000E+00  0.67021217561E+02  0.67021217561E+02  0.00000000000E+00 0.  1.
         21   -1    0    0  501  502  0.00000000000E+00 -0.00000000000E+00 -0.24287234878E+03  0.24287234878E+03  0.00000000000E+00 0. -1.
         24    2    1    2    0    0  0.17139628159E+02  0.20375460463E+02 -0.66044117346E+02  0.10738612055E+03  0.80380515099E+02 0.  0.
         23    2    1    2    0    0  0.26707199735E+02  0.21658631463E+02 -0.10079109870E+03  0.14110145319E+03  0.92565672267E+02 0.  0.
        -11    1    3    3    0    0  0.37997190258E+02 -0.87959297877E+01 -0.90331875601E+01  0.40034401779E+02  0.00000000000E+00 0.  1.
         12    1    3    3    0    0 -0.20857562099E+02  0.29171390251E+02 -0.57010929786E+02  0.67351718768E+02  0.00000000000E+00 0. -1.
        -11    1    4    4    0    0  0.50311277305E+02  0.41767861104E+02 -0.81861307890E+02  0.10477143015E+03  0.00000000000E+00 0. -1.
         11    1    4    4    0    0 -0.23604077570E+02 -0.20109229641E+02 -0.18929790807E+02  0.36330023048E+02  0.00000000000E+00 0.  1.
         -4    1    1    2    0  502 -0.43846827894E+02 -0.42034091926E+02 -0.90159151722E+01  0.61405992597E+02  0.00000000000E+00 0.  1.
<scales pt_clust_5="13000.00000" pt_clust_6="13000.00000" pt_clust_7="13000.00000" pt_clust_8="13000.00000" pt_clust_9="60.74054"></scales>
<clustering>
<clus scale="   60.741">  2  9  1 -1</clus>
<clus scale="   80.381">  5  6 -1 -1</clus>
<clus scale="   80.439">  1  5  2 -1</clus>
<clus scale="   92.566">  7  8 -1 -1</clus>
<clus scale="   60.741">  2  5  1 -1</clus>
</clustering>
</event>
<event>
 9    2  0.4653788E-005  0.1634557E+03  0.7546771E-02  0.1186530E+00
          2   -1    0    0  502    0 -0.00000000000E+00  0.00000000000E+00  0.80422575626E+03  0.80422575626E+03  0.00000000000E+00 0. -1.
         21   -1    0    0  501  502  0.00000000000E+00 -0.00000000000E+00 -0.47450231465E+02  0.47450231465E+02  0.00000000000E+00 0.  1.
         24    2    1    2    0    0 -0.11565978197E+03 -0.84459256501E+02  0.40309495963E+03  0.43555332681E+03  0.81918269261E+02 0.  0.
         23    2    1    2    0    0  0.11875475416E+03  0.46269896994E+02  0.34108562665E+03  0.37579105410E+03  0.92929632685E+02 0.  0.
        -11    1    3    3    0    0 -0.22630839600E+02 -0.48939948916E+02  0.72924778439E+02  0.90693422095E+02  0.00000000000E+00 0.  1.
         12    1    3    3    0    0 -0.93028942370E+02 -0.35519307585E+02  0.33017018119E+03  0.34485990471E+03  0.00000000000E+00 0. -1.
        -13    1    4    4    0    0  0.44172696047E+02  0.44310693630E+02  0.66740054878E+02  0.91481689813E+02  0.00000000000E+00 0.  1.
         13    1    4    4    0    0  0.74582058115E+02  0.19592033645E+01  0.27434557177E+03  0.28430936428E+03  0.00000000000E+00 0. -1.
          1    1    1    2  501    0 -0.30949721927E+01  0.38189359506E+02  0.12594938517E+02  0.40331606819E+02  0.00000000000E+00 0. -1.
<scales pt_clust_5="13000.00000" pt_clust_6="13000.00000" pt_clust_7="13000.00000" pt_clust_8="13000.00000" pt_clust_9="38.31457"></scales>
<clustering>
<clus scale="   38.315">  2  9  1 -1</clus>
<clus scale="   81.918">  5  6 -1 -1</clus>
<clus scale="   92.930">  7  8 -1 -1</clus>
<clus scale="  157.456">  1  5  2 -1</clus>
<clus scale="   38.315">  2  5  1 -1</clus>
</clustering>
</event>
<event>
 9    2  0.4653788E-005  0.1192850E+03  0.7546771E-02  0.1247874E+00
         21   -1    0    0  501  502  0.00000000000E+00  0.00000000000E+00  0.15788344101E+03  0.15788344101E+03  0.00000000000E+00 0. -1.
          4   -1    0    0  502    0 -0.00000000000E+00 -0.00000000000E+00 -0.31496267759E+03  0.31496267759E+03  0.00000000000E+00 0. -1.
         23    2    1    2    0    0 -0.61166346049E+02  0.11989480265E+00 -0.43885779239E+02  0.11871174570E+03  0.91788783000E+02 0.  0.
         24    2    1    2    0    0  0.10935475715E+03  0.78218498850E+02  0.51883077481E+02  0.16516535630E+03  0.80691664493E+02 0.  0.
        -11    1    4    4    0    0  0.37962188887E+02  0.64126394054E+02  0.54539943575E+02  0.92346779287E+02  0.00000000000E+00 0.  1.
         12    1    4    4    0    0  0.71392568258E+02  0.14092104796E+02 -0.26568660947E+01  0.72818577008E+02  0.00000000000E+00 0. -1.
        -13    1    3    3    0    0  0.66338904947E+01  0.33795080857E+02 -0.10789225767E+02  0.36090488856E+02  0.00000000000E+00 0.  1.
         13    1    3    3    0    0 -0.67800236544E+02 -0.33675186054E+02 -0.33096553472E+02  0.82621256847E+02  0.00000000000E+00 0. -1.
          3    1    1    2  501    0 -0.48188411096E+02 -0.78338393653E+02 -0.16507653483E+03  0.18896901660E+03  0.00000000000E+00 0. -1.
<scales pt_clust_5="13000.00000" pt_clust_6="13000.00000" pt_clust_7="13000.00000" pt_clust_8="13000.00000" pt_clust_9="91.97301"></scales>
<clustering>
<clus scale="   80.692">  5  6 -1 -1</clus>
<clus scale="   91.789">  7  8 -1 -1</clus>
<clus scale="   91.973">  1  9  2 -1</clus>
<clus scale="  110.972">  1  5  2 -1</clus>
<clus scale="   91.973">  1  5  2 -1</clus>
</clustering>
</event>
<event>
 9    2  0.4653788E-005  0.1491725E+03  0.7546771E-02  0.1203675E+00
          2   -1    0    0  502    0 -0.00000000000E+00  0.00000000000E+00  0.90501761208E+03  0.90501761208E+03  0.00000000000E+00 0. -1.
         21   -1    0    0  501  502  0.00000000000E+00 -0.00000000000E+00 -0.60830535432E+02  0.60830535432E+02  0.00000000000E+00 0. -1.
         24    2    1    2    0    0  0.13008001886E+03 -0.37277495204E+01  0.64874733312E+03  0.66642234962E+03  0.79441415029E+02 0.  0.
         23    2    1    2    0    0 -0.93404484856E+02 -0.94120112379E+01  0.21810363314E+03  0.25435474289E+03  0.91181997631E+02 0.  0.
        -11    1    3    3    0    0  0.63454506435E+02 -0.39840612660E+02  0.37300914724E+03  0.38045968608E+03  0.00000000000E+00 0.  1.
         12    1    3    3    0    0  0.66625512421E+02  0.36112863139E+02  0.27573818587E+03  0.28596266354E+03  0.00000000000E+00 0. -1.
        -13    1    4    4    0    0 -0.66383268216E+02 -0.24263535051E+01  0.21643032184E+03  0.22639503020E+03  0.00000000000E+00 0.  1.
         13    1    4    4    0    0 -0.27021216640E+02 -0.69856577328E+01  0.16733113074E+01  0.27959712684E+02  0.00000000000E+00 0. -1.
          1    1    1    2  501    0 -0.36675533999E+02  0.13139760758E+02 -0.22663889613E+02  0.45071055006E+02  0.00000000000E+00 0. -1.
<scales pt_clust_5="13000.00000" pt_clust_6="13000.00000" pt_clust_7="13000.00000" pt_clust_8="13000.00000" pt_clust_9="38.95829"></scales>
<clustering>
<clus scale="   38.958">  2  9  1 -1</clus>
<clus scale="   79.441">  5  6 -1 -1</clus>
<clus scale="   91.182">  7  8 -1 -1</clus>
<clus scale="  142.300">  1  5  2 -1</clus>
<clus scale="   38.958">  2  5  1 -1</clus>
</clustering>
</event>
<event>
 9    2  0.4653788E-005  0.2570425E+03  0.7546771E-02  0.1113497E+00
         21   -1    0    0  501  502  0.00000000000E+00  0.00000000000E+00  0.20550406010E+03  0.20550406010E+03  0.00000000000E+00 0. -1.
         -1   -1    0    0    0  501 -0.00000000000E+00 -0.00000000000E+00 -0.10002921748E+04  0.10002921748E+04  0.00000000000E+00 0.  1.
         23    2    1    2    0    0  0.17252391538E+03  0.12017056416E+03 -0.80122136038E+02  0.24251298011E+03  0.90484932286E+02 0.  0.
         24    2    1    2    0    0 -0.15195094511E+03  0.18951464134E+03 -0.99807949504E+02  0.27453179772E+03  0.80007450709E+02 0.  0.
        -11    1    4    4    0    0 -0.49670768156E+02  0.13255649833E+02 -0.12997792338E+02  0.53026786319E+02  0.00000000000E+00 0.  1.
         12    1    4    4    0    0 -0.10228017696E+03  0.17625899151E+03 -0.86810157167E+02  0.22150501140E+03  0.00000000000E+00 0. -1.
        -13    1    3    3    0    0  0.34446569980E+02  0.71969204254E+02 -0.10294763215E+02  0.80449454280E+02  0.00000000000E+00 0.  1.
         13    1    3    3    0    0  0.13807734540E+03  0.48201359903E+02 -0.69827372822E+02  0.16206352583E+03  0.00000000000E+00 0. -1.
         -2    1    1    2    0  502 -0.20572970266E+02 -0.30968520550E+03 -0.61485802916E+03  0.68875145708E+03  0.00000000000E+00 0.  1.
<scales pt_clust_5="13000.00000" pt_clust_6="13000.00000" pt_clust_7="13000.00000" pt_clust_8="13000.00000" pt_clust_9="244.27386"></scales>
<clustering>
<clus scale="   80.007">  5  6 -1 -1</clus>
<clus scale="   90.485">  7  8 -1 -1</clus>
<clus scale="  228.895">  2  7  1 -1</clus>
<clus scale="  244.274">  1  9  2 -1</clus>
<clus scale="  244.274">  1  5  2 -1</clus>
</clustering>
</event>
<event>
 9    2  0.4653788E-005  0.1534194E+03  0.7546771E-02  0.1227334E+00
         -1   -1    0    0    0  501 -0.00000000000E+00  0.00000000000E+00  0.30368731880E+02  0.30368731880E+02  0.00000000000E+00 0.  1.
         21   -1    0    0  501  502  0.00000000000E+00 -0.00000000000E+00 -0.11074732580E+04  0.11074732580E+04  0.00000000000E+00 0.  1.
         24    2    1    2    0    0 -0.13565463166E+01  0.76233283316E+01 -0.16573581209E+03  0.18372714020E+03  0.78913543094E+02 0.  0.
         23    2    1    2    0    0 -0.11107693919E+03 -0.57430363765E+02 -0.41808230834E+03  0.44573162073E+03  0.90815902071E+02 0.  0.
        -13    1    3    3    0    0 -0.64896745311E+01  0.30844729650E+02 -0.22989236250E+02  0.39013051740E+02  0.00000000000E+00 0.  1.
         14    1    3    3    0    0  0.51331282145E+01 -0.23221401318E+02 -0.14274657584E+03  0.14471408846E+03  0.00000000000E+00 0. -1.
        -13    1    4    4    0    0 -0.31926088039E+01 -0.31512023042E+02 -0.18373698827E+03  0.18644699302E+03  0.00000000000E+00 0. -1.
         13    1    4    4    0    0 -0.10788433038E+03 -0.25918340723E+02 -0.23434532007E+03  0.25928462771E+03  0.00000000000E+00 0.  1.
         -2    1    1    2    0  502  0.11243348550E+03  0.49807035433E+02 -0.49328640565E+03  0.50838322891E+03  0.00000000000E+00 0.  1.
<scales pt_clust_5="13000.00000" pt_clust_6="13000.00000" pt_clust_7="13000.00000" pt_clust_8="13000.00000" pt_clust_9="123.65263"></scales>
<clustering>
<clus scale="   78.914">  5  6 -1 -1</clus>
<clus scale="   79.293">  1  5  2 -1</clus>
<clus scale="   90.816">  7  8 -1 -1</clus>
<clus scale="  123.653">  2  9  1 -1</clus>
<clus scale="  123.653">  2  5  1 -1</clus>
</clustering>
</event>
<event>
 9    2  0.4653788E-005  0.1384140E+03  0.7546771E-02  0.1240305E+00
         21   -1    0    0  501  502  0.00000000000E+00  0.00000000000E+00  0.28154441522E+03  0.28154441522E+03  0.00000000000E+00 0.  1.
         -1   -1    0    0    0  501 -0.00000000000E+00 -0.00000000000E+00 -0.36930855453E+03  0.36930855453E+03  0.00000000000E+00 0.  1.
         24    2    1    2    0    0 -0.36161335919E+01  0.96687801721E+01 -0.44522757514E+02  0.93963504286E+02  0.82099345118E+02 0.  0.
         23    2    1    2    0    0 -0.98839033225E+02 -0.21551576145E+02 -0.27277231029E+03  0.30524942655E+03  0.92405920945E+02 0.  0.
        -13    1    3    3    0    0 -0.67209425172E+01 -0.22453996120E+02 -0.55200556432E+02  0.59970446393E+02  0.00000000000E+00 0.  1.
         14    1    3    3    0    0  0.31048089252E+01  0.32122776292E+02  0.10677798918E+02  0.33993057893E+02  0.00000000000E+00 0. -1.
        -13    1    4    4    0    0 -0.68995032129E+02 -0.46228705353E+01 -0.65802826065E+02  0.95455211008E+02  0.00000000000E+00 0. -1.
         13    1    4    4    0    0 -0.29844001096E+02 -0.16928705610E+02 -0.20696948422E+03  0.20979421554E+03  0.00000000000E+00 0.  1.
         -2    1    1    2    0  502  0.10245516682E+03  0.11882795973E+02  0.22953092850E+03  0.25164003892E+03  0.00000000000E+00 0.  1.
<scales pt_clust_5="13000.00000" pt_clust_6="13000.00000" pt_clust_7="13000.00000" pt_clust_8="13000.00000" pt_clust_9="103.05132"></scales>
<clustering>
<clus scale="   82.099">  5  6 -1 -1</clus>
<clus scale="   82.746">  2  5  1 -1</clus>
<clus scale="   92.406">  7  8 -1 -1</clus>
<clus scale="  103.051">  1  9  2 -1</clus>
<clus scale="  103.051">  1  5  2 -1</clus>
</clustering>
</event>
<event>
 9    2  0.4653788E-005  0.1498308E+03  0.7546771E-02  0.1215501E+00
         -1   -1    0    0    0  501 -0.00000000000E+00  0.00000000000E+00  0.11686400900E+04  0.11686400900E+04  0.00000000000E+00 0.  1.
         21   -1    0    0  501  502  0.00000000000E+00 -0.00000000000E+00 -0.38544384449E+02  0.38544384449E+02  0.00000000000E+00 0.  1.
         23    2    1    2    0    0  0.51211245095E+02 -0.26311270408E+02  0.59912738416E+03  0.60897497959E+03  0.92639239747E+02 0.  0.
         24    2    1    2    0    0 -0.45646735128E+02 -0.90970992111E+02  0.38394604401E+03  0.41005625168E+03  0.10184409161E+03 0.  0.
        -11    1    4    4    0    0 -0.15231596135E+02 -0.98567574261E+02  0.34962427283E+03  0.36357213916E+03  0.00000000000E+00 0.  1.
         12    1    4    4    0    0 -0.30415138992E+02  0.75965821501E+01  0.34321771179E+02  0.46484112524E+02  0.00000000000E+00 0. -1.
        -13    1    3    3    0    0  0.50707772440E+02 -0.58193165702E+02  0.42293727798E+03  0.42992285800E+03  0.00000000000E+00 0.  1.
         13    1    3    3    0    0  0.50347265428E+00  0.31881895294E+02  0.17619010617E+03  0.17905212159E+03  0.00000000000E+00 0. -1.
         -2    1    1    2    0  502 -0.55645099670E+01  0.11728226252E+03  0.14702227737E+03  0.18815324318E+03  0.00000000000E+00 0.  1.
<scales pt_clust_5="13000.00000" pt_clust_6="13000.00000" pt_clust_7="13000.00000" pt_clust_8="13000.00000" pt_clust_9="109.89557"></scales>
<clustering>
<clus scale="   92.639">  7  8 -1 -1</clus>
<clus scale="  101.844">  5  6 -1 -1</clus>
<clus scale="  109.073">  1  7  2 -1</clus>
<clus scale="  109.896">  2  9  1 -1</clus>
<clus scale="  109.896">  2  5  1 -1</clus>
</clustering>
</event>
<event>
 9    2  0.4653788E-005  0.1009809E+03  0.7546771E-02  0.1284176E+00
         -1   -1    0    0    0  501 -0.00000000000E+00  0.00000000000E+00  0.15412171845E+03  0.15412171845E+03  0.00000000000E+00 0.  1.
         21   -1    0    0  501  502  0.00000000000E+00 -0.00000000000E+00 -0.19414102350E+03  0.19414102350E+03  0.00000000000E+00 0. -1.
         23    2    1    2    0    0 -0.10656156445E+02 -0.31846747450E+02  0.82098103726E+02  0.12807812232E+03  0.92391221385E+02 0.  0.
         24    2    1    2    0    0  0.20871854187E+02  0.83194693836E+02 -0.11962711728E+03  0.16777113252E+03  0.80495430555E+02 0.  0.
        -11    1    4    4    0    0  0.22881224315E+02  0.33908565741E+02 -0.28526345793E+01  0.41005838375E+02  0.00000000000E+00 0.  1.
         12    1    4    4    0    0 -0.20093701283E+01  0.49286128095E+02 -0.11677448270E+03  0.12676529415E+03  0.00000000000E+00 0. -1.
        -11    1    3    3    0    0 -0.44163997313E+02 -0.31736037371E+02  0.76872867916E+02  0.94165134462E+02  0.00000000000E+00 0.  1.
         11    1    3    3    0    0  0.33507840868E+02 -0.11071007930E+00  0.52252358100E+01  0.33912987860E+02  0.00000000000E+00 0. -1.
         -2    1    1    2    0  502 -0.10215697742E+02 -0.51347946386E+02 -0.24902915032E+01  0.52413487102E+02  0.00000000000E+00 0.  1.
<scales pt_clust_5="13000.00000" pt_clust_6="13000.00000" pt_clust_7="13000.00000" pt_clust_8="13000.00000" pt_clust_9="52.35432"></scales>
<clustering>
<clus scale="   52.354">  2  9  1 -1</clus>
<clus scale="   80.495">  5  6 -1 -1</clus>
<clus scale="   90.225">  2  5  1 -1</clus>
<clus scale="   92.391">  7  8 -1 -1</clus>
<clus scale="   52.354">  2  5  1 -1</clus>
</clustering>
</event>
<event>
 9    2  0.4653788E-005  0.1005406E+03  0.7546771E-02  0.1285440E+00
          2   -1    0    0  502    0 -0.00000000000E+00  0.00000000000E+00  0.34584353752E+03  0.34584353752E+03  0.00000000000E+00 0. -1.
         21   -1    0    0  501  502  0.00000000000E+00 -0.00000000000E+00 -0.46726928041E+02  0.46726928041E+02  0.00000000000E+00 0.  1.
         23    2    1    2    0    0  0.85905207709E+01 -0.13636187162E+02  0.95075141499E+02  0.13322955046E+03  0.91929798963E+02 0.  0.
         24    2    1    2    0    0 -0.32589414993E+02  0.59574368759E+02  0.10847679903E+03  0.15062629141E+03  0.79434805683E+02 0.  0.
        -13    1    4    4    0    0 -0.36714759478E+02  0.72186625261E+02  0.61165884625E+02  0.10148964416E+03  0.00000000000E+00 0.  1.
         14    1    4    4    0    0  0.41253444852E+01 -0.12612256502E+02  0.47310914402E+02  0.49136647247E+02  0.00000000000E+00 0. -1.
        -11    1    3    3    0    0 -0.15064724266E+02  0.32279990055E+02  0.63161483759E+02  0.72514251743E+02  0.00000000000E+00 0. -1.
         11    1    3    3    0    0  0.23655245037E+02 -0.45916177218E+02  0.31913657740E+02  0.60715298718E+02  0.00000000000E+00 0.  1.
          1    1    1    2  501    0  0.23998894222E+02 -0.45938181596E+02  0.95564668953E+02  0.10871462369E+03  0.00000000000E+00 0. -1.
<scales pt_clust_5="13000.00000" pt_clust_6="13000.00000" pt_clust_7="13000.00000" pt_clust_8="13000.00000" pt_clust_9="51.82920"></scales>
<clustering>
<clus scale="   51.829">  2  9  1 -1</clus>
<clus scale="   79.435">  5  6 -1 -1</clus>
<clus scale="   89.259">  2  5  1 -1</clus>
<clus scale="   91.930">  7  8 -1 -1</clus>
<clus scale="   51.829">  2  5  1 -1</clus>
</clustering>
</event>
<event>
 9    2  0.4653788E-005  0.1087804E+03  0.7546771E-02  0.1266751E+00
         21   -1    0    0  501  502  0.00000000000E+00  0.00000000000E+00  0.22692051827E+03  0.22692051827E+03  0.00000000000E+00 0. -1.
          2   -1    0    0  502    0 -0.00000000000E+00 -0.00000000000E+00 -0.33044452550E+03  0.33044452550E+03  0.00000000000E+00 0. -1.
         23    2    1    2    0    0 -0.50152096064E+02 -0.40054943944E+01 -0.23186927194E+03  0.25396558711E+03  0.90575291543E+02 0.  0.
         24    2    1    2    0    0  0.13159734706E+03  0.93433080844E+00  0.37094341109E+01  0.15448051488E+03  0.80819149026E+02 0.  0.
        -11    1    4    4    0    0  0.30057655968E+02  0.34435335710E+02 -0.96795293098E+01  0.46722032441E+02  0.00000000000E+00 0.  1.
         12    1    4    4    0    0  0.10153969109E+03 -0.33501004901E+02  0.13388963421E+02  0.10775848244E+03  0.00000000000E+00 0. -1.
        -13    1    3    3    0    0 -0.11297727065E+02 -0.43317875818E+02 -0.13746174349E+03  0.14456765864E+03  0.00000000000E+00 0. -1.
         13    1    3    3    0    0 -0.38854368999E+02  0.39312381424E+02 -0.94407528452E+02  0.10939792846E+03  0.00000000000E+00 0.  1.
          1    1    1    2  501    0 -0.81445250992E+02  0.30711635859E+01  0.12463583060E+03  0.14891894179E+03  0.00000000000E+00 0. -1.
<scales pt_clust_5="13000.00000" pt_clust_6="13000.00000" pt_clust_7="13000.00000" pt_clust_8="13000.00000" pt_clust_9="81.50313"></scales>
<clustering>
<clus scale="   80.819">  5  6 -1 -1</clus>
<clus scale="   81.503">  1  9  2 -1</clus>
<clus scale="   90.575">  7  8 -1 -1</clus>
<clus scale="  100.802">  1  5  2 -1</clus>
<clus scale="   81.503">  1  5  2 -1</clus>
</clustering>
</event>
<event>
 9    2  0.4653788E-005  0.1232526E+03  0.7546771E-02  0.1243211E+00
         21   -1    0    0  501  502  0.00000000000E+00  0.00000000000E+00  0.22849638047E+03  0.22849638047E+03  0.00000000000E+00 0.  1.
         -1   -1    0    0    0  501 -0.00000000000E+00 -0.00000000000E+00 -0.79880736543E+02  0.79880736543E+02  0.00000000000E+00 0.  1.
         23    2    1    2    0    0  0.55085147407E+02  0.14028402446E+02  0.70192193431E+02  0.13610471554E+03  0.10181542139E+03 0.  0.
         24    2    1    2    0    0 -0.83403206458E+02  0.23780153261E+01  0.68950453203E+02  0.13820158272E+03  0.85928823252E+02 0.  0.
        -13    1    4    4    0    0 -0.10143439974E+03  0.67602810582E+00  0.55374960555E+02  0.11556721301E+03  0.00000000000E+00 0.  1.
         14    1    4    4    0    0  0.18031193286E+02  0.17019872203E+01  0.13575492648E+02  0.22634369716E+02  0.00000000000E+00 0. -1.
        -13    1    3    3    0    0  0.64410582286E+02 -0.26202017096E+02  0.63696032099E+02  0.94299805490E+02  0.00000000000E+00 0.  1.
         13    1    3    3    0    0 -0.93254348792E+01  0.40230419541E+02  0.64961613319E+01  0.41804910049E+02  0.00000000000E+00 0. -1.
         -2    1    1    2    0  502  0.28318059051E+02 -0.16406417772E+02  0.94729972878E+01  0.34070818747E+02  0.00000000000E+00 0.  1.
<scales pt_clust_5="13000.00000" pt_clust_6="13000.00000" pt_clust_7="13000.00000" pt_clust_8="13000.00000" pt_clust_9="32.72742"></scales>
<clustering>
<clus scale="   32.727">  1  9  2 -1</clus>
<clus scale="   85.929">  5  6 -1 -1</clus>
<clus scale="  101.815">  7  8 -1 -1</clus>
<clus scale="  110.493">  1  5  2 -1</clus>
<clus scale="   32.727">  1  5  2 -1</clus>
</clustering>
</event>
<event>
 9    2  0.4653788E-005  0.1656600E+03  0.7546771E-02  0.1183721E+00
          2   -1    0    0  502    0 -0.00000000000E+00  0.00000000000E+00  0.48469249812E+03  0.48469249812E+03  0.00000000000E+00 0. -1.
         21   -1    0    0  501  502  0.00000000000E+00 -0.00000000000E+00 -0.99761150961E+02  0.99761150961E+02  0.00000000000E+00 0.  1.
         24    2    1    2    0    0  0.12664155830E+03 -0.72488096733E+02  0.26063268186E+03  0.30988683027E+03  0.82509661642E+02 0.  0.
         23    2    1    2    0    0 -0.12054963495E+03  0.21125913408E+02  0.14671838863E+02  0.15335119902E+03  0.91229428815E+02 0.  0.
        -11    1    3    3    0    0  0.23212348194E+02 -0.58870065231E+02  0.10120768259E+03  0.11936286150E+03  0.00000000000E+00 0.  1.
         12    1    3    3    0    0  0.10342921011E+03 -0.13618031502E+02  0.15942499927E+03  0.19052396878E+03  0.00000000000E+00 0. -1.
        -13    1    4    4    0    0 -0.98679720006E+02  0.38255176774E+02  0.42482045547E+02  0.11404328075E+03  0.00000000000E+00 0.  1.
         13    1    4    4    0    0 -0.21869914946E+02 -0.17129263366E+02 -0.27810206683E+02  0.39307918273E+02  0.00000000000E+00 0. -1.
          1    1    1    2  501    0 -0.60919233520E+01  0.51362183325E+02  0.10962682643E+03  0.12121561979E+03  0.00000000000E+00 0. -1.
<scales pt_clust_5="13000.00000" pt_clust_6="13000.00000" pt_clust_7="13000.00000" pt_clust_8="13000.00000" pt_clust_9="51.72222"></scales>
<clustering>
<clus scale="   51.722">  2  9  1 -1</clus>
<clus scale="   82.510">  5  6 -1 -1</clus>
<clus scale="   91.229">  7  8 -1 -1</clus>
<clus scale="  161.023">  1  5  2 -1</clus>
<clus scale="   51.722">  2  5  1 -1</clus>
</clustering>
</event>
<event>
 9    2  0.4653788E-005  0.1692219E+03  0.7546771E-02  0.1185312E+00
         21   -1    0    0  501  502  0.00000000000E+00  0.00000000000E+00  0.74505349267E+02  0.74505349267E+02  0.00000000000E+00 0.  1.
         -1   -1    0    0    0  501 -0.00000000000E+00 -0.00000000000E+00 -0.11213715436E+04  0.11213715436E+04  0.00000000000E+00 0.  1.
         23    2    1    2    0    0 -0.74100299894E+02 -0.86219998466E+02 -0.38846772609E+03  0.41492736814E+03  0.91284193801E+02 0.  0.
         24    2    1    2    0    0  0.14764134452E+02 -0.13121426676E+03 -0.11364775932E+03  0.19141430518E+03  0.79299808071E+02 0.  0.
        -13    1    4    4    0    0 -0.10416630235E+02 -0.64671031330E+02 -0.10850870865E+02  0.66397212872E+02  0.00000000000E+00 0.  1.
         14    1    4    4    0    0  0.25180764687E+02 -0.66543235431E+02 -0.10279688846E+03  0.12501709231E+03  0.00000000000E+00 0. -1.
        -13    1    3    3    0    0 -0.23667417441E+02  0.17513414435E+02 -0.60859723687E+02  0.67607487017E+02  0.00000000000E+00 0. -1.
         13    1    3    3    0    0 -0.50432882453E+02 -0.10373341290E+03 -0.32760800240E+03  0.34731988112E+03  0.00000000000E+00 0.  1.
         -2    1    1    2    0  502  0.59336165441E+02  0.21743426523E+03 -0.54475070896E+03  0.58953521959E+03  0.00000000000E+00 0.  1.
<scales pt_clust_5="13000.00000" pt_clust_6="13000.00000" pt_clust_7="13000.00000" pt_clust_8="13000.00000" pt_clust_9="149.49117"></scales>
<clustering>
<clus scale="   79.300">  5  6 -1 -1</clus>
<clus scale="   91.284">  7  8 -1 -1</clus>
<clus scale="  145.800">  2  7  1 -1</clus>
<clus scale="  149.491">  1  9  2 -1</clus>
<clus scale="  149.491">  1  5  2 -1</clus>
</clustering>
</event>
<event>
 9    2  0.4653788E-005  0.1351631E+03  0.7546771E-02  0.1223087E+00
         -1   -1    0    0    0  501 -0.00000000000E+00  0.00000000000E+00  0.45523870658E+02  0.45523870658E+02  0.00000000000E+00 0.  1.
         21   -1    0    0  501  502  0.00000000000E+00 -0.00000000000E+00 -0.61805314501E+03  0.61805314501E+03  0.00000000000E+00 0. -1.
         24    2    1    2    0    0 -0.61159934381E+02 -0.66200968177E+02 -0.12697482132E+03  0.17569762387E+03  0.81387615906E+02 0.  0.
         23    2    1    2    0    0  0.51725071025E+02  0.99167555784E+02 -0.25197463872E+03  0.29128601181E+03  0.94056552284E+02 0.  0.
        -11    1    3    3    0    0 -0.75824034613E+02 -0.32786078874E+02 -0.71264723840E+02  0.10910028440E+03  0.00000000000E+00 0.  1.
         12    1    3    3    0    0  0.14664100231E+02 -0.33414889303E+02 -0.55710097477E+02  0.66597339464E+02  0.00000000000E+00 0. -1.
        -13    1    4    4    0    0  0.40108915830E+01  0.77787762342E+02 -0.80488924125E+02  0.11200665216E+03  0.00000000000E+00 0.  1.
         13    1    4    4    0    0  0.47714179442E+02  0.21379793442E+02 -0.17148571460E+03  0.17927935965E+03  0.00000000000E+00 0. -1.
         -2    1    1    2    0  502  0.94348633567E+01 -0.32966587607E+02 -0.19357981431E+03  0.19659337999E+03  0.00000000000E+00 0.  1.
<scales pt_clust_5="13000.00000" pt_clust_6="13000.00000" pt_clust_7="13000.00000" pt_clust_8="13000.00000" pt_clust_9="34.29012"></scales>
<clustering>
<clus scale="   34.290">  2  9  1 -1</clus>
<clus scale="   81.388">  5  6 -1 -1</clus>
<clus scale="   94.057">  7  8 -1 -1</clus>
<clus scale="  126.674">  1  5  2 -1</clus>
<clus scale="   34.290">  2  5  1 -1</clus>
</clustering>
</event>
<event>
 9    2  0.4653788E-005  0.1079130E+03  0.7546771E-02  0.1267508E+00
          2   -1    0    0  502    0 -0.00000000000E+00  0.00000000000E+00  0.12090723060E+04  0.12090723060E+04  0.00000000000E+00 0. -1.
         21   -1    0    0  501  502  0.00000000000E+00 -0.00000000000E+00 -0.45158568852E+02  0.45158568852E+02  0.00000000000E+00 0. -1.
         24    2    1    2    0    0  0.58762677685E+02 -0.53752845761E+02  0.87261200309E+03  0.88035308683E+03  0.85014286120E+02 0.  0.
         23    2    1    2    0    0 -0.20949980611E+02 -0.33225564136E+02  0.25196666946E+03  0.27120212805E+03  0.92306835825E+02 0.  0.
        -11    1    3    3    0    0  0.65279909081E+02 -0.24931470432E+02  0.35006931613E+03  0.35697558858E+03  0.00000000000E+00 0.  1.
         12    1    3    3    0    0 -0.65172313961E+01 -0.28821375329E+02  0.52254268696E+03  0.52337749825E+03  0.00000000000E+00 0. -1.
        -13    1    4    4    0    0 -0.45096506114E+02  0.28722842038E+01  0.19147569972E+03  0.19673558006E+03  0.00000000000E+00 0.  1.
         13    1    4    4    0    0  0.24146525503E+02 -0.36097848340E+02  0.60490969738E+02  0.74466547983E+02  0.00000000000E+00 0. -1.
          1    1    1    2  501    0 -0.37812697074E+02  0.86978409897E+02  0.39335064638E+02  0.10267566001E+03  0.00000000000E+00 0. -1.
<scales pt_clust_5="13000.00000" pt_clust_6="13000.00000" pt_clust_7="13000.00000" pt_clust_8="13000.00000" pt_clust_9="94.84220"></scales>
<clustering>
<clus scale="   85.014">  5  6 -1 -1</clus>
<clus scale="   92.307">  7  8 -1 -1</clus>
<clus scale="   94.842">  2  9  1 -1</clus>
<clus scale="  101.745">  1  5  2 -1</clus>
<clus scale="   94.842">  2  5  1 -1</clus>
</clustering>
</event>
<event>
 9    2  0.4653788E-005  0.1093562E+03  0.7546771E-02  0.1265837E+00
          2   -1    0    0  502    0 -0.00000000000E+00  0.00000000000E+00  0.59116359610E+03  0.59116359610E+03  0.00000000000E+00 0. -1.
         21   -1    0    0  501  502  0.00000000000E+00 -0.00000000000E+00 -0.73805500412E+02  0.73805500412E+02  0.00000000000E+00 0. -1.
         24    2    1    2    0    0 -0.62804964133E+02 -0.13345857338E+02  0.43893283326E+03  0.45100972154E+03  0.81395094342E+02 0.  0.
         23    2    1    2    0    0  0.48200600818E+02 -0.92475200014E+01  0.12355183648E+03  0.16142218991E+03  0.91560103498E+02 0.  0.
        -11    1    3    3    0    0 -0.36140798006E+02 -0.35439534449E+02  0.12049914856E+03  0.13069874784E+03  0.00000000000E+00 0.  1.
         12    1    3    3    0    0 -0.26664166127E+02  0.22093677111E+02  0.31843368470E+03  0.32031097370E+03  0.00000000000E+00 0. -1.
        -11    1    4    4    0    0  0.28600355901E+02  0.10812231971E+02  0.12923814374E+03  0.13280580754E+03  0.00000000000E+00 0. -1.
         11    1    4    4    0    0  0.19600244917E+02 -0.20059751972E+02 -0.56863072596E+01  0.28616382375E+02  0.00000000000E+00 0.  1.
          1    1    1    2  501    0  0.14604363315E+02  0.22593377339E+02 -0.45126574057E+02  0.52537185056E+02  0.00000000000E+00 0. -1.
<scales pt_clust_5="13000.00000" pt_clust_6="13000.00000" pt_clust_7="13000.00000" pt_clust_8="13000.00000" pt_clust_9="26.90257"></scales>
<clustering>
<clus scale="   26.903">  2  9  1 -1</clus>
<clus scale="   81.395">  5  6 -1 -1</clus>
<clus scale="   91.560">  7  8 -1 -1</clus>
<clus scale="  100.998">  1  5  2 -1</clus>
<clus scale="   26.903">  2  5  1 -1</clus>
</clustering>
</event>
<event>
 9    2  0.4653788E-005  0.9364322E+02  0.7546771E-02  0.1296338E+00
         21   -1    0    0  501  502  0.00000000000E+00  0.00000000000E+00  0.28448857711E+03  0.28448857711E+03  0.00000000000E+00 0.  1.
          2   -1    0    0  502    0 -0.00000000000E+00 -0.00000000000E+00 -0.19216934956E+03  0.19216934956E+03  0.00000000000E+00 0. -1.
         24    2    1    2    0    0  0.14899661523E+02  0.72853443119E+01 -0.13291868281E+03  0.16267116383E+03  0.92300894613E+02 0.  0.
         23    2    1    2    0    0 -0.26885625267E+02  0.80694933600E+02  0.16871843519E+03  0.20873162662E+03  0.88704410406E+02 0.  0.
        -11    1    3    3    0    0  0.36001665374E+02 -0.32336036184E+02 -0.77286188465E+02  0.91186041000E+02  0.00000000000E+00 0.  1.
         12    1    3    3    0    0 -0.21102003851E+02  0.39621380495E+02 -0.55632494342E+02  0.71485122827E+02  0.00000000000E+00 0. -1.
        -13    1    4    4    0    0  0.25294707193E+02  0.57410705228E+02  0.11107145098E+03  0.12756440925E+03  0.00000000000E+00 0.  1.
         13    1    4    4    0    0 -0.52180332459E+02  0.23284228372E+02  0.57646984215E+02  0.81167217370E+02  0.00000000000E+00 0. -1.
          1    1    1    2  501    0  0.11985963743E+02 -0.87980277912E+02  0.56519475158E+02  0.10525513622E+03  0.00000000000E+00 0. -1.
<scales pt_clust_5="13000.00000" pt_clust_6="13000.00000" pt_clust_7="13000.00000" pt_clust_8="13000.00000" pt_clust_9="88.79298"></scales>
<clustering>
<clus scale="   88.704">  7  8 -1 -1</clus>
<clus scale="   88.793">  1  9  2 -1</clus>
<clus scale="   90.100">  1  7  2 -1</clus>
<clus scale="   92.301">  5  6 -1 -1</clus>
<clus scale="   88.793">  1  5  2 -1</clus>
</clustering>
</event>
<event>
 9    2  0.4653788E-005  0.1328415E+03  0.7546771E-02  0.1229209E+00
         -1   -1    0    0    0  501 -0.00000000000E+00  0.00000000000E+00  0.45244515460E+03  0.45244515460E+03  0.00000000000E+00 0.  1.
         21   -1    0    0  501  502  0.00000000000E+00 -0.00000000000E+00 -0.16509156439E+03  0.16509156439E+03  0.00000000000E+00 0.  1.
         23    2    1    2    0    0  0.69325731336E+02  0.31518604903E+02  0.15416186103E+03  0.19765215803E+03  0.97473158857E+02 0.  0.
         24    2    1    2    0    0 -0.17961193563E+03 -0.16784855166E+02 -0.53421107372E+02  0.20261863862E+03  0.75221800154E+02 0.  0.
        -13    1    4    4    0    0 -0.12448311210E+03 -0.37979828508E+02 -0.12462002779E+02  0.13074331373E+03  0.00000000000E+00 0.  1.
         14    1    4    4    0    0 -0.55128823536E+02  0.21194973342E+02 -0.40959104593E+02  0.71875324893E+02  0.00000000000E+00 0. -1.
        -13    1    3    3    0    0  0.15809819089E+02  0.35478536963E+02  0.13531050330E+03  0.14077503070E+03  0.00000000000E+00 0.  1.
         13    1    3    3    0    0  0.53515912247E+02 -0.39599320599E+01  0.18851357732E+02  0.56877127335E+02  0.00000000000E+00 0. -1.
         -2    1    1    2    0  502  0.11028620430E+03 -0.14733749737E+02  0.18661283656E+03  0.21726592234E+03  0.00000000000E+00 0.  1.
<scales pt_clust_5="13000.00000" pt_clust_6="13000.00000" pt_clust_7="13000.00000" pt_clust_8="13000.00000" pt_clust_9="111.26609"></scales>
<clustering>
<clus scale="   75.222">  5  6 -1 -1</clus>
<clus scale="   97.473">  7  8 -1 -1</clus>
<clus scale="  111.266">  2  9  1 -1</clus>
<clus scale="  117.491">  2  5  1 -1</clus>
<clus scale="  111.266">  2  5  1 -1</clus>
</clustering>
</event>
<event>
 9    2  0.4653788E-005  0.1183970E+03  0.7546771E-02  0.1248946E+00
          2   -1    0    0  502    0 -0.00000000000E+00  0.00000000000E+00  0.12800814422E+03  0.12800814422E+03  0.00000000000E+00 0. -1.
         21   -1    0    0  501  502  0.00000000000E+00 -0.00000000000E+00 -0.31038496772E+03  0.31038496772E+03  0.00000000000E+00 0. -1.
         23    2    1    2    0    0  0.79053241865E+02  0.31877230235E+02 -0.79390183720E+02  0.14718690518E+03  0.89975612971E+02 0.  0.
         24    2    1    2    0    0 -0.64208274312E+02 -0.64599945696E+01 -0.18080001314E+03  0.20801167566E+03  0.80098554541E+02 0.  0.
        -11    1    4    4    0    0 -0.40593044570E+02 -0.35690189562E+02 -0.14994425469E+03  0.15938903479E+03  0.00000000000E+00 0.  1.
         12    1    4    4    0    0 -0.23615229742E+02  0.29230194993E+02 -0.30855758448E+02  0.48622640863E+02  0.00000000000E+00 0. -1.
        -13    1    3    3    0    0  0.68773150631E+02 -0.17902226212E+02 -0.32932821759E+02  0.78325006863E+02  0.00000000000E+00 0. -1.
         13    1    3    3    0    0  0.10280091234E+02  0.49779456447E+02 -0.46457361961E+02  0.68861898320E+02  0.00000000000E+00 0.  1.
          1    1    1    2  501    0 -0.14844967552E+02 -0.25417235666E+02  0.77813373356E+02  0.83194531092E+02  0.00000000000E+00 0. -1.
<scales pt_clust_5="13000.00000" pt_clust_6="13000.00000" pt_clust_7="13000.00000" pt_clust_8="13000.00000" pt_clust_9="29.43484"></scales>
<clustering>
<clus scale="   29.435">  2  9  1 -1</clus>
<clus scale="   80.099">  5  6 -1 -1</clus>
<clus scale="   89.976">  7  8 -1 -1</clus>
<clus scale="  111.077">  2  5  1 -1</clus>
<clus scale="   29.435">  2  5  1 -1</clus>
</clustering>
</event>
<event>
 9    2  0.4653788E-005  0.1192037E+03  0.7546771E-02  0.1248551E+00
         21   -1    0    0  501  502  0.00000000000E+00  0.00000000000E+00  0.26110901750E+03  0.26110901750E+03  0.00000000000E+00 0. -1.
         -1   -1    0    0    0  501 -0.00000000000E+00 -0.00000000000E+00 -0.97324499521E+02  0.97324499521E+02  0.00000000000E+00 0.  1.
         24    2    1    2    0    0 -0.73452977310E+02 -0.18329458809E+01  0.33205501888E+01  0.10850829156E+03  0.79776711624E+02 0.  0.
         23    2    1    2    0    0  0.81115479937E+02 -0.27432658498E+02  0.17558375835E+03  0.21610514839E+03  0.92409453649E+02 0.  0.
        -13    1    3    3    0    0 -0.13630321504E+02  0.34253200066E+02  0.10352202839E+02  0.38291454434E+02  0.00000000000E+00 0.  1.
         14    1    3    3    0    0 -0.59822655806E+02 -0.36086145947E+02 -0.70316526499E+01  0.70216837126E+02  0.00000000000E+00 0. -1.
        -11    1    4    4    0    0  0.66108329910E+02  0.11288069008E+02  0.49488396895E+02  0.83347664711E+02  0.00000000000E+00 0.  1.
         11    1    4    4    0    0  0.15007150027E+02 -0.38720727506E+02  0.12609536146E+03  0.13275748368E+03  0.00000000000E+00 0. -1.
         -2    1    1    2    0  502 -0.76625026268E+01  0.29265604379E+02 -0.15119790568E+02  0.33820077070E+02  0.00000000000E+00 0.  1.
<scales pt_clust_5="13000.00000" pt_clust_6="13000.00000" pt_clust_7="13000.00000" pt_clust_8="13000.00000" pt_clust_9="30.25211"></scales>
<clustering>
<clus scale="   30.252">  1  9  2 -1</clus>
<clus scale="   79.777">  5  6 -1 -1</clus>
<clus scale="   92.409">  7  8 -1 -1</clus>
<clus scale="  109.701">  2  5  1 -1</clus>
<clus scale="   30.252">  1  5  2 -1</clus>
</clustering>
</event>
<event>
 9    2  0.4653788E-005  0.1167643E+03  0.7546771E-02  0.1253789E+00
         21   -1    0    0  501  502  0.00000000000E+00  0.00000000000E+00  0.27247832944E+03  0.27247832944E+03  0.00000000000E+00 0.  1.
         -1   -1    0    0    0  501 -0.00000000000E+00 -0.00000000000E+00 -0.77003871530E+02  0.77003871530E+02  0.00000000000E+00 0.  1.
         24    2    1    2    0    0  0.14678173430E+01  0.62955922967E+02  0.39521003911E+02  0.11111217159E+03  0.82573616861E+02 0.  0.
         23    2    1    2    0    0 -0.53436812522E+02 -0.61114293736E+02  0.12528298187E+03  0.17799747006E+03  0.96937216638E+02 0.  0.
        -11    1    3    3    0    0  0.79134926345E+00  0.48032461274E+02  0.65449925844E+02  0.81187661394E+02  0.00000000000E+00 0.  1.
         12    1    3    3    0    0  0.67646807957E+00  0.14923461694E+02 -0.25928921933E+02  0.29924510198E+02  0.00000000000E+00 0. -1.
        -13    1    4    4    0    0  0.65944252689E+01 -0.31203707076E+02  0.10220902615E+03  0.10706933645E+03  0.00000000000E+00 0.  1.
         13    1    4    4    0    0 -0.60031237791E+02 -0.29910586660E+02  0.23073955715E+02  0.70928133610E+02  0.00000000000E+00 0. -1.
         -2    1    1    2    0  502  0.51968995179E+02 -0.18416292307E+01  0.30670472132E+02  0.60372559321E+02  0.00000000000E+00 0.  1.
<scales pt_clust_5="13000.00000" pt_clust_6="13000.00000" pt_clust_7="13000.00000" pt_clust_8="13000.00000" pt_clust_9="52.00164"></scales>
<clustering>
<clus scale="   52.002">  1  9  2 -1</clus>
<clus scale="   82.574">  5  6 -1 -1</clus>
<clus scale="   96.937">  7  8 -1 -1</clus>
<clus scale="  105.145">  2  5  1 -1</clus>
<clus scale="   52.002">  1  5  2 -1</clus>
</clustering>
</event>
<event>
 9    2  0.4653788E-005  0.9320248E+02  0.7546771E-02  0.1299272E+00
         -1   -1    0    0    0  501 -0.00000000000E+00  0.00000000000E+00  0.85892798087E+02  0.85892798087E+02  0.00000000000E+00 0.  1.
         21   -1    0    0  501  502  0.00000000000E+00 -0.00000000000E+00 -0.34507505505E+03  0.34507505505E+03  0.00000000000E+00 0. -1.
         23    2    1    2    0    0 -0.22214533985E+01 -0.22598626323E+02  0.44407404250E+02  0.10251754399E+03  0.89566715393E+02 0.  0.
         24    2    1    2    0    0 -0.14946918180E+01  0.49911009745E+02 -0.21523603056E+03  0.23589686473E+03  0.82628318043E+02 0.  0.
        -13    1    4    4    0    0  0.30885298675E+02  0.94249730014E+01 -0.31972878390E+02  0.45442235232E+02  0.00000000000E+00 0.  1.
         14    1    4    4    0    0 -0.32379990493E+02  0.40486036743E+02 -0.18326315217E+03  0.19045462950E+03  0.00000000000E+00 0. -1.
        -13    1    3    3    0    0 -0.21408434639E+02 -0.47866827461E+02  0.47353902736E+02  0.70653707258E+02  0.00000000000E+00 0.  1.
         13    1    3    3    0    0  0.19186981241E+02  0.25268201138E+02 -0.29464984858E+01  0.31863836731E+02  0.00000000000E+00 0. -1.
         -2    1    1    2    0  502  0.37161452165E+01 -0.27312383421E+02 -0.88353630658E+02  0.92553444419E+02  0.00000000000E+00 0.  1.
<scales pt_clust_5="13000.00000" pt_clust_6="13000.00000" pt_clust_7="13000.00000" pt_clust_8="13000.00000" pt_clust_9="27.56403"></scales>
<clustering>
<clus scale="   27.564">  2  9  1 -1</clus>
<clus scale="   82.628">  5  6 -1 -1</clus>
<clus scale="   86.556">  2  5  1 -1</clus>
<clus scale="   89.567">  7  8 -1 -1</clus>
<clus scale="   27.564">  2  5  1 -1</clus>
</clustering>
</event>
<event>
 9    2  0.4653788E-005  0.2488673E+03  0.7546771E-02  0.1124869E+00
          2   -1    0    0  502    0 -0.00000000000E+00  0.00000000000E+00  0.16704249072E+04  0.16704249072E+04  0.00000000000E+00 0. -1.
         21   -1    0    0  501  502  0.00000000000E+00 -0.00000000000E+00 -0.85168337072E+02  0.85168337072E+02  0.00000000000E+00 0. -1.
         24    2    1    2    0    0  0.16479635461E+03  0.49514267069E+02  0.24589340490E+03  0.31055655858E+03  0.79826739708E+02 0.  0.
         23    2    1    2    0    0 -0.10215569190E+03 -0.26536628793E+03  0.94497161360E+03  0.99109765506E+03  0.91913868285E+02 0.  0.
        -13    1    3    3    0    0  0.25408158100E+02 -0.19977415643E+02  0.58991067423E+02  0.67265278335E+02  0.00000000000E+00 0.  1.
         14    1    3    3    0    0  0.13938819651E+03  0.69491682713E+02  0.18690233747E+03  0.24329128025E+03  0.00000000000E+00 0. -1.
        -11    1    4    4    0    0  0.16496508903E+02 -0.36618118399E+02  0.15724177885E+03  0.16228985926E+03  0.00000000000E+00 0.  1.
         11    1    4    4    0    0 -0.11865220081E+03 -0.22874816953E+03  0.78772983475E+03  0.82880779580E+03  0.00000000000E+00 0. -1.
          1    1    1    2  501    0 -0.62640662706E+02  0.21585202086E+03  0.39439155163E+03  0.45393903063E+03  0.00000000000E+00 0. -1.
<scales pt_clust_5="13000.00000" pt_clust_6="13000.00000" pt_clust_7="13000.00000" pt_clust_8="13000.00000" pt_clust_9="231.27203"></scales>
<clustering>
<clus scale="   79.827">  5  6 -1 -1</clus>
<clus scale="   91.914">  7  8 -1 -1</clus>
<clus scale="  189.689">  1  5  2 -1</clus>
<clus scale="  231.272">  2  9  1 -1</clus>
<clus scale="  231.272">  2  5  1 -1</clus>
</clustering>
</event>
<event>
 9    2  0.4653788E-005  0.2366742E+03  0.7546771E-02  0.1163094E+00
          2   -1    0    0  502    0 -0.00000000000E+00  0.00000000000E+00  0.82018227769E+03  0.82018227769E+03  0.00000000000E+00 0. -1.
         21   -1    0    0  501  502  0.00000000000E+00 -0.00000000000E+00 -0.13786364801E+03  0.13786364801E+03  0.00000000000E+00 0.  1.
         24    2    1    2    0    0 -0.30477368334E+02 -0.21067678040E+02  0.18445691215E+03  0.20448724182E+03  0.80112187526E+02 0.  0.
         23    2    1    2    0    0  0.14345238308E+03  0.17445515663E+03  0.26617714135E+02  0.24526547787E+03  0.91833893761E+02 0.  0.
        -13    1    3    3    0    0  0.25627990624E+02 -0.19317799174E+02  0.70045515475E+02  0.77047683330E+02  0.00000000000E+00 0.  1.
         14    1    3    3    0    0 -0.56105358959E+02 -0.17498788660E+01  0.11441139668E+03  0.12743955849E+03  0.00000000000E+00 0. -1.
        -13    1    4    4    0    0  0.76108104792E+02  0.51409107873E+02 -0.25997169174E+02  0.95452568286E+02  0.00000000000E+00 0.  1.
         13    1    4    4    0    0  0.67344278290E+02  0.12304604875E+03  0.52614883308E+02  0.14981290958E+03  0.00000000000E+00 0. -1.
          1    1    1    2  501    0 -0.11297501475E+03 -0.15338747859E+03  0.47124400339E+03  0.50829320601E+03  0.00000000000E+00 0. -1.
<scales pt_clust_5="13000.00000" pt_clust_6="13000.00000" pt_clust_7="13000.00000" pt_clust_8="13000.00000" pt_clust_9="218.13132"></scales>
<clustering>
<clus scale="   80.112">  5  6 -1 -1</clus>
<clus scale="   88.265">  1  5  2 -1</clus>
<clus scale="   91.834">  7  8 -1 -1</clus>
<clus scale="  218.131">  2  9  1 -1</clus>
<clus scale="  218.131">  2  5  1 -1</clus>
</clustering>
</event>
<event>
 9    2  0.4653788E-005  0.1131570E+03  0.7546771E-02  0.1259598E+00
         21   -1    0    0  501  502  0.00000000000E+00  0.00000000000E+00  0.22092918187E+03  0.22092918187E+03  0.00000000000E+00 0.  1.
         -1   -1    0    0    0  501 -0.00000000000E+00 -0.00000000000E+00 -0.13196226458E+03  0.13196226458E+03  0.00000000000E+00 0.  1.
         24    2    1    2    0    0  0.71727214095E+02  0.69047276706E+02 -0.31102341864E+02  0.13134904651E+03  0.79830424565E+02 0.  0.
         23    2    1    2    0    0  0.37443387698E+01 -0.19731522049E+02  0.48406381881E+02  0.10637483972E+03  0.92569302061E+02 0.  0.
        -13    1    3    3    0    0  0.41886719694E+02  0.64213897937E+02 -0.53702901202E+02  0.93605147148E+02  0.00000000000E+00 0.  1.
         14    1    3    3    0    0  0.29840494401E+02  0.48333787689E+01  0.22600559337E+02  0.37743899359E+02  0.00000000000E+00 0. -1.
        -13    1    4    4    0    0 -0.37590930604E+02 -0.77065133104E+01 -0.39698177316E+01  0.38577556479E+02  0.00000000000E+00 0. -1.
         13    1    4    4    0    0  0.41335269374E+02 -0.12025008739E+02  0.52376199613E+02  0.67797283244E+02  0.00000000000E+00 0.  1.
         -2    1    1    2    0  502 -0.75471552865E+02 -0.49315754657E+02  0.71662877268E+02  0.11516756022E+03  0.00000000000E+00 0.  1.
<scales pt_clust_5="13000.00000" pt_clust_6="13000.00000" pt_clust_7="13000.00000" pt_clust_8="13000.00000" pt_clust_9="90.15542"></scales>
<clustering>
<clus scale="   79.830">  5  6 -1 -1</clus>
<clus scale="   90.155">  1  9  2 -1</clus>
<clus scale="   92.569">  7  8 -1 -1</clus>
<clus scale="  102.997">  2  5  1 -1</clus>
<clus scale="   90.155">  1  5  2 -1</clus>
</clustering>
</event>
<event>
 9    2  0.4653788E-005  0.1270923E+03  0.7546771E-02  0.1252760E+00
          4   -1    0    0  502    0 -0.00000000000E+00  0.00000000000E+00  0.24180345709E+03  0.24180345709E+03  0.00000000000E+00 0. -1.
         21   -1    0    0  501  502  0.00000000000E+00 -0.00000000000E+00 -0.16607255080E+03  0.16607255080E+03  0.00000000000E+00 0.  1.
         24    2    1    2    0    0  0.16916585735E+01  0.29760880607E+02 -0.68657212092E+02  0.10788755652E+03  0.77700324047E+02 0.  0.
         23    2    1    2    0    0 -0.39211733571E+02  0.70000799688E+02  0.22155175489E+01  0.12229996747E+03  0.92275140313E+02 0.  0.
        -11    1    3    3    0    0 -0.10153216340E+02  0.50143360011E+02 -0.66938294840E+02  0.84250695376E+02  0.00000000000E+00 0.  1.
         12    1    3    3    0    0  0.11844874914E+02 -0.20382479404E+02 -0.17189172526E+01  0.23636861147E+02  0.00000000000E+00 0. -1.
        -11    1    4    4    0    0 -0.59926292405E+02  0.69984256931E+02  0.20818406580E+02  0.94458259523E+02  0.00000000000E+00 0.  1.
         11    1    4    4    0    0  0.20714558834E+02  0.16542757028E-01 -0.18602889031E+02  0.27841707951E+02  0.00000000000E+00 0. -1.
          3    1    1    2  501    0  0.37520074998E+02 -0.99761680294E+02  0.14217260083E+03  0.17768848389E+03  0.00000000000E+00 0. -1.
<scales pt_clust_5="13000.00000" pt_clust_6="13000.00000" pt_clust_7="13000.00000" pt_clust_8="13000.00000" pt_clust_9="87.39425"></scales>
<clustering>
<clus scale="   77.700">  5  6 -1 -1</clus>
<clus scale="   83.222">  1  5  2 -1</clus>
<clus scale="   87.394">  2  9  1 -1</clus>
<clus scale="   92.275">  7  8 -1 -1</clus>
<clus scale="   87.394">  2  5  1 -1</clus>
</clustering>
</event>
<event>
 9    2  0.4653788E-005  0.1049323E+03  0.7546771E-02  0.1275521E+00
         21   -1    0    0  501  502  0.00000000000E+00  0.00000000000E+00  0.10324651607E+03  0.10324651607E+03  0.00000000000E+00 0. -1.
         -3   -1    0    0    0  501 -0.00000000000E+00 -0.00000000000E+00 -0.30293974570E+03  0.30293974570E+03  0.00000000000E+00 0.  1.
         23    2    1    2    0    0 -0.48246297235E+02  0.20683129737E+02 -0.25403794795E+03  0.27556235975E+03  0.92972243496E+02 0.  0.
         24    2    1    2    0    0  0.30168336296E+02 -0.12552783892E+01  0.23483156971E+02  0.89921444492E+02  0.81379993116E+02 0.  0.
        -11    1    4    4    0    0 -0.23508224210E+02 -0.11815863031E+02  0.23407329601E+02  0.35215824621E+02  0.00000000000E+00 0.  1.
         12    1    4    4    0    0  0.53676560506E+02  0.10560584642E+02  0.75827370046E-01  0.54705619872E+02  0.00000000000E+00 0. -1.
        -11    1    3    3    0    0 -0.41009843122E+01 -0.34966305275E+02 -0.97509864385E+02  0.10367079738E+03  0.00000000000E+00 0.  1.
         11    1    3    3    0    0 -0.44145312923E+02  0.55649435012E+02 -0.15652808357E+03  0.17189156237E+03  0.00000000000E+00 0. -1.
         -4    1    1    2    0  502  0.18077960939E+02 -0.19427851348E+02  0.30861561350E+02  0.40702457526E+02  0.00000000000E+00 0.  1.
<scales pt_clust_5="13000.00000" pt_clust_6="13000.00000" pt_clust_7="13000.00000" pt_clust_8="13000.00000" pt_clust_9="26.53779"></scales>
<clustering>
<clus scale="   26.538">  1  9  2 -1</clus>
<clus scale="   81.380">  5  6 -1 -1</clus>
<clus scale="   92.972">  7  8 -1 -1</clus>
<clus scale="   94.814">  1  5  2 -1</clus>
<clus scale="   26.538">  1  5  2 -1</clus>
</clustering>
</event>
<event>
 9    2  0.4653788E-005  0.1197497E+03  0.7546771E-02  0.1244894E+00
          2   -1    0    0  502    0 -0.00000000000E+00  0.00000000000E+00  0.75086560143E+03  0.75086560143E+03  0.00000000000E+00 0. -1.
         21   -1    0    0  501  502  0.00000000000E+00 -0.00000000000E+00 -0.54528777291E+02  0.54528777291E+02  0.00000000000E+00 0. -1.
         24    2    1    2    0    0  0.78215868861E+02 -0.84623899294E+01  0.56023559434E+03  0.57144215475E+03  0.80578414417E+02 0.  0.
         23    2    1    2    0    0 -0.11882270816E+03  0.21047681224E+02  0.10696169510E+03  0.18241177930E+03  0.85272575609E+02 0.  0.
        -11    1    3    3    0    0  0.85970420628E+02 -0.28490712174E+02  0.42843587927E+03  0.43790402665E+03  0.00000000000E+00 0.  1.
         12    1    3    3    0    0 -0.77545517669E+01  0.20028322244E+02  0.13179971507E+03  0.13353812810E+03  0.00000000000E+00 0. -1.
        -13    1    4    4    0    0 -0.19089861678E+02  0.26986561216E+02 -0.37691126524E+01  0.33270159532E+02  0.00000000000E+00 0.  1.
         13    1    4    4    0    0 -0.99732846478E+02 -0.59388799915E+01  0.11073080775E+03  0.14914161977E+03  0.00000000000E+00 0. -1.
          1    1    1    2  501    0  0.40606839295E+02 -0.12585291295E+02  0.29139534695E+02  0.51540444669E+02  0.00000000000E+00 0. -1.
<scales pt_clust_5="13000.00000" pt_clust_6="13000.00000" pt_clust_7="13000.00000" pt_clust_8="13000.00000" pt_clust_9="42.51241"></scales>
<clustering>
<clus scale="   42.512">  2  9  1 -1</clus>
<clus scale="   80.578">  5  6 -1 -1</clus>
<clus scale="   85.273">  7  8 -1 -1</clus>
<clus scale="  116.454">  1  5  2 -1</clus>
<clus scale="   42.512">  2  5  1 -1</clus>
</clustering>
</event>
<event>
 9    2  0.4653788E-005  0.9595028E+02  0.7546771E-02  0.1293626E+00
         21   -1    0    0  501  502  0.00000000000E+00  0.00000000000E+00  0.28394273414E+03  0.28394273414E+03  0.00000000000E+00 0.  1.
          2   -1    0    0  502    0 -0.00000000000E+00 -0.00000000000E+00 -0.97162727143E+02  0.97162727143E+02  0.00000000000E+00 0. -1.
         23    2    1    2    0    0  0.14547723450E+02 -0.33561305916E+02 -0.56046528160E+02  0.11106426139E+03  0.88634413901E+02 0.  0.
         24    2    1    2    0    0 -0.38615647457E+02  0.23365694833E+02  0.18427096346E+03  0.20591655231E+03  0.80054447815E+02 0.  0.
        -11    1    4    4    0    0 -0.17779030166E+02  0.34882764073E+02  0.17662321127E+03  0.18091064065E+03  0.00000000000E+00 0.  1.
         12    1    4    4    0    0 -0.20836617291E+02 -0.11517069239E+02  0.76477521947E+01  0.25005911654E+02  0.00000000000E+00 0. -1.
        -11    1    3    3    0    0  0.14551049081E+02  0.29068337687E+02 -0.25865455450E+02  0.41541823153E+02  0.00000000000E+00 0.  1.
         11    1    3    3    0    0 -0.33256316143E-02 -0.62629643603E+02 -0.30181072710E+02  0.69522438240E+02  0.00000000000E+00 0. -1.
          1    1    1    2  501    0  0.24067924008E+02  0.10195611082E+02  0.58555571697E+02  0.64124647587E+02  0.00000000000E+00 0. -1.
<scales pt_clust_5="13000.00000" pt_clust_6="13000.00000" pt_clust_7="13000.00000" pt_clust_8="13000.00000" pt_clust_9="26.13839"></scales>
<clustering>
<clus scale="   26.138">  1  9  2 -1</clus>
<clus scale="   80.054">  5  6 -1 -1</clus>
<clus scale="   88.086">  1  5  2 -1</clus>
<clus scale="   88.634">  7  8 -1 -1</clus>
<clus scale="   26.138">  1  5  2 -1</clus>
</clustering>
</event>
<event>
 9    2  0.4653788E-005  0.2875587E+03  0.7546771E-02  0.1091631E+00
         21   -1    0    0  501  502  0.00000000000E+00  0.00000000000E+00  0.38727099640E+03  0.38727099640E+03  0.00000000000E+00 0.  1.
         -1   -1    0    0    0  501 -0.00000000000E+00 -0.00000000000E+00 -0.15863628443E+03  0.15863628443E+03  0.00000000000E+00 0.  1.
         24    2    1    2    0    0  0.30167340736E+01 -0.83297312267E+02  0.10271005622E+03  0.15841552269E+03  0.87169830015E+02 0.  0.
         23    2    1    2    0    0 -0.49572235374E+01 -0.12477201695E+03  0.24928270096E+02  0.15619783004E+03  0.90463877768E+02 0.  0.
        -13    1    3    3    0    0  0.19316418396E+02 -0.80257055837E+02  0.36672550742E+02  0.90328262516E+02  0.00000000000E+00 0.  1.
         14    1    3    3    0    0 -0.16299684323E+02 -0.30402564300E+01  0.66037505476E+02  0.68087260172E+02  0.00000000000E+00 0. -1.
        -13    1    4    4    0    0  0.20903740974E+02 -0.31115409289E+02  0.43345862707E+02  0.57306185493E+02  0.00000000000E+00 0. -1.
         13    1    4    4    0    0 -0.25860964511E+02 -0.93656607661E+02 -0.18417592611E+02  0.98891644549E+02  0.00000000000E+00 0.  1.
         -2    1    1    2    0  502  0.19404894639E+01  0.20806932922E+03  0.10099638566E+03  0.23129392810E+03  0.00000000000E+00 0.  1.
<scales pt_clust_5="13000.00000" pt_clust_6="13000.00000" pt_clust_7="13000.00000" pt_clust_8="13000.00000" pt_clust_9="208.07838"></scales>
<clustering>
<clus scale="   87.170">  5  6 -1 -1</clus>
<clus scale="   90.464">  7  8 -1 -1</clus>
<clus scale="  114.373">  5  7 -1 -1</clus>
<clus scale="  208.078">  1  9  2 -1</clus>
<clus scale="  208.078">  1  5  2 -1</clus>
</clustering>
</event>
<event>
 9    2  0.4653788E-005  0.2299550E+03  0.7546771E-02  0.1126671E+00
         -3   -1    0    0    0  501 -0.00000000000E+00  0.00000000000E+00  0.95800095809E+02  0.95800095809E+02  0.00000000000E+00 0.  1.
         21   -1    0    0  501  502  0.00000000000E+00 -0.00000000000E+00 -0.41104074647E+03  0.41104074647E+03  0.00000000000E+00 0. -1.
         24    2    1    2    0    0  0.36449885461E+02  0.68231044384E+02 -0.10476318312E+03  0.15097849320E+03  0.76387900234E+02 0.  0.
         23    2    1    2    0    0  0.34620658610E+02  0.71353163139E+02 -0.13755567323E+03  0.18308399016E+03  0.91149988065E+02 0.  0.
        -13    1    3    3    0    0  0.24634777396E+02 -0.92752059060E+01 -0.10419877279E+02  0.28310343418E+02  0.00000000000E+00 0.  1.
         14    1    3    3    0    0  0.11815108065E+02  0.77506250290E+02 -0.94343305846E+02  0.12266814978E+03  0.00000000000E+00 0. -1.
        -13    1    4    4    0    0  0.55259077410E+02  0.16193774075E+02 -0.92388057883E+02  0.10886393891E+03  0.00000000000E+00 0. -1.
         13    1    4    4    0    0 -0.20638418799E+02  0.55159389064E+02 -0.45167615343E+02  0.74220051255E+02  0.00000000000E+00 0.  1.
         -4    1    1    2    0  502 -0.71070544072E+02 -0.13958420752E+03 -0.72921794307E+02  0.17277835892E+03  0.00000000000E+00 0.  1.
<scales pt_clust_5="13000.00000" pt_clust_6="13000.00000" pt_clust_7="13000.00000" pt_clust_8="13000.00000" pt_clust_9="156.63588"></scales>
<clustering>
<clus scale="   76.388">  5  6 -1 -1</clus>
<clus scale="   91.150">  7  8 -1 -1</clus>
<clus scale="   92.434">  5  7 -1 -1</clus>
<clus scale="  156.636">  2  9  1 -1</clus>
<clus scale="  156.636">  2  5  1 -1</clus>
</clustering>
</event>
<event>
 9    2  0.4653788E-005  0.1851918E+03  0.7546771E-02  0.1164534E+00
         21   -1    0    0  501  502  0.00000000000E+00  0.00000000000E+00  0.10479709437E+03  0.10479709437E+03  0.00000000000E+00 0. -1.
          2   -1    0    0  502    0 -0.00000000000E+00 -0.00000000000E+00 -0.10823838640E+04  0.10823838640E+04  0.00000000000E+00 0. -1.
         24    2    1    2    0    0 -0.84440604270E+02  0.15581784229E+03 -0.75623215671E+03  0.78035973880E+03  0.75265074641E+02 0.  0.
         23    2    1    2    0    0  0.56996937851E+02 -0.12126121550E+03 -0.28599268300E+03  0.32855631441E+03  0.90578715474E+02 0.  0.
        -13    1    3    3    0    0  0.13228713979E+02  0.25514702974E+02 -0.88124951701E+02  0.92693074464E+02  0.00000000000E+00 0.  1.
         14    1    3    3    0    0 -0.97669318249E+02  0.13030313931E+03 -0.66810720501E+03  0.68766666433E+03  0.00000000000E+00 0. -1.
        -11    1    4    4    0    0 -0.23188705792E+02 -0.11736632239E+02 -0.45249556745E+02  0.52182247923E+02  0.00000000000E+00 0. -1.
         11    1    4    4    0    0  0.80185643644E+02 -0.10952458326E+03 -0.24074312626E+03  0.27637406648E+03  0.00000000000E+00 0.  1.
          1    1    1    2  501    0  0.27443666419E+02 -0.34556626790E+02  0.64638070071E+02  0.78264905188E+02  0.00000000000E+00 0. -1.
<scales pt_clust_5="13000.00000" pt_clust_6="13000.00000" pt_clust_7="13000.00000" pt_clust_8="13000.00000" pt_clust_9="44.12840"></scales>
<clustering>
<clus scale="   44.128">  1  9  2 -1</clus>
<clus scale="   75.265">  5  6 -1 -1</clus>
<clus scale="   90.579">  7  8 -1 -1</clus>
<clus scale="  178.203">  2  5  1 -1</clus>
<clus scale="   44.128">  1  5  2 -1</clus>
</clustering>
</event>
<event>
 9    2  0.4653788E-005  0.1718421E+03  0.7546771E-02  0.1177219E+00
          2   -1    0    0  502    0 -0.00000000000E+00  0.00000000000E+00  0.75299326458E+03  0.75299326458E+03  0.00000000000E+00 0. -1.
         21   -1    0    0  501  502  0.00000000000E+00 -0.00000000000E+00 -0.31458867566E+03  0.31458867566E+03  0.00000000000E+00 0.  1.
         23    2    1    2    0    0  0.60377641522E+02 -0.13825305167E+03  0.35978083707E+03  0.40031902778E+03  0.89742450302E+02 0.  0.
         24    2    1    2    0    0  0.85185836451E+02  0.12809283559E+03 -0.25199459530E+03  0.30587607321E+03  0.79965585357E+02 0.  0.
        -11    1    4    4    0    0  0.86001698720E+02  0.11869107470E+03 -0.25649488365E+03  0.29542086712E+03  0.00000000000E+00 0.  1.
         12    1    4    4    0    0 -0.81586226957E+00  0.94017608930E+01  0.45002883463E+01  0.10455206087E+02  0.00000000000E+00 0. -1.
        -11    1    3    3    0    0 -0.14072368112E+02 -0.52895293483E+02  0.17718806350E+03  0.18544959818E+03  0.00000000000E+00 0. -1.
         11    1    3    3    0    0  0.74450009634E+02 -0.85357758188E+02  0.18259277358E+03  0.21486942961E+03  0.00000000000E+00 0.  1.
          1    1    1    2  501    0 -0.14556347797E+03  0.10160216080E+02  0.33061834715E+03  0.36138683925E+03  0.00000000000E+00 0. -1.
<scales pt_clust_5="13000.00000" pt_clust_6="13000.00000" pt_clust_7="13000.00000" pt_clust_8="13000.00000" pt_clust_9="145.91771"></scales>
<clustering>
<clus scale="   79.966">  5  6 -1 -1</clus>
<clus scale="   89.742">  7  8 -1 -1</clus>
<clus scale="  145.918">  2  9  1 -1</clus>
<clus scale="  166.945">  2  5  1 -1</clus>
<clus scale="  145.918">  2  5  1 -1</clus>
</clustering>
</event>
<event>
 9    2  0.4653788E-005  0.1047679E+03  0.7546771E-02  0.1275548E+00
         21   -1    0    0  501  502  0.00000000000E+00  0.00000000000E+00  0.37688041265E+02  0.37688041265E+02  0.00000000000E+00 0.  1.
         -1   -1    0    0    0  501 -0.00000000000E+00 -0.00000000000E+00 -0.49415486553E+03  0.49415486553E+03  0.00000000000E+00 0.  1.
         23    2    1    2    0    0  0.12473340897E+02 -0.29439209430E+02 -0.23263527095E+03  0.25245415011E+03  0.92691301294E+02 0.  0.
         24    2    1    2    0    0 -0.47304095393E+02  0.67136489158E+02 -0.15662472388E+03  0.19482502757E+03  0.81734335630E+02 0.  0.
        -11    1    4    4    0    0 -0.54676250194E+02  0.40106812394E+02 -0.15198610080E+03  0.16642663120E+03  0.00000000000E+00 0.  1.
         12    1    4    4    0    0  0.73721548016E+01  0.27029676764E+02 -0.46386230761E+01  0.28398396371E+02  0.00000000000E+00 0. -1.
        -13    1    3    3    0    0  0.43408416796E+02  0.58652294620E+01 -0.65080677010E+02  0.78448620673E+02  0.00000000000E+00 0. -1.
         13    1    3    3    0    0 -0.30935075899E+02 -0.35304438892E+02 -0.16755459394E+03  0.17400552944E+03  0.00000000000E+00 0.  1.
         -2    1    1    2    0  502  0.34830754496E+02 -0.37697279728E+02 -0.67206829434E+02  0.84563729105E+02  0.00000000000E+00 0.  1.
<scales pt_clust_5="13000.00000" pt_clust_6="13000.00000" pt_clust_7="13000.00000" pt_clust_8="13000.00000" pt_clust_9="51.32510"></scales>
<clustering>
<clus scale="   51.325">  1  9  2 -1</clus>
<clus scale="   81.734">  5  6 -1 -1</clus>
<clus scale="   92.691">  7  8 -1 -1</clus>
<clus scale="   95.211">  1  5  2 -1</clus>
<clus scale="   51.325">  1  5  2 -1</clus>
</clustering>
</event>
<event>
 9    2  0.4653788E-005  0.1603008E+03  0.7546771E-02  0.1189706E+00
          2   -1    0    0  502    0 -0.00000000000E+00  0.00000000000E+00  0.44598794677E+03  0.44598794677E+03  0.00000000000E+00 0. -1.
         21   -1    0    0  501  502  0.00000000000E+00 -0.00000000000E+00 -0.11477320701E+03  0.11477320701E+03  0.00000000000E+00 0. -1.
         24    2    1    2    0    0 -0.13386214256E+03 -0.77429150435E+02  0.23194967580E+03  0.29064201468E+03  0.82205729994E+02 0.  0.
         23    2    1    2    0    0  0.90642376188E+02 -0.34080708090E+01 -0.85087809086E+01  0.12863484251E+03  0.90812268152E+02 0.  0.
        -11    1    3    3    0    0 -0.44351896509E+02 -0.53630276117E+02  0.47545016130E+02  0.84284196616E+02  0.00000000000E+00 0.  1.
         12    1    3    3    0    0 -0.89510246051E+02 -0.23798874318E+02  0.18440465967E+03  0.20635781806E+03  0.00000000000E+00 0. -1.
        -11    1    4    4    0    0  0.42703632636E+02  0.43222634943E+02 -0.10828518047E+02  0.61717527614E+02  0.00000000000E+00 0. -1.
         11    1    4    4    0    0  0.47938743551E+02 -0.46630705752E+02  0.23197371387E+01  0.66917314894E+02  0.00000000000E+00 0.  1.
          1    1    1    2  501    0  0.43219766373E+02  0.80837221244E+02  0.10777384487E+03  0.14148429659E+03  0.00000000000E+00 0. -1.
<scales pt_clust_5="13000.00000" pt_clust_6="13000.00000" pt_clust_7="13000.00000" pt_clust_8="13000.00000" pt_clust_9="91.66577"></scales>
<clustering>
<clus scale="   82.206">  5  6 -1 -1</clus>
<clus scale="   90.812">  7  8 -1 -1</clus>
<clus scale="   91.666">  2  9  1 -1</clus>
<clus scale="  155.587">  1  5  2 -1</clus>
<clus scale="   91.666">  2  5  1 -1</clus>
</clustering>
</event>
<event>
 9    2  0.4653788E-005  0.1984312E+03  0.7546771E-02  0.1175583E+00
          2   -1    0    0  502    0 -0.00000000000E+00  0.00000000000E+00  0.22807050838E+03  0.22807050838E+03  0.00000000000E+00 0. -1.
         21   -1    0    0  501  502  0.00000000000E+00 -0.00000000000E+00 -0.28858521335E+03  0.28858521335E+03  0.00000000000E+00 0. -1.
         23    2    1    2    0    0 -0.20529626293E+02  0.61879657755E+02  0.38526678591E+02  0.11892687393E+03  0.91699175460E+02 0.  0.
         24    2    1    2    0    0 -0.16708986731E+03  0.11915642203E+01 -0.29855165187E+02  0.18804864789E+03  0.80935279695E+02 0.  0.
        -13    1    4    4    0    0 -0.38585285218E+02 -0.21372818592E+02 -0.36726299419E+02  0.57397235813E+02  0.00000000000E+00 0.  1.
         14    1    4    4    0    0 -0.12850458209E+03  0.22564382812E+02  0.68711342322E+01  0.13065141207E+03  0.00000000000E+00 0. -1.
        -11    1    3    3    0    0  0.12432486486E+02  0.36787508738E+02 -0.22717018587E+02  0.44988336854E+02  0.00000000000E+00 0.  1.
         11    1    3    3    0    0 -0.32962112779E+02  0.25092149017E+02  0.61243697177E+02  0.73938537077E+02  0.00000000000E+00 0. -1.
          1    1    1    2  501    0  0.18761949361E+03 -0.63071221975E+02 -0.69186218372E+02  0.20968019991E+03  0.00000000000E+00 0. -1.
<scales pt_clust_5="13000.00000" pt_clust_6="13000.00000" pt_clust_7="13000.00000" pt_clust_8="13000.00000" pt_clust_9="181.17511"></scales>
<clustering>
<clus scale="   80.935">  5  6 -1 -1</clus>
<clus scale="   91.699">  7  8 -1 -1</clus>
<clus scale="  112.514">  1  7  2 -1</clus>
<clus scale="  181.175">  2  9  1 -1</clus>
<clus scale="  181.175">  2  5  1 -1</clus>
</clustering>
</event>
<event>
 9    2  0.4653788E-005  0.1140364E+03  0.7546771E-02  0.1256120E+00
         -1   -1    0    0    0  501 -0.00000000000E+00  0.00000000000E+00  0.43334526617E+03  0.43334526617E+03  0.00000000000E+00 0.  1.
         21   -1    0    0  501  502  0.00000000000E+00 -0.00000000000E+00 -0.53718826363E+02  0.53718826363E+02  0.00000000000E+00 0. -1.
         24    2    1    2    0    0  0.22035961290E+02 -0.71213366065E+02  0.26615688917E+03  0.28802186587E+03  0.80994928683E+02 0.  0.
         23    2    1    2    0    0 -0.44278676092E+02  0.46473381192E+02  0.37457245483E+02  0.11606828046E+03  0.89153935268E+02 0.  0.
        -13    1    3    3    0    0  0.54667963119E+01 -0.86700677621E+02  0.22172222354E+03  0.23813365527E+03  0.00000000000E+00 0.  1.
         14    1    3    3    0    0  0.16569164978E+02  0.15487311557E+02  0.44434665632E+02  0.49888210603E+02  0.00000000000E+00 0. -1.
        -13    1    4    4    0    0 -0.26100206786E+02  0.69269045957E+02  0.77240542717E+01  0.74425012841E+02  0.00000000000E+00 0. -1.
         13    1    4    4    0    0 -0.18178469306E+02 -0.22795664764E+02  0.29733191211E+02  0.41643267619E+02  0.00000000000E+00 0.  1.
         -2    1    1    2    0  502  0.22242714802E+02  0.24739984872E+02  0.76012305156E+02  0.82973946202E+02  0.00000000000E+00 0.  1.
<scales pt_clust_5="13000.00000" pt_clust_6="13000.00000" pt_clust_7="13000.00000" pt_clust_8="13000.00000" pt_clust_9="33.26870"></scales>
<clustering>
<clus scale="   33.269">  2  9  1 -1</clus>
<clus scale="   80.995">  5  6 -1 -1</clus>
<clus scale="   89.154">  7  8 -1 -1</clus>
<clus scale="  107.778">  1  5  2 -1</clus>
<clus scale="   33.269">  2  5  1 -1</clus>
</clustering>
</event>
<event>
 9    2  0.4653788E-005  0.1767861E+03  0.7546771E-02  0.1181892E+00
         21   -1    0    0  501  502  0.00000000000E+00  0.00000000000E+00  0.13145565660E+03  0.13145565660E+03  0.00000000000E+00 0.  1.
         -1   -1    0    0    0  501 -0.00000000000E+00 -0.00000000000E+00 -0.69725203529E+03  0.69725203529E+03  0.00000000000E+00 0.  1.
         23    2    1    2    0    0 -0.10432627338E+03  0.21424566341E+01 -0.30546888888E+03  0.33520571946E+03  0.90349714149E+02 0.  0.
         24    2    1    2    0    0  0.78414768818E+02 -0.14596928509E+03  0.98158743070E+01  0.18636193951E+03  0.84726105497E+02 0.  0.
        -13    1    4    4    0    0  0.83130404336E+02 -0.14010392606E+03 -0.11933946495E+02  0.16334684968E+03  0.00000000000E+00 0.  1.
         14    1    4    4    0    0 -0.47156355172E+01 -0.58653590238E+01  0.21749820802E+02  0.23015089827E+02  0.00000000000E+00 0. -1.
        -11    1    3    3    0    0 -0.83297035656E+00  0.22054712176E+02 -0.16321091159E+02  0.27449629968E+02  0.00000000000E+00 0.  1.
         11    1    3    3    0    0 -0.10349330302E+03 -0.19912255542E+02 -0.28914779772E+03  0.30775608949E+03  0.00000000000E+00 0. -1.
         -2    1    1    2    0  502  0.25911504562E+02  0.14382682845E+03 -0.27014336412E+03  0.30714003293E+03  0.00000000000E+00 0.  1.
<scales pt_clust_5="13000.00000" pt_clust_6="13000.00000" pt_clust_7="13000.00000" pt_clust_8="13000.00000" pt_clust_9="155.16071"></scales>
<clustering>
<clus scale="   84.726">  5  6 -1 -1</clus>
<clus scale="   90.350">  7  8 -1 -1</clus>
<clus scale="  138.028">  2  7  1 -1</clus>
<clus scale="  155.161">  1  9  2 -1</clus>
<clus scale="  155.161">  1  5  2 -1</clus>
</clustering>
</event>
<event>
 9    2  0.4653788E-005  0.9747063E+02  0.7546771E-02  0.1295810E+00
         21   -1    0    0  501  502  0.00000000000E+00  0.00000000000E+00  0.20238667686E+03  0.20238667686E+03  0.00000000000E+00 0.  1.
          2   -1    0    0  502    0 -0.00000000000E+00 -0.00000000000E+00 -0.17167821775E+03  0.17167821775E+03  0.00000000000E+00 0. -1.
         23    2    1    2    0    0 -0.18533989225E+02 -0.28555533326E+02  0.75072347042E+02  0.12698176206E+03  0.96589768427E+02 0.  0.
         24    2    1    2    0    0  0.70288606958E+01 -0.20743961387E+02  0.78663955965E+02  0.11404682722E+03  0.79617485608E+02 0.  0.
        -13    1    4    4    0    0 -0.31240243483E+02  0.87651864554E+01  0.20302453643E+02  0.38274938672E+02  0.00000000000E+00 0.  1.
         14    1    4    4    0    0  0.38269104179E+02 -0.29509147842E+02  0.58361502322E+02  0.75771888549E+02  0.00000000000E+00 0. -1.
        -13    1    3    3    0    0 -0.46025623895E+02  0.64268656871E+01  0.90157953267E+01  0.47338644075E+02  0.00000000000E+00 0. -1.
         13    1    3    3    0    0  0.27491634670E+02 -0.34982399013E+02  0.66056551715E+02  0.79643117983E+02  0.00000000000E+00 0.  1.
          1    1    1    2  501    0  0.11505128530E+02  0.49299494713E+02 -0.12302784390E+03  0.13303630533E+03  0.00000000000E+00 0. -1.
<scales pt_clust_5="13000.00000" pt_clust_6="13000.00000" pt_clust_7="13000.00000" pt_clust_8="13000.00000" pt_clust_9="50.62421"></scales>
<clustering>
<clus scale="   50.624">  1  9  2 -1</clus>
<clus scale="   79.617">  5  6 -1 -1</clus>
<clus scale="   80.684">  1  5  2 -1</clus>
<clus scale="   96.590">  7  8 -1 -1</clus>
<clus scale="   50.624">  1  5  2 -1</clus>
</clustering>
</event>
<event>
 9    2  0.4653788E-005  0.9395975E+02  0.7546771E-02  0.1301476E+00
          2   -1    0    0  502    0 -0.00000000000E+00  0.00000000000E+00  0.42867434225E+03  0.42867434225E+03  0.00000000000E+00 0. -1.
         21   -1    0    0  501  502  0.00000000000E+00 -0.00000000000E+00 -0.19570640085E+03  0.19570640085E+03  0.00000000000E+00 0. -1.
         23    2    1    2    0    0 -0.16790691149E+02 -0.22767460139E+01  0.31288559959E+03  0.32624434265E+03  0.90834254534E+02 0.  0.
         24    2    1    2    0    0  0.44263584060E+02 -0.11999710302E+02  0.88885524722E+02  0.12651737000E+03  0.77477419202E+02 0.  0.
        -13    1    4    4    0    0  0.30759213600E+02  0.28996547045E+02  0.24068856278E+02  0.48644000703E+02  0.00000000000E+00 0.  1.
         14    1    4    4    0    0  0.13504370461E+02 -0.40996257348E+02  0.64816668445E+02  0.77873369301E+02  0.00000000000E+00 0. -1.
        -11    1    3    3    0    0  0.20748690032E+02  0.30767915906E+02  0.18966368591E+03  0.19326015249E+03  0.00000000000E+00 0.  1.
         11    1    3    3    0    0 -0.37539381181E+02 -0.33044661920E+02  0.12322191368E+03  0.13298419016E+03  0.00000000000E+00 0. -1.
          1    1    1    2  501    0 -0.27472892911E+02  0.14276456316E+02 -0.16880318292E+03  0.17161903045E+03  0.00000000000E+00 0. -1.
<scales pt_clust_5="13000.00000" pt_clust_6="13000.00000" pt_clust_7="13000.00000" pt_clust_8="13000.00000" pt_clust_9="30.96090"></scales>
<clustering>
<clus scale="   30.961">  2  9  1 -1</clus>
<clus scale="   77.477">  5  6 -1 -1</clus>
<clus scale="   81.119">  2  5  1 -1</clus>
<clus scale="   90.834">  7  8 -1 -1</clus>
<clus scale="   30.961">  2  5  1 -1</clus>
</clustering>
</event>
<event>
 9    2  0.4653788E-005  0.3026344E+03  0.7546771E-02  0.1084068E+00
         21   -1    0    0  501  502  0.00000000000E+00  0.00000000000E+00  0.19001517233E+03  0.19001517233E+03  0.00000000000E+00 0. -1.
          2   -1    0    0  502    0 -0.00000000000E+00 -0.00000000000E+00 -0.10269695271E+04  0.10269695271E+04  0.00000000000E+00 0. -1.
         23    2    1    2    0    0  0.28988025417E+03  0.16224387856E+03 -0.38356498031E+03  0.51474837797E+03  0.86545714007E+02 0.  0.
         24    2    1    2    0    0 -0.24128453638E+03 -0.23030161184E+01 -0.42381360140E+02  0.25853573424E+03  0.82589435225E+02 0.  0.
        -13    1    4    4    0    0 -0.16039123284E+03  0.35238099279E+02 -0.13389072688E+02  0.16476145933E+03  0.00000000000E+00 0.  1.
         14    1    4    4    0    0 -0.80893303542E+02 -0.37541115397E+02 -0.28992287452E+02  0.93774274910E+02  0.00000000000E+00 0. -1.
        -11    1    3    3    0    0  0.19469505526E+02  0.19087489242E+02 -0.45428781917E+01  0.27641122142E+02  0.00000000000E+00 0.  1.
         11    1    3    3    0    0  0.27041074865E+03  0.14315638932E+03 -0.37902210212E+03  0.48710725583E+03  0.00000000000E+00 0. -1.
          1    1    1    2  501    0 -0.48595717788E+02 -0.15994086244E+03 -0.41100801429E+03  0.44370058720E+03  0.00000000000E+00 0. -1.
<scales pt_clust_5="13000.00000" pt_clust_6="13000.00000" pt_clust_7="13000.00000" pt_clust_8="13000.00000" pt_clust_9="167.16056"></scales>
<clustering>
<clus scale="   82.589">  5  6 -1 -1</clus>
<clus scale="   86.546">  7  8 -1 -1</clus>
<clus scale="  167.161">  1  9  2 -1</clus>
<clus scale="  301.527">  1  5  2 -1</clus>
<clus scale="  167.161">  1  5  2 -1</clus>
</clustering>
</event>
<event>
 9    2  0.4653788E-005  0.1595251E+03  0.7546771E-02  0.1209211E+00
         -3   -1    0    0    0  501 -0.00000000000E+00  0.00000000000E+00  0.28064630062E+03  0.28064630062E+03  0.00000000000E+00 0.  1.
         21   -1    0    0  501  502  0.00000000000E+00 -0.00000000000E+00 -0.19902190317E+03  0.19902190317E+03  0.00000000000E+00 0.  1.
         23    2    1    2    0    0  0.70187923933E+00 -0.19243937887E+02  0.99320214336E+02  0.14330795428E+03  0.10149799507E+03 0.  0.
         24    2    1    2    0    0  0.10217975031E+03 -0.78596753480E+02  0.73049420767E+02  0.16786060932E+03  0.78884822719E+02 0.  0.
        -13    1    4    4    0    0  0.54649595097E+02 -0.79446613389E+02  0.71945560345E+02  0.12031004229E+03  0.00000000000E+00 0.  1.
         14    1    4    4    0    0  0.47530155217E+02  0.84985990954E+00  0.11038604221E+01  0.47550567028E+02  0.00000000000E+00 0. -1.
        -13    1    3    3    0    0  0.56273361688E+01  0.24165295638E+02 -0.90911281874E+01  0.26424932116E+02  0.00000000000E+00 0.  1.
         13    1    3    3    0    0 -0.49254569294E+01 -0.43409233525E+02  0.10841134252E+03  0.11688302216E+03  0.00000000000E+00 0. -1.
         -4    1    1    2    0  502 -0.10288162955E+03  0.97840691367E+02 -0.90745237656E+02  0.16849964019E+03  0.00000000000E+00 0.  1.
<scales pt_clust_5="13000.00000" pt_clust_6="13000.00000" pt_clust_7="13000.00000" pt_clust_8="13000.00000" pt_clust_9="138.65583"></scales>
<clustering>
<clus scale="   78.885">  5  6 -1 -1</clus>
<clus scale="  101.498">  7  8 -1 -1</clus>
<clus scale="  103.309">  1  7  2 -1</clus>
<clus scale="  138.656">  2  9  1 -1</clus>
<clus scale="  138.656">  2  5  1 -1</clus>
</clustering>
</event>
<event>
 9    2  0.4653788E-005  0.1017713E+03  0.7546771E-02  0.1280912E+00
          2   -1    0    0  502    0 -0.00000000000E+00  0.00000000000E+00  0.40649667791E+03  0.40649667791E+03  0.00000000000E+00 0. -1.
         21   -1    0    0  501  502  0.00000000000E+00 -0.00000000000E+00 -0.52807095261E+02  0.52807095261E+02  0.00000000000E+00 0.  1.
         23    2    1    2    0    0 -0.17144549460E+01 -0.29222837203E+02  0.93821239030E+02  0.13401482714E+03  0.91107823107E+02 0.  0.
         24    2    1    2    0    0  0.34855837469E+02  0.62889669068E+02  0.70006932076E+02  0.12963833295E+03  0.82067575516E+02 0.  0.
        -13    1    4    4    0    0  0.48270524223E+02  0.71515043921E+02  0.38823990582E+02  0.94613673750E+02  0.00000000000E+00 0.  1.
         14    1    4    4    0    0 -0.13414686754E+02 -0.86253748536E+01  0.31182941494E+02  0.35024659203E+02  0.00000000000E+00 0. -1.
        -11    1    3    3    0    0 -0.19210664594E+02  0.29018854489E+02  0.31523107412E+02  0.46955828722E+02  0.00000000000E+00 0. -1.
         11    1    3    3    0    0  0.17496209648E+02 -0.58241691692E+02  0.62298131618E+02  0.87058998423E+02  0.00000000000E+00 0.  1.
          1    1    1    2  501    0 -0.33141382523E+02 -0.33666831865E+02  0.18986141155E+03  0.19565061308E+03  0.00000000000E+00 0. -1.
<scales pt_clust_5="13000.00000" pt_clust_6="13000.00000" pt_clust_7="13000.00000" pt_clust_8="13000.00000" pt_clust_9="47.24203"></scales>
<clustering>
<clus scale="   47.242">  2  9  1 -1</clus>
<clus scale="   82.068">  5  6 -1 -1</clus>
<clus scale="   91.108">  7  8 -1 -1</clus>
<clus scale="   93.765">  2  5  1 -1</clus>
<clus scale="   47.242">  2  5  1 -1</clus>
</clustering>
</event>
<event>
 9    2  0.4653788E-005  0.1161123E+03  0.7546771E-02  0.1255752E+00
          2   -1    0    0  502    0 -0.00000000000E+00  0.00000000000E+00  0.79988843022E+03  0.79988843022E+03  0.00000000000E+00 0. -1.
         21   -1    0    0  501  502  0.00000000000E+00 -0.00000000000E+00 -0.62838516261E+02  0.62838516261E+02  0.00000000000E+00 0. -1.
         23    2    1    2    0    0  0.63979600301E+02 -0.13070933553E+02  0.54643034522E+03  0.55819233754E+03  0.93425504812E+02 0.  0.
         24    2    1    2    0    0 -0.94709287459E+02 -0.74351333528E+02  0.13571352661E+03  0.19682369995E+03  0.76311451483E+02 0.  0.
        -11    1    4    4    0    0 -0.74964044104E+02 -0.11459201337E+02  0.82933300507E+02  0.11237817198E+03  0.00000000000E+00 0.  1.
         12    1    4    4    0    0 -0.19745243354E+02 -0.62892132191E+02  0.52780226102E+02  0.84445527969E+02  0.00000000000E+00 0. -1.
        -13    1    3    3    0    0 -0.20327456537E+02  0.11013185916E+02  0.68790179386E+02  0.72571237644E+02  0.00000000000E+00 0.  1.
         13    1    3    3    0    0  0.84307056838E+02 -0.24084119468E+02  0.47764016584E+03  0.48562109990E+03  0.00000000000E+00 0. -1.
          1    1    1    2  501    0  0.30729687158E+02  0.87422267080E+02  0.54906042125E+02  0.10771090899E+03  0.00000000000E+00 0. -1.
<scales pt_clust_5="13000.00000" pt_clust_6="13000.00000" pt_clust_7="13000.00000" pt_clust_8="13000.00000" pt_clust_9="92.66589"></scales>
<clustering>
<clus scale="   76.311">  5  6 -1 -1</clus>
<clus scale="   92.666">  2  9  1 -1</clus>
<clus scale="   93.426">  7  8 -1 -1</clus>
<clus scale="  102.845">  2  5  1 -1</clus>
<clus scale="   92.666">  2  5  1 -1</clus>
</clustering>
</event>
<event>
 9    2  0.8481592E-005  0.1129832E+03  0.7546771E-02  0.1260654E+00
         21   -1    0    0  501  502  0.00000000000E+00  0.00000000000E+00  0.21117447445E+03  0.21117447445E+03  0.00000000000E+00 0. -1.
          2   -1    0    0  502    0 -0.00000000000E+00 -0.00000000000E+00 -0.77080488642E+03  0.77080488642E+03  0.00000000000E+00 0. -1.
         24    2    1    2    0    0 -0.13558836126E+02 -0.64757893753E+02 -0.73562935524E+03  0.74265260562E+03  0.77491402765E+02 0.  0.
         23    2    1    2    0    0  0.49484330396E+02  0.23989693693E+02  0.10786102337E+03  0.15217479943E+03  0.92189830577E+02 0.  0.
        -11    1    3    3    0    0  0.23402401591E+02 -0.39011619602E+02 -0.19889226784E+03  0.20402870649E+03  0.00000000000E+00 0.  1.
         12    1    3    3    0    0 -0.36961237717E+02 -0.25746274150E+02 -0.53673708740E+03  0.53862389913E+03  0.00000000000E+00 0. -1.
        -13    1    4    4    0    0  0.76793134094E+02  0.14052552457E+02  0.74198538928E+02  0.10770368078E+03  0.00000000000E+00 0. -1.
         13    1    4    4    0    0 -0.27308803699E+02  0.99371412355E+01  0.33662484442E+02  0.44471118652E+02  0.00000000000E+00 0.  1.
          1    1    1    2  501    0 -0.35925494270E+02  0.40768200060E+02  0.68137919903E+02  0.87151955821E+02  0.00000000000E+00 0. -1.
<scales pt_clust_5="13000.00000" pt_clust_6="13000.00000" pt_clust_7="13000.00000" pt_clust_8="13000.00000" pt_clust_9="54.33864"></scales>
<clustering>
<clus scale="   54.339">  1  9  2 -1</clus>
<clus scale="   77.491">  5  6 -1 -1</clus>
<clus scale="   92.190">  7  8 -1 -1</clus>
<clus scale="  101.347">  2  5  1 -1</clus>
<clus scale="   54.339">  1  5  2 -1</clus>
</clustering>
</event>
<event>
 9    2  0.4653788E-005  0.1255670E+03  0.7546771E-02  0.1236161E+00
          2   -1    0    0  502    0 -0.00000000000E+00  0.00000000000E+00  0.14816515314E+03  0.14816515314E+03  0.00000000000E+00 0. -1.
         21   -1    0    0  501  502  0.00000000000E+00 -0.00000000000E+00 -0.17406183803E+03  0.17406183803E+03  0.00000000000E+00 0. -1.
         23    2    1    2    0    0  0.59881561201E+02 -0.60341950084E+02 -0.62944341175E+01  0.12257329605E+03  0.88077469829E+02 0.  0.
         24    2    1    2    0    0 -0.16329355156E+02  0.10456315636E+03 -0.30564248128E+02  0.13662612082E+03  0.80823400806E+02 0.  0.
        -11    1    4    4    0    0  0.80089900619E+01  0.58158755635E+02 -0.53498641304E+02  0.79427258546E+02  0.00000000000E+00 0.  1.
         12    1    4    4    0    0 -0.24338345218E+02  0.46404400729E+02  0.22934393175E+02  0.57198862273E+02  0.00000000000E+00 0. -1.
        -13    1    3    3    0    0 -0.15458797439E+02 -0.24039361925E+02  0.20026360619E+02  0.34898717163E+02  0.00000000000E+00 0.  1.
         13    1    3    3    0    0  0.75340358640E+02 -0.36302588160E+02 -0.26320794736E+02  0.87674578885E+02  0.00000000000E+00 0. -1.
          1    1    1    2  501    0 -0.43552206045E+02 -0.44221206280E+02  0.10961997360E+02  0.63027574302E+02  0.00000000000E+00 0. -1.
<scales pt_clust_5="13000.00000" pt_clust_6="13000.00000" pt_clust_7="13000.00000" pt_clust_8="13000.00000" pt_clust_9="62.06701"></scales>
<clustering>
<clus scale="   62.067">  2  9  1 -1</clus>
<clus scale="   80.823">  5  6 -1 -1</clus>
<clus scale="   88.077">  7  8 -1 -1</clus>
<clus scale="  120.590">  2  5  1 -1</clus>
<clus scale="   62.067">  2  5  1 -1</clus>
</clustering>
</event>
<event>
 9    2  0.4653788E-005  0.9408433E+02  0.7546771E-02  0.1300438E+00
         21   -1    0    0  501  502  0.00000000000E+00  0.00000000000E+00  0.28293190704E+02  0.28293190704E+02  0.00000000000E+00 0. -1.
         -1   -1    0    0    0  501 -0.00000000000E+00 -0.00000000000E+00 -0.60225298335E+03  0.60225298335E+03  0.00000000000E+00 0.  1.
         24    2    1    2    0    0 -0.39347056324E+02 -0.21094196317E+00 -0.30498628723E+03  0.31753526609E+03  0.79144010965E+02 0.  0.
         23    2    1    2    0    0 -0.20094744133E+02 -0.13174698766E+02 -0.12470334032E+03  0.15640189304E+03  0.91286678278E+02 0.  0.
        -13    1    3    3    0    0 -0.57052977100E+02  0.75076069276E+01 -0.28053089689E+03  0.28637211887E+03  0.00000000000E+00 0.  1.
         14    1    3    3    0    0  0.17705920776E+02 -0.77185488907E+01 -0.24455390341E+02  0.31163147214E+02  0.00000000000E+00 0. -1.
        -11    1    4    4    0    0 -0.51362689626E+02  0.13489450292E+02 -0.75293494525E+02  0.92136862724E+02  0.00000000000E+00 0. -1.
         11    1    4    4    0    0  0.31267945494E+02 -0.26664149058E+02 -0.49409845798E+02  0.64265030321E+02  0.00000000000E+00 0.  1.
         -2    1    1    2    0  502  0.59441800456E+02  0.13385640729E+02 -0.14427016509E+03  0.15660901492E+03  0.00000000000E+00 0.  1.
<scales pt_clust_5="13000.00000" pt_clust_6="13000.00000" pt_clust_7="13000.00000" pt_clust_8="13000.00000" pt_clust_9="60.93034"></scales>
<clustering>
<clus scale="   60.930">  1  9  2 -1</clus>
<clus scale="   79.144">  5  6 -1 -1</clus>
<clus scale="   82.355">  2  5  1 -1</clus>
<clus scale="   91.287">  7  8 -1 -1</clus>
<clus scale="   60.930">  1  5  2 -1</clus>
</clustering>
</event>
<event>
 9    2  0.4653788E-005  0.1398274E+03  0.7546771E-02  0.1216347E+00
         21   -1    0    0  501  502  0.00000000000E+00  0.00000000000E+00  0.10940259864E+03  0.10940259864E+03  0.00000000000E+00 0. -1.
          2   -1    0    0  502    0 -0.00000000000E+00 -0.00000000000E+00 -0.24466701270E+03  0.24466701270E+03  0.00000000000E+00 0. -1.
         23    2    1    2    0    0  0.83356203835E+02  0.67514082963E+02 -0.14216109601E+03  0.20026174062E+03  0.91589188335E+02 0.  0.
         24    2    1    2    0    0 -0.64453560805E+02 -0.81021424255E+02  0.92865290421E+01  0.13045258113E+03  0.78821974185E+02 0.  0.
        -11    1    4    4    0    0 -0.46783778714E+02 -0.16907242721E+02  0.33169623147E+02  0.59789637120E+02  0.00000000000E+00 0.  1.
         12    1    4    4    0    0 -0.17669782090E+02 -0.64114181534E+02 -0.23883094105E+02  0.70662944015E+02  0.00000000000E+00 0. -1.
        -11    1    3    3    0    0  0.94647475096E+02  0.26814795220E+02 -0.10653484532E+03  0.14500638280E+03  0.00000000000E+00 0. -1.
         11    1    3    3    0    0 -0.11291271261E+02  0.40699287743E+02 -0.35626250693E+02  0.55255357821E+02  0.00000000000E+00 0.  1.
          1    1    1    2  501    0 -0.18902643031E+02  0.13507341293E+02 -0.23898470949E+01  0.23355289583E+02  0.00000000000E+00 0. -1.
<scales pt_clust_5="13000.00000" pt_clust_6="13000.00000" pt_clust_7="13000.00000" pt_clust_8="13000.00000" pt_clust_9="23.23270"></scales>
<clustering>
<clus scale="   23.233">  1  9  2 -1</clus>
<clus scale="   78.822">  5  6 -1 -1</clus>
<clus scale="   91.589">  7  8 -1 -1</clus>
<clus scale="  131.818">  1  5  2 -1</clus>
<clus scale="   23.233">  1  5  2 -1</clus>
</clustering>
</event>
<event>
 9    2  0.4653788E-005  0.9622890E+02  0.7546771E-02  0.1292402E+00
          4   -1    0    0  502    0 -0.00000000000E+00  0.00000000000E+00  0.65255644311E+03  0.65255644311E+03  0.00000000000E+00 0. -1.
         21   -1    0    0  501  502  0.00000000000E+00 -0.00000000000E+00 -0.22986349115E+02  0.22986349115E+02  0.00000000000E+00 0.  1.
         23    2    1    2    0    0  0.47334288739E+02 -0.33522383313E+01  0.40890874697E+03  0.42139362588E+03  0.90080254175E+02 0.  0.
         24    2    1    2    0    0 -0.89140237428E+01 -0.13216305134E+02  0.14382672717E+03  0.16666092597E+03  0.82677725280E+02 0.  0.
        -11    1    4    4    0    0  0.36241530424E+02  0.38086101754E+00  0.51325810131E+02  0.62832574101E+02  0.00000000000E+00 0.  1.
         12    1    4    4    0    0 -0.45155554167E+02 -0.13597166152E+02  0.92500917037E+02  0.10382835187E+03  0.00000000000E+00 0. -1.
        -13    1    3    3    0    0  0.50822644198E+02  0.36005849092E+02  0.25401047161E+03  0.26153524050E+03  0.00000000000E+00 0.  1.
         13    1    3    3    0    0 -0.34883554587E+01 -0.39358087423E+02  0.15489827536E+03  0.15985838539E+03  0.00000000000E+00 0. -1.
          3    1    1    2  501    0 -0.38420264996E+02  0.16568543466E+02  0.76834619860E+02  0.87488240375E+02  0.00000000000E+00 0. -1.
<scales pt_clust_5="13000.00000" pt_clust_6="13000.00000" pt_clust_7="13000.00000" pt_clust_8="13000.00000" pt_clust_9="41.84057"></scales>
<clustering>
<clus scale="   41.841">  2  9  1 -1</clus>
<clus scale="   82.678">  5  6 -1 -1</clus>
<clus scale="   89.337">  2  5  1 -1</clus>
<clus scale="   90.080">  7  8 -1 -1</clus>
<clus scale="   41.841">  2  5  1 -1</clus>
</clustering>
</event>
<event>
 9    2  0.4653788E-005  0.1146574E+03  0.7546771E-02  0.1254010E+00
         21   -1    0    0  501  502  0.00000000000E+00  0.00000000000E+00  0.26208152906E+03  0.26208152906E+03  0.00000000000E+00 0. -1.
         -1   -1    0    0    0  501 -0.00000000000E+00 -0.00000000000E+00 -0.23366743050E+03  0.23366743050E+03  0.00000000000E+00 0.  1.
         24    2    1    2    0    0  0.74885420054E+02 -0.27820375526E+02 -0.17785333624E+03  0.21106920156E+03  0.80849237481E+02 0.  0.
         23    2    1    2    0    0 -0.72825097810E+01  0.74176140970E+02  0.12560774870E+03  0.16967977788E+03  0.86364261425E+02 0.  0.
        -11    1    3    3    0    0  0.40429661254E+02 -0.26603947075E+02 -0.16854709859E+03  0.17535806783E+03  0.00000000000E+00 0.  1.
         12    1    3    3    0    0  0.34455758800E+02 -0.12164284512E+01 -0.93062376494E+01  0.35711133724E+02  0.00000000000E+00 0. -1.
        -11    1    4    4    0    0  0.23679312263E+02  0.51770419511E+02  0.25223726069E+02  0.62266544166E+02  0.00000000000E+00 0.  1.
         11    1    4    4    0    0 -0.30961822044E+02  0.22405721459E+02  0.10038402263E+03  0.10741323372E+03  0.00000000000E+00 0. -1.
         -2    1    1    2    0  502 -0.67602910273E+02 -0.46355765443E+02  0.80659686108E+02  0.11499998013E+03  0.00000000000E+00 0.  1.
<scales pt_clust_5="13000.00000" pt_clust_6="13000.00000" pt_clust_7="13000.00000" pt_clust_8="13000.00000" pt_clust_9="81.96957"></scales>
<clustering>
<clus scale="   80.849">  5  6 -1 -1</clus>
<clus scale="   81.970">  1  9  2 -1</clus>
<clus scale="   86.364">  7  8 -1 -1</clus>
<clus scale="  110.563">  2  5  1 -1</clus>
<clus scale="   81.970">  1  5  2 -1</clus>
</clustering>
</event>
<event>
 9    2  0.4653788E-005  0.2351199E+03  0.7546771E-02  0.1140523E+00
          2   -1    0    0  502    0 -0.00000000000E+00  0.00000000000E+00  0.53226299958E+03  0.53226299958E+03  0.00000000000E+00 0. -1.
         21   -1    0    0  501  502  0.00000000000E+00 -0.00000000000E+00 -0.22077052598E+03  0.22077052598E+03  0.00000000000E+00 0. -1.
         24    2    1    2    0    0  0.68597820406E+02 -0.11255268205E+03  0.17583395436E+03  0.23336398101E+03  0.78532801593E+02 0.  0.
         23    2    1    2    0    0  0.13139265058E+03 -0.11443060088E+03  0.25042557959E+02  0.19756165874E+03  0.89694415943E+02 0.  0.
        -13    1    3    3    0    0  0.84552254799E+02 -0.85736206848E+02  0.12388261335E+03  0.17276192534E+03  0.00000000000E+00 0.  1.
         14    1    3    3    0    0 -0.15954434392E+02 -0.26816475203E+02  0.51951341005E+02  0.60602055669E+02  0.00000000000E+00 0. -1.
        -11    1    4    4    0    0  0.16756710272E+02 -0.71502960882E+02  0.60758061671E+01  0.73691086128E+02  0.00000000000E+00 0. -1.
         11    1    4    4    0    0  0.11463594031E+03 -0.42927639995E+02  0.18966751792E+02  0.12387057261E+03  0.00000000000E+00 0.  1.
          1    1    1    2  501    0 -0.19999047099E+03  0.22698328293E+03  0.11061596128E+03  0.32210788582E+03  0.00000000000E+00 0. -1.
<scales pt_clust_5="13000.00000" pt_clust_6="13000.00000" pt_clust_7="13000.00000" pt_clust_8="13000.00000" pt_clust_9="217.33915"></scales>
<clustering>
<clus scale="   78.533">  5  6 -1 -1</clus>
<clus scale="   89.694">  7  8 -1 -1</clus>
<clus scale="  153.431">  1  5  2 -1</clus>
<clus scale="  217.339">  2  9  1 -1</clus>
<clus scale="  217.339">  2  5  1 -1</clus>
</clustering>
</event>
<event>
 9    2  0.4653788E-005  0.1939755E+03  0.7546771E-02  0.1155723E+00
          2   -1    0    0  502    0 -0.00000000000E+00  0.00000000000E+00  0.82636547475E+03  0.82636547475E+03  0.00000000000E+00 0. -1.
         21   -1    0    0  501  502  0.00000000000E+00 -0.00000000000E+00 -0.73824335818E+02  0.73824335818E+02  0.00000000000E+00 0. -1.
         24    2    1    2    0    0  0.96151622779E+02  0.13201198220E+03  0.41634781948E+03  0.45460635392E+03  0.81542211378E+02 0.  0.
         23    2    1    2    0    0 -0.13601339315E+03 -0.14245072724E+03  0.17236346495E+03  0.27665107561E+03  0.89637050249E+02 0.  0.
        -11    1    3    3    0    0  0.39774448982E+02  0.86117320682E+00  0.89659405524E+02  0.98089537720E+02  0.00000000000E+00 0.  1.
         12    1    3    3    0    0  0.56377173797E+02  0.13115080899E+03  0.32668841395E+03  0.35651681620E+03  0.00000000000E+00 0. -1.
        -13    1    4    4    0    0 -0.31158076210E+02  0.65415913060E+01  0.41630443300E+02  0.52409082603E+02  0.00000000000E+00 0.  1.
         13    1    4    4    0    0 -0.10485531694E+03 -0.14899231855E+03  0.13073302165E+03  0.22424199301E+03  0.00000000000E+00 0. -1.
          1    1    1    2  501    0  0.39861770374E+02  0.10438745049E+02  0.16382985450E+03  0.16893238103E+03  0.00000000000E+00 0. -1.
<scales pt_clust_5="13000.00000" pt_clust_6="13000.00000" pt_clust_7="13000.00000" pt_clust_8="13000.00000" pt_clust_9="41.20594"></scales>
<clustering>
<clus scale="   41.206">  2  9  1 -1</clus>
<clus scale="   81.542">  5  6 -1 -1</clus>
<clus scale="   89.637">  7  8 -1 -1</clus>
<clus scale="  190.370">  1  5  2 -1</clus>
<clus scale="   41.206">  2  5  1 -1</clus>
</clustering>
</event>
<event>
 9    2  0.4653788E-005  0.9511325E+02  0.7546771E-02  0.1296781E+00
          4   -1    0    0  502    0 -0.00000000000E+00  0.00000000000E+00  0.90865781271E+02  0.90865781271E+02  0.00000000000E+00 0. -1.
         21   -1    0    0  501  502  0.00000000000E+00 -0.00000000000E+00 -0.25698026179E+03  0.25698026179E+03  0.00000000000E+00 0. -1.
         24    2    1    2    0    0  0.85917265078E+01 -0.88724073840E+01  0.78324695515E+01  0.81656734159E+02  0.80336400698E+02 0.  0.
         23    2    1    2    0    0 -0.26212775086E+02  0.54789228757E+02 -0.28741461819E+02  0.11288083015E+03  0.90703037563E+02 0.  0.
        -11    1    3    3    0    0  0.17006572293E+01 -0.37493498898E+02 -0.18783266845E+02  0.41969820205E+02  0.00000000000E+00 0.  1.
         12    1    3    3    0    0  0.68910692785E+01  0.28621091514E+02  0.26615736397E+02  0.39686913954E+02  0.00000000000E+00 0. -1.
        -13    1    4    4    0    0 -0.54660438325E+02  0.27244362691E+02  0.44167931600E+01  0.61233380424E+02  0.00000000000E+00 0.  1.
         13    1    4    4    0    0  0.28447663239E+02  0.27544866066E+02 -0.33158254979E+02  0.51647449729E+02  0.00000000000E+00 0. -1.
          3    1    1    2  501    0  0.17621048578E+02 -0.45916821373E+02 -0.14520548825E+03  0.15330847875E+03  0.00000000000E+00 0. -1.
<scales pt_clust_5="13000.00000" pt_clust_6="13000.00000" pt_clust_7="13000.00000" pt_clust_8="13000.00000" pt_clust_9="49.18186"></scales>
<clustering>
<clus scale="   49.182">  2  9  1 -1</clus>
<clus scale="   80.336">  5  6 -1 -1</clus>
<clus scale="   85.284">  1  5  2 -1</clus>
<clus scale="   90.703">  7  8 -1 -1</clus>
<clus scale="   49.182">  2  5  1 -1</clus>
</clustering>
</event>
<event>
 9    2  0.4653788E-005  0.1068220E+03  0.7546771E-02  0.1271168E+00
         21   -1    0    0  501  502  0.00000000000E+00  0.00000000000E+00  0.24409515637E+02  0.24409515637E+02  0.00000000000E+00 0. -1.
         -1   -1    0    0    0  501 -0.00000000000E+00 -0.00000000000E+00 -0.64432295388E+03  0.64432295388E+03  0.00000000000E+00 0.  1.
         23    2    1    2    0    0 -0.21882941709E+02 -0.40439081892E+02 -0.37382139109E+03  0.38822846130E+03  0.94152659243E+02 0.  0.
         24    2    1    2    0    0  0.10032982603E+02  0.57832849270E+02 -0.23595373942E+03  0.25714271635E+03  0.83683392775E+02 0.  0.
        -13    1    4    4    0    0  0.24789890527E+02 -0.14149553728E+02 -0.73307802141E+02  0.78668814646E+02  0.00000000000E+00 0.  1.
         14    1    4    4    0    0 -0.14756907924E+02  0.71982402998E+02 -0.16264593728E+03  0.17847390170E+03  0.00000000000E+00 0. -1.
        -11    1    3    3    0    0 -0.41080720576E+02  0.14335040247E+02 -0.20914688919E+03  0.21362476504E+03  0.00000000000E+00 0.  1.
         11    1    3    3    0    0  0.19197778866E+02 -0.54774122139E+02 -0.16467450190E+03  0.17460369626E+03  0.00000000000E+00 0. -1.
         -2    1    1    2    0  502  0.11849959106E+02 -0.17393767378E+02 -0.10138307728E+02  0.23361291873E+02  0.00000000000E+00 0.  1.
<scales pt_clust_5="13000.00000" pt_clust_6="13000.00000" pt_clust_7="13000.00000" pt_clust_8="13000.00000" pt_clust_9="21.04673"></scales>
<clustering>
<clus scale="   21.047">  1  9  2 -1</clus>
<clus scale="   83.683">  5  6 -1 -1</clus>
<clus scale="   94.153">  7  8 -1 -1</clus>
<clus scale="   97.720">  1  5  2 -1</clus>
<clus scale="   21.047">  1  5  2 -1</clus>
</clustering>
</event>
<event>
 9    2  0.4653788E-005  0.1557552E+03  0.7546771E-02  0.1195915E+00
          2   -1    0    0  502    0 -0.00000000000E+00  0.00000000000E+00  0.31303307186E+03  0.31303307186E+03  0.00000000000E+00 0. -1.
         21   -1    0    0  501  502  0.00000000000E+00 -0.00000000000E+00 -0.18411271622E+03  0.18411271622E+03  0.00000000000E+00 0.  1.
         23    2    1    2    0    0  0.63493841156E+02 -0.11246974168E+03  0.25079887516E+03  0.29734848543E+03  0.93995400648E+02 0.  0.
         24    2    1    2    0    0 -0.45421655909E+02  0.86041190201E+02 -0.94906741667E+02  0.15793384587E+03  0.80433803976E+02 0.  0.
        -11    1    4    4    0    0 -0.30183577974E+02  0.53908139348E+02 -0.10423331103E+03  0.12116814348E+03  0.00000000000E+00 0.  1.
         12    1    4    4    0    0 -0.15238077935E+02  0.32133050853E+02  0.93265693606E+01  0.36765702391E+02  0.00000000000E+00 0. -1.
        -11    1    3    3    0    0  0.52987953617E+02 -0.10920417988E+02  0.11826912990E+03  0.13005601042E+03  0.00000000000E+00 0.  1.
         11    1    3    3    0    0  0.10505887540E+02 -0.10154932370E+03  0.13252974526E+03  0.16729247501E+03  0.00000000000E+00 0. -1.
          1    1    1    2  501    0 -0.18072185248E+02  0.26428551483E+02 -0.26971777848E+02  0.41863456778E+02  0.00000000000E+00 0. -1.
<scales pt_clust_5="13000.00000" pt_clust_6="13000.00000" pt_clust_7="13000.00000" pt_clust_8="13000.00000" pt_clust_9="32.01675"></scales>
<clustering>
<clus scale="   32.017">  2  9  1 -1</clus>
<clus scale="   80.434">  5  6 -1 -1</clus>
<clus scale="   93.995">  7  8 -1 -1</clus>
<clus scale="  147.967">  2  5  1 -1</clus>
<clus scale="   32.017">  2  5  1 -1</clus>
</clustering>
</event>
<event>
 9    2  0.4653788E-005  0.2056102E+03  0.7546771E-02  0.1145622E+00
         -1   -1    0    0    0  501 -0.00000000000E+00  0.00000000000E+00  0.46457103108E+03  0.46457103108E+03  0.00000000000E+00 0.  1.
         21   -1    0    0  501  502  0.00000000000E+00 -0.00000000000E+00 -0.22414423576E+03  0.22414423576E+03  0.00000000000E+00 0. -1.
         24    2    1    2    0    0 -0.17742554940E+03 -0.30566327045E+01  0.20424918682E+03  0.28373199884E+03  0.85422176674E+02 0.  0.
         23    2    1    2    0    0  0.20321560562E+03  0.10993107610E+03 -0.63632938656E+02  0.25649280038E+03  0.91421999013E+02 0.  0.
        -11    1    3    3    0    0 -0.13288453861E+03  0.36019028559E+02  0.14411804025E+03  0.19931302151E+03  0.00000000000E+00 0.  1.
         12    1    3    3    0    0 -0.44541010791E+02 -0.39075661264E+02  0.60131146568E+02  0.84418977327E+02  0.00000000000E+00 0. -1.
        -13    1    4    4    0    0  0.11654916981E+03  0.92294464527E+02 -0.76373090919E+02  0.16713714782E+03  0.00000000000E+00 0. -1.
         13    1    4    4    0    0  0.86666435814E+02  0.17636611576E+02  0.12740152263E+02  0.89355652559E+02  0.00000000000E+00 0.  1.
         -2    1    1    2    0  502 -0.25790056222E+02 -0.10687444340E+03  0.99810547156E+02  0.14849046762E+03  0.00000000000E+00 0.  1.
<scales pt_clust_5="13000.00000" pt_clust_6="13000.00000" pt_clust_7="13000.00000" pt_clust_8="13000.00000" pt_clust_9="109.94219"></scales>
<clustering>
<clus scale="   85.422">  5  6 -1 -1</clus>
<clus scale="   91.422">  7  8 -1 -1</clus>
<clus scale="  109.942">  2  9  1 -1</clus>
<clus scale="  203.014">  1  5  2 -1</clus>
<clus scale="  109.942">  2  5  1 -1</clus>
</clustering>
</event>
<event>
 9    2  0.4653788E-005  0.9567029E+02  0.7546771E-02  0.1293876E+00
         21   -1    0    0  501  502  0.00000000000E+00  0.00000000000E+00  0.34106111307E+03  0.34106111307E+03  0.00000000000E+00 0.  1.
         -3   -1    0    0    0  501 -0.00000000000E+00 -0.00000000000E+00 -0.80180375565E+02  0.80180375565E+02  0.00000000000E+00 0.  1.
         24    2    1    2    0    0  0.19165453019E+02 -0.21746566405E+02 -0.18906539659E+02  0.87850102436E+02  0.80746241500E+02 0.  0.
         23    2    1    2    0    0 -0.11210075087E+02  0.76954575803E+02  0.14083897843E+03  0.18366549646E+03  0.88598669412E+02 0.  0.
        -13    1    3    3    0    0  0.12513413871E+02  0.25526209879E+02  0.12131511372E+02  0.30908679779E+02  0.00000000000E+00 0.  1.
         14    1    3    3    0    0  0.66520391479E+01 -0.47272776284E+02 -0.31038051031E+02  0.56941422657E+02  0.00000000000E+00 0. -1.
        -11    1    4    4    0    0  0.20381547455E+02  0.13402072155E+02  0.97505824242E+02  0.10051073960E+03  0.00000000000E+00 0. -1.
         11    1    4    4    0    0 -0.31591622542E+02  0.63552503648E+02  0.43333154192E+02  0.83154756852E+02  0.00000000000E+00 0.  1.
         -4    1    1    2    0  502 -0.79553779318E+01 -0.55208009398E+02  0.13894829873E+03  0.14972588975E+03  0.00000000000E+00 0.  1.
<scales pt_clust_5="13000.00000" pt_clust_6="13000.00000" pt_clust_7="13000.00000" pt_clust_8="13000.00000" pt_clust_9="55.77824"></scales>
<clustering>
<clus scale="   55.778">  1  9  2 -1</clus>
<clus scale="   80.746">  5  6 -1 -1</clus>
<clus scale="   88.448">  2  5  1 -1</clus>
<clus scale="   88.599">  7  8 -1 -1</clus>
<clus scale="   55.778">  1  5  2 -1</clus>
</clustering>
</event>
<event>
 9    2  0.4653788E-005  0.9534454E+02  0.7546771E-02  0.1306850E+00
          2   -1    0    0  502    0 -0.00000000000E+00  0.00000000000E+00  0.40184875789E+03  0.40184875789E+03  0.00000000000E+00 0. -1.
         21   -1    0    0  501  502  0.00000000000E+00 -0.00000000000E+00 -0.68232721442E+02  0.68232721442E+02  0.00000000000E+00 0.  1.
         24    2    1    2    0    0  0.51486775347E+01 -0.30055454211E+02  0.32304941638E+03  0.33044174282E+03  0.62457831947E+02 0.  0.
         23    2    1    2    0    0 -0.17061451198E+02  0.57763546812E+02  0.11012209540E+01  0.10802887836E+03  0.89673326112E+02 0.  0.
        -13    1    3    3    0    0 -0.20590347078E+02 -0.37274068311E+02  0.21011407728E+03  0.21438573654E+03  0.00000000000E+00 0.  1.
         14    1    3    3    0    0  0.25739024613E+02  0.72186140998E+01  0.11293533910E+03  0.11605600629E+03  0.00000000000E+00 0. -1.
        -13    1    4    4    0    0 -0.84910398251E+01 -0.24125838188E+02 -0.18136310439E+01  0.25640652939E+02  0.00000000000E+00 0. -1.
         13    1    4    4    0    0 -0.85704113730E+01  0.81889384999E+02  0.29148519978E+01  0.82388225426E+02  0.00000000000E+00 0.  1.
          1    1    1    2  501    0  0.11912773663E+02 -0.27708092601E+02  0.94653991153E+01  0.31610858140E+02  0.00000000000E+00 0. -1.
<scales pt_clust_5="13000.00000" pt_clust_6="13000.00000" pt_clust_7="13000.00000" pt_clust_8="13000.00000" pt_clust_9="30.16045"></scales>
<clustering>
<clus scale="   30.160">  2  9  1 -1</clus>
<clus scale="   62.458">  5  6 -1 -1</clus>
<clus scale="   70.358">  1  5  2 -1</clus>
<clus scale="   89.673">  7  8 -1 -1</clus>
<clus scale="   30.160">  2  5  1 -1</clus>
</clustering>
</event>
<event>
 9    2  0.4653788E-005  0.1605902E+03  0.7546771E-02  0.1214023E+00
         -3   -1    0    0    0  501 -0.00000000000E+00  0.00000000000E+00  0.28965469637E+03  0.28965469637E+03  0.00000000000E+00 0.  1.
         21   -1    0    0  501  502  0.00000000000E+00 -0.00000000000E+00 -0.17645760288E+03  0.17645760288E+03  0.00000000000E+00 0.  1.
         23    2    1    2    0    0  0.16436591601E+02 -0.15472988922E+01  0.54352683115E+02  0.10634133482E+03  0.89898329534E+02 0.  0.
         24    2    1    2    0    0 -0.13215960913E+03 -0.70316743558E+02  0.12239813971E+03  0.20945352067E+03  0.80491403304E+02 0.  0.
        -11    1    4    4    0    0 -0.27364178346E+02 -0.35270332755E+02  0.78992550136E+02  0.90733773239E+02  0.00000000000E+00 0.  1.
         12    1    4    4    0    0 -0.10479543079E+03 -0.35046410803E+02  0.43405589577E+02  0.11871974743E+03  0.00000000000E+00 0. -1.
        -11    1    3    3    0    0 -0.38808738959E+01  0.42507000387E+02  0.28991410741E+02  0.51598528670E+02  0.00000000000E+00 0.  1.
         11    1    3    3    0    0  0.20317465497E+02 -0.44054299279E+02  0.25361272374E+02  0.54742806154E+02  0.00000000000E+00 0. -1.
         -4    1    1    2    0  502  0.11572301753E+03  0.71864042450E+02 -0.63553729339E+02  0.15031744376E+03  0.00000000000E+00 0.  1.
<scales pt_clust_5="13000.00000" pt_clust_6="13000.00000" pt_clust_7="13000.00000" pt_clust_8="13000.00000" pt_clust_9="138.96165"></scales>
<clustering>
<clus scale="   80.491">  5  6 -1 -1</clus>
<clus scale="   89.898">  7  8 -1 -1</clus>
<clus scale="   91.402">  1  7  2 -1</clus>
<clus scale="  138.962">  2  9  1 -1</clus>
<clus scale="  138.962">  2  5  1 -1</clus>
</clustering>
</event>
<event>
 9    2  0.4653788E-005  0.1121178E+03  0.7546771E-02  0.1260851E+00
         21   -1    0    0  501  502  0.00000000000E+00  0.00000000000E+00  0.52152081696E+03  0.52152081696E+03  0.00000000000E+00 0. -1.
         -1   -1    0    0    0  501 -0.00000000000E+00 -0.00000000000E+00 -0.62494928766E+02  0.62494928766E+02  0.00000000000E+00 0.  1.
         23    2    1    2    0    0  0.61059809394E+02 -0.38903504899E+01  0.26483457495E+02  0.11403524807E+03  0.92516102009E+02 0.  0.
         24    2    1    2    0    0 -0.77142515246E+02 -0.24739419969E+02  0.41893875446E+03  0.43443648000E+03  0.81623333712E+02 0.  0.
        -11    1    4    4    0    0 -0.39710552573E+02 -0.37321126143E+02  0.10769967529E+03  0.12070217272E+03  0.00000000000E+00 0.  1.
         12    1    4    4    0    0 -0.37431962672E+02  0.12581706174E+02  0.31123907917E+03  0.31373430728E+03  0.00000000000E+00 0. -1.
        -13    1    3    3    0    0  0.82554081203E+02  0.10206683340E+02  0.10691006375E+02  0.83866860710E+02  0.00000000000E+00 0.  1.
         13    1    3    3    0    0 -0.21494271809E+02 -0.14097033830E+02  0.15792451119E+02  0.30168387358E+02  0.00000000000E+00 0. -1.
         -2    1    1    2    0  502  0.16082705852E+02  0.28629770459E+02  0.13603676238E+02  0.35544017658E+02  0.00000000000E+00 0.  1.
<scales pt_clust_5="13000.00000" pt_clust_6="13000.00000" pt_clust_7="13000.00000" pt_clust_8="13000.00000" pt_clust_9="32.83776"></scales>
<clustering>
<clus scale="   32.838">  1  9  2 -1</clus>
<clus scale="   81.623">  5  6 -1 -1</clus>
<clus scale="   92.516">  7  8 -1 -1</clus>
<clus scale="  103.313">  1  5  2 -1</clus>
<clus scale="   32.838">  1  5  2 -1</clus>
</clustering>
</event>
<event>
 9    2  0.4653788E-005  0.1237203E+03  0.7546771E-02  0.1239885E+00
         21   -1    0    0  501  502  0.00000000000E+00  0.00000000000E+00  0.20367857869E+03  0.20367857869E+03  0.00000000000E+00 0.  1.
         -3   -1    0    0    0  501 -0.00000000000E+00 -0.00000000000E+00 -0.11721175396E+03  0.11721175396E+03  0.00000000000E+00 0.  1.
         23    2    1    2    0    0 -0.26706794917E+02  0.85986883808E+02  0.12271638136E+02  0.12847944721E+03  0.90826087501E+02 0.  0.
         24    2    1    2    0    0 -0.25963841940E+02 -0.80469056335E+02  0.75460736365E+02  0.13943689160E+03  0.81233822325E+02 0.  0.
        -11    1    4    4    0    0  0.15273266171E+02 -0.45873541846E+02  0.70357076926E+02  0.85368453041E+02  0.00000000000E+00 0.  1.
         12    1    4    4    0    0 -0.41237108111E+02 -0.34595514489E+02  0.51036594383E+01  0.54068438555E+02  0.00000000000E+00 0. -1.
        -11    1    3    3    0    0 -0.26175276649E+01  0.89057946166E+02  0.34514664289E+02  0.95548057423E+02  0.00000000000E+00 0.  1.
         11    1    3    3    0    0 -0.24089267252E+02 -0.30710623581E+01 -0.22243026153E+02  0.32931389785E+02  0.00000000000E+00 0. -1.
         -4    1    1    2    0  502  0.52670636857E+02 -0.55178274727E+01 -0.12655497714E+01  0.52973993838E+02  0.00000000000E+00 0.  1.
<scales pt_clust_5="13000.00000" pt_clust_6="13000.00000" pt_clust_7="13000.00000" pt_clust_8="13000.00000" pt_clust_9="52.95890"></scales>
<clustering>
<clus scale="   52.959">  1  9  2 -1</clus>
<clus scale="   81.234">  5  6 -1 -1</clus>
<clus scale="   90.826">  7  8 -1 -1</clus>
<clus scale="  116.860">  1  5  2 -1</clus>
<clus scale="   52.959">  1  5  2 -1</clus>
</clustering>
</event>
<event>
 9    2  0.4653788E-005  0.9231350E+02  0.7546771E-02  0.1298432E+00
         21   -1    0    0  501  502  0.00000000000E+00  0.00000000000E+00  0.85074960110E+03  0.85074960110E+03  0.00000000000E+00 0.  1.
         -1   -1    0    0    0  501 -0.00000000000E+00 -0.00000000000E+00 -0.54620003612E+02  0.54620003612E+02  0.00000000000E+00 0.  1.
         23    2    1    2    0    0 -0.12766524977E+02 -0.38927648904E+02 -0.30293621689E+01  0.91859225830E+02  0.82162000498E+02 0.  0.
         24    2    1    2    0    0 -0.17178973066E+02  0.66558507212E+02  0.66424597501E+03  0.67257879757E+03  0.80089772324E+02 0.  0.
        -11    1    4    4    0    0 -0.36487506336E+02  0.70932728206E+02  0.41832352073E+03  0.42586072611E+03  0.00000000000E+00 0.  1.
         12    1    4    4    0    0  0.19308533270E+02 -0.43742209942E+01  0.24592245428E+03  0.24671807146E+03  0.00000000000E+00 0. -1.
        -11    1    3    3    0    0  0.26274036372E+02  0.26444117611E+01  0.17009968611E+02  0.31411095698E+02  0.00000000000E+00 0. -1.
         11    1    3    3    0    0 -0.39040561349E+02 -0.41572060665E+02 -0.20039330780E+02  0.60448130132E+02  0.00000000000E+00 0.  1.
         -2    1    1    2    0  502  0.29945498043E+02 -0.27630858308E+02  0.13491298465E+03  0.14093158131E+03  0.00000000000E+00 0.  1.
<scales pt_clust_5="13000.00000" pt_clust_6="13000.00000" pt_clust_7="13000.00000" pt_clust_8="13000.00000" pt_clust_9="40.74552"></scales>
<clustering>
<clus scale="   40.746">  1  9  2 -1</clus>
<clus scale="   80.090">  5  6 -1 -1</clus>
<clus scale="   82.162">  7  8 -1 -1</clus>
<clus scale="   90.474">  1  5  2 -1</clus>
<clus scale="   40.746">  1  5  2 -1</clus>
</clustering>
</event>
<event>
 9    2  0.4653788E-005  0.9552567E+02  0.7546771E-02  0.1297543E+00
          2   -1    0    0  502    0 -0.00000000000E+00  0.00000000000E+00  0.96077157579E+03  0.96077157579E+03  0.00000000000E+00 0. -1.
         21   -1    0    0  501  502  0.00000000000E+00 -0.00000000000E+00 -0.42076536100E+02  0.42076536100E+02  0.00000000000E+00 0.  1.
         24    2    1    2    0    0  0.28921858001E+01 -0.25051441479E+02  0.73255831751E+03  0.73739562207E+03  0.80465367875E+02 0.  0.
         23    2    1    2    0    0  0.20883554976E+01  0.82145689371E+00  0.21078450464E+03  0.23053242217E+03  0.93327671433E+02 0.  0.
        -13    1    3    3    0    0 -0.48938197585E+01  0.25607255454E+02  0.12560365480E+03  0.12828078228E+03  0.00000000000E+00 0.  1.
         14    1    3    3    0    0  0.77860055586E+01 -0.50658696933E+02  0.60695466271E+03  0.60911483978E+03  0.00000000000E+00 0. -1.
        -13    1    4    4    0    0  0.28480262932E+02 -0.28743119782E+02  0.16541127663E+03  0.17028852794E+03  0.00000000000E+00 0. -1.
         13    1    4    4    0    0 -0.26391907435E+02  0.29564576675E+02  0.45373228013E+02  0.60243894233E+02  0.00000000000E+00 0.  1.
          1    1    1    2  501    0 -0.49805412977E+01  0.24229984585E+02 -0.24647782462E+02  0.34920067654E+02  0.00000000000E+00 0. -1.
<scales pt_clust_5="13000.00000" pt_clust_6="13000.00000" pt_clust_7="13000.00000" pt_clust_8="13000.00000" pt_clust_9="24.73657"></scales>
<clustering>
<clus scale="   24.737">  2  9  1 -1</clus>
<clus scale="   80.465">  5  6 -1 -1</clus>
<clus scale="   83.005">  1  5  2 -1</clus>
<clus scale="   93.328">  7  8 -1 -1</clus>
<clus scale="   24.737">  2  5  1 -1</clus>
</clustering>
</event>
<event>
 9    2  0.4653788E-005  0.2144315E+03  0.7546771E-02  0.1139131E+00
          2   -1    0    0  502    0 -0.00000000000E+00  0.00000000000E+00  0.75044406362E+03  0.75044406362E+03  0.00000000000E+00 0. -1.
         21   -1    0    0  501  502  0.00000000000E+00 -0.00000000000E+00 -0.10738789174E+03  0.10738789174E+03  0.00000000000E+00 0. -1.
         23    2    1    2    0    0  0.16131949185E+03  0.11782177826E+03  0.54965076858E+03  0.59210168606E+03  0.92533720093E+02 0.  0.
         24    2    1    2    0    0 -0.12950715257E+03 -0.12201506237E+03  0.11568581427E+03  0.22666589582E+03  0.79589212162E+02 0.  0.
        -13    1    4    4    0    0 -0.52869470067E+02 -0.98371054221E+02  0.47359431607E+02  0.12130523870E+03  0.00000000000E+00 0.  1.
         14    1    4    4    0    0 -0.76637682503E+02 -0.23644008146E+02  0.68326382668E+02  0.10536065712E+03  0.00000000000E+00 0. -1.
        -11    1    3    3    0    0  0.42641246094E+02  0.61627262212E+02  0.10881152203E+03  0.13212169633E+03  0.00000000000E+00 0.  1.
         11    1    3    3    0    0  0.11867824575E+03  0.56194516051E+02  0.44083924656E+03  0.45997998973E+03  0.00000000000E+00 0. -1.
          1    1    1    2  501    0 -0.31812339276E+02  0.41932841028E+01 -0.22280410971E+02  0.39064373473E+02  0.00000000000E+00 0. -1.
<scales pt_clust_5="13000.00000" pt_clust_6="13000.00000" pt_clust_7="13000.00000" pt_clust_8="13000.00000" pt_clust_9="32.08751"></scales>
<clustering>
<clus scale="   32.088">  2  9  1 -1</clus>
<clus scale="   79.589">  5  6 -1 -1</clus>
<clus scale="   92.534">  7  8 -1 -1</clus>
<clus scale="  209.172">  2  5  1 -1</clus>
<clus scale="   32.088">  2  5  1 -1</clus>
</clustering>
</event>
<event>
 9    2  0.4653788E-005  0.2100875E+03  0.7546771E-02  0.1143169E+00
         21   -1    0    0  501  502  0.00000000000E+00  0.00000000000E+00  0.94973816449E+02  0.94973816449E+02  0.00000000000E+00 0.  1.
          2   -1    0    0  502    0 -0.00000000000E+00 -0.00000000000E+00 -0.11245908176E+04  0.11245908176E+04  0.00000000000E+00 0. -1.
         23    2    1    2    0    0  0.13918268814E+03 -0.41554079016E+02 -0.15670862354E+03  0.23224159059E+03  0.90994513818E+02 0.  0.
         24    2    1    2    0    0 -0.19177800157E+03  0.17027193535E+03 -0.31405435263E+03  0.41143036703E+03  0.69810290479E+02 0.  0.
        -13    1    4    4    0    0 -0.17969807547E+03  0.14983862103E+03 -0.24665418928E+03  0.33997249855E+03  0.00000000000E+00 0.  1.
         14    1    4    4    0    0 -0.12079926098E+02  0.20433314322E+02 -0.67400163351E+02  0.71457868485E+02  0.00000000000E+00 0. -1.
        -11    1    3    3    0    0  0.71337915826E+02  0.10928270942E+02 -0.11758285233E+03  0.13796467846E+03  0.00000000000E+00 0.  1.
         11    1    3    3    0    0  0.67844772313E+02 -0.52482349958E+02 -0.39125771212E+02  0.94276912127E+02  0.00000000000E+00 0. -1.
          1    1    1    2  501    0  0.52595313426E+02 -0.12871785633E+03 -0.55885402497E+03  0.57589267642E+03  0.00000000000E+00 0. -1.
<scales pt_clust_5="13000.00000" pt_clust_6="13000.00000" pt_clust_7="13000.00000" pt_clust_8="13000.00000" pt_clust_9="139.04881"></scales>
<clustering>
<clus scale="   69.810">  5  6 -1 -1</clus>
<clus scale="   90.995">  7  8 -1 -1</clus>
<clus scale="  139.049">  1  9  2 -1</clus>
<clus scale="  201.817">  1  5  2 -1</clus>
<clus scale="  139.049">  1  5  2 -1</clus>
</clustering>
</event>
<event>
 9    2  0.4653788E-005  0.1307587E+03  0.7546771E-02  0.1229665E+00
         21   -1    0    0  501  502  0.00000000000E+00  0.00000000000E+00  0.19948775307E+03  0.19948775307E+03  0.00000000000E+00 0.  1.
         -1   -1    0    0    0  501 -0.00000000000E+00 -0.00000000000E+00 -0.36163289238E+03  0.36163289238E+03  0.00000000000E+00 0.  1.
         23    2    1    2    0    0 -0.32373713214E+02 -0.87733385989E+02 -0.24107712072E+03  0.27414971061E+03  0.91075141317E+02 0.  0.
         24    2    1    2    0    0 -0.19129955800E+02  0.10337620354E+03 -0.55464443237E+02  0.14219619733E+03  0.78043958150E+02 0.  0.
        -11    1    4    4    0    0 -0.92502278591E+01  0.46552754978E+02  0.16248954929E+02  0.50167262709E+02  0.00000000000E+00 0.  1.
         12    1    4    4    0    0 -0.98797279409E+01  0.56823448567E+02 -0.71713398166E+02  0.92028934622E+02  0.00000000000E+00 0. -1.
        -13    1    3    3    0    0 -0.51477873385E+02 -0.77625046861E+02 -0.12395422312E+03  0.15504924630E+03  0.00000000000E+00 0.  1.
         13    1    3    3    0    0  0.19104160171E+02 -0.10108339128E+02 -0.11712289760E+03  0.11910046431E+03  0.00000000000E+00 0. -1.
         -2    1    1    2    0  502  0.51503669014E+02 -0.15642817556E+02  0.13439642465E+03  0.14477473751E+03  0.00000000000E+00 0.  1.
<scales pt_clust_5="13000.00000" pt_clust_6="13000.00000" pt_clust_7="13000.00000" pt_clust_8="13000.00000" pt_clust_9="53.82681"></scales>
<clustering>
<clus scale="   53.827">  1  9  2 -1</clus>
<clus scale="   78.044">  5  6 -1 -1</clus>
<clus scale="   91.075">  7  8 -1 -1</clus>
<clus scale="  122.041">  1  5  2 -1</clus>
<clus scale="   53.827">  1  5  2 -1</clus>
</clustering>
</event>
<event>
 9    2  0.4653788E-005  0.9720069E+02  0.7546771E-02  0.1292577E+00
         21   -1    0    0  501  502  0.00000000000E+00  0.00000000000E+00  0.17310150132E+03  0.17310150132E+03  0.00000000000E+00 0. -1.
         -3   -1    0    0    0  501 -0.00000000000E+00 -0.00000000000E+00 -0.67503773966E+02  0.67503773966E+02  0.00000000000E+00 0.  1.
         23    2    1    2    0    0  0.18660174668E+02 -0.88170022753E+01  0.48427735945E+02  0.10542384743E+03  0.91340026002E+02 0.  0.
         24    2    1    2    0    0 -0.47019232635E+02  0.12359520986E+01  0.48769213992E+02  0.10464814189E+03  0.79752501863E+02 0.  0.
        -13    1    4    4    0    0  0.19721536741E+02  0.95900517236E+01  0.63707762528E+00  0.21938868964E+02  0.00000000000E+00 0.  1.
         14    1    4    4    0    0 -0.66740769377E+02 -0.83540996250E+01  0.48132136367E+02  0.82709272931E+02  0.00000000000E+00 0. -1.
        -11    1    3    3    0    0 -0.18102170270E+02 -0.38047605552E+02  0.68304940542E+01  0.42684476168E+02  0.00000000000E+00 0.  1.
         11    1    3    3    0    0  0.36762344938E+02  0.29230603277E+02  0.41597241891E+02  0.62739371261E+02  0.00000000000E+00 0. -1.
         -4    1    1    2    0  502  0.28359057967E+02  0.75810501766E+01  0.84007774181E+01  0.30533285965E+02  0.00000000000E+00 0.  1.
<scales pt_clust_5="13000.00000" pt_clust_6="13000.00000" pt_clust_7="13000.00000" pt_clust_8="13000.00000" pt_clust_9="29.35489"></scales>
<clustering>
<clus scale="   29.355">  1  9  2 -1</clus>
<clus scale="   79.753">  5  6 -1 -1</clus>
<clus scale="   86.403">  1  5  2 -1</clus>
<clus scale="   91.340">  7  8 -1 -1</clus>
<clus scale="   29.355">  1  5  2 -1</clus>
</clustering>
</event>
<event>
 9    2  0.4653788E-005  0.1682325E+03  0.7546771E-02  0.1209329E+00
         21   -1    0    0  501  502  0.00000000000E+00  0.00000000000E+00  0.33777002389E+02  0.33777002389E+02  0.00000000000E+00 0. -1.
          2   -1    0    0  502    0 -0.00000000000E+00 -0.00000000000E+00 -0.14602139720E+04  0.14602139720E+04  0.00000000000E+00 0. -1.
         24    2    1    2    0    0 -0.98380585505E+01  0.39862376926E+02 -0.63357155771E+03  0.63963452450E+03  0.77676313609E+02 0.  0.
         23    2    1    2    0    0 -0.12980253656E+03  0.25812944347E+02 -0.34698323471E+03  0.38252633262E+03  0.91727985840E+02 0.  0.
        -11    1    3    3    0    0 -0.15298024849E+02 -0.20866136109E+02 -0.14728706491E+03  0.14954231739E+03  0.00000000000E+00 0.  1.
         12    1    3    3    0    0  0.54599662984E+01  0.60728513035E+02 -0.48628449280E+03  0.49009220711E+03  0.00000000000E+00 0. -1.
        -13    1    4    4    0    0 -0.53836788925E+00  0.30609708471E+02 -0.85092799638E+02  0.90432453483E+02  0.00000000000E+00 0.  1.
         13    1    4    4    0    0 -0.12926416867E+03 -0.47967641244E+01 -0.26189043507E+03  0.29209387914E+03  0.00000000000E+00 0. -1.
          1    1    1    2  501    0  0.13964059511E+03 -0.65675321273E+02 -0.44588217719E+03  0.47183011727E+03  0.00000000000E+00 0. -1.
<scales pt_clust_5="13000.00000" pt_clust_6="13000.00000" pt_clust_7="13000.00000" pt_clust_8="13000.00000" pt_clust_9="141.02544"></scales>
<clustering>
<clus scale="   77.676">  5  6 -1 -1</clus>
<clus scale="   87.860">  2  5  1 -1</clus>
<clus scale="   91.728">  7  8 -1 -1</clus>
<clus scale="  141.025">  1  9  2 -1</clus>
<clus scale="  141.025">  1  5  2 -1</clus>
</clustering>
</event>
<event>
 9    2  0.4653788E-005  0.9156380E+02  0.7546771E-02  0.1303837E+00
         -1   -1    0    0    0  501 -0.00000000000E+00  0.00000000000E+00  0.61494140102E+02  0.61494140102E+02  0.00000000000E+00 0.  1.
         21   -1    0    0  501  502  0.00000000000E+00 -0.00000000000E+00 -0.26476405239E+03  0.26476405239E+03  0.00000000000E+00 0.  1.
         24    2    1    2    0    0 -0.11095380189E+02 -0.11368908776E+02 -0.59967575746E+02  0.10158075431E+03  0.80437428832E+02 0.  0.
         23    2    1    2    0    0 -0.18664606797E+02  0.48936529201E+02 -0.14383269182E+03  0.17674765406E+03  0.88367067067E+02 0.  0.
        -13    1    3    3    0    0  0.28376083520E+02  0.16727165393E+02 -0.18321156533E+02  0.37691709363E+02  0.00000000000E+00 0.  1.
         14    1    3    3    0    0 -0.39471463709E+02 -0.28096074169E+02 -0.41646419212E+02  0.63889044947E+02  0.00000000000E+00 0. -1.
        -11    1    4    4    0    0 -0.24431088355E+02 -0.21075808927E+02 -0.50592518556E+02  0.60005589189E+02  0.00000000000E+00 0.  1.
         11    1    4    4    0    0  0.57664815583E+01  0.70012338128E+02 -0.93240173264E+02  0.11674206487E+03  0.00000000000E+00 0. -1.
         -2    1    1    2    0  502  0.29759986986E+02 -0.37567620425E+02  0.53035527357E+00  0.47929784127E+02  0.00000000000E+00 0.  1.
<scales pt_clust_5="13000.00000" pt_clust_6="13000.00000" pt_clust_7="13000.00000" pt_clust_8="13000.00000" pt_clust_9="47.92687"></scales>
<clustering>
<clus scale="   47.927">  2  9  1 -1</clus>
<clus scale="   80.437">  5  6 -1 -1</clus>
<clus scale="   83.937">  1  5  2 -1</clus>
<clus scale="   88.367">  7  8 -1 -1</clus>
<clus scale="   47.927">  2  5  1 -1</clus>
</clustering>
</event>
<event>
 9    2  0.4653788E-005  0.1477903E+03  0.7546771E-02  0.1205457E+00
          2   -1    0    0  502    0 -0.00000000000E+00  0.00000000000E+00  0.18944589927E+04  0.18944589927E+04  0.00000000000E+00 0. -1.
         21   -1    0    0  501  502  0.00000000000E+00 -0.00000000000E+00 -0.69778968789E+02  0.69778968789E+02  0.00000000000E+00 0. -1.
         24    2    1    2    0    0 -0.14901856535E+02  0.11276583367E+03  0.16830507229E+04  0.16887866962E+04  0.80016065196E+02 0.  0.
         23    2    1    2    0    0  0.25806544223E+02 -0.14008355112E+03  0.16604470247E+03  0.23722455037E+03  0.91734753832E+02 0.  0.
        -13    1    3    3    0    0 -0.20846699609E+02  0.21241178302E+02  0.14603433089E+03  0.14903623163E+03  0.00000000000E+00 0.  1.
         14    1    3    3    0    0  0.59448430740E+01  0.91524655372E+02  0.15370163920E+04  0.15397504645E+04  0.00000000000E+00 0. -1.
        -13    1    4    4    0    0  0.36130367768E+02 -0.93039487550E+02  0.50106040082E+02  0.11167974289E+03  0.00000000000E+00 0.  1.
         13    1    4    4    0    0 -0.10323823545E+02 -0.47044063572E+02  0.11593866239E+03  0.12554480748E+03  0.00000000000E+00 0. -1.
          1    1    1    2  501    0 -0.10904687688E+02  0.27317717448E+02 -0.24415401524E+02  0.38226714896E+02  0.00000000000E+00 0. -1.
<scales pt_clust_5="13000.00000" pt_clust_6="13000.00000" pt_clust_7="13000.00000" pt_clust_8="13000.00000" pt_clust_9="29.41377"></scales>
<clustering>
<clus scale="   29.414">  2  9  1 -1</clus>
<clus scale="   80.016">  5  6 -1 -1</clus>
<clus scale="   91.735">  7  8 -1 -1</clus>
<clus scale="  140.816">  1  5  2 -1</clus>
<clus scale="   29.414">  2  5  1 -1</clus>
</clustering>
</event>
<event>
 9    2  0.4653788E-005  0.1123657E+03  0.7546771E-02  0.1266194E+00
         21   -1    0    0  501  502  0.00000000000E+00  0.00000000000E+00  0.47839986101E+03  0.47839986101E+03  0.00000000000E+00 0. -1.
         -1   -1    0    0    0  501 -0.00000000000E+00 -0.00000000000E+00 -0.10357682508E+03  0.10357682508E+03  0.00000000000E+00 0.  1.
         23    2    1    2    0    0  0.36548245737E+01 -0.29091430800E+02 -0.17082806825E+02  0.94019028849E+02  0.87681733606E+02 0.  0.
         24    2    1    2    0    0  0.37537226703E+02 -0.65292894412E+02  0.36575193991E+03  0.38170695104E+03  0.79079134260E+02 0.  0.
        -11    1    4    4    0    0  0.24930767161E+02  0.10439327282E+01  0.29024954672E+02  0.38276375750E+02  0.00000000000E+00 0.  1.
         12    1    4    4    0    0  0.12606459541E+02 -0.66336827141E+02  0.33672698523E+03  0.34343057529E+03  0.00000000000E+00 0. -1.
        -11    1    3    3    0    0  0.32654080822E+02 -0.44185200098E+02 -0.25029875601E+02  0.60374792543E+02  0.00000000000E+00 0. -1.
         11    1    3    3    0    0 -0.28999256248E+02  0.15093769297E+02  0.79470687759E+01  0.33644236307E+02  0.00000000000E+00 0.  1.
         -2    1    1    2    0  502 -0.41192051276E+02  0.94384325213E+02  0.26153902850E+02  0.10625070620E+03  0.00000000000E+00 0.  1.
<scales pt_clust_5="13000.00000" pt_clust_6="13000.00000" pt_clust_7="13000.00000" pt_clust_8="13000.00000" pt_clust_9="79.82821"></scales>
<clustering>
<clus scale="   79.079">  5  6 -1 -1</clus>
<clus scale="   87.682">  7  8 -1 -1</clus>
<clus scale="   92.454">  2  7  1 -1</clus>
<clus scale="   79.828">  1  9  2 -1</clus>
<clus scale="   79.828">  1  5  2 -1</clus>
</clustering>
</event>
<event>
 9    2  0.4653788E-005  0.9111556E+02  0.7546771E-02  0.1306569E+00
         21   -1    0    0  501  502  0.00000000000E+00  0.00000000000E+00  0.12450793497E+03  0.12450793497E+03  0.00000000000E+00 0.  1.
          2   -1    0    0  502    0 -0.00000000000E+00 -0.00000000000E+00 -0.10817585447E+03  0.10817585447E+03  0.00000000000E+00 0. -1.
         23    2    1    2    0    0  0.63646662361E+01 -0.27062808251E+01 -0.45330167642E+02  0.10197230130E+03  0.91080696096E+02 0.  0.
         24    2    1    2    0    0  0.23439809589E+02 -0.41523986212E+01  0.41383722236E+02  0.94015890637E+02  0.80992025153E+02 0.  0.
        -13    1    4    4    0    0  0.40751456335E+02 -0.79719267104E+01  0.56911130035E+02  0.70449340172E+02  0.00000000000E+00 0.  1.
         14    1    4    4    0    0 -0.17311646746E+02  0.38195280892E+01 -0.15527407799E+02  0.23566550465E+02  0.00000000000E+00 0. -1.
        -13    1    3    3    0    0  0.35870851657E+02  0.12820881622E+02 -0.55318834969E+02  0.67165962410E+02  0.00000000000E+00 0.  1.
         13    1    3    3    0    0 -0.29506185421E+02 -0.15527162447E+02  0.99886673271E+01  0.34806338887E+02  0.00000000000E+00 0. -1.
          1    1    1    2  501    0 -0.29804475825E+02  0.68586794463E+01  0.20278525911E+02  0.36695597503E+02  0.00000000000E+00 0. -1.
<scales pt_clust_5="13000.00000" pt_clust_6="13000.00000" pt_clust_7="13000.00000" pt_clust_8="13000.00000" pt_clust_9="30.58346"></scales>
<clustering>
<clus scale="   30.583">  1  9  2 -1</clus>
<clus scale="   80.992">  5  6 -1 -1</clus>
<clus scale="   81.031">  1  5  2 -1</clus>
<clus scale="   91.081">  7  8 -1 -1</clus>
<clus scale="   30.583">  1  5  2 -1</clus>
</clustering>
</event>
<event>
 9    2  0.5518731E-005  0.1340903E+03  0.7546771E-02  0.1224367E+00
         -1   -1    0    0    0  501 -0.00000000000E+00  0.00000000000E+00  0.32213514364E+03  0.32213514364E+03  0.00000000000E+00 0.  1.
         21   -1    0    0  501  502  0.00000000000E+00 -0.00000000000E+00 -0.27277479894E+03  0.27277479894E+03  0.00000000000E+00 0.  1.
         24    2    1    2    0    0 -0.15372187037E+02  0.10535616748E+03  0.27536317347E+03  0.30608803050E+03  0.80800859844E+02 0.  0.
         23    2    1    2    0    0 -0.51515384146E+00 -0.25266496982E+02 -0.98800600310E+02  0.13766910911E+03  0.92480072066E+02 0.  0.
        -11    1    3    3    0    0  0.64150582449E+01  0.11093794950E+03  0.23195029765E+03  0.25719510530E+03  0.00000000000E+00 0.  1.
         12    1    3    3    0    0 -0.21787245282E+02 -0.55817820185E+01  0.43412875817E+02  0.48892925196E+02  0.00000000000E+00 0. -1.
        -11    1    4    4    0    0 -0.33164697232E+02 -0.44889171490E+02 -0.44711113440E+02  0.71512366235E+02  0.00000000000E+00 0.  1.
         11    1    4    4    0    0  0.32649543390E+02  0.19622674508E+02 -0.54089486870E+02  0.66156742878E+02  0.00000000000E+00 0. -1.
         -2    1    1    2    0  502  0.15887340878E+02 -0.80089670500E+02 -0.12720222845E+03  0.15115280297E+03  0.00000000000E+00 0.  1.
<scales pt_clust_5="13000.00000" pt_clust_6="13000.00000" pt_clust_7="13000.00000" pt_clust_8="13000.00000" pt_clust_9="81.65025"></scales>
<clustering>
<clus scale="   80.801">  5  6 -1 -1</clus>
<clus scale="   81.650">  2  9  1 -1</clus>
<clus scale="   92.480">  7  8 -1 -1</clus>
<clus scale="  126.319">  1  5  2 -1</clus>
<clus scale="   81.650">  2  5  1 -1</clus>
</clustering>
</event>
<event>
 9    2  0.4653788E-005  0.1570267E+03  0.7546771E-02  0.1194129E+00
         21   -1    0    0  501  502  0.00000000000E+00  0.00000000000E+00  0.44656895538E+02  0.44656895538E+02  0.00000000000E+00 0. -1.
          2   -1    0    0  502    0 -0.00000000000E+00 -0.00000000000E+00 -0.76572559623E+03  0.76572559623E+03  0.00000000000E+00 0. -1.
         23    2    1    2    0    0 -0.55104509750E+02  0.12844013642E+03 -0.50351550253E+03  0.53060543718E+03  0.92091764200E+02 0.  0.
         24    2    1    2    0    0  0.36609970313E+02 -0.10223981228E+03 -0.20499979647E+03  0.24533735558E+03  0.79826263524E+02 0.  0.
        -13    1    4    4    0    0  0.30317378891E+02 -0.43375339121E+02 -0.30525292118E+02  0.61093018960E+02  0.00000000000E+00 0.  1.
         14    1    4    4    0    0  0.62925914218E+01 -0.58864473158E+02 -0.17447450436E+03  0.18424433662E+03  0.00000000000E+00 0. -1.
        -13    1    3    3    0    0 -0.18308693588E+02  0.96957235124E+02 -0.43891538865E+03  0.44986957232E+03  0.00000000000E+00 0.  1.
         13    1    3    3    0    0 -0.36795816162E+02  0.31482901293E+02 -0.64600113882E+02  0.80735864859E+02  0.00000000000E+00 0. -1.
          1    1    1    2  501    0  0.18494539437E+02 -0.26200324138E+02 -0.12553401683E+02  0.34439699007E+02  0.00000000000E+00 0. -1.
<scales pt_clust_5="13000.00000" pt_clust_6="13000.00000" pt_clust_7="13000.00000" pt_clust_8="13000.00000" pt_clust_9="32.07031"></scales>
<clustering>
<clus scale="   32.070">  1  9  2 -1</clus>
<clus scale="   79.826">  5  6 -1 -1</clus>
<clus scale="   92.092">  7  8 -1 -1</clus>
<clus scale="  150.162">  1  5  2 -1</clus>
<clus scale="   32.070">  1  5  2 -1</clus>
</clustering>
</event>
<event>
 9    2  0.4653788E-005  0.1505888E+03  0.7546771E-02  0.1200076E+00
         21   -1    0    0  501  502  0.00000000000E+00  0.00000000000E+00  0.52987232271E+02  0.52987232271E+02  0.00000000000E+00 0. -1.
          2   -1    0    0  502    0 -0.00000000000E+00 -0.00000000000E+00 -0.68178022904E+03  0.68178022904E+03  0.00000000000E+00 0. -1.
         24    2    1    2    0    0  0.14555710598E+03 -0.81575588082E+01 -0.38651053111E+03  0.42361584146E+03  0.93843346146E+02 0.  0.
         23    2    1    2    0    0 -0.78476194488E+02  0.24356064070E+02 -0.12936935803E+03  0.17882017939E+03  0.92133027743E+02 0.  0.
        -11    1    3    3    0    0  0.36645500768E+01 -0.26380090376E+02 -0.34047951318E+02  0.43227318729E+02  0.00000000000E+00 0.  1.
         12    1    3    3    0    0  0.14189255590E+03  0.18222531568E+02 -0.35246257979E+03  0.38038852273E+03  0.00000000000E+00 0. -1.
        -11    1    4    4    0    0 -0.98783221971E+02  0.28275538360E+02 -0.10885600256E+03  0.14969054848E+03  0.00000000000E+00 0. -1.
         11    1    4    4    0    0  0.20307027483E+02 -0.39194742899E+01 -0.20513355468E+02  0.29129630902E+02  0.00000000000E+00 0.  1.
          1    1    1    2  501    0 -0.67080911490E+02 -0.16198505262E+02 -0.11291310764E+03  0.13233144047E+03  0.00000000000E+00 0. -1.
<scales pt_clust_5="13000.00000" pt_clust_6="13000.00000" pt_clust_7="13000.00000" pt_clust_8="13000.00000" pt_clust_9="69.00899"></scales>
<clustering>
<clus scale="   69.009">  1  9  2 -1</clus>
<clus scale="   92.133">  7  8 -1 -1</clus>
<clus scale="   93.843">  5  6 -1 -1</clus>
<clus scale="  149.529">  1  7  2 -1</clus>
<clus scale="   69.009">  1  5  2 -1</clus>
</clustering>
</event>
<event>
 9    2  0.4653788E-005  0.9329678E+02  0.7546771E-02  0.1297911E+00
         21   -1    0    0  501  502  0.00000000000E+00  0.00000000000E+00  0.44855120729E+02  0.44855120729E+02  0.00000000000E+00 0. -1.
          2   -1    0    0  502    0 -0.00000000000E+00 -0.00000000000E+00 -0.66566098399E+03  0.66566098399E+03  0.00000000000E+00 0. -1.
         23    2    1    2    0    0  0.13564508919E+02 -0.15092537393E+02 -0.38216617518E+03  0.39372619028E+03  0.92507009862E+02 0.  0.
         24    2    1    2    0    0 -0.42627209314E+00 -0.58748685425E+02 -0.56250055122E+02  0.11958160410E+03  0.87659007478E+02 0.  0.
        -13    1    4    4    0    0  0.40239797525E+02 -0.15703690431E+02 -0.97307927373E+01  0.44277934971E+02  0.00000000000E+00 0.  1.
         14    1    4    4    0    0 -0.40666069618E+02 -0.43044994993E+02 -0.46519262384E+02  0.75303669133E+02  0.00000000000E+00 0. -1.
        -11    1    3    3    0    0 -0.17280004878E+02 -0.46787636488E+02 -0.22456193707E+03  0.23003422588E+03  0.00000000000E+00 0. -1.
         11    1    3    3    0    0  0.30844513798E+02  0.31695099095E+02 -0.15760423811E+03  0.16369196440E+03  0.00000000000E+00 0.  1.
          1    1    1    2  501    0 -0.13138236826E+02  0.73841222818E+02 -0.18238963296E+03  0.19720831033E+03  0.00000000000E+00 0. -1.
<scales pt_clust_5="13000.00000" pt_clust_6="13000.00000" pt_clust_7="13000.00000" pt_clust_8="13000.00000" pt_clust_9="75.00097"></scales>
<clustering>
<clus scale="   75.001">  1  9  2 -1</clus>
<clus scale="   87.659">  5  6 -1 -1</clus>
<clus scale="   88.492">  1  5  2 -1</clus>
<clus scale="   92.507">  7  8 -1 -1</clus>
<clus scale="   75.001">  1  5  2 -1</clus>
</clustering>
</event>
<event>
 9    2  0.4653788E-005  0.1032346E+03  0.7546771E-02  0.1279050E+00
         21   -1    0    0  501  502  0.00000000000E+00  0.00000000000E+00  0.74327245240E+02  0.74327245240E+02  0.00000000000E+00 0.  1.
         -1   -1    0    0    0  501 -0.00000000000E+00 -0.00000000000E+00 -0.22205612247E+03  0.22205612247E+03  0.00000000000E+00 0.  1.
         24    2    1    2    0    0 -0.48769443156E+02  0.18925717639E+01 -0.39328933900E+02  0.10202154556E+03  0.80495902400E+02 0.  0.
         23    2    1    2    0    0  0.40307537618E+02 -0.25673318258E+02 -0.24264087232E+02  0.10652122771E+03  0.92055467873E+02 0.  0.
        -11    1    3    3    0    0  0.18441644443E+02 -0.14838859991E+02 -0.17375962673E+02  0.29363414216E+02  0.00000000000E+00 0.  1.
         12    1    3    3    0    0 -0.67211087599E+02  0.16731431755E+02 -0.21952971227E+02  0.72658131345E+02  0.00000000000E+00 0. -1.
        -11    1    4    4    0    0  0.13902837913E+02  0.29827563402E+02 -0.30339316827E+02  0.44759876967E+02  0.00000000000E+00 0. -1.
         11    1    4    4    0    0  0.26404699705E+02 -0.55500881660E+02  0.60752295956E+01  0.61761350748E+02  0.00000000000E+00 0.  1.
         -2    1    1    2    0  502  0.84619055382E+01  0.23780746494E+02 -0.84135856098E+02  0.87840594434E+02  0.00000000000E+00 0.  1.
<scales pt_clust_5="13000.00000" pt_clust_6="13000.00000" pt_clust_7="13000.00000" pt_clust_8="13000.00000" pt_clust_9="25.24140"></scales>
<clustering>
<clus scale="   25.241">  1  9  2 -1</clus>
<clus scale="   80.496">  5  6 -1 -1</clus>
<clus scale="   92.055">  7  8 -1 -1</clus>
<clus scale="   93.074">  2  5  1 -1</clus>
<clus scale="   25.241">  1  5  2 -1</clus>
</clustering>
</event>
<event>
 9    2  0.4653788E-005  0.1471821E+03  0.7546771E-02  0.1206330E+00
          2   -1    0    0  502    0 -0.00000000000E+00  0.00000000000E+00  0.11747316752E+03  0.11747316752E+03  0.00000000000E+00 0. -1.
         21   -1    0    0  501  502  0.00000000000E+00 -0.00000000000E+00 -0.32676743220E+03  0.32676743220E+03  0.00000000000E+00 0. -1.
         23    2    1    2    0    0  0.63150955547E+02 -0.77642543752E+02 -0.93316356867E+02  0.16409369379E+03  0.90567047514E+02 0.  0.
         24    2    1    2    0    0 -0.91438219804E+02  0.10544731836E+03 -0.15624295566E+03  0.22362656545E+03  0.78210578503E+02 0.  0.
        -13    1    4    4    0    0 -0.38621265926E+02 -0.24970094321E+01 -0.49960634262E+02  0.63197327583E+02  0.00000000000E+00 0.  1.
         14    1    4    4    0    0 -0.52816953878E+02  0.10794432779E+03 -0.10628232140E+03  0.16042923787E+03  0.00000000000E+00 0. -1.
        -13    1    3    3    0    0  0.76787595962E+01 -0.64994316403E+02 -0.14747305944E+02  0.67087312856E+02  0.00000000000E+00 0.  1.
         13    1    3    3    0    0  0.55472195951E+02 -0.12648227349E+02 -0.78569050923E+02  0.97006380932E+02  0.00000000000E+00 0. -1.
          1    1    1    2  501    0  0.28287264258E+02 -0.27804774610E+02  0.40265047852E+02  0.56520340488E+02  0.00000000000E+00 0. -1.
<scales pt_clust_5="13000.00000" pt_clust_6="13000.00000" pt_clust_7="13000.00000" pt_clust_8="13000.00000" pt_clust_9="39.66455"></scales>
<clustering>
<clus scale="   39.665">  2  9  1 -1</clus>
<clus scale="   78.211">  5  6 -1 -1</clus>
<clus scale="   90.567">  7  8 -1 -1</clus>
<clus scale="  139.918">  2  5  1 -1</clus>
<clus scale="   39.665">  2  5  1 -1</clus>
</clustering>
</event>
<event>
 9    2  0.4653788E-005  0.2466794E+03  0.7546771E-02  0.1116149E+00
         21   -1    0    0  501  502  0.00000000000E+00  0.00000000000E+00  0.18537072741E+03  0.18537072741E+03  0.00000000000E+00 0. -1.
          2   -1    0    0  502    0 -0.00000000000E+00 -0.00000000000E+00 -0.67407114687E+03  0.67407114687E+03  0.00000000000E+00 0. -1.
         24    2    1    2    0    0  0.26602135102E+03 -0.20917049254E+02 -0.42016689731E+03  0.50454431826E+03  0.82582476027E+02 0.  0.
         23    2    1    2    0    0 -0.15565180449E+03  0.88909512598E+02 -0.92723446419E+02  0.22302805876E+03  0.94928877617E+02 0.  0.
        -13    1    3    3    0    0  0.65149293084E+02 -0.37961838907E+02 -0.14499295739E+03  0.16342732114E+03  0.00000000000E+00 0.  1.
         14    1    3    3    0    0  0.20087205794E+03  0.17044789653E+02 -0.27517393992E+03  0.34111699712E+03  0.00000000000E+00 0. -1.
        -11    1    4    4    0    0 -0.13163688823E+03  0.10572895028E+03 -0.94803643165E+02  0.19363525513E+03  0.00000000000E+00 0.  1.
         11    1    4    4    0    0 -0.24014916259E+02 -0.16819437680E+02  0.20801967460E+01  0.29392803631E+02  0.00000000000E+00 0. -1.
          1    1    1    2  501    0 -0.11036954653E+03 -0.67992463344E+02  0.24189924267E+02  0.13186949726E+03  0.00000000000E+00 0. -1.
<scales pt_clust_5="13000.00000" pt_clust_6="13000.00000" pt_clust_7="13000.00000" pt_clust_8="13000.00000" pt_clust_9="129.63183"></scales>
<clustering>
<clus scale="   82.582">  5  6 -1 -1</clus>
<clus scale="   94.929">  7  8 -1 -1</clus>
<clus scale="  129.632">  1  9  2 -1</clus>
<clus scale="  242.196">  2  5  1 -1</clus>
<clus scale="  129.632">  1  5  2 -1</clus>
</clustering>
</event>
<event>
 9    2  0.4653788E-005  0.1129739E+03  0.7546771E-02  0.1258280E+00
         21   -1    0    0  501  502  0.00000000000E+00  0.00000000000E+00  0.10462475339E+04  0.10462475339E+04  0.00000000000E+00 0.  1.
         -1   -1    0    0    0  501 -0.00000000000E+00 -0.00000000000E+00 -0.38225029816E+02  0.38225029816E+02  0.00000000000E+00 0.  1.
         23    2    1    2    0    0  0.67293468748E+02 -0.79462959396E+00  0.14055541739E+03  0.18011883495E+03  0.90321243209E+02 0.  0.
         24    2    1    2    0    0 -0.45222819913E+02 -0.10223855747E+03  0.35262479280E+03  0.37883918210E+03  0.81713250578E+02 0.  0.
        -11    1    4    4    0    0 -0.51352050014E+02 -0.10105434973E+03  0.35461159728E+03  0.37228805993E+03  0.00000000000E+00 0.  1.
         12    1    4    4    0    0  0.61292301012E+01 -0.11842077361E+01 -0.19868044805E+01  0.65511221664E+01  0.00000000000E+00 0. -1.
        -13    1    3    3    0    0  0.86725735142E+02  0.14429470881E+02  0.11151650951E+03  0.14200526278E+03  0.00000000000E+00 0.  1.
         13    1    3    3    0    0 -0.19432266394E+02 -0.15224100475E+02  0.29038907880E+02  0.38113572167E+02  0.00000000000E+00 0. -1.
         -2    1    1    2    0  502 -0.22070648835E+02  0.10303318706E+03  0.51484229392E+03  0.52551454669E+03  0.00000000000E+00 0.  1.
<scales pt_clust_5="13000.00000" pt_clust_6="13000.00000" pt_clust_7="13000.00000" pt_clust_8="13000.00000" pt_clust_9="105.37054"></scales>
<clustering>
<clus scale="   81.713">  5  6 -1 -1</clus>
<clus scale="   90.321">  7  8 -1 -1</clus>
<clus scale="  105.371">  1  9  2 -1</clus>
<clus scale="  106.218">  1  5  2 -1</clus>
<clus scale="  105.371">  1  5  2 -1</clus>
</clustering>
</event>
<event>
 9    2  0.4653788E-005  0.1254250E+03  0.7546771E-02  0.1247397E+00
         21   -1    0    0  501  502  0.00000000000E+00  0.00000000000E+00  0.78252692864E+03  0.78252692864E+03  0.00000000000E+00 0.  1.
          2   -1    0    0  502    0 -0.00000000000E+00 -0.00000000000E+00 -0.32763017519E+02  0.32763017519E+02  0.00000000000E+00 0. -1.
         24    2    1    2    0    0  0.27142507999E+02 -0.48212566830E+02  0.27546669539E+03  0.29183974272E+03  0.78913673184E+02 0.  0.
         23    2    1    2    0    0  0.41618328658E+02 -0.32291443083E+02  0.15385600412E+03  0.18597202879E+03  0.90216976855E+02 0.  0.
        -13    1    3    3    0    0 -0.68359578064E+01 -0.42204846651E+02  0.23409462240E+03  0.23796695493E+03  0.00000000000E+00 0.  1.
         14    1    3    3    0    0  0.33978465806E+02 -0.60077201791E+01  0.41372072992E+02  0.53872787786E+02  0.00000000000E+00 0. -1.
        -13    1    4    4    0    0  0.18581400694E+02 -0.62824237840E+02  0.86447089967E+02  0.10846774947E+03  0.00000000000E+00 0. -1.
         13    1    4    4    0    0  0.23036927964E+02  0.30532794757E+02  0.67408914154E+02  0.77504279321E+02  0.00000000000E+00 0.  1.
          1    1    1    2  501    0 -0.68760836657E+02  0.80504009913E+02  0.32044121160E+03  0.33747817465E+03  0.00000000000E+00 0. -1.
<scales pt_clust_5="13000.00000" pt_clust_6="13000.00000" pt_clust_7="13000.00000" pt_clust_8="13000.00000" pt_clust_9="87.13392"></scales>
<clustering>
<clus scale="   78.914">  5  6 -1 -1</clus>
<clus scale="   90.217">  7  8 -1 -1</clus>
<clus scale="   96.377">  2  5  1 -1</clus>
<clus scale="   87.134">  1  9  2 -1</clus>
<clus scale="   87.134">  1  5  2 -1</clus>
</clustering>
</event>
<event>
 9    2  0.4653788E-005  0.9702328E+02  0.7546771E-02  0.1292316E+00
          2   -1    0    0  502    0 -0.00000000000E+00  0.00000000000E+00  0.36731395967E+03  0.36731395967E+03  0.00000000000E+00 0. -1.
         21   -1    0    0  501  502  0.00000000000E+00 -0.00000000000E+00 -0.54931785154E+02  0.54931785154E+02  0.00000000000E+00 0. -1.
         23    2    1    2    0    0 -0.14910280407E+02  0.59449790334E+02  0.21097460659E+03  0.23791657274E+03  0.91309456925E+02 0.  0.
         24    2    1    2    0    0 -0.11119142255E+02  0.88942249569E+00  0.82180387076E+02  0.11585993861E+03  0.80904159095E+02 0.  0.
        -11    1    4    4    0    0 -0.15048863055E+02 -0.38142116000E+02  0.52784532794E+02  0.66839331194E+02  0.00000000000E+00 0.  1.
         12    1    4    4    0    0  0.39297208001E+01  0.39031538495E+02  0.29395854282E+02  0.49020607420E+02  0.00000000000E+00 0. -1.
        -11    1    3    3    0    0  0.21111575838E+02  0.46897970605E+02  0.47362879755E+02  0.69916812427E+02  0.00000000000E+00 0.  1.
         11    1    3    3    0    0 -0.36021856245E+02  0.12551819729E+02  0.16361172684E+03  0.16799976031E+03  0.00000000000E+00 0. -1.
          1    1    1    2  501    0  0.26029422662E+02 -0.60339212830E+02  0.19227180850E+02  0.68469233474E+02  0.00000000000E+00 0. -1.
<scales pt_clust_5="13000.00000" pt_clust_6="13000.00000" pt_clust_7="13000.00000" pt_clust_8="13000.00000" pt_clust_9="65.71416"></scales>
<clustering>
<clus scale="   65.714">  2  9  1 -1</clus>
<clus scale="   80.904">  5  6 -1 -1</clus>
<clus scale="   87.302">  2  5  1 -1</clus>
<clus scale="   91.309">  7  8 -1 -1</clus>
<clus scale="   65.714">  2  5  1 -1</clus>
</clustering>
</event>
<event>
 9    2  0.4653788E-005  0.1618168E+03  0.7546771E-02  0.1190433E+00
         21   -1    0    0  501  502  0.00000000000E+00  0.00000000000E+00  0.50159283156E+03  0.50159283156E+03  0.00000000000E+00 0. -1.
          4   -1    0    0  502    0 -0.00000000000E+00 -0.00000000000E+00 -0.70074764002E+02  0.70074764002E+02  0.00000000000E+00 0. -1.
         23    2    1    2    0    0 -0.71718923151E+02 -0.10561258968E+03  0.11951336928E+03  0.19651598004E+03  0.89651893090E+02 0.  0.
         24    2    1    2    0    0  0.10363133439E+03  0.10880591929E+03  0.29894918029E+03  0.34052437344E+03  0.63309201298E+02 0.  0.
        -13    1    4    4    0    0  0.56535303744E+01  0.39129437395E+02  0.47423084700E+02  0.61741592456E+02  0.00000000000E+00 0.  1.
         14    1    4    4    0    0  0.97977804016E+02  0.69676481891E+02  0.25152609559E+03  0.27878278098E+03  0.00000000000E+00 0. -1.
        -11    1    3    3    0    0 -0.57347498208E+02 -0.11010791491E+02  0.30743460141E+02  0.65993434684E+02  0.00000000000E+00 0.  1.
         11    1    3    3    0    0 -0.14371424943E+02 -0.94601798191E+02  0.88769909143E+02  0.13052254535E+03  0.00000000000E+00 0. -1.
          3    1    1    2  501    0 -0.31912411239E+02 -0.31933296031E+01  0.13055517987E+02  0.34627242093E+02  0.00000000000E+00 0. -1.
<scales pt_clust_5="13000.00000" pt_clust_6="13000.00000" pt_clust_7="13000.00000" pt_clust_8="13000.00000" pt_clust_9="32.07180"></scales>
<clustering>
<clus scale="   32.072">  1  9  2 -1</clus>
<clus scale="   63.309">  5  6 -1 -1</clus>
<clus scale="   89.652">  7  8 -1 -1</clus>
<clus scale="  148.846">  1  5  2 -1</clus>
<clus scale="   32.072">  1  5  2 -1</clus>
</clustering>
</event>
<event>
 9    2  0.4653788E-005  0.1188834E+03  0.7546771E-02  0.1268111E+00
         21   -1    0    0  501  502  0.00000000000E+00  0.00000000000E+00  0.55187042009E+03  0.55187042009E+03  0.00000000000E+00 0.  1.
         -1   -1    0    0    0  501 -0.00000000000E+00 -0.00000000000E+00 -0.39327895759E+02  0.39327895759E+02  0.00000000000E+00 0.  1.
         24    2    1    2    0    0 -0.15420850681E+02 -0.10953976129E+02  0.69358138783E+02  0.10231031671E+03  0.72794623854E+02 0.  0.
         23    2    1    2    0    0  0.53673449433E+02 -0.54705206694E+02  0.34262482285E+03  0.36284588216E+03  0.91607129401E+02 0.  0.
        -11    1    3    3    0    0 -0.28229793538E+02 -0.35017699568E+02  0.28688827564E+02  0.53349876787E+02  0.00000000000E+00 0.  1.
         12    1    3    3    0    0  0.12808942857E+02  0.24063723438E+02  0.40669311219E+02  0.48960439927E+02  0.00000000000E+00 0. -1.
        -13    1    4    4    0    0  0.81787765853E+01 -0.63331866716E+02  0.12519983874E+03  0.14054471655E+03  0.00000000000E+00 0.  1.
         13    1    4    4    0    0  0.45494672848E+02  0.86266600218E+01  0.21742498411E+03  0.22230116562E+03  0.00000000000E+00 0. -1.
         -2    1    1    2    0  502 -0.38252598753E+02  0.65659182823E+02  0.10055956270E+03  0.12604211697E+03  0.00000000000E+00 0.  1.
<scales pt_clust_5="13000.00000" pt_clust_6="13000.00000" pt_clust_7="13000.00000" pt_clust_8="13000.00000" pt_clust_9="75.77197"></scales>
<clustering>
<clus scale="   72.795">  5  6 -1 -1</clus>
<clus scale="   75.212">  2  5  1 -1</clus>
<clus scale="   75.772">  1  9  2 -1</clus>
<clus scale="   91.607">  7  8 -1 -1</clus>
<clus scale="   75.772">  1  5  2 -1</clus>
</clustering>
</event>
<event>
 9    2  0.4653788E-005  0.1313487E+03  0.7546771E-02  0.1238835E+00
         -1   -1    0    0    0  501 -0.00000000000E+00  0.00000000000E+00  0.38867880899E+03  0.38867880899E+03  0.00000000000E+00 0.  1.
         21   -1    0    0  501  502  0.00000000000E+00 -0.00000000000E+00 -0.81779986843E+02  0.81779986843E+02  0.00000000000E+00 0.  1.
         24    2    1    2    0    0  0.56916922758E+02  0.15200285798E+02  0.35163190731E+02  0.10578102481E+03  0.80514535600E+02 0.  0.
         23    2    1    2    0    0  0.59930651700E+02 -0.45547933091E+02  0.10791037832E+03  0.16117580812E+03  0.93095081244E+02 0.  0.
        -13    1    3    3    0    0  0.22891393006E+02 -0.19504698175E+02  0.46962831708E+02  0.55766985634E+02  0.00000000000E+00 0.  1.
         14    1    3    3    0    0  0.34025529752E+02  0.34704983973E+02 -0.11799640978E+02  0.50014039176E+02  0.00000000000E+00 0. -1.
        -11    1    4    4    0    0 -0.18873048932E+02  0.11774608831E+02  0.21445124023E+02  0.30898652616E+02  0.00000000000E+00 0. -1.
         11    1    4    4    0    0  0.78803700631E+02 -0.57322541922E+02  0.86465254295E+02  0.13027715550E+03  0.00000000000E+00 0.  1.
         -2    1    1    2    0  502 -0.11684757446E+03  0.30347647293E+02  0.16382525310E+03  0.20350196290E+03  0.00000000000E+00 0.  1.
<scales pt_clust_5="13000.00000" pt_clust_6="13000.00000" pt_clust_7="13000.00000" pt_clust_8="13000.00000" pt_clust_9="92.65960"></scales>
<clustering>
<clus scale="   80.515">  5  6 -1 -1</clus>
<clus scale="   93.095">  7  8 -1 -1</clus>
<clus scale="   99.766">  1  5  2 -1</clus>
<clus scale="   92.660">  2  9  1 -1</clus>
<clus scale="   92.660">  2  5  1 -1</clus>
</clustering>
</event>
<event>
 9    2  0.4653788E-005  0.1090732E+03  0.7546771E-02  0.1264693E+00
          2   -1    0    0  502    0 -0.00000000000E+00  0.00000000000E+00  0.80672242206E+03  0.80672242206E+03  0.00000000000E+00 0. -1.
         21   -1    0    0  501  502  0.00000000000E+00 -0.00000000000E+00 -0.25691334443E+02  0.25691334443E+02  0.00000000000E+00 0. -1.
         23    2    1    2    0    0  0.63809537899E+02  0.11207510952E+02  0.33788988220E+03  0.35484924956E+03  0.86897364722E+02 0.  0.
         24    2    1    2    0    0 -0.50185542612E+02 -0.61545935068E+02  0.20856682917E+03  0.23726322067E+03  0.80543297935E+02 0.  0.
        -11    1    4    4    0    0 -0.14260438220E+02  0.17723242840E+02  0.23247600513E+02  0.32525749255E+02  0.00000000000E+00 0.  1.
         12    1    4    4    0    0 -0.35925104392E+02 -0.79269177907E+02  0.18531922865E+03  0.20473747141E+03  0.00000000000E+00 0. -1.
        -13    1    3    3    0    0  0.67666649960E+02  0.32766196136E+02  0.31203809872E+03  0.32096755938E+03  0.00000000000E+00 0. -1.
         13    1    3    3    0    0 -0.38571120613E+01 -0.21558685184E+02  0.25851783484E+02  0.33881690182E+02  0.00000000000E+00 0.  1.
          1    1    1    2  501    0 -0.13623995287E+02  0.50338424115E+02  0.23457437625E+03  0.24030128627E+03  0.00000000000E+00 0. -1.
<scales pt_clust_5="13000.00000" pt_clust_6="13000.00000" pt_clust_7="13000.00000" pt_clust_8="13000.00000" pt_clust_9="52.14952"></scales>
<clustering>
<clus scale="   52.150">  2  9  1 -1</clus>
<clus scale="   80.543">  5  6 -1 -1</clus>
<clus scale="   86.897">  7  8 -1 -1</clus>
<clus scale="  104.082">  2  5  1 -1</clus>
<clus scale="   52.150">  2  5  1 -1</clus>
</clustering>
</event>
<event>
 9    2  0.4653788E-005  0.1180664E+03  0.7546771E-02  0.1250718E+00
          2   -1    0    0  502    0 -0.00000000000E+00  0.00000000000E+00  0.10318547370E+04  0.10318547370E+04  0.00000000000E+00 0. -1.
         21   -1    0    0  501  502  0.00000000000E+00 -0.00000000000E+00 -0.28120182164E+02  0.28120182164E+02  0.00000000000E+00 0.  1.
         24    2    1    2    0    0  0.21816972417E+01 -0.90788549368E+02  0.43650842747E+03  0.45373424424E+03  0.84189290518E+02 0.  0.
         23    2    1    2    0    0  0.58086843892E+02  0.23072149485E+02  0.23204963440E+03  0.25902159525E+03  0.96637200197E+02 0.  0.
        -11    1    3    3    0    0  0.40422675690E+02 -0.53609912680E+02  0.29407779262E+03  0.30164509537E+03  0.00000000000E+00 0.  1.
         12    1    3    3    0    0 -0.38240978448E+02 -0.37178636688E+02  0.14243063486E+03  0.15208914887E+03  0.00000000000E+00 0. -1.
        -11    1    4    4    0    0 -0.11147736225E+02  0.33758141434E+02  0.34996179419E+02  0.49886037224E+02  0.00000000000E+00 0.  1.
         11    1    4    4    0    0  0.69234580116E+02 -0.10685991950E+02  0.19705345498E+03  0.20913555802E+03  0.00000000000E+00 0. -1.
          1    1    1    2  501    0 -0.60268541133E+02  0.67716399883E+02  0.33517649298E+03  0.34721907970E+03  0.00000000000E+00 0. -1.
<scales pt_clust_5="13000.00000" pt_clust_6="13000.00000" pt_clust_7="13000.00000" pt_clust_8="13000.00000" pt_clust_9="90.65217"></scales>
<clustering>
<clus scale="   84.189">  5  6 -1 -1</clus>
<clus scale="   90.652">  2  9  1 -1</clus>
<clus scale="   96.637">  7  8 -1 -1</clus>
<clus scale="  108.115">  1  5  2 -1</clus>
<clus scale="   90.652">  2  5  1 -1</clus>
</clustering>
</event>
<event>
 9    2  0.4653788E-005  0.1137089E+03  0.7546771E-02  0.1257602E+00
         21   -1    0    0  501  502  0.00000000000E+00  0.00000000000E+00  0.93212187570E+02  0.93212187570E+02  0.00000000000E+00 0.  1.
         -1   -1    0    0    0  501 -0.00000000000E+00 -0.00000000000E+00 -0.45703875543E+03  0.45703875543E+03  0.00000000000E+00 0.  1.
         23    2    1    2    0    0  0.24438379858E+02 -0.59545984707E+02 -0.23729706809E+03  0.26189512819E+03  0.90200892136E+02 0.  0.
         24    2    1    2    0    0  0.47286107976E+02  0.11269840023E+03 -0.16761120605E+02  0.14686843553E+03  0.79702551827E+02 0.  0.
        -13    1    4    4    0    0 -0.18006539440E+02  0.28019861645E+02  0.13192259282E+02  0.35824346668E+02  0.00000000000E+00 0.  1.
         14    1    4    4    0    0  0.65292647416E+02  0.84678538586E+02 -0.29953379887E+02  0.11104408886E+03  0.00000000000E+00 0. -1.
        -13    1    3    3    0    0 -0.85073455813E+01  0.19638420052E+02 -0.24886717143E+02  0.32823637231E+02  0.00000000000E+00 0.  1.
         13    1    3    3    0    0  0.32945725439E+02 -0.79184404758E+02 -0.21241035095E+03  0.22907149096E+03  0.00000000000E+00 0. -1.
         -2    1    1    2    0  502 -0.71724487834E+02 -0.53152415524E+02 -0.10976837916E+03  0.14148737928E+03  0.00000000000E+00 0.  1.
<scales pt_clust_5="13000.00000" pt_clust_6="13000.00000" pt_clust_7="13000.00000" pt_clust_8="13000.00000" pt_clust_9="89.27256"></scales>
<clustering>
<clus scale="   79.703">  5  6 -1 -1</clus>
<clus scale="   89.273">  1  9  2 -1</clus>
<clus scale="   90.201">  7  8 -1 -1</clus>
<clus scale="  105.575">  1  5  2 -1</clus>
<clus scale="   89.273">  1  5  2 -1</clus>
</clustering>
</event>
<event>
 9    2  0.4653788E-005  0.9841438E+02  0.7546771E-02  0.1288784E+00
         21   -1    0    0  501  502  0.00000000000E+00  0.00000000000E+00  0.24652388204E+03  0.24652388204E+03  0.00000000000E+00 0. -1.
         -1   -1    0    0    0  501 -0.00000000000E+00 -0.00000000000E+00 -0.19164778615E+03  0.19164778615E+03  0.00000000000E+00 0.  1.
         23    2    1    2    0    0 -0.22744852913E+02  0.29783616630E+02 -0.14712805529E+03  0.17691532466E+03  0.90818364298E+02 0.  0.
         24    2    1    2    0    0  0.41576819438E+01 -0.45685623558E+02  0.46793271329E+02  0.10412972588E+03  0.80925441316E+02 0.  0.
        -11    1    4    4    0    0  0.44474120394E+01  0.23453480184E+02  0.11268314220E+02  0.26397350472E+02  0.00000000000E+00 0.  1.
         12    1    4    4    0    0 -0.28973009565E+00 -0.69139103742E+02  0.35524957109E+02  0.77732375413E+02  0.00000000000E+00 0. -1.
        -11    1    3    3    0    0 -0.52909076231E+02 -0.37729355874E+01 -0.83088959287E+02  0.98576774881E+02  0.00000000000E+00 0. -1.
         11    1    3    3    0    0  0.30164223318E+02  0.33556552217E+02 -0.64039096005E+02  0.78338549784E+02  0.00000000000E+00 0.  1.
         -2    1    1    2    0  502  0.18587170969E+02  0.15902006928E+02  0.15521087984E+03  0.15712661764E+03  0.00000000000E+00 0.  1.
<scales pt_clust_5="13000.00000" pt_clust_6="13000.00000" pt_clust_7="13000.00000" pt_clust_8="13000.00000" pt_clust_9="24.46133"></scales>
<clustering>
<clus scale="   24.461">  1  9  2 -1</clus>
<clus scale="   80.925">  5  6 -1 -1</clus>
<clus scale="   89.366">  1  5  2 -1</clus>
<clus scale="   90.818">  7  8 -1 -1</clus>
<clus scale="   24.461">  1  5  2 -1</clus>
</clustering>
</event>
<event>
 9    2  0.4653788E-005  0.1050902E+03  0.7546771E-02  0.1274676E+00
         -3   -1    0    0    0  501 -0.00000000000E+00  0.00000000000E+00  0.65109176781E+03  0.65109176781E+03  0.00000000000E+00 0.  1.
         21   -1    0    0  501  502  0.00000000000E+00 -0.00000000000E+00 -0.38594840682E+02  0.38594840682E+02  0.00000000000E+00 0.  1.
         24    2    1    2    0    0 -0.45575079444E+02  0.41488722244E+02  0.49290365899E+03  0.50322823277E+03  0.80537167026E+02 0.  0.
         23    2    1    2    0    0  0.20664792915E+02 -0.42805671870E+01  0.10163863164E+03  0.13821588252E+03  0.91257119275E+02 0.  0.
        -11    1    3    3    0    0 -0.59106963694E+02  0.17309012021E+01  0.26945116124E+03  0.27586329490E+03  0.00000000000E+00 0.  1.
         12    1    3    3    0    0  0.13531884250E+02  0.39757821042E+02  0.22345249775E+03  0.22736493788E+03  0.00000000000E+00 0. -1.
        -13    1    4    4    0    0 -0.34767155438E+02 -0.13243133682E+02  0.35074229700E+02  0.51130590413E+02  0.00000000000E+00 0. -1.
         13    1    4    4    0    0  0.55431948352E+02  0.89625664948E+01  0.66564401939E+02  0.87085292110E+02  0.00000000000E+00 0.  1.
         -4    1    1    2    0  502  0.24910286529E+02 -0.37208155057E+02  0.17954636492E+02  0.48242493190E+02  0.00000000000E+00 0.  1.
<scales pt_clust_5="13000.00000" pt_clust_6="13000.00000" pt_clust_7="13000.00000" pt_clust_8="13000.00000" pt_clust_9="44.77688"></scales>
<clustering>
<clus scale="   44.777">  2  9  1 -1</clus>
<clus scale="   80.537">  5  6 -1 -1</clus>
<clus scale="   91.257">  7  8 -1 -1</clus>
<clus scale="   95.929">  1  5  2 -1</clus>
<clus scale="   44.777">  2  5  1 -1</clus>
</clustering>
</event>
<event>
 9    2  0.4653788E-005  0.1509005E+03  0.7546771E-02  0.1201499E+00
         21   -1    0    0  501  502  0.00000000000E+00  0.00000000000E+00  0.14414032628E+03  0.14414032628E+03  0.00000000000E+00 0.  1.
         -1   -1    0    0    0  501 -0.00000000000E+00 -0.00000000000E+00 -0.62075673797E+03  0.62075673797E+03  0.00000000000E+00 0.  1.
         23    2    1    2    0    0  0.11220001984E+03 -0.59766745354E+02 -0.41688860348E+03  0.44555248338E+03  0.92520265013E+02 0.  0.
         24    2    1    2    0    0 -0.11602391386E+03 -0.83020253934E+02  0.12626893905E+01  0.16403009304E+03  0.80934330707E+02 0.  0.
        -11    1    4    4    0    0 -0.11984140074E+03 -0.66875995072E+02  0.20352383658E+02  0.13873925028E+03  0.00000000000E+00 0.  1.
         12    1    4    4    0    0  0.38174868762E+01 -0.16144258862E+02 -0.19089694267E+02  0.25290842759E+02  0.00000000000E+00 0. -1.
        -13    1    3    3    0    0  0.54435741738E+02  0.17282606758E+02 -0.20500953317E+03  0.21281646357E+03  0.00000000000E+00 0. -1.
         13    1    3    3    0    0  0.57764278097E+02 -0.77049352113E+02 -0.21187907031E+03  0.23273601981E+03  0.00000000000E+00 0.  1.
         -2    1    1    2    0  502  0.38238940270E+01  0.14278699929E+03 -0.60990497608E+02  0.15531448783E+03  0.00000000000E+00 0.  1.
<scales pt_clust_5="13000.00000" pt_clust_6="13000.00000" pt_clust_7="13000.00000" pt_clust_8="13000.00000" pt_clust_9="142.83819"></scales>
<clustering>
<clus scale="   80.934">  5  6 -1 -1</clus>
<clus scale="   92.520">  7  8 -1 -1</clus>
<clus scale="  142.838">  1  9  2 -1</clus>
<clus scale="  144.088">  1  5  2 -1</clus>
<clus scale="  142.838">  1  5  2 -1</clus>
</clustering>
</event>
<event>
 9    2  0.5196181E-005  0.9304435E+02  0.7546771E-02  0.1301687E+00
          2   -1    0    0  502    0 -0.00000000000E+00  0.00000000000E+00  0.11085743325E+04  0.11085743325E+04  0.00000000000E+00 0. -1.
         21   -1    0    0  501  502  0.00000000000E+00 -0.00000000000E+00 -0.47394245515E+02  0.47394245515E+02  0.00000000000E+00 0.  1.
         24    2    1    2    0    0 -0.16829151120E+02 -0.33115520787E+00  0.10172367216E+04  0.10206450922E+04  0.81624300630E+02 0.  0.
         23    2    1    2    0    0  0.46058021495E+01  0.21445851738E+02  0.54385613405E+02  0.10878518873E+03  0.91625784419E+02 0.  0.
        -11    1    3    3    0    0 -0.28184293135E+02 -0.15618665554E+02  0.16080422317E+03  0.16400090025E+03  0.00000000000E+00 0.  1.
         12    1    3    3    0    0  0.11355142015E+02  0.15287510346E+02  0.85643249845E+03  0.85664419196E+03  0.00000000000E+00 0. -1.
        -11    1    4    4    0    0  0.14296533425E+02 -0.32992352084E+02  0.35035063769E+02  0.50203006457E+02  0.00000000000E+00 0.  1.
         11    1    4    4    0    0 -0.96907312756E+01  0.54438203823E+02  0.19350549636E+02  0.58582182268E+02  0.00000000000E+00 0. -1.
          1    1    1    2  501    0  0.12223348971E+02 -0.21114696530E+02 -0.10442248012E+02  0.26538297104E+02  0.00000000000E+00 0. -1.
<scales pt_clust_5="13000.00000" pt_clust_6="13000.00000" pt_clust_7="13000.00000" pt_clust_8="13000.00000" pt_clust_9="24.39755"></scales>
<clustering>
<clus scale="   24.398">  2  9  1 -1</clus>
<clus scale="   81.624">  5  6 -1 -1</clus>
<clus scale="   83.214">  1  5  2 -1</clus>
<clus scale="   91.626">  7  8 -1 -1</clus>
<clus scale="   24.398">  2  5  1 -1</clus>
</clustering>
</event>
<event>
 9    2  0.4653788E-005  0.2618833E+03  0.7546771E-02  0.1106017E+00
         21   -1    0    0  501  502  0.00000000000E+00  0.00000000000E+00  0.49434619824E+03  0.49434619824E+03  0.00000000000E+00 0. -1.
          2   -1    0    0  502    0 -0.00000000000E+00 -0.00000000000E+00 -0.10758926486E+03  0.10758926486E+03  0.00000000000E+00 0. -1.
         24    2    1    2    0    0  0.11159487271E+03  0.16669027798E+02  0.20059689202E+03  0.24443354795E+03  0.82324808964E+02 0.  0.
         23    2    1    2    0    0  0.59620128534E+02  0.43749999531E+02  0.10668919718E+03  0.15930844758E+03  0.92347032928E+02 0.  0.
        -13    1    3    3    0    0  0.58722775932E+02 -0.32382230464E+02  0.86428116228E+02  0.10939283586E+03  0.00000000000E+00 0.  1.
         14    1    3    3    0    0  0.52872096779E+02  0.49051258262E+02  0.11416877579E+03  0.13504071209E+03  0.00000000000E+00 0. -1.
        -13    1    4    4    0    0  0.12235634717E+02 -0.28898383496E+02  0.32409356512E+02  0.45113121319E+02  0.00000000000E+00 0. -1.
         13    1    4    4    0    0  0.47384493816E+02  0.72648383027E+02  0.74279840668E+02  0.11419532626E+03  0.00000000000E+00 0.  1.
          1    1    1    2  501    0 -0.17121500125E+03 -0.60419027329E+02  0.79470844182E+02  0.19819346758E+03  0.00000000000E+00 0. -1.
<scales pt_clust_5="13000.00000" pt_clust_6="13000.00000" pt_clust_7="13000.00000" pt_clust_8="13000.00000" pt_clust_9="181.56285"></scales>
<clustering>
<clus scale="   82.325">  5  6 -1 -1</clus>
<clus scale="   92.347">  7  8 -1 -1</clus>
<clus scale="  103.498">  5  7 -1 -1</clus>
<clus scale="  181.563">  1  9  2 -1</clus>
<clus scale="  181.563">  1  5  2 -1</clus>
</clustering>
</event>
<event>
 9    2  0.4653788E-005  0.1252448E+03  0.7546771E-02  0.1237850E+00
          2   -1    0    0  502    0 -0.00000000000E+00  0.00000000000E+00  0.23988133005E+03  0.23988133005E+03  0.00000000000E+00 0. -1.
         21   -1    0    0  501  502  0.00000000000E+00 -0.00000000000E+00 -0.11448747413E+03  0.11448747413E+03  0.00000000000E+00 0.  1.
         24    2    1    2    0    0  0.36700150054E+02  0.41661100746E+02  0.59398112959E+01  0.97793552926E+02  0.80285423996E+02 0.  0.
         23    2    1    2    0    0 -0.77800023886E+02 -0.93900920414E+02  0.49827240287E+02  0.16031471797E+03  0.91366450904E+02 0.  0.
        -13    1    3    3    0    0  0.40919123546E+02  0.45713751552E+02 -0.25040494623E+02  0.66265738687E+02  0.00000000000E+00 0.  1.
         14    1    3    3    0    0 -0.42189734912E+01 -0.40526508061E+01  0.30980305919E+02  0.31527814239E+02  0.00000000000E+00 0. -1.
        -11    1    4    4    0    0 -0.85714471685E+02 -0.37002833403E+02  0.41873120269E+02  0.10232076298E+03  0.00000000000E+00 0. -1.
         11    1    4    4    0    0  0.79144477993E+01 -0.56898087011E+02  0.79541200185E+01  0.57993954985E+02  0.00000000000E+00 0.  1.
          1    1    1    2  501    0  0.41099873831E+02  0.52239819668E+02  0.69626804335E+02  0.96260533293E+02  0.00000000000E+00 0. -1.
<scales pt_clust_5="13000.00000" pt_clust_6="13000.00000" pt_clust_7="13000.00000" pt_clust_8="13000.00000" pt_clust_9="66.46956"></scales>
<clustering>
<clus scale="   66.470">  2  9  1 -1</clus>
<clus scale="   80.285">  5  6 -1 -1</clus>
<clus scale="   91.366">  7  8 -1 -1</clus>
<clus scale="  117.406">  1  5  2 -1</clus>
<clus scale="   66.470">  2  5  1 -1</clus>
</clustering>
</event>
<event>
 9    2  0.4653788E-005  0.1285043E+03  0.7546771E-02  0.1236011E+00
          2   -1    0    0  502    0 -0.00000000000E+00  0.00000000000E+00  0.38244072516E+03  0.38244072516E+03  0.00000000000E+00 0. -1.
         21   -1    0    0  501  502  0.00000000000E+00 -0.00000000000E+00 -0.10483717831E+03  0.10483717831E+03  0.00000000000E+00 0.  1.
         24    2    1    2    0    0 -0.66475906722E+02 -0.31451881034E+02  0.20922096646E+03  0.23586837490E+03  0.80325652672E+02 0.  0.
         23    2    1    2    0    0  0.76254052657E+02  0.96170052389E+02  0.32478539626E+01  0.15907001141E+03  0.10114030083E+03 0.  0.
        -11    1    3    3    0    0 -0.39524083625E+02 -0.54713005895E+02  0.16994702635E+03  0.18285966741E+03  0.00000000000E+00 0.  1.
         12    1    3    3    0    0 -0.26951823098E+02  0.23261124861E+02  0.39273940110E+02  0.53008707491E+02  0.00000000000E+00 0. -1.
        -13    1    4    4    0    0  0.65446133215E+02  0.12692325034E+02 -0.23596971210E+02  0.70718516089E+02  0.00000000000E+00 0.  1.
         13    1    4    4    0    0  0.10807919442E+02  0.83477727354E+02  0.26844825173E+02  0.88351495321E+02  0.00000000000E+00 0. -1.
          1    1    1    2  501    0 -0.97781459345E+01 -0.64718171354E+02  0.65134726425E+02  0.92339517152E+02  0.00000000000E+00 0. -1.
<scales pt_clust_5="13000.00000" pt_clust_6="13000.00000" pt_clust_7="13000.00000" pt_clust_8="13000.00000" pt_clust_9="65.45272"></scales>
<clustering>
<clus scale="   65.453">  2  9  1 -1</clus>
<clus scale="   80.326">  5  6 -1 -1</clus>
<clus scale="  101.140">  7  8 -1 -1</clus>
<clus scale="  112.855">  1  5  2 -1</clus>
<clus scale="   65.453">  2  5  1 -1</clus>
</clustering>
</event>
<event>
 9    2  0.4653788E-005  0.1037407E+03  0.7546771E-02  0.1277965E+00
         -3   -1    0    0    0  501 -0.00000000000E+00  0.00000000000E+00  0.12787494641E+03  0.12787494641E+03  0.00000000000E+00 0.  1.
         21   -1    0    0  501  502  0.00000000000E+00 -0.00000000000E+00 -0.19287639722E+03  0.19287639722E+03  0.00000000000E+00 0.  1.
         23    2    1    2    0    0 -0.15810442048E+02  0.49180696418E+02  0.54515470469E+02  0.11845300458E+03  0.91599491243E+02 0.  0.
         24    2    1    2    0    0  0.44175826212E+02 -0.26785888805E+02 -0.21190908342E+02  0.97540870364E+02  0.79976117275E+02 0.  0.
        -13    1    4    4    0    0  0.51416700792E+02  0.69889988017E+01 -0.32460930753E+02  0.61206496795E+02  0.00000000000E+00 0.  1.
         14    1    4    4    0    0 -0.72408745800E+01 -0.33774887606E+02  0.11270022411E+02  0.36334373569E+02  0.00000000000E+00 0. -1.
        -11    1    3    3    0    0 -0.52452098499E+01  0.75076293673E+02  0.49392066376E+02  0.90019655181E+02  0.00000000000E+00 0.  1.
         11    1    3    3    0    0 -0.10565232198E+02 -0.25895597255E+02  0.51234040928E+01  0.28433349400E+02  0.00000000000E+00 0. -1.
         -4    1    1    2    0  502 -0.28365384164E+02 -0.22394807613E+02 -0.98326012937E+02  0.10475746869E+03  0.00000000000E+00 0.  1.
<scales pt_clust_5="13000.00000" pt_clust_6="13000.00000" pt_clust_7="13000.00000" pt_clust_8="13000.00000" pt_clust_9="36.14032"></scales>
<clustering>
<clus scale="   36.140">  2  9  1 -1</clus>
<clus scale="   79.976">  5  6 -1 -1</clus>
<clus scale="   91.599">  7  8 -1 -1</clus>
<clus scale="   93.637">  2  5  1 -1</clus>
<clus scale="   36.140">  2  5  1 -1</clus>
</clustering>
</event>
<event>
 9    2  0.4653788E-005  0.1363003E+03  0.7546771E-02  0.1219754E+00
          2   -1    0    0  502    0 -0.00000000000E+00  0.00000000000E+00  0.10335235649E+04  0.10335235649E+04  0.00000000000E+00 0. -1.
         21   -1    0    0  501  502  0.00000000000E+00 -0.00000000000E+00 -0.31394137841E+02  0.31394137841E+02  0.00000000000E+00 0.  1.
         23    2    1    2    0    0 -0.70635219846E+02  0.90788618913E+02  0.66437235948E+03  0.67982216931E+03  0.86808077037E+02 0.  0.
         24    2    1    2    0    0  0.87461524598E+02 -0.38203819822E+02  0.27133063036E+03  0.29871985869E+03  0.80648576352E+02 0.  0.
        -11    1    4    4    0    0  0.91158531392E+02 -0.50771422800E+02  0.26361958117E+03  0.28351878032E+03  0.00000000000E+00 0.  1.
         12    1    4    4    0    0 -0.36970067937E+01  0.12567602978E+02  0.77110491919E+01  0.15201078366E+02  0.00000000000E+00 0. -1.
        -13    1    3    3    0    0 -0.51027700001E+02  0.17936229552E+01  0.18791900789E+03  0.19473211543E+03  0.00000000000E+00 0.  1.
         13    1    3    3    0    0 -0.19607519845E+02  0.88994995958E+02  0.47645335159E+03  0.48509005389E+03  0.00000000000E+00 0. -1.
          1    1    1    2  501    0 -0.16826304752E+02 -0.52584799091E+02  0.66426437247E+02  0.86375674772E+02  0.00000000000E+00 0. -1.
<scales pt_clust_5="13000.00000" pt_clust_6="13000.00000" pt_clust_7="13000.00000" pt_clust_8="13000.00000" pt_clust_9="55.21128"></scales>
<clustering>
<clus scale="   55.211">  2  9  1 -1</clus>
<clus scale="   80.649">  5  6 -1 -1</clus>
<clus scale="   86.808">  7  8 -1 -1</clus>
<clus scale="  132.463">  2  5  1 -1</clus>
<clus scale="   55.211">  2  5  1 -1</clus>
</clustering>
</event>
<event>
 9    2  0.4653788E-005  0.9339306E+02  0.7546771E-02  0.1302244E+00
         21   -1    0    0  501  502  0.00000000000E+00  0.00000000000E+00  0.29024346948E+03  0.29024346948E+03  0.00000000000E+00 0. -1.
          4   -1    0    0  502    0 -0.00000000000E+00 -0.00000000000E+00 -0.44619815469E+02  0.44619815469E+02  0.00000000000E+00 0. -1.
         24    2    1    2    0    0 -0.15033025902E+02  0.10368157512E+02  0.52703820334E+02  0.97573156009E+02  0.80058338340E+02 0.  0.
         23    2    1    2    0    0 -0.18182224422E+02 -0.22787507200E+02  0.16838651096E+03  0.19416963469E+03  0.92184414048E+02 0.  0.
        -11    1    3    3    0    0 -0.15819577412E+02  0.44751811720E+02  0.34337852130E+02  0.58583886612E+02  0.00000000000E+00 0.  1.
         12    1    3    3    0    0  0.78655150986E+00 -0.34383654208E+02  0.18365968204E+02  0.38989269396E+02  0.00000000000E+00 0. -1.
        -13    1    4    4    0    0 -0.41423340115E+02  0.11027371077E+02  0.37336780646E+02  0.56846558455E+02  0.00000000000E+00 0.  1.
         13    1    4    4    0    0  0.23241115693E+02 -0.33814878277E+02  0.13104973031E+03  0.13732307623E+03  0.00000000000E+00 0. -1.
          3    1    1    2  501    0  0.33215250324E+02  0.12419349688E+02  0.24533322719E+02  0.43120494251E+02  0.00000000000E+00 0. -1.
<scales pt_clust_5="13000.00000" pt_clust_6="13000.00000" pt_clust_7="13000.00000" pt_clust_8="13000.00000" pt_clust_9="35.46117"></scales>
<clustering>
<clus scale="   35.461">  1  9  2 -1</clus>
<clus scale="   80.058">  5  6 -1 -1</clus>
<clus scale="   81.447">  2  5  1 -1</clus>
<clus scale="   92.184">  7  8 -1 -1</clus>
<clus scale="   35.461">  1  5  2 -1</clus>
</clustering>
</event>
<event>
 9    2  0.4653788E-005  0.1258914E+03  0.7546771E-02  0.1235966E+00
          2   -1    0    0  502    0 -0.00000000000E+00  0.00000000000E+00  0.65128697812E+03  0.65128697812E+03  0.00000000000E+00 0. -1.
         21   -1    0    0  501  502  0.00000000000E+00 -0.00000000000E+00 -0.10784077334E+03  0.10784077334E+03  0.00000000000E+00 0.  1.
         24    2    1    2    0    0 -0.84974016914E+02 -0.26631934422E+02  0.58630308667E+03  0.59848173367E+03  0.80617818239E+02 0.  0.
         23    2    1    2    0    0  0.91904259740E+02  0.51892628871E+01 -0.49343458158E+02  0.13719623954E+03  0.88964655198E+02 0.  0.
        -13    1    3    3    0    0 -0.35553928336E+02  0.28853633520E+02  0.21720282921E+03  0.22197676231E+03  0.00000000000E+00 0.  1.
         14    1    3    3    0    0 -0.49420088578E+02 -0.55485567942E+02  0.36910025746E+03  0.37650497136E+03  0.00000000000E+00 0. -1.
        -11    1    4    4    0    0 -0.70501770246E+01 -0.23810160790E+02 -0.11355479260E+02  0.27305231406E+02  0.00000000000E+00 0. -1.
         11    1    4    4    0    0  0.98954436764E+02  0.28999423677E+02 -0.37987978898E+02  0.10989100814E+03  0.00000000000E+00 0.  1.
          1    1    1    2  501    0 -0.69302428257E+01  0.21442671535E+02  0.64865762709E+01  0.23449778248E+02  0.00000000000E+00 0. -1.
<scales pt_clust_5="13000.00000" pt_clust_6="13000.00000" pt_clust_7="13000.00000" pt_clust_8="13000.00000" pt_clust_9="22.53478"></scales>
<clustering>
<clus scale="   22.535">  2  9  1 -1</clus>
<clus scale="   80.618">  5  6 -1 -1</clus>
<clus scale="   88.965">  7  8 -1 -1</clus>
<clus scale="  120.138">  1  5  2 -1</clus>
<clus scale="   22.535">  2  5  1 -1</clus>
</clustering>
</event>
<event>
 9    2  0.4653788E-005  0.1234612E+03  0.7546771E-02  0.1248751E+00
          2   -1    0    0  502    0 -0.00000000000E+00  0.00000000000E+00  0.49512174473E+03  0.49512174473E+03  0.00000000000E+00 0. -1.
         21   -1    0    0  501  502  0.00000000000E+00 -0.00000000000E+00 -0.92898969115E+02  0.92898969115E+02  0.00000000000E+00 0. -1.
         23    2    1    2    0    0  0.17533036732E+02 -0.26265361793E+02  0.30993769334E+03  0.32516587921E+03  0.93135378036E+02 0.  0.
         24    2    1    2    0    0  0.76143109225E+02 -0.37308851670E+02 -0.16817722479E+00  0.11668881215E+03  0.80165622938E+02 0.  0.
        -13    1    4    4    0    0  0.72727783607E+02 -0.61349409241E+01 -0.24508192323E+02  0.76991035189E+02  0.00000000000E+00 0.  1.
         14    1    4    4    0    0  0.34153256174E+01 -0.31173910746E+02  0.24340015098E+02  0.39697776956E+02  0.00000000000E+00 0. -1.
        -11    1    3    3    0    0 -0.35578931675E+02 -0.20910923033E+02  0.92796663561E+02  0.10155957783E+03  0.00000000000E+00 0.  1.
         11    1    3    3    0    0  0.53111968406E+02 -0.53544387604E+01  0.21714102978E+03  0.22360630137E+03  0.00000000000E+00 0. -1.
          1    1    1    2  501    0 -0.93676145956E+02  0.63574213464E+02  0.92453259499E+02  0.14616602249E+03  0.00000000000E+00 0. -1.
<scales pt_clust_5="13000.00000" pt_clust_6="13000.00000" pt_clust_7="13000.00000" pt_clust_8="13000.00000" pt_clust_9="93.89434"></scales>
<clustering>
<clus scale="   80.166">  5  6 -1 -1</clus>
<clus scale="   93.135">  7  8 -1 -1</clus>
<clus scale="   98.344">  1  7  2 -1</clus>
<clus scale="   93.894">  2  9  1 -1</clus>
<clus scale="   93.894">  2  5  1 -1</clus>
</clustering>
</event>
<event>
 9    2  0.4653788E-005  0.1237444E+03  0.7546771E-02  0.1240839E+00
         21   -1    0    0  501  502  0.00000000000E+00  0.00000000000E+00  0.16325142405E+03  0.16325142405E+03  0.00000000000E+00 0.  1.
         -3   -1    0    0    0  501 -0.00000000000E+00 -0.00000000000E+00 -0.40782152417E+03  0.40782152417E+03  0.00000000000E+00 0.  1.
         23    2    1    2    0    0  0.76567219622E+02  0.43962199747E+02 -0.35277599222E+03  0.37483978925E+03  0.90877680377E+02 0.  0.
         24    2    1    2    0    0 -0.59073009921E+02 -0.18671112435E+02  0.18279304801E+02  0.10119381147E+03  0.77896235825E+02 0.  0.
        -11    1    4    4    0    0 -0.23455253767E+02  0.22692160978E+02  0.31145935935E+02  0.45112663681E+02  0.00000000000E+00 0.  1.
         12    1    4    4    0    0 -0.35617756153E+02 -0.41363273413E+02 -0.12866631134E+02  0.56081147791E+02  0.00000000000E+00 0. -1.
        -11    1    3    3    0    0  0.27575740081E+02  0.44077299859E+02 -0.29288186515E+03  0.29746094994E+03  0.00000000000E+00 0.  1.
         11    1    3    3    0    0  0.48991479541E+02 -0.11510011242E+00 -0.59894127064E+02  0.77378839306E+02  0.00000000000E+00 0. -1.
         -4    1    1    2    0  502 -0.17494209701E+02 -0.25291087312E+02  0.89926587296E+02  0.95039347499E+02  0.00000000000E+00 0.  1.
<scales pt_clust_5="13000.00000" pt_clust_6="13000.00000" pt_clust_7="13000.00000" pt_clust_8="13000.00000" pt_clust_9="30.75202"></scales>
<clustering>
<clus scale="   30.752">  1  9  2 -1</clus>
<clus scale="   77.896">  5  6 -1 -1</clus>
<clus scale="   90.878">  7  8 -1 -1</clus>
<clus scale="  114.550">  1  5  2 -1</clus>
<clus scale="   30.752">  1  5  2 -1</clus>
</clustering>
</event>
<event>
 9    2  0.4653788E-005  0.1595913E+03  0.7546771E-02  0.1204547E+00
         -3   -1    0    0    0  501 -0.00000000000E+00  0.00000000000E+00  0.13481546380E+03  0.13481546380E+03  0.00000000000E+00 0.  1.
         21   -1    0    0  501  502  0.00000000000E+00 -0.00000000000E+00 -0.48103818690E+03  0.48103818690E+03  0.00000000000E+00 0. -1.
         24    2    1    2    0    0  0.78711745328E+02  0.15200107643E+02  0.24855730459E+02  0.11672116575E+03  0.81113753905E+02 0.  0.
         23    2    1    2    0    0  0.40825713188E+02  0.10945048467E+03 -0.24299794178E+03  0.28411715608E+03  0.89601401885E+02 0.  0.
        -11    1    3    3    0    0  0.45258884616E+02 -0.13628974909E+02 -0.22172566894E+02  0.52208603854E+02  0.00000000000E+00 0.  1.
         12    1    3    3    0    0  0.33452860712E+02  0.28829082551E+02  0.47028297352E+02  0.64512561896E+02  0.00000000000E+00 0. -1.
        -13    1    4    4    0    0  0.13915385443E+01  0.10631864056E+03 -0.15907906817E+03  0.19134194428E+03  0.00000000000E+00 0. -1.
         13    1    4    4    0    0  0.39434174643E+02  0.31318441082E+01 -0.83918873611E+02  0.92775211805E+02  0.00000000000E+00 0.  1.
         -4    1    1    2    0  502 -0.11953745852E+03 -0.12465059232E+03 -0.12808051178E+03  0.21501532888E+03  0.00000000000E+00 0.  1.
<scales pt_clust_5="13000.00000" pt_clust_6="13000.00000" pt_clust_7="13000.00000" pt_clust_8="13000.00000" pt_clust_9="132.06431"></scales>
<clustering>
<clus scale="   81.114">  5  6 -1 -1</clus>
<clus scale="   89.601">  7  8 -1 -1</clus>
<clus scale="  114.044">  1  5  2 -1</clus>
<clus scale="  132.064">  2  9  1 -1</clus>
<clus scale="  132.064">  2  5  1 -1</clus>
</clustering>
</event>
<event>
 9    2  0.4653788E-005  0.2500631E+03  0.7546771E-02  0.1146983E+00
         21   -1    0    0  501  502  0.00000000000E+00  0.00000000000E+00  0.58357818664E+02  0.58357818664E+02  0.00000000000E+00 0.  1.
          2   -1    0    0  502    0 -0.00000000000E+00 -0.00000000000E+00 -0.19763550343E+04  0.19763550343E+04  0.00000000000E+00 0. -1.
         24    2    1    2    0    0  0.46729259394E+02  0.58445420153E+02 -0.32851482225E+03  0.34620360318E+03  0.79595575232E+02 0.  0.
         23    2    1    2    0    0 -0.23192871386E+03  0.79977517854E+02 -0.12537599161E+04  0.12808705256E+04  0.92347411866E+02 0.  0.
        -13    1    3    3    0    0  0.66084988131E+02  0.46816442244E+02 -0.20095881664E+03  0.21666437387E+03  0.00000000000E+00 0.  1.
         14    1    3    3    0    0 -0.19355728737E+02  0.11628977909E+02 -0.12755600561E+03  0.12953922931E+03  0.00000000000E+00 0. -1.
        -13    1    4    4    0    0 -0.16617567859E+02  0.38028680114E+02 -0.15725442273E+03  0.16263848727E+03  0.00000000000E+00 0. -1.
         13    1    4    4    0    0 -0.21531114600E+03  0.41948837740E+02 -0.10965054933E+04  0.11182320383E+04  0.00000000000E+00 0.  1.
          1    1    1    2  501    0  0.18519945446E+03 -0.13842293801E+03 -0.33572247733E+03  0.40763872422E+03  0.00000000000E+00 0. -1.
<scales pt_clust_5="13000.00000" pt_clust_6="13000.00000" pt_clust_7="13000.00000" pt_clust_8="13000.00000" pt_clust_9="232.38659"></scales>
<clustering>
<clus scale="   79.596">  5  6 -1 -1</clus>
<clus scale="   92.347">  7  8 -1 -1</clus>
<clus scale="  109.247">  2  5  1 -1</clus>
<clus scale="  232.387">  1  9  2 -1</clus>
<clus scale="  232.387">  1  5  2 -1</clus>
</clustering>
</event>
<event>
 9    2  0.4653788E-005  0.9741585E+02  0.7546771E-02  0.1289728E+00
          2   -1    0    0  502    0 -0.00000000000E+00  0.00000000000E+00  0.54163809906E+03  0.54163809906E+03  0.00000000000E+00 0. -1.
         21   -1    0    0  501  502  0.00000000000E+00 -0.00000000000E+00 -0.38964855763E+02  0.38964855763E+02  0.00000000000E+00 0. -1.
         24    2    1    2    0    0 -0.91226040442E+01 -0.30307068553E+02  0.35451666184E+03  0.36863517618E+03  0.95958789508E+02 0.  0.
         23    2    1    2    0    0 -0.28467391991E+01 -0.95947606728E+01  0.14471899401E+03  0.17016780065E+03  0.88956898518E+02 0.  0.
        -11    1    3    3    0    0 -0.78412289885E+00 -0.31132354462E+02  0.27603955141E+02  0.41615101616E+02  0.00000000000E+00 0.  1.
         12    1    3    3    0    0 -0.83384811453E+01  0.82528590927E+00  0.32691270670E+03  0.32702007456E+03  0.00000000000E+00 0. -1.
        -13    1    4    4    0    0  0.39054342433E+02  0.13910155481E+02  0.65385372366E+02  0.77420804748E+02  0.00000000000E+00 0.  1.
         13    1    4    4    0    0 -0.41901081633E+02 -0.23504916154E+02  0.79333621645E+02  0.92746995901E+02  0.00000000000E+00 0. -1.
          1    1    1    2  501    0  0.11969343243E+02  0.39901829225E+02  0.34375874474E+01  0.41799977998E+02  0.00000000000E+00 0. -1.
<scales pt_clust_5="13000.00000" pt_clust_6="13000.00000" pt_clust_7="13000.00000" pt_clust_8="13000.00000" pt_clust_9="41.65839"></scales>
<clustering>
<clus scale="   41.658">  2  9  1 -1</clus>
<clus scale="   88.957">  7  8 -1 -1</clus>
<clus scale="   90.527">  2  7  1 -1</clus>
<clus scale="   95.959">  5  6 -1 -1</clus>
<clus scale="   41.658">  2  5  1 -1</clus>
</clustering>
</event>
<event>
 9    2  0.4653788E-005  0.9585843E+02  0.7546771E-02  0.1297441E+00
         -1   -1    0    0    0  501 -0.00000000000E+00  0.00000000000E+00  0.55301396598E+02  0.55301396598E+02  0.00000000000E+00 0.  1.
         21   -1    0    0  501  502  0.00000000000E+00 -0.00000000000E+00 -0.43579986831E+03  0.43579986831E+03  0.00000000000E+00 0. -1.
         23    2    1    2    0    0  0.14794129654E+01 -0.35662283581E+02 -0.82162198466E+01  0.98867217828E+02  0.91832637768E+02 0.  0.
         24    2    1    2    0    0  0.68501556454E+01 -0.86513425514E+01 -0.23023690853E+03  0.24320398723E+03  0.77571740968E+02 0.  0.
        -11    1    4    4    0    0  0.63885585779E+01 -0.24895190079E+02 -0.20600832173E+02  0.32939011157E+02  0.00000000000E+00 0.  1.
         12    1    4    4    0    0  0.46159706747E+00  0.16243847528E+02 -0.20963607635E+03  0.21026497607E+03  0.00000000000E+00 0. -1.
        -13    1    3    3    0    0  0.15138192674E+02  0.26545286062E+02 -0.16355080966E+02  0.34659858091E+02  0.00000000000E+00 0. -1.
         13    1    3    3    0    0 -0.13658779708E+02 -0.62207569643E+02  0.81388611196E+01  0.64207359736E+02  0.00000000000E+00 0.  1.
         -2    1    1    2    0  502 -0.83295686107E+01  0.44313626133E+02 -0.14204534333E+03  0.14903005984E+03  0.00000000000E+00 0.  1.
<scales pt_clust_5="13000.00000" pt_clust_6="13000.00000" pt_clust_7="13000.00000" pt_clust_8="13000.00000" pt_clust_9="45.08968"></scales>
<clustering>
<clus scale="   45.090">  2  9  1 -1</clus>
<clus scale="   77.572">  5  6 -1 -1</clus>
<clus scale="   82.298">  2  5  1 -1</clus>
<clus scale="   91.833">  7  8 -1 -1</clus>
<clus scale="   45.090">  2  5  1 -1</clus>
</clustering>
</event>
<event>
 9    2  0.4653788E-005  0.1035148E+03  0.7546771E-02  0.1277783E+00
          2   -1    0    0  502    0 -0.00000000000E+00  0.00000000000E+00  0.45505842303E+03  0.45505842303E+03  0.00000000000E+00 0. -1.
         21   -1    0    0  501  502  0.00000000000E+00 -0.00000000000E+00 -0.31463298216E+02  0.31463298216E+02  0.00000000000E+00 0. -1.
         23    2    1    2    0    0  0.56094788391E+02  0.26126540591E+02  0.26201115537E+03  0.28430185454E+03  0.91370003576E+02 0.  0.
         24    2    1    2    0    0 -0.33203697852E+02 -0.83097078080E+01  0.14249436429E+03  0.16749444976E+03  0.81106165317E+02 0.  0.
        -11    1    4    4    0    0 -0.56436439935E+02 -0.49233521839E+01  0.12780962888E+03  0.13980204714E+03  0.00000000000E+00 0.  1.
         12    1    4    4    0    0  0.23232742083E+02 -0.33863556241E+01  0.14684735404E+02  0.27692402622E+02  0.00000000000E+00 0. -1.
        -13    1    3    3    0    0 -0.12081242633E+02  0.33132283464E+02  0.47850094289E+02  0.59441872064E+02  0.00000000000E+00 0. -1.
         13    1    3    3    0    0  0.68176031024E+02 -0.70057428729E+01  0.21416106108E+03  0.22485998248E+03  0.00000000000E+00 0.  1.
          1    1    1    2  501    0 -0.22891090539E+02 -0.17816832783E+02  0.19089605162E+02  0.34725416941E+02  0.00000000000E+00 0. -1.
<scales pt_clust_5="13000.00000" pt_clust_6="13000.00000" pt_clust_7="13000.00000" pt_clust_8="13000.00000" pt_clust_9="29.00761"></scales>
<clustering>
<clus scale="   29.008">  2  9  1 -1</clus>
<clus scale="   81.106">  5  6 -1 -1</clus>
<clus scale="   91.370">  7  8 -1 -1</clus>
<clus scale="   94.578">  2  5  1 -1</clus>
<clus scale="   29.008">  2  5  1 -1</clus>
</clustering>
</event>
<event>
 9    2  0.4653788E-005  0.1064567E+03  0.7546771E-02  0.1270008E+00
         21   -1    0    0  501  502  0.00000000000E+00  0.00000000000E+00  0.58115582307E+02  0.58115582307E+02  0.00000000000E+00 0. -1.
         -3   -1    0    0    0  501 -0.00000000000E+00 -0.00000000000E+00 -0.33871877058E+03  0.33871877058E+03  0.00000000000E+00 0.  1.
         24    2    1    2    0    0  0.11869349405E+02  0.60465411974E+02 -0.23660683876E+03  0.25748041563E+03  0.80724350637E+02 0.  0.
         23    2    1    2    0    0  0.13504017384E+02 -0.59643762575E+02 -0.33463900965E+02  0.11186911740E+03  0.87493598973E+02 0.  0.
        -11    1    3    3    0    0  0.13189874062E+02  0.15049736248E+02 -0.39108540291E+01  0.20390245661E+02  0.00000000000E+00 0.  1.
         12    1    3    3    0    0 -0.13205246569E+01  0.45415675726E+02 -0.23269598473E+03  0.23709016997E+03  0.00000000000E+00 0. -1.
        -13    1    4    4    0    0  0.49272840498E+02 -0.48585018512E+02 -0.24125507445E+02  0.73282719273E+02  0.00000000000E+00 0. -1.
         13    1    4    4    0    0 -0.35768823114E+02 -0.11058744063E+02 -0.93383935200E+01  0.38586398131E+02  0.00000000000E+00 0.  1.
         -4    1    1    2    0  502 -0.25373366789E+02 -0.82164939848E+00 -0.10532448551E+02  0.27484819854E+02  0.00000000000E+00 0.  1.
<scales pt_clust_5="13000.00000" pt_clust_6="13000.00000" pt_clust_7="13000.00000" pt_clust_8="13000.00000" pt_clust_9="25.38667"></scales>
<clustering>
<clus scale="   25.387">  1  9  2 -1</clus>
<clus scale="   80.724">  5  6 -1 -1</clus>
<clus scale="   87.494">  7  8 -1 -1</clus>
<clus scale="  100.967">  2  5  1 -1</clus>
<clus scale="   25.387">  1  5  2 -1</clus>
</clustering>
</event>
<event>
 9    2  0.4653788E-005  0.2203594E+03  0.7546771E-02  0.1143752E+00
          2   -1    0    0  502    0 -0.00000000000E+00  0.00000000000E+00  0.12723811844E+04  0.12723811844E+04  0.00000000000E+00 0. -1.
         21   -1    0    0  501  502  0.00000000000E+00 -0.00000000000E+00 -0.19683442151E+03  0.19683442151E+03  0.00000000000E+00 0.  1.
         24    2    1    2    0    0 -0.53627088393E+02 -0.14279622211E+03 -0.10355582029E+03  0.20116156835E+03  0.80470758701E+02 0.  0.
         23    2    1    2    0    0 -0.11557022510E+03 -0.95532228127E+02  0.44307604408E+03  0.47611764659E+03  0.88818629901E+02 0.  0.
        -13    1    3    3    0    0 -0.72839900987E+02 -0.12496572350E+03 -0.77060406854E+02  0.16389139553E+03  0.00000000000E+00 0.  1.
         14    1    3    3    0    0  0.19212812594E+02 -0.17830498613E+02 -0.26495413439E+02  0.37270172817E+02  0.00000000000E+00 0. -1.
        -11    1    4    4    0    0  0.91950897084E+01 -0.32371149620E+02  0.69302509545E+02  0.77040760845E+02  0.00000000000E+00 0.  1.
         11    1    4    4    0    0 -0.12476531481E+03 -0.63161078507E+02  0.37377353453E+03  0.39907688574E+03  0.00000000000E+00 0. -1.
          1    1    1    2  501    0  0.16919731349E+03  0.23832845024E+03  0.73602653907E+03  0.79193639094E+03  0.00000000000E+00 0. -1.
<scales pt_clust_5="13000.00000" pt_clust_6="13000.00000" pt_clust_7="13000.00000" pt_clust_8="13000.00000" pt_clust_9="201.66694"></scales>
<clustering>
<clus scale="   80.471">  5  6 -1 -1</clus>
<clus scale="   88.819">  7  8 -1 -1</clus>
<clus scale="  172.459">  1  5  2 -1</clus>
<clus scale="  201.667">  2  9  1 -1</clus>
<clus scale="  201.667">  2  5  1 -1</clus>
</clustering>
</event>
<event>
 9    2  0.4653788E-005  0.1061247E+03  0.7546771E-02  0.1270837E+00
         21   -1    0    0  501  502  0.00000000000E+00  0.00000000000E+00  0.70274531530E+02  0.70274531530E+02  0.00000000000E+00 0.  1.
          2   -1    0    0  502    0 -0.00000000000E+00 -0.00000000000E+00 -0.58155175968E+03  0.58155175968E+03  0.00000000000E+00 0. -1.
         24    2    1    2    0    0  0.51331447564E+02  0.37263273536E+02 -0.45907188517E+03  0.47031257789E+03  0.80146466547E+02 0.  0.
         23    2    1    2    0    0 -0.47829890196E+02 -0.14911538839E+02 -0.91580839426E+02  0.13610126273E+03  0.87329555019E+02 0.  0.
        -13    1    3    3    0    0  0.13094577680E+02  0.53521463698E+02 -0.18248139589E+03  0.19061866353E+03  0.00000000000E+00 0.  1.
         14    1    3    3    0    0  0.38236869884E+02 -0.16258190161E+02 -0.27659048928E+03  0.27969391435E+03  0.00000000000E+00 0. -1.
        -11    1    4    4    0    0 -0.29550945234E+02 -0.23430102564E+02  0.44515650199E+01  0.37974261040E+02  0.00000000000E+00 0.  1.
         11    1    4    4    0    0 -0.18278944962E+02  0.85185637254E+01 -0.96032404446E+02  0.98127001690E+02  0.00000000000E+00 0. -1.
          1    1    1    2  501    0 -0.35015573676E+01 -0.22351734698E+02  0.39375496451E+02  0.45412450592E+02  0.00000000000E+00 0. -1.
<scales pt_clust_5="13000.00000" pt_clust_6="13000.00000" pt_clust_7="13000.00000" pt_clust_8="13000.00000" pt_clust_9="22.62434"></scales>
<clustering>
<clus scale="   22.624">  1  9  2 -1</clus>
<clus scale="   80.146">  5  6 -1 -1</clus>
<clus scale="   87.330">  7  8 -1 -1</clus>
<clus scale="  100.297">  2  5  1 -1</clus>
<clus scale="   22.624">  1  5  2 -1</clus>
</clustering>
</event>
<event>
 9    2  0.4653788E-005  0.1935548E+03  0.7546771E-02  0.1155466E+00
         21   -1    0    0  501  502  0.00000000000E+00  0.00000000000E+00  0.32861011393E+03  0.32861011393E+03  0.00000000000E+00 0. -1.
         -3   -1    0    0    0  501 -0.00000000000E+00 -0.00000000000E+00 -0.37369803721E+03  0.37369803721E+03  0.00000000000E+00 0.  1.
         23    2    1    2    0    0  0.81273210181E+02  0.15088397089E+03 -0.27543520726E+03  0.33476612111E+03  0.82658908051E+02 0.  0.
         24    2    1    2    0    0 -0.75256174907E+02 -0.18164573273E+03  0.10266578256E+03  0.23606938456E+03  0.80807347024E+02 0.  0.
        -11    1    4    4    0    0  0.11917435578E+02 -0.26451694815E+02  0.35430061458E+02  0.45793085550E+02  0.00000000000E+00 0.  1.
         12    1    4    4    0    0 -0.87173610484E+02 -0.15519403792E+03  0.67235721106E+02  0.19027629901E+03  0.00000000000E+00 0. -1.
        -11    1    3    3    0    0  0.29711341556E+02  0.60008403970E+02 -0.18441692134E+03  0.19619728143E+03  0.00000000000E+00 0.  1.
         11    1    3    3    0    0  0.51561868625E+02  0.90875566915E+02 -0.91018285926E+02  0.13856883968E+03  0.00000000000E+00 0. -1.
         -4    1    1    2    0  502 -0.60170352743E+01  0.30761761849E+02  0.12768150141E+03  0.13147264548E+03  0.00000000000E+00 0.  1.
<scales pt_clust_5="13000.00000" pt_clust_6="13000.00000" pt_clust_7="13000.00000" pt_clust_8="13000.00000" pt_clust_9="31.34471"></scales>
<clustering>
<clus scale="   31.345">  1  9  2 -1</clus>
<clus scale="   80.807">  5  6 -1 -1</clus>
<clus scale="   82.659">  7  8 -1 -1</clus>
<clus scale="  192.771">  1  5  2 -1</clus>
<clus scale="   31.345">  1  5  2 -1</clus>
</clustering>
</event>
<event>
 9    2  0.4653788E-005  0.1003420E+03  0.7546771E-02  0.1282194E+00
          2   -1    0    0  502    0 -0.00000000000E+00  0.00000000000E+00  0.25968022377E+03  0.25968022377E+03  0.00000000000E+00 0. -1.
         21   -1    0    0  501  502  0.00000000000E+00 -0.00000000000E+00 -0.22580286369E+03  0.22580286369E+03  0.00000000000E+00 0.  1.
         23    2    1    2    0    0 -0.49417862927E+02 -0.14407437072E+02  0.20242000504E+03  0.22783368419E+03  0.91019941715E+02 0.  0.
         24    2    1    2    0    0 -0.18206204461E+02 -0.52990819515E+02 -0.73970645487E+02  0.12326412668E+03  0.81135046049E+02 0.  0.
        -13    1    4    4    0    0  0.45878079819E+01 -0.46421472542E+02 -0.85111449641E+02  0.97056478171E+02  0.00000000000E+00 0.  1.
         14    1    4    4    0    0 -0.22794012443E+02 -0.65693469733E+01  0.11140804153E+02  0.26207648504E+02  0.00000000000E+00 0. -1.
        -13    1    3    3    0    0 -0.39184992947E+02  0.22871944121E+02  0.38771162774E+02  0.59680755382E+02  0.00000000000E+00 0. -1.
         13    1    3    3    0    0 -0.10232869980E+02 -0.37279381194E+02  0.16364884227E+03  0.16815292880E+03  0.00000000000E+00 0.  1.
          1    1    1    2  501    0  0.67624067388E+02  0.67398256588E+02 -0.94571999476E+02  0.13438527660E+03  0.00000000000E+00 0. -1.
<scales pt_clust_5="13000.00000" pt_clust_6="13000.00000" pt_clust_7="13000.00000" pt_clust_8="13000.00000" pt_clust_9="95.47533"></scales>
<clustering>
<clus scale="   81.135">  5  6 -1 -1</clus>
<clus scale="   91.020">  7  8 -1 -1</clus>
<clus scale="   95.475">  2  9  1 -1</clus>
<clus scale="   95.475">  2  5  1 -1</clus>
<clus scale="   95.475">  2  5  1 -1</clus>
</clustering>
</event>
<event>
 9    2  0.4653788E-005  0.9276771E+02  0.7546771E-02  0.1305864E+00
         -1   -1    0    0    0  501 -0.00000000000E+00  0.00000000000E+00  0.50744084454E+02  0.50744084454E+02  0.00000000000E+00 0.  1.
         21   -1    0    0  501  502  0.00000000000E+00 -0.00000000000E+00 -0.31770303313E+03  0.31770303313E+03  0.00000000000E+00 0.  1.
         23    2    1    2    0    0  0.64324829315E+02 -0.37237322068E+02 -0.61804008525E+02  0.11490301625E+03  0.62118160405E+02 0.  0.
         24    2    1    2    0    0 -0.15890933168E+01  0.18502413339E+02 -0.97495493127E+02  0.12753883990E+03  0.80099438110E+02 0.  0.
        -13    1    4    4    0    0  0.10254302250E+02  0.45010032092E+02 -0.83265320221E+02  0.95205920273E+02  0.00000000000E+00 0.  1.
         14    1    4    4    0    0 -0.11843395567E+02 -0.26507618753E+02 -0.14230172906E+02  0.32332919624E+02  0.00000000000E+00 0. -1.
        -11    1    3    3    0    0  0.30883007538E+02 -0.43298857527E+02 -0.11857626756E+02  0.54489948890E+02  0.00000000000E+00 0.  1.
         11    1    3    3    0    0  0.33441821777E+02  0.60615354591E+01 -0.49946381769E+02  0.60413067359E+02  0.00000000000E+00 0. -1.
         -2    1    1    2    0  502 -0.62735735998E+02  0.18734908728E+02 -0.10765944703E+03  0.12600526144E+03  0.00000000000E+00 0.  1.
<scales pt_clust_5="13000.00000" pt_clust_6="13000.00000" pt_clust_7="13000.00000" pt_clust_8="13000.00000" pt_clust_9="65.47342"></scales>
<clustering>
<clus scale="   62.118">  7  8 -1 -1</clus>
<clus scale="   65.473">  2  9  1 -1</clus>
<clus scale="   77.773">  1  7  2 -1</clus>
<clus scale="   80.099">  5  6 -1 -1</clus>
<clus scale="   65.473">  2  5  1 -1</clus>
</clustering>
</event>
<event>
 9    2  0.4653788E-005  0.1321246E+03  0.7546771E-02  0.1241692E+00
         21   -1    0    0  501  502  0.00000000000E+00  0.00000000000E+00  0.43991153085E+02  0.43991153085E+02  0.00000000000E+00 0.  1.
         -1   -1    0    0    0  501 -0.00000000000E+00 -0.00000000000E+00 -0.69607620212E+03  0.69607620212E+03  0.00000000000E+00 0.  1.
         24    2    1    2    0    0  0.16347844106E+02 -0.42089507122E+02 -0.77834839731E+02  0.12088603731E+03  0.80724179307E+02 0.  0.
         23    2    1    2    0    0  0.13722963354E+00 -0.67861116043E+02 -0.35974736532E+03  0.37757757771E+03  0.92420292332E+02 0.  0.
        -13    1    3    3    0    0  0.33998076290E+02 -0.56197999544E+02 -0.72184030432E+02  0.97594152455E+02  0.00000000000E+00 0.  1.
         14    1    3    3    0    0 -0.17650232184E+02  0.14108492421E+02 -0.56508092996E+01  0.23291884859E+02  0.00000000000E+00 0. -1.
        -13    1    4    4    0    0 -0.39771778782E+02 -0.34529229940E+02 -0.25791402694E+03  0.26323697954E+03  0.00000000000E+00 0.  1.
         13    1    4    4    0    0  0.39909008416E+02 -0.33331886102E+02 -0.10183333838E+03  0.11434059817E+03  0.00000000000E+00 0. -1.
         -2    1    1    2    0  502 -0.16485073739E+02  0.10995062317E+03 -0.21450284398E+03  0.24160374018E+03  0.00000000000E+00 0.  1.
<scales pt_clust_5="13000.00000" pt_clust_6="13000.00000" pt_clust_7="13000.00000" pt_clust_8="13000.00000" pt_clust_9="94.42143"></scales>
<clustering>
<clus scale="   80.724">  5  6 -1 -1</clus>
<clus scale="   92.420">  7  8 -1 -1</clus>
<clus scale="   92.494">  2  5  1 -1</clus>
<clus scale="   94.421">  1  9  2 -1</clus>
<clus scale="   94.421">  1  5  2 -1</clus>
</clustering>
</event>
<event>
 9    2  0.4653788E-005  0.9888418E+02  0.7546771E-02  0.1287754E+00
         21   -1    0    0  501  502  0.00000000000E+00  0.00000000000E+00  0.45062207655E+03  0.45062207655E+03  0.00000000000E+00 0.  1.
          2   -1    0    0  502    0 -0.00000000000E+00 -0.00000000000E+00 -0.52847954189E+02  0.52847954189E+02  0.00000000000E+00 0. -1.
         23    2    1    2    0    0 -0.33333767760E+02  0.19886179432E+02  0.18627394251E+03  0.21091970806E+03  0.91008468757E+02 0.  0.
         24    2    1    2    0    0  0.29527828248E+02  0.62238969901E+02  0.16978006189E+03  0.20035708230E+03  0.81068545049E+02 0.  0.
        -11    1    4    4    0    0  0.40250692191E+02  0.75147536783E+02  0.15900072819E+03  0.18041203416E+03  0.00000000000E+00 0.  1.
         12    1    4    4    0    0 -0.10722863944E+02 -0.12908566882E+02  0.10779333704E+02  0.19945048138E+02  0.00000000000E+00 0. -1.
        -11    1    3    3    0    0 -0.63173138707E+02  0.13295211115E+01  0.10812558425E+03  0.12523479967E+03  0.00000000000E+00 0.  1.
         11    1    3    3    0    0  0.29839370946E+02  0.18556658321E+02  0.78148358263E+02  0.85684908389E+02  0.00000000000E+00 0. -1.
          1    1    1    2  501    0  0.38059395124E+01 -0.82125149333E+02  0.41720117960E+02  0.92193240377E+02  0.00000000000E+00 0. -1.
<scales pt_clust_5="13000.00000" pt_clust_6="13000.00000" pt_clust_7="13000.00000" pt_clust_8="13000.00000" pt_clust_9="82.21333"></scales>
<clustering>
<clus scale="   81.069">  5  6 -1 -1</clus>
<clus scale="   82.213">  1  9  2 -1</clus>
<clus scale="   89.820">  1  5  2 -1</clus>
<clus scale="   91.008">  7  8 -1 -1</clus>
<clus scale="   82.213">  1  5  2 -1</clus>
</clustering>
</event>
<event>
 9    2  0.4653788E-005  0.1904416E+03  0.7546771E-02  0.1158926E+00
         -1   -1    0    0    0  501 -0.00000000000E+00  0.00000000000E+00  0.86450968871E+03  0.86450968871E+03  0.00000000000E+00 0.  1.
         21   -1    0    0  501  502  0.00000000000E+00 -0.00000000000E+00 -0.75795757661E+02  0.75795757661E+02  0.00000000000E+00 0. -1.
         24    2    1    2    0    0  0.56322261052E+01  0.16328580752E+03  0.48571136113E+03  0.51874339246E+03  0.80530764189E+02 0.  0.
         23    2    1    2    0    0  0.73339233108E+02 -0.17861837759E+03  0.22317343939E+03  0.30822949391E+03  0.88971169156E+02 0.  0.
        -11    1    3    3    0    0 -0.42741090903E+01  0.13929477210E+03  0.46530514038E+03  0.48572644071E+03  0.00000000000E+00 0.  1.
         12    1    3    3    0    0  0.99063351955E+01  0.23991035418E+02  0.20406220755E+02  0.33016951751E+02  0.00000000000E+00 0. -1.
        -11    1    4    4    0    0  0.93070063979E+02 -0.13459075810E+03  0.16131599313E+03  0.22978154542E+03  0.00000000000E+00 0. -1.
         11    1    4    4    0    0 -0.19730830871E+02 -0.44027619489E+02  0.61857446260E+02  0.78447948491E+02  0.00000000000E+00 0.  1.
         -2    1    1    2    0  502 -0.78971459213E+02  0.15332570076E+02  0.79829130523E+02  0.11333256000E+03  0.00000000000E+00 0.  1.
<scales pt_clust_5="13000.00000" pt_clust_6="13000.00000" pt_clust_7="13000.00000" pt_clust_8="13000.00000" pt_clust_9="80.44613"></scales>
<clustering>
<clus scale="   80.446">  2  9  1 -1</clus>
<clus scale="   80.531">  5  6 -1 -1</clus>
<clus scale="   88.971">  7  8 -1 -1</clus>
<clus scale="  186.648">  1  5  2 -1</clus>
<clus scale="   80.446">  2  5  1 -1</clus>
</clustering>
</event>
<event>
 9    2  0.4653788E-005  0.8928174E+02  0.7546771E-02  0.1308488E+00
         21   -1    0    0  501  502  0.00000000000E+00  0.00000000000E+00  0.28699900644E+02  0.28699900644E+02  0.00000000000E+00 0. -1.
          2   -1    0    0  502    0 -0.00000000000E+00 -0.00000000000E+00 -0.49627131540E+03  0.49627131540E+03  0.00000000000E+00 0. -1.
         24    2    1    2    0    0  0.27274051716E+02  0.25986190068E+02 -0.18449628024E+03  0.20426451322E+03  0.79157804195E+02 0.  0.
         23    2    1    2    0    0 -0.26479119100E+01 -0.32048878488E+01 -0.88145953663E+02  0.12291180896E+03  0.85558873831E+02 0.  0.
        -11    1    3    3    0    0  0.41546819053E+02 -0.87881547607E+00 -0.44037959176E+02  0.60549585783E+02  0.00000000000E+00 0.  1.
         12    1    3    3    0    0 -0.14272767338E+02  0.26865005544E+02 -0.14045832107E+03  0.14371492743E+03  0.00000000000E+00 0. -1.
        -11    1    4    4    0    0 -0.38175618343E+01 -0.32872387825E+02 -0.35814297135E+01  0.33286548311E+02  0.00000000000E+00 0. -1.
         11    1    4    4    0    0  0.11696499243E+01  0.29667499976E+02 -0.84564523949E+02  0.89625260650E+02  0.00000000000E+00 0.  1.
          1    1    1    2  501    0 -0.24626139806E+02 -0.22781302219E+02 -0.19492918085E+03  0.19779489387E+03  0.00000000000E+00 0. -1.
<scales pt_clust_5="13000.00000" pt_clust_6="13000.00000" pt_clust_7="13000.00000" pt_clust_8="13000.00000" pt_clust_9="33.54751"></scales>
<clustering>
<clus scale="   33.548">  1  9  2 -1</clus>
<clus scale="   79.158">  5  6 -1 -1</clus>
<clus scale="   83.168">  2  5  1 -1</clus>
<clus scale="   85.559">  7  8 -1 -1</clus>
<clus scale="   33.548">  1  5  2 -1</clus>
</clustering>
</event>
<event>
 9    2  0.4653788E-005  0.1162346E+03  0.7546771E-02  0.1252571E+00
         21   -1    0    0  501  502  0.00000000000E+00  0.00000000000E+00  0.31232731937E+02  0.31232731937E+02  0.00000000000E+00 0.  1.
         -1   -1    0    0    0  501 -0.00000000000E+00 -0.00000000000E+00 -0.82236417696E+03  0.82236417696E+03  0.00000000000E+00 0.  1.
         23    2    1    2    0    0 -0.30217443130E+02 -0.36951785068E+02 -0.27652293657E+03  0.29458682375E+03  0.89654525756E+02 0.  0.
         24    2    1    2    0    0  0.88499265909E+02  0.51341579121E+02 -0.45936725537E+03  0.47742924744E+03  0.80326416517E+02 0.  0.
        -13    1    4    4    0    0  0.91490861802E+02  0.65437148636E+02 -0.43310602820E+03  0.44747450193E+03  0.00000000000E+00 0.  1.
         14    1    4    4    0    0 -0.29915958931E+01 -0.14095569515E+02 -0.26261227166E+02  0.29954745504E+02  0.00000000000E+00 0. -1.
        -11    1    3    3    0    0 -0.14730812593E+02  0.17108748812E+02 -0.15045641950E+02  0.27130747635E+02  0.00000000000E+00 0.  1.
         11    1    3    3    0    0 -0.15486630537E+02 -0.54060533880E+02 -0.26147729462E+03  0.26745607611E+03  0.00000000000E+00 0. -1.
         -2    1    1    2    0  502 -0.58281822778E+02 -0.14389794053E+02 -0.55241253089E+02  0.81580837714E+02  0.00000000000E+00 0.  1.
<scales pt_clust_5="13000.00000" pt_clust_6="13000.00000" pt_clust_7="13000.00000" pt_clust_8="13000.00000" pt_clust_9="60.03197"></scales>
<clustering>
<clus scale="   60.032">  1  9  2 -1</clus>
<clus scale="   80.326">  5  6 -1 -1</clus>
<clus scale="   89.655">  7  8 -1 -1</clus>
<clus scale="  109.201">  1  5  2 -1</clus>
<clus scale="   60.032">  1  5  2 -1</clus>
</clustering>
</event>
<event>
 9    2  0.4653788E-005  0.1851180E+03  0.7546771E-02  0.1183275E+00
         21   -1    0    0  501  502  0.00000000000E+00  0.00000000000E+00  0.14811913102E+03  0.14811913102E+03  0.00000000000E+00 0. -1.
          2   -1    0    0  502    0 -0.00000000000E+00 -0.00000000000E+00 -0.62306664515E+03  0.62306664515E+03  0.00000000000E+00 0. -1.
         24    2    1    2    0    0  0.82920405377E+02  0.69660387242E+00  0.16727123266E+02  0.11774698295E+03  0.81904068618E+02 0.  0.
         23    2    1    2    0    0  0.13761377702E+03 -0.33733404868E+02 -0.83412387780E+02  0.18824547826E+03  0.91669184676E+02 0.  0.
        -11    1    3    3    0    0  0.49435859958E+01  0.26734453585E+02 -0.13247764599E+02  0.30243566553E+02  0.00000000000E+00 0.  1.
         12    1    3    3    0    0  0.77976819381E+02 -0.26037849713E+02  0.29974887866E+02  0.87503416396E+02  0.00000000000E+00 0. -1.
        -11    1    4    4    0    0  0.10685455699E+03  0.17245169233E+02 -0.43974452706E+02  0.11682912609E+03  0.00000000000E+00 0. -1.
         11    1    4    4    0    0  0.30759220027E+02 -0.50978574100E+02 -0.39437935075E+02  0.71416352168E+02  0.00000000000E+00 0.  1.
          1    1    1    2  501    0 -0.22053418240E+03  0.33036800995E+02 -0.40826224962E+03  0.46519331496E+03  0.00000000000E+00 0. -1.
<scales pt_clust_5="13000.00000" pt_clust_6="13000.00000" pt_clust_7="13000.00000" pt_clust_8="13000.00000" pt_clust_9="160.82746"></scales>
<clustering>
<clus scale="   81.904">  5  6 -1 -1</clus>
<clus scale="   91.669">  7  8 -1 -1</clus>
<clus scale="  116.553">  2  5  1 -1</clus>
<clus scale="  160.827">  1  9  2 -1</clus>
<clus scale="  160.827">  1  5  2 -1</clus>
</clustering>
</event>
<event>
 9    2  0.4653788E-005  0.1156258E+03  0.7546771E-02  0.1255819E+00
         21   -1    0    0  501  502  0.00000000000E+00  0.00000000000E+00  0.41350323816E+02  0.41350323816E+02  0.00000000000E+00 0.  1.
          2   -1    0    0  502    0 -0.00000000000E+00 -0.00000000000E+00 -0.51997044856E+03  0.51997044856E+03  0.00000000000E+00 0. -1.
         23    2    1    2    0    0 -0.43382403348E+02 -0.55435399155E+02 -0.36980663890E+03  0.38796428137E+03  0.93830789461E+02 0.  0.
         24    2    1    2    0    0  0.14790868237E+02  0.61579896427E+02 -0.63962841966E+02  0.11981388196E+03  0.79077605744E+02 0.  0.
        -13    1    4    4    0    0  0.14726556949E+02  0.75521816459E+02 -0.29094016890E+02  0.82261036096E+02  0.00000000000E+00 0.  1.
         14    1    4    4    0    0  0.64311287952E-01 -0.13941920032E+02 -0.34868825076E+02  0.37552845861E+02  0.00000000000E+00 0. -1.
        -11    1    3    3    0    0 -0.64767701271E+02 -0.14063573553E+02 -0.16260815134E+03  0.17559627021E+03  0.00000000000E+00 0.  1.
         11    1    3    3    0    0  0.21385297923E+02 -0.41371825602E+02 -0.20719848755E+03  0.21236801116E+03  0.00000000000E+00 0. -1.
          1    1    1    2  501    0  0.28591535111E+02 -0.61444972724E+01 -0.44850643885E+02  0.53542609048E+02  0.00000000000E+00 0. -1.
<scales pt_clust_5="13000.00000" pt_clust_6="13000.00000" pt_clust_7="13000.00000" pt_clust_8="13000.00000" pt_clust_9="29.24433"></scales>
<clustering>
<clus scale="   29.244">  1  9  2 -1</clus>
<clus scale="   79.078">  5  6 -1 -1</clus>
<clus scale="   93.831">  7  8 -1 -1</clus>
<clus scale="  104.011">  1  5  2 -1</clus>
<clus scale="   29.244">  1  5  2 -1</clus>
</clustering>
</event>
<event>
 9    2  0.4653788E-005  0.1168242E+03  0.7546771E-02  0.1260513E+00
         21   -1    0    0  501  502  0.00000000000E+00  0.00000000000E+00  0.26969398644E+02  0.26969398644E+02  0.00000000000E+00 0.  1.
          2   -1    0    0  502    0 -0.00000000000E+00 -0.00000000000E+00 -0.59189704989E+03  0.59189704989E+03  0.00000000000E+00 0. -1.
         24    2    1    2    0    0  0.40630558339E+02 -0.12792496227E+02 -0.28068804697E+03  0.29506337549E+03  0.80387347333E+02 0.  0.
         23    2    1    2    0    0 -0.37560117105E+02  0.34297045742E+02 -0.27576293594E+03  0.30048511505E+03  0.10797711693E+03 0.  0.
        -11    1    3    3    0    0  0.62458491275E+01  0.32877062853E+02 -0.11629873116E+03  0.12101779523E+03  0.00000000000E+00 0.  1.
         12    1    3    3    0    0  0.34384709211E+02 -0.45669559080E+02 -0.16438931581E+03  0.17404558026E+03  0.00000000000E+00 0. -1.
        -13    1    4    4    0    0  0.21777026929E+02  0.22408982477E+02 -0.18744649969E+02  0.36438486522E+02  0.00000000000E+00 0.  1.
         13    1    4    4    0    0 -0.59337144034E+02  0.11888063265E+02 -0.25701828597E+03  0.26404662852E+03  0.00000000000E+00 0. -1.
          1    1    1    2  501    0 -0.30704412337E+01 -0.21504549515E+02 -0.84766683304E+01  0.23317957998E+02  0.00000000000E+00 0. -1.
<scales pt_clust_5="13000.00000" pt_clust_6="13000.00000" pt_clust_7="13000.00000" pt_clust_8="13000.00000" pt_clust_9="21.72264"></scales>
<clustering>
<clus scale="   21.723">  1  9  2 -1</clus>
<clus scale="   80.387">  5  6 -1 -1</clus>
<clus scale="   91.929">  2  5  1 -1</clus>
<clus scale="  107.977">  7  8 -1 -1</clus>
<clus scale="   21.723">  1  5  2 -1</clus>
</clustering>
</event>
<event>
 9    2  0.4653788E-005  0.1488797E+03  0.7546771E-02  0.1205983E+00
         21   -1    0    0  501  502  0.00000000000E+00  0.00000000000E+00  0.33537902186E+03  0.33537902186E+03  0.00000000000E+00 0.  1.
          2   -1    0    0  502    0 -0.00000000000E+00 -0.00000000000E+00 -0.22998764953E+03  0.22998764953E+03  0.00000000000E+00 0. -1.
         23    2    1    2    0    0  0.66081871741E+01 -0.11530977874E+03 -0.16088858862E+03  0.22217182935E+03  0.10067358441E+03 0.  0.
         24    2    1    2    0    0 -0.14662810395E+02  0.90139051549E+02  0.61167089151E+02  0.13638639772E+03  0.80745216986E+02 0.  0.
        -11    1    4    4    0    0 -0.44580111310E+01  0.10419061281E+03  0.55399421548E+02  0.11808748269E+03  0.00000000000E+00 0.  1.
         12    1    4    4    0    0 -0.10204799264E+02 -0.14051561258E+02  0.57676676028E+01  0.18298915033E+02  0.00000000000E+00 0. -1.
        -13    1    3    3    0    0  0.11949917471E+02 -0.49426294762E+02 -0.29230127982E+01  0.50934302246E+02  0.00000000000E+00 0.  1.
         13    1    3    3    0    0 -0.53417302971E+01 -0.65883483976E+02 -0.15796557583E+03  0.17123752711E+03  0.00000000000E+00 0. -1.
          1    1    1    2  501    0  0.80546232211E+01  0.25170727189E+02  0.20511287180E+03  0.20680844432E+03  0.00000000000E+00 0. -1.
<scales pt_clust_5="13000.00000" pt_clust_6="13000.00000" pt_clust_7="13000.00000" pt_clust_8="13000.00000" pt_clust_9="26.42806"></scales>
<clustering>
<clus scale="   26.428">  1  9  2 -1</clus>
<clus scale="   80.745">  5  6 -1 -1</clus>
<clus scale="  100.674">  7  8 -1 -1</clus>
<clus scale="  136.198">  1  5  2 -1</clus>
<clus scale="   26.428">  1  5  2 -1</clus>
</clustering>
</event>
<event>
 9    2  0.4653788E-005  0.1272051E+03  0.7546771E-02  0.1235004E+00
         21   -1    0    0  501  502  0.00000000000E+00  0.00000000000E+00  0.23859820996E+03  0.23859820996E+03  0.00000000000E+00 0.  1.
         -1   -1    0    0    0  501 -0.00000000000E+00 -0.00000000000E+00 -0.10399158450E+03  0.10399158450E+03  0.00000000000E+00 0.  1.
         23    2    1    2    0    0  0.36911782664E+02 -0.89433151241E+02  0.58806157117E+02  0.14577988748E+03  0.91830513656E+02 0.  0.
         24    2    1    2    0    0 -0.28021284146E+02  0.71327059137E+02  0.11071418371E+03  0.15648821237E+03  0.79738249313E+02 0.  0.
        -11    1    4    4    0    0  0.27645766249E+02  0.20272721902E+02  0.43446747235E+02  0.55343396084E+02  0.00000000000E+00 0.  1.
         12    1    4    4    0    0 -0.55667050395E+02  0.51054337236E+02  0.67267436479E+02  0.10114481628E+03  0.00000000000E+00 0. -1.
        -13    1    3    3    0    0  0.19192684537E+02 -0.13649339555E+02  0.63584138047E+02  0.67805650364E+02  0.00000000000E+00 0. -1.
         13    1    3    3    0    0  0.17719098127E+02 -0.75783811685E+02 -0.47779809308E+01  0.77974237115E+02  0.00000000000E+00 0.  1.
         -2    1    1    2    0  502 -0.88904985181E+01  0.18106092103E+02 -0.34913715374E+02  0.40321694612E+02  0.00000000000E+00 0.  1.
<scales pt_clust_5="13000.00000" pt_clust_6="13000.00000" pt_clust_7="13000.00000" pt_clust_8="13000.00000" pt_clust_9="20.17107"></scales>
<clustering>
<clus scale="   20.171">  1  9  2 -1</clus>
<clus scale="   79.738">  5  6 -1 -1</clus>
<clus scale="   91.831">  7  8 -1 -1</clus>
<clus scale="  118.771">  1  5  2 -1</clus>
<clus scale="   20.171">  1  5  2 -1</clus>
</clustering>
</event>
<event>
 9    2  0.4653788E-005  0.9859784E+02  0.7546771E-02  0.1291501E+00
         -1   -1    0    0    0  501 -0.00000000000E+00  0.00000000000E+00  0.15921577129E+03  0.15921577129E+03  0.00000000000E+00 0.  1.
         21   -1    0    0  501  502  0.00000000000E+00 -0.00000000000E+00 -0.13573185457E+03  0.13573185457E+03  0.00000000000E+00 0.  1.
         23    2    1    2    0    0 -0.36373239695E+02 -0.18196286799E+02  0.10041569464E+03  0.14334293766E+03  0.93860367710E+02 0.  0.
         24    2    1    2    0    0 -0.24887978920E+01 -0.12706545262E+02 -0.56638345969E+02  0.97966396141E+02  0.78878781249E+02 0.  0.
        -13    1    4    4    0    0 -0.70097425768E+01 -0.24968561045E+02 -0.72742155848E+02  0.77226852643E+02  0.00000000000E+00 0.  1.
         14    1    4    4    0    0  0.45209446849E+01  0.12262015783E+02  0.16103809879E+02  0.20739543498E+02  0.00000000000E+00 0. -1.
        -13    1    3    3    0    0  0.25421323390E+02 -0.16276292841E+02  0.64566801964E+01  0.30868270290E+02  0.00000000000E+00 0. -1.
         13    1    3    3    0    0 -0.61794563086E+02 -0.19199939586E+01  0.93959014448E+02  0.11247466737E+03  0.00000000000E+00 0.  1.
         -2    1    1    2    0  502  0.38862037587E+02  0.30902832062E+02 -0.20293431948E+02  0.53638292060E+02  0.00000000000E+00 0.  1.
<scales pt_clust_5="13000.00000" pt_clust_6="13000.00000" pt_clust_7="13000.00000" pt_clust_8="13000.00000" pt_clust_9="49.65121"></scales>
<clustering>
<clus scale="   49.651">  2  9  1 -1</clus>
<clus scale="   78.879">  5  6 -1 -1</clus>
<clus scale="   84.461">  2  5  1 -1</clus>
<clus scale="   93.860">  7  8 -1 -1</clus>
<clus scale="   49.651">  2  5  1 -1</clus>
</clustering>
</event>
<event>
 9    2  0.4653788E-005  0.9025444E+02  0.7546771E-02  0.1308189E+00
          2   -1    0    0  502    0 -0.00000000000E+00  0.00000000000E+00  0.65136656863E+03  0.65136656863E+03  0.00000000000E+00 0. -1.
         21   -1    0    0  501  502  0.00000000000E+00 -0.00000000000E+00 -0.39497244855E+02  0.39497244855E+02  0.00000000000E+00 0.  1.
         24    2    1    2    0    0 -0.12544665750E+01 -0.59766757544E+01  0.48756462392E+03  0.49421193569E+03  0.80553587994E+02 0.  0.
         23    2    1    2    0    0 -0.47079262904E+02  0.60064351030E+01  0.99802901363E+02  0.14246250227E+03  0.89902231198E+02 0.  0.
        -13    1    3    3    0    0  0.22870568580E+02  0.29072924129E+02  0.18416240554E+03  0.18784059582E+03  0.00000000000E+00 0.  1.
         14    1    3    3    0    0 -0.24125035155E+02 -0.35049599883E+02  0.30340221838E+03  0.30637133987E+03  0.00000000000E+00 0. -1.
        -11    1    4    4    0    0 -0.26014145524E+02 -0.20827293338E+02  0.10294442531E+03  0.10820381979E+03  0.00000000000E+00 0. -1.
         11    1    4    4    0    0 -0.21065117380E+02  0.26833728441E+02 -0.31415239488E+01  0.34258682477E+02  0.00000000000E+00 0.  1.
          1    1    1    2  501    0  0.48333729479E+02 -0.29759348590E-01  0.24501798498E+02  0.54189375533E+02  0.00000000000E+00 0. -1.
<scales pt_clust_5="13000.00000" pt_clust_6="13000.00000" pt_clust_7="13000.00000" pt_clust_8="13000.00000" pt_clust_9="48.33374"></scales>
<clustering>
<clus scale="   48.334">  2  9  1 -1</clus>
<clus scale="   80.554">  5  6 -1 -1</clus>
<clus scale="   80.946">  1  5  2 -1</clus>
<clus scale="   89.902">  7  8 -1 -1</clus>
<clus scale="   48.334">  2  5  1 -1</clus>
</clustering>
</event>
<event>
 9    2  0.4653788E-005  0.4161170E+03  0.7546771E-02  0.1085562E+00
         -3   -1    0    0    0  501 -0.00000000000E+00  0.00000000000E+00  0.17523976551E+03  0.17523976551E+03  0.00000000000E+00 0.  1.
         21   -1    0    0  501  502  0.00000000000E+00 -0.00000000000E+00 -0.12875618905E+04  0.12875618905E+04  0.00000000000E+00 0.  1.
         23    2    1    2    0    0 -0.25853610955E+02 -0.60844206435E+02 -0.74552769979E+02  0.13409448887E+03  0.89737337701E+02 0.  0.
         24    2    1    2    0    0  0.36193600788E+03 -0.18372582039E+03 -0.55330643181E+03  0.69037324238E+03  0.75593355768E+02 0.  0.
        -11    1    4    4    0    0  0.18877266397E+03 -0.13667728652E+03 -0.29790149073E+03  0.37823418340E+03  0.00000000000E+00 0.  1.
         12    1    4    4    0    0  0.17316334391E+03 -0.47048533864E+02 -0.25540494108E+03  0.31213905898E+03  0.00000000000E+00 0. -1.
        -13    1    3    3    0    0  0.27187315698E+02  0.26156591283E+01 -0.96696683968E+01  0.28974027929E+02  0.00000000000E+00 0.  1.
         13    1    3    3    0    0 -0.53040926653E+02 -0.63459865563E+02 -0.64883101582E+02  0.10512046094E+03  0.00000000000E+00 0. -1.
         -4    1    1    2    0  502 -0.33608239692E+03  0.24457002682E+03 -0.48446292316E+03  0.63833392473E+03  0.00000000000E+00 0.  1.
<scales pt_clust_5="13000.00000" pt_clust_6="13000.00000" pt_clust_7="13000.00000" pt_clust_8="13000.00000" pt_clust_9="409.19330"></scales>
<clustering>
<clus scale="   75.593">  5  6 -1 -1</clus>
<clus scale="   89.737">  7  8 -1 -1</clus>
<clus scale="  111.459">  1  7  2 -1</clus>
<clus scale="  409.193">  2  9  1 -1</clus>
<clus scale="  409.193">  2  5  1 -1</clus>
</clustering>
</event>
<event>
 9    2  0.4653788E-005  0.2443625E+03  0.7546771E-02  0.1117653E+00
          2   -1    0    0  502    0 -0.00000000000E+00  0.00000000000E+00  0.76516728009E+03  0.76516728009E+03  0.00000000000E+00 0. -1.
         21   -1    0    0  501  502  0.00000000000E+00 -0.00000000000E+00 -0.14396068371E+03  0.14396068371E+03  0.00000000000E+00 0.  1.
         23    2    1    2    0    0  0.52336393682E+02  0.20310984405E+03  0.43108648701E+03  0.48814862621E+03  0.91982689360E+02 0.  0.
         24    2    1    2    0    0 -0.38748980615E+02 -0.26435089340E+03  0.21650200706E+03  0.35292723663E+03  0.79382850474E+02 0.  0.
        -11    1    4    4    0    0 -0.59018826903E+01 -0.19001437897E+03  0.18645231951E+03  0.26627948454E+03  0.00000000000E+00 0.  1.
         12    1    4    4    0    0 -0.32847097925E+02 -0.74336514431E+02  0.30049687550E+02  0.86647752087E+02  0.00000000000E+00 0. -1.
        -11    1    3    3    0    0  0.45608851473E+01  0.12466398878E+03  0.32331926012E+03  0.34655050965E+03  0.00000000000E+00 0. -1.
         11    1    3    3    0    0  0.47775508535E+02  0.78445855265E+02  0.10776722688E+03  0.14159811656E+03  0.00000000000E+00 0.  1.
          1    1    1    2  501    0 -0.13587413067E+02  0.61241049352E+02 -0.26381897682E+02  0.68052100959E+02  0.00000000000E+00 0. -1.
<scales pt_clust_5="13000.00000" pt_clust_6="13000.00000" pt_clust_7="13000.00000" pt_clust_8="13000.00000" pt_clust_9="62.73025"></scales>
<clustering>
<clus scale="   62.730">  2  9  1 -1</clus>
<clus scale="   79.383">  5  6 -1 -1</clus>
<clus scale="   91.983">  7  8 -1 -1</clus>
<clus scale="  239.904">  2  5  1 -1</clus>
<clus scale="   62.730">  2  5  1 -1</clus>
</clustering>
</event>
<event>
 9    2  0.4653788E-005  0.1281235E+03  0.7546771E-02  0.1254051E+00
         21   -1    0    0  501  502  0.00000000000E+00  0.00000000000E+00  0.22159548337E+03  0.22159548337E+03  0.00000000000E+00 0. -1.
          2   -1    0    0  502    0 -0.00000000000E+00 -0.00000000000E+00 -0.12903760187E+04  0.12903760187E+04  0.00000000000E+00 0. -1.
         24    2    1    2    0    0 -0.22532807357E+02 -0.19458339867E+02 -0.66541670081E+03  0.67011010422E+03  0.73360831903E+02 0.  0.
         23    2    1    2    0    0 -0.18420481349E+02 -0.64681765596E+02 -0.60738703449E+03  0.61740161239E+03  0.87992592747E+02 0.  0.
        -13    1    3    3    0    0  0.63902025900E+01 -0.28204587249E+02 -0.10588874277E+03  0.10976684052E+03  0.00000000000E+00 0.  1.
         14    1    3    3    0    0 -0.28923009947E+02  0.87462473816E+01 -0.55952795804E+03  0.56034326370E+03  0.00000000000E+00 0. -1.
        -13    1    4    4    0    0  0.35226450343E+02 -0.33957614408E+02 -0.26839899419E+03  0.27282236430E+03  0.00000000000E+00 0.  1.
         13    1    4    4    0    0 -0.53646931691E+02 -0.30724151188E+02 -0.33898804031E+03  0.34457924810E+03  0.00000000000E+00 0. -1.
          1    1    1    2  501    0  0.40953288706E+02  0.84140105464E+02  0.20402319993E+03  0.22445978551E+03  0.00000000000E+00 0. -1.
<scales pt_clust_5="13000.00000" pt_clust_6="13000.00000" pt_clust_7="13000.00000" pt_clust_8="13000.00000" pt_clust_9="93.12861"></scales>
<clustering>
<clus scale="   73.361">  5  6 -1 -1</clus>
<clus scale="   79.172">  2  5  1 -1</clus>
<clus scale="   87.993">  7  8 -1 -1</clus>
<clus scale="   93.129">  1  9  2 -1</clus>
<clus scale="   93.129">  1  5  2 -1</clus>
</clustering>
</event>
<event>
 9    2  0.4653788E-005  0.1261503E+03  0.7546771E-02  0.1236771E+00
         21   -1    0    0  501  502  0.00000000000E+00  0.00000000000E+00  0.34238298889E+02  0.34238298889E+02  0.00000000000E+00 0.  1.
         -1   -1    0    0    0  501 -0.00000000000E+00 -0.00000000000E+00 -0.72667628642E+03  0.72667628642E+03  0.00000000000E+00 0.  1.
         23    2    1    2    0    0  0.11162152118E+03 -0.30487172577E+02 -0.39584090751E+03  0.42207701598E+03  0.89834022940E+02 0.  0.
         24    2    1    2    0    0 -0.59665667006E+02 -0.40019825128E+01 -0.14372976769E+03  0.17373963542E+03  0.77144067254E+02 0.  0.
        -13    1    4    4    0    0 -0.51010988396E+02 -0.23013927643E+02 -0.14217542613E+03  0.15279271448E+03  0.00000000000E+00 0.  1.
         14    1    4    4    0    0 -0.86546786105E+01  0.19011945130E+02 -0.15543415670E+01  0.20946920948E+02  0.00000000000E+00 0. -1.
        -13    1    3    3    0    0  0.10071208238E+03 -0.33625810372E+00 -0.20323471361E+03  0.22682016097E+03  0.00000000000E+00 0.  1.
         13    1    3    3    0    0  0.10909438797E+02 -0.30150914473E+02 -0.19260619390E+03  0.19525685501E+03  0.00000000000E+00 0. -1.
         -2    1    1    2    0  502 -0.51955854174E+02  0.34489155089E+02 -0.15286731233E+03  0.16509793391E+03  0.00000000000E+00 0.  1.
<scales pt_clust_5="13000.00000" pt_clust_6="13000.00000" pt_clust_7="13000.00000" pt_clust_8="13000.00000" pt_clust_9="62.36118"></scales>
<clustering>
<clus scale="   62.361">  1  9  2 -1</clus>
<clus scale="   77.144">  5  6 -1 -1</clus>
<clus scale="   89.834">  7  8 -1 -1</clus>
<clus scale="  117.452">  1  5  2 -1</clus>
<clus scale="   62.361">  1  5  2 -1</clus>
</clustering>
</event>
<event>
 9    2  0.4653788E-005  0.1141817E+03  0.7546771E-02  0.1258433E+00
          2   -1    0    0  502    0 -0.00000000000E+00  0.00000000000E+00  0.54120069408E+03  0.54120069408E+03  0.00000000000E+00 0. -1.
         21   -1    0    0  501  502  0.00000000000E+00 -0.00000000000E+00 -0.86856297636E+02  0.86856297636E+02  0.00000000000E+00 0.  1.
         23    2    1    2    0    0  0.47186026829E+02 -0.46481078014E+01  0.31335059401E+03  0.33058956044E+03  0.94088982723E+02 0.  0.
         24    2    1    2    0    0 -0.13429856180E+03  0.69244284331E+01  0.14076881616E+03  0.21032486990E+03  0.79603014312E+02 0.  0.
        -11    1    4    4    0    0 -0.62427005065E+01 -0.22160901767E+02  0.10331300772E+02  0.25235147164E+02  0.00000000000E+00 0.  1.
         12    1    4    4    0    0 -0.12805586129E+03  0.29085330200E+02  0.13043751538E+03  0.18508972274E+03  0.00000000000E+00 0. -1.
        -11    1    3    3    0    0  0.35691535533E+02  0.38973634532E+02  0.10667139719E+03  0.11904460036E+03  0.00000000000E+00 0.  1.
         11    1    3    3    0    0  0.11494491297E+02 -0.43621742334E+02  0.20667919682E+03  0.21154496007E+03  0.00000000000E+00 0. -1.
          1    1    1    2  501    0  0.87112534971E+02 -0.22763206317E+01  0.22498628105E+00  0.87142561378E+02  0.00000000000E+00 0. -1.
<scales pt_clust_5="13000.00000" pt_clust_6="13000.00000" pt_clust_7="13000.00000" pt_clust_8="13000.00000" pt_clust_9="87.14227"></scales>
<clustering>
<clus scale="   79.603">  5  6 -1 -1</clus>
<clus scale="   87.142">  2  9  1 -1</clus>
<clus scale="   94.089">  7  8 -1 -1</clus>
<clus scale="  102.574">  2  5  1 -1</clus>
<clus scale="   87.142">  2  5  1 -1</clus>
</clustering>
</event>
<event>
 9    2  0.4653788E-005  0.1036906E+03  0.7546771E-02  0.1278523E+00
         21   -1    0    0  501  502  0.00000000000E+00  0.00000000000E+00  0.22411511112E+03  0.22411511112E+03  0.00000000000E+00 0. -1.
          2   -1    0    0  502    0 -0.00000000000E+00 -0.00000000000E+00 -0.45477497925E+03  0.45477497925E+03  0.00000000000E+00 0. -1.
         24    2    1    2    0    0 -0.50559134691E+02 -0.24168374555E+01 -0.27445370533E+03  0.29041536492E+03  0.80337915122E+02 0.  0.
         23    2    1    2    0    0  0.13061322840E+02  0.78121531350E+02 -0.14031786157E+03  0.18590522084E+03  0.92725816499E+02 0.  0.
        -11    1    3    3    0    0 -0.25074980393E+02 -0.38079608214E+02 -0.18843658025E+03  0.19387407248E+03  0.00000000000E+00 0.  1.
         12    1    3    3    0    0 -0.25484154298E+02  0.35662770758E+02 -0.86017125089E+02  0.96541292445E+02  0.00000000000E+00 0. -1.
        -11    1    4    4    0    0 -0.40145329030E+02  0.29422828373E+02 -0.54740538434E+02  0.73985652802E+02  0.00000000000E+00 0. -1.
         11    1    4    4    0    0  0.53206651871E+02  0.48698702977E+02 -0.85577323131E+02  0.11191956804E+03  0.00000000000E+00 0.  1.
          1    1    1    2  501    0  0.37497811851E+02 -0.75704693894E+02  0.18411169877E+03  0.20256950460E+03  0.00000000000E+00 0. -1.
<scales pt_clust_5="13000.00000" pt_clust_6="13000.00000" pt_clust_7="13000.00000" pt_clust_8="13000.00000" pt_clust_9="84.48246"></scales>
<clustering>
<clus scale="   80.338">  5  6 -1 -1</clus>
<clus scale="   84.482">  1  9  2 -1</clus>
<clus scale="   92.726">  7  8 -1 -1</clus>
<clus scale="   92.778">  2  5  1 -1</clus>
<clus scale="   84.482">  1  5  2 -1</clus>
</clustering>
</event>
<event>
 9    2  0.4653788E-005  0.1002532E+03  0.7546771E-02  0.1285925E+00
         -1   -1    0    0    0  501 -0.00000000000E+00  0.00000000000E+00  0.33544433798E+03  0.33544433798E+03  0.00000000000E+00 0.  1.
         21   -1    0    0  501  502  0.00000000000E+00 -0.00000000000E+00 -0.66910883615E+02  0.66910883615E+02  0.00000000000E+00 0.  1.
         24    2    1    2    0    0 -0.30291888014E+02  0.29861202838E+02  0.23295245451E+03  0.25032313702E+03  0.81151321322E+02 0.  0.
         23    2    1    2    0    0  0.31338181140E+02  0.17948167275E+02  0.26368930985E+02  0.10333205570E+03  0.93155648824E+02 0.  0.
        -13    1    3    3    0    0  0.32447074306E+01  0.47729417489E+02  0.84683007470E+02  0.97261694281E+02  0.00000000000E+00 0.  1.
         14    1    3    3    0    0 -0.33536595444E+02 -0.17868214651E+02  0.14826944704E+03  0.15306144274E+03  0.00000000000E+00 0. -1.
        -11    1    4    4    0    0  0.39621419806E+02  0.51258879580E+02  0.10961622768E+02  0.65707585688E+02  0.00000000000E+00 0.  1.
         11    1    4    4    0    0 -0.82832386658E+01 -0.33310712305E+02  0.15407308217E+02  0.37624470010E+02  0.00000000000E+00 0. -1.
         -2    1    1    2    0  502 -0.10462931261E+01 -0.47809370113E+02  0.92120688754E+01  0.48700028880E+02  0.00000000000E+00 0.  1.
<scales pt_clust_5="13000.00000" pt_clust_6="13000.00000" pt_clust_7="13000.00000" pt_clust_8="13000.00000" pt_clust_9="47.82082"></scales>
<clustering>
<clus scale="   47.821">  2  9  1 -1</clus>
<clus scale="   81.151">  5  6 -1 -1</clus>
<clus scale="   89.209">  1  5  2 -1</clus>
<clus scale="   93.156">  7  8 -1 -1</clus>
<clus scale="   47.821">  2  5  1 -1</clus>
</clustering>
</event>
<event>
 9    2  0.4653788E-005  0.1423044E+03  0.7546771E-02  0.1212359E+00
         21   -1    0    0  501  502  0.00000000000E+00  0.00000000000E+00  0.38547070853E+03  0.38547070853E+03  0.00000000000E+00 0.  1.
          2   -1    0    0  502    0 -0.00000000000E+00 -0.00000000000E+00 -0.20151978746E+03  0.20151978746E+03  0.00000000000E+00 0. -1.
         23    2    1    2    0    0 -0.10952697920E+03 -0.32887740666E+02 -0.15527417864E+03  0.21286097606E+03  0.90121928061E+02 0.  0.
         24    2    1    2    0    0  0.64605900912E+02  0.43095024043E+02  0.22969868385E+03  0.25530979228E+03  0.79940610067E+02 0.  0.
        -11    1    4    4    0    0  0.37994649754E+02  0.25498961663E+02  0.21564947092E+03  0.22045064020E+03  0.00000000000E+00 0.  1.
         12    1    4    4    0    0  0.26611251158E+02  0.17596062380E+02  0.14049212933E+02  0.34859152077E+02  0.00000000000E+00 0. -1.
        -11    1    3    3    0    0 -0.10378658194E+03 -0.58626307486E+02 -0.12879153967E+03  0.17548777510E+03  0.00000000000E+00 0. -1.
         11    1    3    3    0    0 -0.57403972536E+01  0.25738566820E+02 -0.26482638975E+02  0.37373200955E+02  0.00000000000E+00 0.  1.
          1    1    1    2  501    0  0.44921078285E+02 -0.10207283377E+02  0.10952641586E+03  0.11881972765E+03  0.00000000000E+00 0. -1.
<scales pt_clust_5="13000.00000" pt_clust_6="13000.00000" pt_clust_7="13000.00000" pt_clust_8="13000.00000" pt_clust_9="46.06617"></scales>
<clustering>
<clus scale="   46.066">  1  9  2 -1</clus>
<clus scale="   79.941">  5  6 -1 -1</clus>
<clus scale="   90.122">  7  8 -1 -1</clus>
<clus scale="  136.085">  1  5  2 -1</clus>
<clus scale="   46.066">  1  5  2 -1</clus>
</clustering>
</event>
<event>
 9    2  0.4653788E-005  0.1883903E+03  0.7546771E-02  0.1160761E+00
         21   -1    0    0  501  502  0.00000000000E+00  0.00000000000E+00  0.17191243019E+03  0.17191243019E+03  0.00000000000E+00 0.  1.
          4   -1    0    0  502    0 -0.00000000000E+00 -0.00000000000E+00 -0.37334878188E+03  0.37334878188E+03  0.00000000000E+00 0. -1.
         24    2    1    2    0    0 -0.12140751545E+03  0.11593448331E+03 -0.13581126247E+03  0.23049328387E+03  0.80634147018E+02 0.  0.
         23    2    1    2    0    0  0.17954257794E+03 -0.31303452055E+02 -0.62320618022E+02  0.21204005236E+03  0.88666120764E+02 0.  0.
        -13    1    3    3    0    0 -0.49408873752E+02  0.97171519839E+02 -0.60711562145E+02  0.12477754145E+03  0.00000000000E+00 0.  1.
         14    1    3    3    0    0 -0.71998641701E+02  0.18762963472E+02 -0.75099700329E+02  0.10571574242E+03  0.00000000000E+00 0. -1.
        -11    1    4    4    0    0  0.44205916019E+02  0.65101327042E+01 -0.55640779283E+02  0.71361342183E+02  0.00000000000E+00 0. -1.
         11    1    4    4    0    0  0.13533666192E+03 -0.37813584759E+02 -0.66798387389E+01  0.14067871018E+03  0.00000000000E+00 0.  1.
          3    1    1    2  501    0 -0.58135062489E+02 -0.84631031257E+02 -0.33044711922E+01  0.10272787583E+03  0.00000000000E+00 0. -1.
<scales pt_clust_5="13000.00000" pt_clust_6="13000.00000" pt_clust_7="13000.00000" pt_clust_8="13000.00000" pt_clust_9="102.67471"></scales>
<clustering>
<clus scale="   80.634">  5  6 -1 -1</clus>
<clus scale="   88.666">  7  8 -1 -1</clus>
<clus scale="  102.675">  1  9  2 -1</clus>
<clus scale="  184.746">  2  5  1 -1</clus>
<clus scale="  102.675">  1  5  2 -1</clus>
</clustering>
</event>
<event>
 9    2  0.4653788E-005  0.1576205E+03  0.7546771E-02  0.1193427E+00
         21   -1    0    0  501  502  0.00000000000E+00  0.00000000000E+00  0.49215279705E+02  0.49215279705E+02  0.00000000000E+00 0. -1.
          2   -1    0    0  502    0 -0.00000000000E+00 -0.00000000000E+00 -0.87980273224E+03  0.87980273224E+03  0.00000000000E+00 0. -1.
         24    2    1    2    0    0  0.37527505681E+02  0.12542003578E+03 -0.62327949716E+03  0.64185724049E+03  0.79780238992E+02 0.  0.
         23    2    1    2    0    0 -0.49438326650E+02 -0.10561515465E+03 -0.10413936453E+03  0.18143537664E+03  0.92060195608E+02 0.  0.
        -13    1    3    3    0    0  0.42265658404E+02  0.22650538943E+02 -0.14814791976E+03  0.15571524949E+03  0.00000000000E+00 0.  1.
         14    1    3    3    0    0 -0.47381527233E+01  0.10276949684E+03 -0.47513157741E+03  0.48614199101E+03  0.00000000000E+00 0. -1.
        -11    1    4    4    0    0 -0.73132038540E+02 -0.74068408872E+02 -0.52880003883E+02  0.11675067051E+03  0.00000000000E+00 0. -1.
         11    1    4    4    0    0  0.23693711890E+02 -0.31546745783E+02 -0.51259360647E+02  0.64684706125E+02  0.00000000000E+00 0.  1.
          1    1    1    2  501    0  0.11910820969E+02 -0.19804881127E+02 -0.10316859085E+03  0.10572539482E+03  0.00000000000E+00 0. -1.
<scales pt_clust_5="13000.00000" pt_clust_6="13000.00000" pt_clust_7="13000.00000" pt_clust_8="13000.00000" pt_clust_9="23.11064"></scales>
<clustering>
<clus scale="   23.111">  1  9  2 -1</clus>
<clus scale="   79.780">  5  6 -1 -1</clus>
<clus scale="   92.060">  7  8 -1 -1</clus>
<clus scale="  150.778">  2  5  1 -1</clus>
<clus scale="   23.111">  1  5  2 -1</clus>
</clustering>
</event>
<event>
 9    2  0.4653788E-005  0.9340457E+02  0.7546771E-02  0.1299353E+00
         21   -1    0    0  501  502  0.00000000000E+00  0.00000000000E+00  0.28956400702E+03  0.28956400702E+03  0.00000000000E+00 0. -1.
          2   -1    0    0  502    0 -0.00000000000E+00 -0.00000000000E+00 -0.19983915309E+03  0.19983915309E+03  0.00000000000E+00 0. -1.
         24    2    1    2    0    0  0.27285871979E+01  0.19330555076E+02 -0.14833518717E+03  0.17071225016E+03  0.82208448802E+02 0.  0.
         23    2    1    2    0    0 -0.32481536444E+02 -0.60416168942E+02  0.49721063135E+02  0.12364005434E+03  0.90052846918E+02 0.  0.
        -11    1    3    3    0    0  0.92364021575E+01  0.39427144571E+02 -0.14341553828E+03  0.14902290923E+03  0.00000000000E+00 0.  1.
         12    1    3    3    0    0 -0.65078149597E+01 -0.20096589495E+02 -0.49196488864E+01  0.21689340932E+02  0.00000000000E+00 0. -1.
        -13    1    4    4    0    0 -0.48303540159E+02 -0.21897671667E+02 -0.67638814978E+01  0.53464849286E+02  0.00000000000E+00 0.  1.
         13    1    4    4    0    0  0.15822003715E+02 -0.38518497275E+02  0.56484944633E+02  0.70175205052E+02  0.00000000000E+00 0. -1.
          1    1    1    2  501    0  0.29752949246E+02  0.41085613866E+02  0.18833897796E+03  0.19505085561E+03  0.00000000000E+00 0. -1.
<scales pt_clust_5="13000.00000" pt_clust_6="13000.00000" pt_clust_7="13000.00000" pt_clust_8="13000.00000" pt_clust_9="50.72737"></scales>
<clustering>
<clus scale="   50.727">  1  9  2 -1</clus>
<clus scale="   82.208">  5  6 -1 -1</clus>
<clus scale="   85.867">  2  5  1 -1</clus>
<clus scale="   90.053">  7  8 -1 -1</clus>
<clus scale="   50.727">  1  5  2 -1</clus>
</clustering>
</event>
<event>
 9    2  0.4653788E-005  0.9860772E+02  0.7546771E-02  0.1290583E+00
         21   -1    0    0  501  502  0.00000000000E+00  0.00000000000E+00  0.91227190300E+03  0.91227190300E+03  0.00000000000E+00 0.  1.
         -3   -1    0    0    0  501 -0.00000000000E+00 -0.00000000000E+00 -0.14741004859E+02  0.14741004859E+02  0.00000000000E+00 0.  1.
         23    2    1    2    0    0 -0.72811346403E+01 -0.24963489731E+02  0.28768566817E+03  0.30288266689E+03  0.91097066315E+02 0.  0.
         24    2    1    2    0    0  0.30726531400E+02  0.49719409304E+02  0.49296103135E+03  0.50237450980E+03  0.77158475115E+02 0.  0.
        -11    1    4    4    0    0  0.50526152506E+02  0.88875971973E+01  0.27379257547E+03  0.27855745522E+03  0.00000000000E+00 0.  1.
         12    1    4    4    0    0 -0.19799621107E+02  0.40831812106E+02  0.21916845587E+03  0.22381705459E+03  0.00000000000E+00 0. -1.
        -11    1    3    3    0    0 -0.75967775826E+00  0.21916578198E+02  0.16104545521E+02  0.27207901364E+02  0.00000000000E+00 0.  1.
         11    1    3    3    0    0 -0.65214568820E+01 -0.46880067929E+02  0.27158112264E+03  0.27567476552E+03  0.00000000000E+00 0. -1.
         -4    1    1    2    0  502 -0.23445396759E+02 -0.24755919573E+02  0.11688419862E+03  0.12175573116E+03  0.00000000000E+00 0.  1.
<scales pt_clust_5="13000.00000" pt_clust_6="13000.00000" pt_clust_7="13000.00000" pt_clust_8="13000.00000" pt_clust_9="34.09609"></scales>
<clustering>
<clus scale="   34.096">  1  9  2 -1</clus>
<clus scale="   77.158">  5  6 -1 -1</clus>
<clus scale="   85.897">  1  5  2 -1</clus>
<clus scale="   91.097">  7  8 -1 -1</clus>
<clus scale="   34.096">  1  5  2 -1</clus>
</clustering>
</event>
<event>
 9    2  0.4653788E-005  0.1366047E+03  0.7546771E-02  0.1235741E+00
         21   -1    0    0  501  502  0.00000000000E+00  0.00000000000E+00  0.25020183296E+03  0.25020183296E+03  0.00000000000E+00 0. -1.
          2   -1    0    0  502    0 -0.00000000000E+00 -0.00000000000E+00 -0.14383239406E+03  0.14383239406E+03  0.00000000000E+00 0. -1.
         23    2    1    2    0    0  0.21875659060E+02 -0.92864209240E+01 -0.66398365782E+01  0.94698159439E+02  0.91426866393E+02 0.  0.
         24    2    1    2    0    0 -0.10478698581E+03  0.75936304420E+02  0.10516353080E+02  0.15161574326E+03  0.78294988338E+02 0.  0.
        -11    1    4    4    0    0 -0.11620435082E+02  0.54290206165E+02  0.14491200598E+01  0.55538823771E+02  0.00000000000E+00 0.  1.
         12    1    4    4    0    0 -0.93166550729E+02  0.21646098255E+02  0.90672330205E+01  0.96076919492E+02  0.00000000000E+00 0. -1.
        -11    1    3    3    0    0  0.47407382889E+02  0.15516963882E+01  0.24175466275E+02  0.53238340355E+02  0.00000000000E+00 0.  1.
         11    1    3    3    0    0 -0.25531723830E+02 -0.10838117312E+02 -0.30815302853E+02  0.41459819084E+02  0.00000000000E+00 0. -1.
          1    1    1    2  501    0  0.82911326751E+02 -0.66649883496E+02  0.10249292241E+03  0.14772032432E+03  0.00000000000E+00 0. -1.
<scales pt_clust_5="13000.00000" pt_clust_6="13000.00000" pt_clust_7="13000.00000" pt_clust_8="13000.00000" pt_clust_9="111.94082"></scales>
<clustering>
<clus scale="   78.295">  5  6 -1 -1</clus>
<clus scale="   91.427">  7  8 -1 -1</clus>
<clus scale="   94.465">  2  7  1 -1</clus>
<clus scale="  111.941">  1  9  2 -1</clus>
<clus scale="  111.941">  1  5  2 -1</clus>
</clustering>
</event>
<event>
 9    2  0.4653788E-005  0.9611891E+02  0.7546771E-02  0.1292487E+00
         21   -1    0    0  501  502  0.00000000000E+00  0.00000000000E+00  0.25658795020E+02  0.25658795020E+02  0.00000000000E+00 0. -1.
          2   -1    0    0  502    0 -0.00000000000E+00 -0.00000000000E+00 -0.98970453769E+03  0.98970453769E+03  0.00000000000E+00 0. -1.
         24    2    1    2    0    0 -0.21257923339E+02 -0.25795086136E+02 -0.39780449335E+03  0.40740279563E+03  0.81310129660E+02 0.  0.
         23    2    1    2    0    0 -0.36769701053E+02  0.50070647798E+02 -0.51668254255E+03  0.52788199125E+03  0.88540760194E+02 0.  0.
        -13    1    3    3    0    0 -0.16121815700E+02  0.27011400459E+02 -0.97540679086E+02  0.10248762253E+03  0.00000000000E+00 0.  1.
         14    1    3    3    0    0 -0.51361076386E+01 -0.52806486595E+02 -0.30026381426E+03  0.30491517309E+03  0.00000000000E+00 0. -1.
        -13    1    4    4    0    0  0.23541529947E+02  0.40848982613E+02 -0.22433468066E+03  0.22923545092E+03  0.00000000000E+00 0.  1.
         13    1    4    4    0    0 -0.60311231000E+02  0.92216651848E+01 -0.29234786190E+03  0.29864654033E+03  0.00000000000E+00 0. -1.
          1    1    1    2  501    0  0.58027624392E+02 -0.24275561662E+02 -0.49558706772E+02  0.80078545837E+02  0.00000000000E+00 0. -1.
<scales pt_clust_5="13000.00000" pt_clust_6="13000.00000" pt_clust_7="13000.00000" pt_clust_8="13000.00000" pt_clust_9="62.90078"></scales>
<clustering>
<clus scale="   62.901">  1  9  2 -1</clus>
<clus scale="   81.310">  5  6 -1 -1</clus>
<clus scale="   88.541">  7  8 -1 -1</clus>
<clus scale="   89.503">  2  5  1 -1</clus>
<clus scale="   62.901">  1  5  2 -1</clus>
</clustering>
</event>
<event>
 9    2  0.4653788E-005  0.1032330E+03  0.7546771E-02  0.1278585E+00
         21   -1    0    0  501  502  0.00000000000E+00  0.00000000000E+00  0.52392372644E+02  0.52392372644E+02  0.00000000000E+00 0.  1.
          2   -1    0    0  502    0 -0.00000000000E+00 -0.00000000000E+00 -0.32508229131E+03  0.32508229131E+03  0.00000000000E+00 0. -1.
         24    2    1    2    0    0  0.52999349729E+02 -0.13760951600E+02 -0.22822316945E+03  0.24795903106E+03  0.79997319646E+02 0.  0.
         23    2    1    2    0    0 -0.27272364160E+02  0.12606089616E+02 -0.31353813114E+02  0.10061648782E+03  0.90762991809E+02 0.  0.
        -13    1    3    3    0    0  0.43674743660E+02  0.21740558435E+02 -0.18464861991E+03  0.19098494168E+03  0.00000000000E+00 0.  1.
         14    1    3    3    0    0  0.93246060693E+01 -0.35501510034E+02 -0.43574549546E+02  0.56974089385E+02  0.00000000000E+00 0. -1.
        -13    1    4    4    0    0  0.11625504123E+02 -0.18954690828E+02 -0.43695020223E+02  0.49027415216E+02  0.00000000000E+00 0. -1.
         13    1    4    4    0    0 -0.38897868283E+02  0.31560780444E+02  0.12341207110E+02  0.51589072604E+02  0.00000000000E+00 0.  1.
          1    1    1    2  501    0 -0.25726985569E+02  0.11548619834E+01 -0.13112936102E+02  0.28899145072E+02  0.00000000000E+00 0. -1.
<scales pt_clust_5="13000.00000" pt_clust_6="13000.00000" pt_clust_7="13000.00000" pt_clust_8="13000.00000" pt_clust_9="25.75289"></scales>
<clustering>
<clus scale="   25.753">  1  9  2 -1</clus>
<clus scale="   79.997">  5  6 -1 -1</clus>
<clus scale="   90.763">  7  8 -1 -1</clus>
<clus scale="   93.908">  2  5  1 -1</clus>
<clus scale="   25.753">  1  5  2 -1</clus>
</clustering>
</event>
<event>
 9    2  0.4653788E-005  0.1036686E+03  0.7546771E-02  0.1273370E+00
          4   -1    0    0  502    0 -0.00000000000E+00  0.00000000000E+00  0.75366797368E+02  0.75366797368E+02  0.00000000000E+00 0. -1.
         21   -1    0    0  501  502  0.00000000000E+00 -0.00000000000E+00 -0.19645359114E+03  0.19645359114E+03  0.00000000000E+00 0. -1.
         23    2    1    2    0    0 -0.41574891197E+02 -0.57308695405E+01 -0.20644246608E+02  0.10265032795E+03  0.91376093513E+02 0.  0.
         24    2    1    2    0    0  0.56097387177E+02  0.23319165166E+02 -0.63631077498E+02  0.12586491847E+03  0.90013128856E+02 0.  0.
        -11    1    4    4    0    0  0.55656389465E+02 -0.16790366949E+02 -0.63033782681E+02  0.85748515262E+02  0.00000000000E+00 0.  1.
         12    1    4    4    0    0  0.44099771219E+00  0.40109532115E+02 -0.59729481733E+00  0.40116403211E+02  0.00000000000E+00 0. -1.
        -11    1    3    3    0    0  0.17887738531E+02  0.26249656118E+02  0.90443255680E+00  0.31777879638E+02  0.00000000000E+00 0. -1.
         11    1    3    3    0    0 -0.59462629728E+02 -0.31980525658E+02 -0.21548679165E+02  0.70872448309E+02  0.00000000000E+00 0.  1.
          3    1    1    2  501    0 -0.14522495980E+02 -0.17588295625E+02 -0.36811469669E+02  0.43305142093E+02  0.00000000000E+00 0. -1.
<scales pt_clust_5="13000.00000" pt_clust_6="13000.00000" pt_clust_7="13000.00000" pt_clust_8="13000.00000" pt_clust_9="22.80901"></scales>
<clustering>
<clus scale="   22.809">  2  9  1 -1</clus>
<clus scale="   90.013">  5  6 -1 -1</clus>
<clus scale="   91.376">  7  8 -1 -1</clus>
<clus scale="  102.469">  2  5  1 -1</clus>
<clus scale="   22.809">  2  5  1 -1</clus>
</clustering>
</event>
<event>
 9    2  0.4653788E-005  0.2234731E+03  0.7546771E-02  0.1132119E+00
         21   -1    0    0  501  502  0.00000000000E+00  0.00000000000E+00  0.56350469752E+02  0.56350469752E+02  0.00000000000E+00 0. -1.
          2   -1    0    0  502    0 -0.00000000000E+00 -0.00000000000E+00 -0.12124423451E+04  0.12124423451E+04  0.00000000000E+00 0. -1.
         24    2    1    2    0    0 -0.94967880392E+02  0.16928671727E+03 -0.63241810643E+03  0.66635639779E+03  0.80008103212E+02 0.  0.
         23    2    1    2    0    0  0.11948179162E+03 -0.19206754435E+03 -0.35648895398E+03  0.43193521392E+03  0.91202053700E+02 0.  0.
        -13    1    3    3    0    0  0.10105145538E+02  0.39310327233E+02 -0.89035406764E+02  0.97850495406E+02  0.00000000000E+00 0.  1.
         14    1    3    3    0    0 -0.10507302593E+03  0.12997639004E+03 -0.54338269966E+03  0.56850590238E+03  0.00000000000E+00 0. -1.
        -13    1    4    4    0    0  0.36615494944E+02 -0.31238537671E+02 -0.14932619814E+03  0.15689121759E+03  0.00000000000E+00 0.  1.
         13    1    4    4    0    0  0.82866296672E+02 -0.16082900668E+03 -0.20716275584E+03  0.27504399634E+03  0.00000000000E+00 0. -1.
          1    1    1    2  501    0 -0.24513911224E+02  0.22780827078E+02 -0.16718481498E+03  0.17050120318E+03  0.00000000000E+00 0. -1.
<scales pt_clust_5="13000.00000" pt_clust_6="13000.00000" pt_clust_7="13000.00000" pt_clust_8="13000.00000" pt_clust_9="33.46489"></scales>
<clustering>
<clus scale="   33.465">  1  9  2 -1</clus>
<clus scale="   80.008">  5  6 -1 -1</clus>
<clus scale="   91.202">  7  8 -1 -1</clus>
<clus scale="  219.143">  2  5  1 -1</clus>
<clus scale="   33.465">  1  5  2 -1</clus>
</clustering>
</event>
<event>
 9    2  0.4653788E-005  0.1012493E+03  0.7546771E-02  0.1282738E+00
          2   -1    0    0  502    0 -0.00000000000E+00  0.00000000000E+00  0.56825415365E+03  0.56825415365E+03  0.00000000000E+00 0. -1.
         21   -1    0    0  501  502  0.00000000000E+00 -0.00000000000E+00 -0.25651297452E+02  0.25651297452E+02  0.00000000000E+00 0. -1.
         24    2    1    2    0    0 -0.38262439780E+02  0.26611190995E+02  0.26276741951E+03  0.27875076600E+03  0.80517718584E+02 0.  0.
         23    2    1    2    0    0  0.16424497956E+02 -0.43453098333E+02  0.26464197242E+03  0.28366838804E+03  0.90963975946E+02 0.  0.
        -11    1    3    3    0    0 -0.48028970714E+02  0.39545698128E+02  0.12097715956E+03  0.13603719125E+03  0.00000000000E+00 0.  1.
         12    1    3    3    0    0  0.97665309335E+01 -0.12934507133E+02  0.14179025995E+03  0.14271357475E+03  0.00000000000E+00 0. -1.
        -11    1    4    4    0    0  0.51851739710E+02 -0.24166015253E+02  0.19467907496E+03  0.20291018070E+03  0.00000000000E+00 0.  1.
         11    1    4    4    0    0 -0.35427241754E+02 -0.19287083080E+02  0.69962897456E+02  0.80758207339E+02  0.00000000000E+00 0. -1.
          1    1    1    2  501    0  0.21837941824E+02  0.16841907338E+02  0.15193464264E+02  0.31486297055E+02  0.00000000000E+00 0. -1.
<scales pt_clust_5="13000.00000" pt_clust_6="13000.00000" pt_clust_7="13000.00000" pt_clust_8="13000.00000" pt_clust_9="27.57799"></scales>
<clustering>
<clus scale="   27.578">  2  9  1 -1</clus>
<clus scale="   80.518">  5  6 -1 -1</clus>
<clus scale="   90.964">  7  8 -1 -1</clus>
<clus scale="   91.979">  1  5  2 -1</clus>
<clus scale="   27.578">  2  5  1 -1</clus>
</clustering>
</event>
<event>
 9    2  0.4653788E-005  0.1429502E+03  0.7546771E-02  0.1221539E+00
         21   -1    0    0  501  502  0.00000000000E+00  0.00000000000E+00  0.28532611782E+02  0.28532611782E+02  0.00000000000E+00 0. -1.
          2   -1    0    0  502    0 -0.00000000000E+00 -0.00000000000E+00 -0.14701035189E+04  0.14701035189E+04  0.00000000000E+00 0. -1.
         23    2    1    2    0    0  0.16708452661E+02  0.60299505620E+02 -0.31256750535E+03  0.33155955621E+03  0.91203569800E+02 0.  0.
         24    2    1    2    0    0 -0.11663102435E+03  0.19817215672E+02 -0.35931972701E+03  0.38680984537E+03  0.80719714917E+02 0.  0.
        -11    1    4    4    0    0 -0.42370777524E+02  0.12359318376E+02 -0.42336785596E+02  0.61159128128E+02  0.00000000000E+00 0.  1.
         12    1    4    4    0    0 -0.74260246823E+02  0.74578972956E+01 -0.31698294142E+03  0.32565071724E+03  0.00000000000E+00 0. -1.
        -11    1    3    3    0    0 -0.17445536396E+02  0.68064693889E+02 -0.25180602194E+03  0.26142574850E+03  0.00000000000E+00 0.  1.
         11    1    3    3    0    0  0.34153989057E+02 -0.77651882690E+01 -0.60761483414E+02  0.70133807711E+02  0.00000000000E+00 0. -1.
          1    1    1    2  501    0  0.99922571686E+02 -0.80116721291E+02 -0.76968367475E+03  0.78026672910E+03  0.00000000000E+00 0. -1.
<scales pt_clust_5="13000.00000" pt_clust_6="13000.00000" pt_clust_7="13000.00000" pt_clust_8="13000.00000" pt_clust_9="117.97919"></scales>
<clustering>
<clus scale="   80.720">  5  6 -1 -1</clus>
<clus scale="   91.204">  7  8 -1 -1</clus>
<clus scale="  110.604">  2  7  1 -1</clus>
<clus scale="  117.979">  1  9  2 -1</clus>
<clus scale="  117.979">  1  5  2 -1</clus>
</clustering>
</event>
<event>
 9    2  0.4653788E-005  0.9646161E+02  0.7546771E-02  0.1296915E+00
         21   -1    0    0  501  502  0.00000000000E+00  0.00000000000E+00  0.32131658305E+02  0.32131658305E+02  0.00000000000E+00 0. -1.
          2   -1    0    0  502    0 -0.00000000000E+00 -0.00000000000E+00 -0.12279899075E+04  0.12279899075E+04  0.00000000000E+00 0. -1.
         24    2    1    2    0    0  0.39147409103E+02  0.35626703104E+02 -0.11311139104E+04  0.11353280313E+04  0.82153994941E+02 0.  0.
         23    2    1    2    0    0 -0.99717078553E+01 -0.22757850366E+02 -0.23289345299E+02  0.72493004813E+02  0.63995995433E+02 0.  0.
        -11    1    3    3    0    0 -0.21320417730E+02  0.88072997473E+01 -0.12997508716E+03  0.13200625752E+03  0.00000000000E+00 0.  1.
         12    1    3    3    0    0  0.60467826833E+02  0.26819403356E+02 -0.10011388232E+04  0.10033217738E+04  0.00000000000E+00 0. -1.
        -11    1    4    4    0    0  0.25951136251E+02  0.29707985614E+00 -0.94817043110E+01  0.27630643239E+02  0.00000000000E+00 0. -1.
         11    1    4    4    0    0 -0.35922844107E+02 -0.23054930223E+02 -0.13807640988E+02  0.44862361573E+02  0.00000000000E+00 0.  1.
          1    1    1    2  501    0 -0.29175701248E+02 -0.12868852737E+02 -0.41454993509E+02  0.52300529643E+02  0.00000000000E+00 0. -1.
<scales pt_clust_5="13000.00000" pt_clust_6="13000.00000" pt_clust_7="13000.00000" pt_clust_8="13000.00000" pt_clust_9="31.88775"></scales>
<clustering>
<clus scale="   31.888">  1  9  2 -1</clus>
<clus scale="   63.996">  7  8 -1 -1</clus>
<clus scale="   81.554">  1  7  2 -1</clus>
<clus scale="   82.154">  5  6 -1 -1</clus>
<clus scale="   31.888">  1  5  2 -1</clus>
</clustering>
</event>
<event>
 9    2  0.4653788E-005  0.1520802E+03  0.7546771E-02  0.1205701E+00
          2   -1    0    0  502    0 -0.00000000000E+00  0.00000000000E+00  0.24379107052E+03  0.24379107052E+03  0.00000000000E+00 0. -1.
         21   -1    0    0  501  502  0.00000000000E+00 -0.00000000000E+00 -0.22389356412E+03  0.22389356412E+03  0.00000000000E+00 0.  1.
         24    2    1    2    0    0  0.98794831161E+02 -0.15649767697E+02 -0.45997796172E+02  0.13653705225E+03  0.80754167018E+02 0.  0.
         23    2    1    2    0    0 -0.17755216835E+02 -0.93990892439E+02  0.12536125499E+03  0.18240386675E+03  0.91685281093E+02 0.  0.
        -11    1    3    3    0    0  0.10655063565E+03 -0.12600762319E+01 -0.24166745965E+02  0.10926416320E+03  0.00000000000E+00 0.  1.
         12    1    3    3    0    0 -0.77558044904E+01 -0.14389691465E+02 -0.21831050207E+02  0.27272889046E+02  0.00000000000E+00 0. -1.
        -11    1    4    4    0    0 -0.49115671037E+02 -0.26470731108E+02  0.70596905083E+02  0.89983174839E+02  0.00000000000E+00 0.  1.
         11    1    4    4    0    0  0.31360454202E+02 -0.67520161331E+02  0.54764349903E+02  0.92420691916E+02  0.00000000000E+00 0. -1.
          1    1    1    2  501    0 -0.81039614326E+02  0.10964066014E+03 -0.59465952408E+02  0.14874371563E+03  0.00000000000E+00 0. -1.
<scales pt_clust_5="13000.00000" pt_clust_6="13000.00000" pt_clust_7="13000.00000" pt_clust_8="13000.00000" pt_clust_9="121.33503"></scales>
<clustering>
<clus scale="   80.754">  5  6 -1 -1</clus>
<clus scale="   91.685">  7  8 -1 -1</clus>
<clus scale="  128.556">  1  5  2 -1</clus>
<clus scale="  121.335">  2  9  1 -1</clus>
<clus scale="  121.335">  2  5  1 -1</clus>
</clustering>
</event>
<event>
 9    2  0.4653788E-005  0.1277576E+03  0.7546771E-02  0.1233930E+00
          2   -1    0    0  502    0 -0.00000000000E+00  0.00000000000E+00  0.18949552919E+03  0.18949552919E+03  0.00000000000E+00 0. -1.
         21   -1    0    0  501  502  0.00000000000E+00 -0.00000000000E+00 -0.12993421875E+03  0.12993421875E+03  0.00000000000E+00 0.  1.
         23    2    1    2    0    0  0.90332351381E+02 -0.66937632816E+02  0.54951485623E+02  0.15475821247E+03  0.91048658204E+02 0.  0.
         24    2    1    2    0    0 -0.32462125718E+02  0.59656051818E+02 -0.82775235306E+01  0.10493822661E+03  0.79566826522E+02 0.  0.
        -13    1    4    4    0    0  0.10092332522E+02  0.59594095123E+02 -0.13881868707E+02  0.62016269060E+02  0.00000000000E+00 0.  1.
         14    1    4    4    0    0 -0.42554458240E+02  0.61956694972E-01  0.56043451764E+01  0.42921957546E+02  0.00000000000E+00 0. -1.
        -11    1    3    3    0    0 -0.70356713521E+01 -0.22724145376E+02 -0.13921039384E+02  0.27562343731E+02  0.00000000000E+00 0.  1.
         11    1    3    3    0    0  0.97368022733E+02 -0.44213487440E+02  0.68872525007E+02  0.12719586874E+03  0.00000000000E+00 0. -1.
          1    1    1    2  501    0 -0.57870225663E+02  0.72815809976E+01  0.12887348347E+02  0.59733308861E+02  0.00000000000E+00 0. -1.
<scales pt_clust_5="13000.00000" pt_clust_6="13000.00000" pt_clust_7="13000.00000" pt_clust_8="13000.00000" pt_clust_9="58.32656"></scales>
<clustering>
<clus scale="   58.327">  2  9  1 -1</clus>
<clus scale="   79.567">  5  6 -1 -1</clus>
<clus scale="   91.049">  7  8 -1 -1</clus>
<clus scale="  119.846">  2  5  1 -1</clus>
<clus scale="   58.327">  2  5  1 -1</clus>
</clustering>
</event>
<event>
 9    2  0.4653788E-005  0.2291137E+03  0.7546771E-02  0.1127265E+00
          2   -1    0    0  502    0 -0.00000000000E+00  0.00000000000E+00  0.23725560099E+03  0.23725560099E+03  0.00000000000E+00 0. -1.
         21   -1    0    0  501  502  0.00000000000E+00 -0.00000000000E+00 -0.24277154654E+03  0.24277154654E+03  0.00000000000E+00 0. -1.
         24    2    1    2    0    0 -0.77891821370E+02 -0.18148923542E+02  0.12265505096E+03  0.16734178563E+03  0.81009212009E+02 0.  0.
         23    2    1    2    0    0 -0.46921044220E+02 -0.83154480860E+01  0.31122857166E+02  0.10859433760E+03  0.92484414105E+02 0.  0.
        -11    1    3    3    0    0 -0.81172565905E+02 -0.44880473065E+01  0.54785993126E+02  0.98033836337E+02  0.00000000000E+00 0.  1.
         12    1    3    3    0    0  0.32807445350E+01 -0.13660876235E+02  0.67869057831E+02  0.69307949292E+02  0.00000000000E+00 0. -1.
        -11    1    4    4    0    0 -0.64838540980E+02 -0.19078786313E+02 -0.40185701730E+01  0.67706612601E+02  0.00000000000E+00 0. -1.
         11    1    4    4    0    0  0.17917496761E+02  0.10763338227E+02  0.35141427338E+02  0.40887724996E+02  0.00000000000E+00 0.  1.
          1    1    1    2  501    0  0.12481286559E+03  0.26464371628E+02 -0.15929385368E+03  0.20409102430E+03  0.00000000000E+00 0. -1.
<scales pt_clust_5="13000.00000" pt_clust_6="13000.00000" pt_clust_7="13000.00000" pt_clust_8="13000.00000" pt_clust_9="127.58767"></scales>
<clustering>
<clus scale="   81.009">  5  6 -1 -1</clus>
<clus scale="   92.484">  7  8 -1 -1</clus>
<clus scale="   96.827">  5  7 -1 -1</clus>
<clus scale="  127.588">  2  9  1 -1</clus>
<clus scale="  127.588">  2  5  1 -1</clus>
</clustering>
</event>
<event>
 9    2  0.4653788E-005  0.2938432E+03  0.7546771E-02  0.1130990E+00
          2   -1    0    0  502    0 -0.00000000000E+00  0.00000000000E+00  0.85982340295E+03  0.85982340295E+03  0.00000000000E+00 0. -1.
         21   -1    0    0  501  502  0.00000000000E+00 -0.00000000000E+00 -0.17127108861E+03  0.17127108861E+03  0.00000000000E+00 0. -1.
         23    2    1    2    0    0  0.75605727475E+01  0.23384118569E+02  0.32767623094E+03  0.34233344924E+03  0.96002598320E+02 0.  0.
         24    2    1    2    0    0  0.15799508197E+03 -0.24235454708E+03  0.11846076821E+03  0.32253446163E+03  0.79355862521E+02 0.  0.
        -13    1    4    4    0    0  0.74729613367E+01 -0.33996001436E+02 -0.85254874043E+01  0.35836534434E+02  0.00000000000E+00 0.  1.
         14    1    4    4    0    0  0.15052212063E+03 -0.20835854564E+03  0.12698625562E+03  0.28669792719E+03  0.00000000000E+00 0. -1.
        -13    1    3    3    0    0  0.39319555551E+02  0.45654248841E+02  0.19363704264E+03  0.20279458121E+03  0.00000000000E+00 0.  1.
         13    1    3    3    0    0 -0.31758982803E+02 -0.22270130272E+02  0.13403918829E+03  0.13953886803E+03  0.00000000000E+00 0. -1.
          1    1    1    2  501    0 -0.16555565471E+03  0.21897042851E+03  0.24241531519E+03  0.36622658070E+03  0.00000000000E+00 0. -1.
<scales pt_clust_5="13000.00000" pt_clust_6="13000.00000" pt_clust_7="13000.00000" pt_clust_8="13000.00000" pt_clust_9="282.92495"></scales>
<clustering>
<clus scale="   79.356">  5  6 -1 -1</clus>
<clus scale="   96.003">  7  8 -1 -1</clus>
<clus scale="   99.098">  1  7  2 -1</clus>
<clus scale="  282.925">  2  9  1 -1</clus>
<clus scale="  282.925">  2  5  1 -1</clus>
</clustering>
</event>
<event>
 9    2  0.4653788E-005  0.9381027E+02  0.7546771E-02  0.1301144E+00
         21   -1    0    0  501  502  0.00000000000E+00  0.00000000000E+00  0.31234784721E+03  0.31234784721E+03  0.00000000000E+00 0. -1.
          4   -1    0    0  502    0 -0.00000000000E+00 -0.00000000000E+00 -0.43041728200E+03  0.43041728200E+03  0.00000000000E+00 0. -1.
         24    2    1    2    0    0  0.20423295095E+02  0.63211823299E+01 -0.29756842713E+03  0.30919962144E+03  0.81242653494E+02 0.  0.
         23    2    1    2    0    0  0.29285490204E+02  0.44087437118E+02 -0.99205737740E+02  0.14600974132E+03  0.93143567208E+02 0.  0.
        -13    1    3    3    0    0 -0.29813792623E+02  0.55447857562E+01 -0.15749437947E+03  0.16038730139E+03  0.00000000000E+00 0.  1.
         14    1    3    3    0    0  0.50237087718E+02  0.77639657362E+00 -0.14007404765E+03  0.14881232006E+03  0.00000000000E+00 0. -1.
        -13    1    4    4    0    0  0.14040993081E+02 -0.24979466754E+02 -0.64644631941E+01  0.29375372856E+02  0.00000000000E+00 0.  1.
         13    1    4    4    0    0  0.15244497122E+02  0.69066903872E+02 -0.92741274546E+02  0.11663436847E+03  0.00000000000E+00 0. -1.
          3    1    1    2  501    0 -0.49708785299E+02 -0.50408619447E+02  0.27870473008E+03  0.28755576645E+03  0.00000000000E+00 0. -1.
<scales pt_clust_5="13000.00000" pt_clust_6="13000.00000" pt_clust_7="13000.00000" pt_clust_8="13000.00000" pt_clust_9="70.79543"></scales>
<clustering>
<clus scale="   70.795">  1  9  2 -1</clus>
<clus scale="   81.243">  5  6 -1 -1</clus>
<clus scale="   82.006">  2  5  1 -1</clus>
<clus scale="   93.144">  7  8 -1 -1</clus>
<clus scale="   70.795">  1  5  2 -1</clus>
</clustering>
</event>
<event>
 9    2  0.4653788E-005  0.2019871E+03  0.7546771E-02  0.1148956E+00
         21   -1    0    0  501  502  0.00000000000E+00  0.00000000000E+00  0.43009393453E+02  0.43009393453E+02  0.00000000000E+00 0.  1.
          2   -1    0    0  502    0 -0.00000000000E+00 -0.00000000000E+00 -0.12841663599E+04  0.12841663599E+04  0.00000000000E+00 0. -1.
         23    2    1    2    0    0  0.48648267103E+01 -0.17369206211E+03 -0.64819255488E+03  0.67699098549E+03  0.89278257466E+02 0.  0.
         24    2    1    2    0    0  0.66955256718E+01  0.19021626157E+03 -0.59518612904E+03  0.62989617639E+03  0.79344871294E+02 0.  0.
        -11    1    4    4    0    0  0.36949132383E+02  0.15092305673E+03 -0.41975083852E+03  0.44758661047E+03  0.00000000000E+00 0.  1.
         12    1    4    4    0    0 -0.30253606712E+02  0.39293204848E+02 -0.17543529051E+03  0.18230956591E+03  0.00000000000E+00 0. -1.
        -11    1    3    3    0    0 -0.32083911023E+02 -0.13716406972E+03 -0.42132924327E+03  0.44425408338E+03  0.00000000000E+00 0.  1.
         11    1    3    3    0    0  0.36948737733E+02 -0.36527992391E+02 -0.22686331161E+03  0.23273690211E+03  0.00000000000E+00 0. -1.
          1    1    1    2  501    0 -0.11560352382E+02 -0.16524199460E+02  0.22217174780E+01  0.20288591463E+02  0.00000000000E+00 0. -1.
<scales pt_clust_5="13000.00000" pt_clust_6="13000.00000" pt_clust_7="13000.00000" pt_clust_8="13000.00000" pt_clust_9="20.16658"></scales>
<clustering>
<clus scale="   20.167">  1  9  2 -1</clus>
<clus scale="   79.345">  5  6 -1 -1</clus>
<clus scale="   89.278">  7  8 -1 -1</clus>
<clus scale="  197.797">  1  5  2 -1</clus>
<clus scale="   20.167">  1  5  2 -1</clus>
</clustering>
</event>
<event>
 9    2  0.4653788E-005  0.9960628E+02  0.7546771E-02  0.1284057E+00
         21   -1    0    0  501  502  0.00000000000E+00  0.00000000000E+00  0.35124485461E+03  0.35124485461E+03  0.00000000000E+00 0. -1.
          2   -1    0    0  502    0 -0.00000000000E+00 -0.00000000000E+00 -0.11647786939E+03  0.11647786939E+03  0.00000000000E+00 0. -1.
         24    2    1    2    0    0  0.17680111676E+01 -0.51105754459E+02 -0.37665389142E+02  0.10239066971E+03  0.80313409236E+02 0.  0.
         23    2    1    2    0    0 -0.59830220448E+02  0.31768769578E+02  0.28103792778E+02  0.11345590434E+03  0.86565056814E+02 0.  0.
        -13    1    3    3    0    0  0.32712511339E+02 -0.14869990803E+02 -0.41127815993E+02  0.54614304655E+02  0.00000000000E+00 0.  1.
         14    1    3    3    0    0 -0.30944500172E+02 -0.36235763655E+02  0.34624268513E+01  0.47776365059E+02  0.00000000000E+00 0. -1.
        -11    1    4    4    0    0 -0.23916253723E+02  0.66084780980E+01 -0.31097505346E+02  0.39783338393E+02  0.00000000000E+00 0.  1.
         11    1    4    4    0    0 -0.35913966725E+02  0.25160291480E+02  0.59201298124E+02  0.73672565945E+02  0.00000000000E+00 0. -1.
          1    1    1    2  501    0  0.58062209280E+02  0.19336984881E+02  0.24432858158E+03  0.25187614994E+03  0.00000000000E+00 0. -1.
<scales pt_clust_5="13000.00000" pt_clust_6="13000.00000" pt_clust_7="13000.00000" pt_clust_8="13000.00000" pt_clust_9="61.19754"></scales>
<clustering>
<clus scale="   61.198">  1  9  2 -1</clus>
<clus scale="   80.313">  5  6 -1 -1</clus>
<clus scale="   86.565">  7  8 -1 -1</clus>
<clus scale="   94.224">  2  5  1 -1</clus>
<clus scale="   61.198">  1  5  2 -1</clus>
</clustering>
</event>
<event>
 9    2  0.4653788E-005  0.9215341E+02  0.7546771E-02  0.1300311E+00
         21   -1    0    0  501  502  0.00000000000E+00  0.00000000000E+00  0.65742697511E+02  0.65742697511E+02  0.00000000000E+00 0. -1.
         -1   -1    0    0    0  501 -0.00000000000E+00 -0.00000000000E+00 -0.29499143062E+03  0.29499143062E+03  0.00000000000E+00 0.  1.
         23    2    1    2    0    0 -0.13993982826E+02  0.76480563548E+01 -0.12914830438E+03  0.15917796487E+03  0.91673418477E+02 0.  0.
         24    2    1    2    0    0 -0.30265840039E+02  0.24481888224E+02 -0.11023616119E+03  0.14593244232E+03  0.87343474645E+02 0.  0.
        -11    1    4    4    0    0  0.25474209709E+02  0.25647011794E+02 -0.24519851756E+02  0.43679831781E+02  0.00000000000E+00 0.  1.
         12    1    4    4    0    0 -0.55740049749E+02 -0.11651235705E+01 -0.85716309431E+02  0.10225261054E+03  0.00000000000E+00 0. -1.
        -13    1    3    3    0    0 -0.58200070653E+01 -0.37505132960E+02 -0.25217260833E+02  0.45567726787E+02  0.00000000000E+00 0.  1.
         13    1    3    3    0    0 -0.81739757610E+01  0.45153189315E+02 -0.10393104355E+03  0.11361023809E+03  0.00000000000E+00 0. -1.
         -2    1    1    2    0  502  0.44259822866E+02 -0.32129944578E+02  0.10135732461E+02  0.55623720940E+02  0.00000000000E+00 0.  1.
<scales pt_clust_5="13000.00000" pt_clust_6="13000.00000" pt_clust_7="13000.00000" pt_clust_8="13000.00000" pt_clust_9="54.69246"></scales>
<clustering>
<clus scale="   54.692">  1  9  2 -1</clus>
<clus scale="   87.343">  5  6 -1 -1</clus>
<clus scale="   87.847">  1  5  2 -1</clus>
<clus scale="   91.673">  7  8 -1 -1</clus>
<clus scale="   54.692">  1  5  2 -1</clus>
</clustering>
</event>
<event>
 9    2  0.4653788E-005  0.9671155E+02  0.7546771E-02  0.1292257E+00
          2   -1    0    0  502    0 -0.00000000000E+00  0.00000000000E+00  0.21702346170E+03  0.21702346170E+03  0.00000000000E+00 0. -1.
         21   -1    0    0  501  502  0.00000000000E+00 -0.00000000000E+00 -0.95743978529E+02  0.95743978529E+02  0.00000000000E+00 0. -1.
         23    2    1    2    0    0 -0.22987334692E+02 -0.82942992451E+01  0.11351407932E+03  0.14732714211E+03  0.90678705558E+02 0.  0.
         24    2    1    2    0    0  0.66455006529E+02 -0.27704026466E+02  0.44735987291E+01  0.10890576063E+03  0.81588422204E+02 0.  0.
        -13    1    4    4    0    0 -0.12706402417E+01 -0.39391271259E+02  0.74716036821E+01  0.40113733803E+02  0.00000000000E+00 0.  1.
         14    1    4    4    0    0  0.67725646771E+02  0.11687244793E+02 -0.29980049530E+01  0.68792026828E+02  0.00000000000E+00 0. -1.
        -11    1    3    3    0    0 -0.18087383844E+02 -0.31311029244E+02  0.52547202878E+01  0.36539650955E+02  0.00000000000E+00 0. -1.
         11    1    3    3    0    0 -0.48999508481E+01  0.23016729999E+02  0.10825935903E+03  0.11078749115E+03  0.00000000000E+00 0.  1.
          1    1    1    2  501    0 -0.43467671837E+02  0.35998325711E+02  0.32918051292E+01  0.56534537497E+02  0.00000000000E+00 0. -1.
<scales pt_clust_5="13000.00000" pt_clust_6="13000.00000" pt_clust_7="13000.00000" pt_clust_8="13000.00000" pt_clust_9="56.43862"></scales>
<clustering>
<clus scale="   56.439">  2  9  1 -1</clus>
<clus scale="   81.588">  5  6 -1 -1</clus>
<clus scale="   88.245">  2  5  1 -1</clus>
<clus scale="   90.679">  7  8 -1 -1</clus>
<clus scale="   56.439">  2  5  1 -1</clus>
</clustering>
</event>
<event>
 9    2  0.4653788E-005  0.9780144E+02  0.7546771E-02  0.1293269E+00
         21   -1    0    0  501  502  0.00000000000E+00  0.00000000000E+00  0.49748446278E+02  0.49748446278E+02  0.00000000000E+00 0.  1.
          2   -1    0    0  502    0 -0.00000000000E+00 -0.00000000000E+00 -0.38523423696E+03  0.38523423696E+03  0.00000000000E+00 0. -1.
         23    2    1    2    0    0  0.10328717980E+02 -0.17692145608E+02 -0.17839392762E+03  0.20172065745E+03  0.91908301036E+02 0.  0.
         24    2    1    2    0    0  0.37831704647E+02  0.62994230672E+02 -0.99511766079E+02  0.14558550221E+03  0.76766111602E+02 0.  0.
        -11    1    4    4    0    0  0.27671383848E+02 -0.12179907292E+02 -0.32204622566E+02  0.44172314183E+02  0.00000000000E+00 0.  1.
         12    1    4    4    0    0  0.10160320798E+02  0.75174137964E+02 -0.67307143513E+02  0.10141318802E+03  0.00000000000E+00 0. -1.
        -13    1    3    3    0    0  0.21491739354E+02  0.31503745702E+02 -0.44313659854E+02  0.58464359258E+02  0.00000000000E+00 0.  1.
         13    1    3    3    0    0 -0.11163021374E+02 -0.49195891310E+02 -0.13408026776E+03  0.14325629819E+03  0.00000000000E+00 0. -1.
          1    1    1    2  501    0 -0.48160422626E+02 -0.45302085065E+02 -0.57580096987E+02  0.87676523584E+02  0.00000000000E+00 0. -1.
<scales pt_clust_5="13000.00000" pt_clust_6="13000.00000" pt_clust_7="13000.00000" pt_clust_8="13000.00000" pt_clust_9="66.11887"></scales>
<clustering>
<clus scale="   66.119">  1  9  2 -1</clus>
<clus scale="   76.766">  5  6 -1 -1</clus>
<clus scale="   83.732">  1  5  2 -1</clus>
<clus scale="   91.908">  7  8 -1 -1</clus>
<clus scale="   66.119">  1  5  2 -1</clus>
</clustering>
</event>
<event>
 9    2  0.4653788E-005  0.2007258E+03  0.7546771E-02  0.1150709E+00
         21   -1    0    0  501  502  0.00000000000E+00  0.00000000000E+00  0.42901004585E+03  0.42901004585E+03  0.00000000000E+00 0. -1.
          2   -1    0    0  502    0 -0.00000000000E+00 -0.00000000000E+00 -0.32550469197E+03  0.32550469197E+03  0.00000000000E+00 0. -1.
         24    2    1    2    0    0 -0.65250302081E+02 -0.18136397765E+03 -0.14858857802E+03  0.25596606061E+03  0.79306773710E+02 0.  0.
         23    2    1    2    0    0  0.13695417061E+03  0.32246315213E+02  0.28294950311E+03  0.33023471971E+03  0.95907659221E+02 0.  0.
        -13    1    3    3    0    0 -0.76727281675E+02 -0.16206179538E+03 -0.10728533956E+03  0.20895273475E+03  0.00000000000E+00 0.  1.
         14    1    3    3    0    0  0.11476979594E+02 -0.19302182268E+02 -0.41303238466E+02  0.47013325863E+02  0.00000000000E+00 0. -1.
        -13    1    4    4    0    0  0.12424839439E+03  0.60739863957E+02  0.21778511394E+03  0.25798711293E+03  0.00000000000E+00 0.  1.
         13    1    4    4    0    0  0.12705776216E+02 -0.28493548744E+02  0.65164389172E+02  0.72247606780E+02  0.00000000000E+00 0. -1.
          1    1    1    2  501    0 -0.71703868530E+02  0.14911766244E+03 -0.30855571203E+02  0.16831395750E+03  0.00000000000E+00 0. -1.
<scales pt_clust_5="13000.00000" pt_clust_6="13000.00000" pt_clust_7="13000.00000" pt_clust_8="13000.00000" pt_clust_9="165.46163"></scales>
<clustering>
<clus scale="   79.307">  5  6 -1 -1</clus>
<clus scale="   95.908">  7  8 -1 -1</clus>
<clus scale="  165.462">  1  9  2 -1</clus>
<clus scale="  193.345">  2  5  1 -1</clus>
<clus scale="  165.462">  1  5  2 -1</clus>
</clustering>
</event>
<event>
 9    2  0.4653788E-005  0.9225547E+02  0.7546771E-02  0.1302627E+00
         21   -1    0    0  501  502  0.00000000000E+00  0.00000000000E+00  0.18596710935E+03  0.18596710935E+03  0.00000000000E+00 0. -1.
         -1   -1    0    0    0  501 -0.00000000000E+00 -0.00000000000E+00 -0.25307692408E+03  0.25307692408E+03  0.00000000000E+00 0.  1.
         23    2    1    2    0    0  0.21364009132E+02 -0.10251704288E+02 -0.22483813657E+03  0.24293621762E+03  0.88906129420E+02 0.  0.
         24    2    1    2    0    0 -0.42322897906E+02 -0.22164994161E+01  0.11060487935E+03  0.14304794442E+03  0.80206823326E+02 0.  0.
        -13    1    4    4    0    0 -0.48267955261E+02  0.30703632554E+02  0.72217862946E+02  0.92129953248E+02  0.00000000000E+00 0.  1.
         14    1    4    4    0    0  0.59450573551E+01 -0.32920131970E+02  0.38387016408E+02  0.50917991168E+02  0.00000000000E+00 0. -1.
        -13    1    3    3    0    0 -0.29941751435E+02  0.14318848229E+02 -0.10801753493E+03  0.11300144134E+03  0.00000000000E+00 0. -1.
         13    1    3    3    0    0  0.51305760567E+02 -0.24570552517E+02 -0.11682060164E+03  0.12993477628E+03  0.00000000000E+00 0.  1.
         -2    1    1    2    0  502  0.20958888774E+02  0.12468203704E+02  0.47123442477E+02  0.53059871401E+02  0.00000000000E+00 0.  1.
<scales pt_clust_5="13000.00000" pt_clust_6="13000.00000" pt_clust_7="13000.00000" pt_clust_8="13000.00000" pt_clust_9="24.38711"></scales>
<clustering>
<clus scale="   24.387">  1  9  2 -1</clus>
<clus scale="   80.207">  5  6 -1 -1</clus>
<clus scale="   83.904">  1  5  2 -1</clus>
<clus scale="   88.906">  7  8 -1 -1</clus>
<clus scale="   24.387">  1  5  2 -1</clus>
</clustering>
</event>
<event>
 9    2  0.4653788E-005  0.9708928E+02  0.7546771E-02  0.1290624E+00
          2   -1    0    0  502    0 -0.00000000000E+00  0.00000000000E+00  0.27009324722E+03  0.27009324722E+03  0.00000000000E+00 0. -1.
         21   -1    0    0  501  502  0.00000000000E+00 -0.00000000000E+00 -0.83391745484E+02  0.83391745484E+02  0.00000000000E+00 0. -1.
         24    2    1    2    0    0  0.35899269080E+02 -0.12718907449E+02  0.19862074927E+03  0.21748076330E+03  0.79982199516E+02 0.  0.
         23    2    1    2    0    0 -0.53378675138E+02  0.32220133169E+02 -0.17495245168E+02  0.10922888271E+03  0.87962749355E+02 0.  0.
        -13    1    3    3    0    0  0.60098841570E+02  0.21712808370E+01  0.13773090625E+03  0.15028768331E+03  0.00000000000E+00 0.  1.
         14    1    3    3    0    0 -0.24199572490E+02 -0.14890188286E+02  0.60889843014E+02  0.67193079987E+02  0.00000000000E+00 0. -1.
        -11    1    4    4    0    0 -0.18851354376E+02 -0.17164855610E+02  0.24832562550E+02  0.35590195177E+02  0.00000000000E+00 0.  1.
         11    1    4    4    0    0 -0.34527320761E+02  0.49384988780E+02 -0.42327807718E+02  0.73638687535E+02  0.00000000000E+00 0. -1.
          1    1    1    2  501    0  0.17479406057E+02 -0.19501225720E+02  0.55759976361E+01  0.26775346690E+02  0.00000000000E+00 0. -1.
<scales pt_clust_5="13000.00000" pt_clust_6="13000.00000" pt_clust_7="13000.00000" pt_clust_8="13000.00000" pt_clust_9="26.18831"></scales>
<clustering>
<clus scale="   26.188">  2  9  1 -1</clus>
<clus scale="   79.982">  5  6 -1 -1</clus>
<clus scale="   87.963">  7  8 -1 -1</clus>
<clus scale="   89.922">  1  5  2 -1</clus>
<clus scale="   26.188">  2  5  1 -1</clus>
</clustering>
</event>
<event>
 9    2  0.4653788E-005  0.9942979E+02  0.7546771E-02  0.1284889E+00
          2   -1    0    0  502    0 -0.00000000000E+00  0.00000000000E+00  0.23205818776E+03  0.23205818776E+03  0.00000000000E+00 0. -1.
         21   -1    0    0  501  502  0.00000000000E+00 -0.00000000000E+00 -0.90777350054E+02  0.90777350054E+02  0.00000000000E+00 0.  1.
         24    2    1    2    0    0  0.32548207922E+02 -0.20309633218E+01  0.20603398078E+02  0.93994386602E+02  0.85714258145E+02 0.  0.
         23    2    1    2    0    0 -0.16706977542E+02  0.57233199136E+02  0.18332924760E+02  0.11148429738E+03  0.92400704808E+02 0.  0.
        -13    1    3    3    0    0  0.10030144767E+02  0.24209121407E+02 -0.25367001039E+02  0.36471497160E+02  0.00000000000E+00 0.  1.
         14    1    3    3    0    0  0.22518063155E+02 -0.26240084729E+02  0.45970399117E+02  0.57522889443E+02  0.00000000000E+00 0. -1.
        -13    1    4    4    0    0 -0.18310869858E+02  0.82562735602E+02  0.14936680365E+02  0.85877806711E+02  0.00000000000E+00 0. -1.
         13    1    4    4    0    0  0.16038923159E+01 -0.25329536466E+02  0.33962443945E+01  0.25606490664E+02  0.00000000000E+00 0.  1.
          1    1    1    2  501    0 -0.15841230381E+02 -0.55202235814E+02  0.10234451487E+03  0.11735685384E+03  0.00000000000E+00 0. -1.
<scales pt_clust_5="13000.00000" pt_clust_6="13000.00000" pt_clust_7="13000.00000" pt_clust_8="13000.00000" pt_clust_9="57.43026"></scales>
<clustering>
<clus scale="   57.430">  2  9  1 -1</clus>
<clus scale="   85.714">  5  6 -1 -1</clus>
<clus scale="   92.401">  7  8 -1 -1</clus>
<clus scale="   93.249">  1  5  2 -1</clus>
<clus scale="   57.430">  2  5  1 -1</clus>
</clustering>
</event>
<event>
 9    2  0.4653788E-005  0.1688316E+03  0.7546771E-02  0.1180667E+00
         -3   -1    0    0    0  501 -0.00000000000E+00  0.00000000000E+00  0.54541949819E+02  0.54541949819E+02  0.00000000000E+00 0.  1.
         21   -1    0    0  501  502  0.00000000000E+00 -0.00000000000E+00 -0.88900984187E+03  0.88900984187E+03  0.00000000000E+00 0.  1.
         23    2    1    2    0    0  0.16673422983E+03 -0.37833460748E+02 -0.20833682923E+03  0.28454440168E+03  0.91266685933E+02 0.  0.
         24    2    1    2    0    0 -0.95535626142E+02 -0.31339812192E-02 -0.40177999127E+03  0.42060803520E+03  0.79730182610E+02 0.  0.
        -11    1    4    4    0    0 -0.11896917355E+02 -0.32325634573E+02 -0.98417390941E+02  0.10427111840E+03  0.00000000000E+00 0.  1.
         12    1    4    4    0    0 -0.83638708787E+02  0.32322500592E+02 -0.30336260033E+03  0.31633691680E+03  0.00000000000E+00 0. -1.
        -13    1    3    3    0    0  0.96300652335E+02 -0.24375957145E+02 -0.51060499062E+02  0.11169233408E+03  0.00000000000E+00 0.  1.
         13    1    3    3    0    0  0.70433577499E+02 -0.13457503603E+02 -0.15727633017E+03  0.17285206760E+03  0.00000000000E+00 0. -1.
         -4    1    1    2    0  502 -0.71198603693E+02  0.37836594729E+02 -0.22435107155E+03  0.23839935481E+03  0.00000000000E+00 0.  1.
<scales pt_clust_5="13000.00000" pt_clust_6="13000.00000" pt_clust_7="13000.00000" pt_clust_8="13000.00000" pt_clust_9="80.62784"></scales>
<clustering>
<clus scale="   79.730">  5  6 -1 -1</clus>
<clus scale="   80.628">  2  9  1 -1</clus>
<clus scale="   91.267">  7  8 -1 -1</clus>
<clus scale="  162.885">  2  5  1 -1</clus>
<clus scale="   80.628">  2  5  1 -1</clus>
</clustering>
</event>
<event>
 9    2  0.4653788E-005  0.2233742E+03  0.7546771E-02  0.1157994E+00
         21   -1    0    0  501  502  0.00000000000E+00  0.00000000000E+00  0.47475827532E+03  0.47475827532E+03  0.00000000000E+00 0. -1.
          2   -1    0    0  502    0 -0.00000000000E+00 -0.00000000000E+00 -0.51835803646E+03  0.51835803646E+03  0.00000000000E+00 0. -1.
         23    2    1    2    0    0 -0.72846480472E+02 -0.24490017267E+02 -0.74821525749E+02  0.13989938220E+03  0.89817624999E+02 0.  0.
         24    2    1    2    0    0  0.19396200587E+03 -0.14316704273E+03 -0.34224847487E+03  0.42630021636E+03  0.80497168108E+02 0.  0.
        -13    1    4    4    0    0  0.15552047978E+02 -0.48235835790E+02 -0.51880962121E+02  0.72527210627E+02  0.00000000000E+00 0.  1.
         14    1    4    4    0    0  0.17840995789E+03 -0.94931206936E+02 -0.29036751275E+03  0.35377300573E+03  0.00000000000E+00 0. -1.
        -11    1    3    3    0    0 -0.19666442305E+02 -0.26761230134E+02  0.14247301382E+02  0.36137487293E+02  0.00000000000E+00 0. -1.
         11    1    3    3    0    0 -0.53180038168E+02  0.22712128668E+01 -0.89068827131E+02  0.10376189490E+03  0.00000000000E+00 0.  1.
          1    1    1    2  501    0 -0.12111552540E+03  0.16765705999E+03  0.37347023947E+03  0.42691671322E+03  0.00000000000E+00 0. -1.
<scales pt_clust_5="13000.00000" pt_clust_6="13000.00000" pt_clust_7="13000.00000" pt_clust_8="13000.00000" pt_clust_9="208.36560"></scales>
<clustering>
<clus scale="   80.497">  5  6 -1 -1</clus>
<clus scale="   89.818">  7  8 -1 -1</clus>
<clus scale="  118.210">  2  7  1 -1</clus>
<clus scale="  208.366">  1  9  2 -1</clus>
<clus scale="  208.366">  1  5  2 -1</clus>
</clustering>
</event>
<event>
 9    2  0.4653788E-005  0.9327883E+02  0.7546771E-02  0.1300516E+00
          2   -1    0    0  502    0 -0.00000000000E+00  0.00000000000E+00  0.62272425935E+02  0.62272425935E+02  0.00000000000E+00 0. -1.
         21   -1    0    0  501  502  0.00000000000E+00 -0.00000000000E+00 -0.38682326718E+03  0.38682326718E+03  0.00000000000E+00 0. -1.
         24    2    1    2    0    0  0.31261241437E+01  0.28256650441E+02  0.10245438623E+02  0.85551053453E+02  0.80036259208E+02 0.  0.
         23    2    1    2    0    0 -0.33728152712E+02 -0.11523504902E+02 -0.17223318797E+03  0.19728207274E+03  0.89361992678E+02 0.  0.
        -11    1    3    3    0    0 -0.41738254755E+01  0.23693441308E+02 -0.33345368926E+02  0.41118288011E+02  0.00000000000E+00 0.  1.
         12    1    3    3    0    0  0.72999496192E+01  0.45632091332E+01  0.43590807549E+02  0.44432765442E+02  0.00000000000E+00 0. -1.
        -13    1    4    4    0    0  0.10038422266E+02 -0.41320367084E+02 -0.64728444780E+02  0.77446202110E+02  0.00000000000E+00 0.  1.
         13    1    4    4    0    0 -0.43766574978E+02  0.29796862182E+02 -0.10750474319E+03  0.11983587063E+03  0.00000000000E+00 0. -1.
          1    1    1    2  501    0  0.30602028568E+02 -0.16733145539E+02 -0.16256309190E+03  0.16626256692E+03  0.00000000000E+00 0. -1.
<scales pt_clust_5="13000.00000" pt_clust_6="13000.00000" pt_clust_7="13000.00000" pt_clust_8="13000.00000" pt_clust_9="34.87811"></scales>
<clustering>
<clus scale="   34.878">  2  9  1 -1</clus>
<clus scale="   80.036">  5  6 -1 -1</clus>
<clus scale="   84.387">  1  5  2 -1</clus>
<clus scale="   89.362">  7  8 -1 -1</clus>
<clus scale="   34.878">  2  5  1 -1</clus>
</clustering>
</event>
<event>
 9    2  0.4653788E-005  0.1312154E+03  0.7546771E-02  0.1229118E+00
          2   -1    0    0  502    0 -0.00000000000E+00  0.00000000000E+00  0.34909081734E+03  0.34909081734E+03  0.00000000000E+00 0. -1.
         21   -1    0    0  501  502  0.00000000000E+00 -0.00000000000E+00 -0.72404750937E+02  0.72404750937E+02  0.00000000000E+00 0. -1.
         24    2    1    2    0    0  0.37111667757E+02  0.80302400635E+02  0.14940627295E+03  0.18967634581E+03  0.76348741523E+02 0.  0.
         23    2    1    2    0    0 -0.75312454263E+02 -0.85938276634E+02  0.66998302416E+02  0.16023066647E+03  0.90153983790E+02 0.  0.
        -11    1    3    3    0    0 -0.21800832285E+02  0.28568444385E+02  0.29909372490E+02  0.46754709556E+02  0.00000000000E+00 0.  1.
         12    1    3    3    0    0  0.58912500041E+02  0.51733956250E+02  0.11949690046E+03  0.14292163626E+03  0.00000000000E+00 0. -1.
        -13    1    4    4    0    0 -0.23449169779E+02  0.83160472319E+01  0.43501012199E+02  0.50113453954E+02  0.00000000000E+00 0.  1.
         13    1    4    4    0    0 -0.51863284484E+02 -0.94254323866E+02  0.23497290217E+02  0.11011721252E+03  0.00000000000E+00 0. -1.
          1    1    1    2  501    0  0.38200786506E+02  0.56358759993E+01  0.60281491038E+02  0.71588555997E+02  0.00000000000E+00 0. -1.
<scales pt_clust_5="13000.00000" pt_clust_6="13000.00000" pt_clust_7="13000.00000" pt_clust_8="13000.00000" pt_clust_9="38.61431"></scales>
<clustering>
<clus scale="   38.614">  2  9  1 -1</clus>
<clus scale="   76.349">  5  6 -1 -1</clus>
<clus scale="   90.154">  7  8 -1 -1</clus>
<clus scale="  122.143">  1  5  2 -1</clus>
<clus scale="   38.614">  2  5  1 -1</clus>
</clustering>
</event>
<event>
 9    2  0.4653788E-005  0.2968337E+03  0.7546771E-02  0.1087157E+00
          2   -1    0    0  502    0 -0.00000000000E+00  0.00000000000E+00  0.19845500047E+04  0.19845500047E+04  0.00000000000E+00 0. -1.
         21   -1    0    0  501  502  0.00000000000E+00 -0.00000000000E+00 -0.65442184583E+02  0.65442184583E+02  0.00000000000E+00 0. -1.
         23    2    1    2    0    0 -0.53190868686E+02  0.31623250364E+03  0.11557089979E+04  0.12027573098E+04  0.90164258262E+02 0.  0.
         24    2    1    2    0    0 -0.11368172422E+02 -0.23125532179E+03  0.40772587108E+03  0.47589643634E+03  0.81417276836E+02 0.  0.
        -11    1    4    4    0    0  0.23676308430E+02 -0.29684409093E+02  0.93705813790E+02  0.10110643531E+03  0.00000000000E+00 0.  1.
         12    1    4    4    0    0 -0.35044480852E+02 -0.20157091270E+03  0.31402005729E+03  0.37479000102E+03  0.00000000000E+00 0. -1.
        -11    1    3    3    0    0 -0.77383681611E+02  0.22712503015E+03  0.87132323252E+03  0.90375781547E+03  0.00000000000E+00 0. -1.
         11    1    3    3    0    0  0.24192812925E+02  0.89107473491E+02  0.28438576542E+03  0.29899949432E+03  0.00000000000E+00 0.  1.
          1    1    1    2  501    0  0.64559041108E+02 -0.84977181849E+02  0.35567295108E+03  0.37133844314E+03  0.00000000000E+00 0. -1.
<scales pt_clust_5="13000.00000" pt_clust_6="13000.00000" pt_clust_7="13000.00000" pt_clust_8="13000.00000" pt_clust_9="106.71927"></scales>
<clustering>
<clus scale="   81.417">  5  6 -1 -1</clus>
<clus scale="   90.164">  7  8 -1 -1</clus>
<clus scale="  106.719">  2  9  1 -1</clus>
<clus scale="  294.295">  2  5  1 -1</clus>
<clus scale="  106.719">  2  5  1 -1</clus>
</clustering>
</event>
<event>
 9    2  0.4653788E-005  0.1006135E+03  0.7546771E-02  0.1280275E+00
          4   -1    0    0  502    0 -0.00000000000E+00  0.00000000000E+00  0.41793440415E+03  0.41793440415E+03  0.00000000000E+00 0. -1.
         21   -1    0    0  501  502  0.00000000000E+00 -0.00000000000E+00 -0.47459794774E+02  0.47459794774E+02  0.00000000000E+00 0. -1.
         24    2    1    2    0    0  0.37649060533E+02  0.31898725225E+02  0.15721795602E+03  0.18260971063E+03  0.78700954815E+02 0.  0.
         23    2    1    2    0    0 -0.63628079041E+02 -0.70761851994E+02  0.90827998618E+02  0.15173477435E+03  0.75617089837E+02 0.  0.
        -11    1    3    3    0    0 -0.12739010694E+02 -0.17500295870E+02  0.46904806268E+02  0.51658528822E+02  0.00000000000E+00 0.  1.
         12    1    3    3    0    0  0.50388071226E+02  0.49399021094E+02  0.11031314976E+03  0.13095118181E+03  0.00000000000E+00 0. -1.
        -11    1    4    4    0    0  0.17314139458E+02 -0.14279732247E+02  0.12207970218E+02  0.25548477744E+02  0.00000000000E+00 0.  1.
         11    1    4    4    0    0 -0.80942218498E+02 -0.56482119747E+02  0.78620028400E+02  0.12618629661E+03  0.00000000000E+00 0. -1.
          3    1    1    2  501    0  0.25979018508E+02  0.38863126770E+02  0.12242865474E+03  0.13104971395E+03  0.00000000000E+00 0. -1.
<scales pt_clust_5="13000.00000" pt_clust_6="13000.00000" pt_clust_7="13000.00000" pt_clust_8="13000.00000" pt_clust_9="46.74670"></scales>
<clustering>
<clus scale="   46.747">  2  9  1 -1</clus>
<clus scale="   75.617">  7  8 -1 -1</clus>
<clus scale="   78.701">  5  6 -1 -1</clus>
<clus scale="   98.220">  2  7  1 -1</clus>
<clus scale="   46.747">  2  5  1 -1</clus>
</clustering>
</event>
<event>
 9    2  0.4653788E-005  0.1208699E+03  0.7546771E-02  0.1247864E+00
         21   -1    0    0  501  502  0.00000000000E+00  0.00000000000E+00  0.14256111435E+03  0.14256111435E+03  0.00000000000E+00 0.  1.
          2   -1    0    0  502    0 -0.00000000000E+00 -0.00000000000E+00 -0.26176455029E+03  0.26176455029E+03  0.00000000000E+00 0. -1.
         23    2    1    2    0    0 -0.14674628104E+02 -0.66487201496E+02 -0.16219093442E+03  0.20170460538E+03  0.98706412914E+02 0.  0.
         24    2    1    2    0    0 -0.10752722989E+02  0.83222573360E+02  0.89621552522E+02  0.14693122311E+03  0.80716441194E+02 0.  0.
        -13    1    4    4    0    0 -0.20949384490E+02  0.81816480223E+02  0.10095354263E+03  0.13162230402E+03  0.00000000000E+00 0.  1.
         14    1    4    4    0    0  0.10196661501E+02  0.14060931374E+01 -0.11331990110E+02  0.15308919084E+02  0.00000000000E+00 0. -1.
        -13    1    3    3    0    0 -0.25161819551E+02 -0.22402848107E+01  0.17402944382E+01  0.25321229510E+02  0.00000000000E+00 0.  1.
         13    1    3    3    0    0  0.10487191447E+02 -0.64246916685E+02 -0.16393122886E+03  0.17638337587E+03  0.00000000000E+00 0. -1.
          1    1    1    2  501    0  0.25427351094E+02 -0.16735371865E+02 -0.46634054039E+02  0.55689836157E+02  0.00000000000E+00 0. -1.
<scales pt_clust_5="13000.00000" pt_clust_6="13000.00000" pt_clust_7="13000.00000" pt_clust_8="13000.00000" pt_clust_9="30.44050"></scales>
<clustering>
<clus scale="   30.440">  1  9  2 -1</clus>
<clus scale="   80.716">  5  6 -1 -1</clus>
<clus scale="   98.706">  7  8 -1 -1</clus>
<clus scale="  106.685">  1  5  2 -1</clus>
<clus scale="   30.440">  1  5  2 -1</clus>
</clustering>
</event>
<event>
 9    2  0.4653788E-005  0.3315815E+03  0.7546771E-02  0.1083593E+00
          2   -1    0    0  502    0 -0.00000000000E+00  0.00000000000E+00  0.28332663874E+04  0.28332663874E+04  0.00000000000E+00 0. -1.
         21   -1    0    0  501  502  0.00000000000E+00 -0.00000000000E+00 -0.15809842560E+03  0.15809842560E+03  0.00000000000E+00 0. -1.
         23    2    1    2    0    0 -0.16665748235E+03 -0.13325100223E+03  0.48613497962E+03  0.53873640343E+03  0.91537685960E+02 0.  0.
         24    2    1    2    0    0  0.46168424282E+03  0.19937436280E+03  0.20631050639E+04  0.21251059999E+04  0.82283228078E+02 0.  0.
        -11    1    4    4    0    0  0.40898967939E+02 -0.15998306674E+00  0.24008723785E+03  0.24354595655E+03  0.00000000000E+00 0.  1.
         12    1    4    4    0    0  0.42078527488E+03  0.19953434587E+03  0.18230178261E+04  0.18815600434E+04  0.00000000000E+00 0. -1.
        -13    1    3    3    0    0 -0.34100969348E+02 -0.30371869067E+02  0.35393454214E+02  0.57775627580E+02  0.00000000000E+00 0. -1.
         13    1    3    3    0    0 -0.13255651300E+03 -0.10287913317E+03  0.45074152541E+03  0.48096077585E+03  0.00000000000E+00 0.  1.
          1    1    1    2  501    0 -0.29502676047E+03 -0.66123360570E+02  0.12592791825E+03  0.32752240962E+03  0.00000000000E+00 0. -1.
<scales pt_clust_5="13000.00000" pt_clust_6="13000.00000" pt_clust_7="13000.00000" pt_clust_8="13000.00000" pt_clust_9="321.20989"></scales>
<clustering>
<clus scale="   82.283">  5  6 -1 -1</clus>
<clus scale="   91.538">  7  8 -1 -1</clus>
<clus scale="  232.185">  1  7  2 -1</clus>
<clus scale="  321.210">  2  9  1 -1</clus>
<clus scale="  321.210">  2  5  1 -1</clus>
</clustering>
</event>
<event>
 9    2  0.4653788E-005  0.9879090E+02  0.7546771E-02  0.1287536E+00
         21   -1    0    0  501  502  0.00000000000E+00  0.00000000000E+00  0.28573146848E+03  0.28573146848E+03  0.00000000000E+00 0.  1.
          2   -1    0    0  502    0 -0.00000000000E+00 -0.00000000000E+00 -0.11630968027E+03  0.11630968027E+03  0.00000000000E+00 0. -1.
         24    2    1    2    0    0 -0.36038238469E+02 -0.91240781630E+00 -0.65964539687E+02  0.11104521283E+03  0.81732072505E+02 0.  0.
         23    2    1    2    0    0  0.49355830540E+02  0.32737057879E+02  0.88165417926E+02  0.13978693174E+03  0.90881969614E+02 0.  0.
        -13    1    3    3    0    0 -0.35830179735E+02  0.36813158336E+02 -0.34056648129E+02  0.61634938860E+02  0.00000000000E+00 0.  1.
         14    1    3    3    0    0 -0.20805873414E+00 -0.37725566152E+02 -0.31907891558E+02  0.49410273968E+02  0.00000000000E+00 0. -1.
        -13    1    4    4    0    0  0.15118415175E+02  0.55272609028E+02  0.20857595571E+02  0.60980874700E+02  0.00000000000E+00 0.  1.
         13    1    4    4    0    0  0.34237415365E+02 -0.22535551148E+02  0.67307822354E+02  0.78806057042E+02  0.00000000000E+00 0. -1.
          1    1    1    2  501    0 -0.13317592072E+02 -0.31824650063E+02  0.14722090998E+03  0.15120900418E+03  0.00000000000E+00 0. -1.
<scales pt_clust_5="13000.00000" pt_clust_6="13000.00000" pt_clust_7="13000.00000" pt_clust_8="13000.00000" pt_clust_9="34.49879"></scales>
<clustering>
<clus scale="   34.499">  1  9  2 -1</clus>
<clus scale="   81.732">  5  6 -1 -1</clus>
<clus scale="   90.445">  2  5  1 -1</clus>
<clus scale="   90.882">  7  8 -1 -1</clus>
<clus scale="   34.499">  1  5  2 -1</clus>
</clustering>
</event>
<event>
 9    2  0.4653788E-005  0.1216232E+03  0.7546771E-02  0.1245052E+00
         21   -1    0    0  501  502  0.00000000000E+00  0.00000000000E+00  0.37108453046E+02  0.37108453046E+02  0.00000000000E+00 0.  1.
         -3   -1    0    0    0  501 -0.00000000000E+00 -0.00000000000E+00 -0.60149250513E+03  0.60149250513E+03  0.00000000000E+00 0.  1.
         23    2    1    2    0    0  0.50476323896E+02  0.63908999646E+02 -0.21359777558E+03  0.24716793502E+03  0.93998717308E+02 0.  0.
         24    2    1    2    0    0 -0.24055389202E+01 -0.81106981113E+02 -0.17712990021E+03  0.21042720016E+03  0.79501421468E+02 0.  0.
        -13    1    4    4    0    0 -0.15046213809E+02 -0.86558991275E+02 -0.10459637143E+03  0.13659885958E+03  0.00000000000E+00 0.  1.
         14    1    4    4    0    0  0.12640674889E+02  0.54520101613E+01 -0.72533528776E+02  0.73828340582E+02  0.00000000000E+00 0. -1.
        -11    1    3    3    0    0 -0.15610618678E+02  0.48975675643E+02 -0.58247382478E+02  0.77685685848E+02  0.00000000000E+00 0.  1.
         11    1    3    3    0    0  0.66086942574E+02  0.14933324004E+02 -0.15535039311E+03  0.16948224917E+03  0.00000000000E+00 0. -1.
         -4    1    1    2    0  502 -0.48070784975E+02  0.17197981467E+02 -0.17365637629E+03  0.18100582300E+03  0.00000000000E+00 0.  1.
<scales pt_clust_5="13000.00000" pt_clust_6="13000.00000" pt_clust_7="13000.00000" pt_clust_8="13000.00000" pt_clust_9="51.05461"></scales>
<clustering>
<clus scale="   51.055">  1  9  2 -1</clus>
<clus scale="   79.501">  5  6 -1 -1</clus>
<clus scale="   93.999">  7  8 -1 -1</clus>
<clus scale="  110.801">  1  5  2 -1</clus>
<clus scale="   51.055">  1  5  2 -1</clus>
</clustering>
</event>
<event>
 9    2  0.4653788E-005  0.2953173E+03  0.7546771E-02  0.1101517E+00
         21   -1    0    0  501  502  0.00000000000E+00  0.00000000000E+00  0.71312892613E+03  0.71312892613E+03  0.00000000000E+00 0. -1.
          2   -1    0    0  502    0 -0.00000000000E+00 -0.00000000000E+00 -0.26951615124E+03  0.26951615124E+03  0.00000000000E+00 0. -1.
         24    2    1    2    0    0  0.19029585001E+03 -0.13486248262E+02  0.19244501432E+03  0.28123212032E+03  0.75246478581E+02 0.  0.
         23    2    1    2    0    0  0.51687489384E+02 -0.20147096904E+03 -0.78091589415E+02  0.23970497426E+03  0.89989057235E+02 0.  0.
        -11    1    3    3    0    0  0.12361419546E+02  0.20436355884E+02  0.24515967513E+02  0.34226919202E+02  0.00000000000E+00 0.  1.
         12    1    3    3    0    0  0.17793443047E+03 -0.33922604146E+02  0.16792904681E+03  0.24700520112E+03  0.00000000000E+00 0. -1.
        -13    1    4    4    0    0  0.26738651809E+02 -0.66869967335E+01 -0.22591112529E+02  0.35637477341E+02  0.00000000000E+00 0.  1.
         13    1    4    4    0    0  0.24948837575E+02 -0.19478397230E+03 -0.55500476886E+02  0.20406749691E+03  0.00000000000E+00 0. -1.
          1    1    1    2  501    0 -0.24198333940E+03  0.21495721730E+03  0.32925934998E+03  0.46170798278E+03  0.00000000000E+00 0. -1.
<scales pt_clust_5="13000.00000" pt_clust_6="13000.00000" pt_clust_7="13000.00000" pt_clust_8="13000.00000" pt_clust_9="281.27257"></scales>
<clustering>
<clus scale="   75.246">  5  6 -1 -1</clus>
<clus scale="   89.989">  7  8 -1 -1</clus>
<clus scale="  205.077">  2  5  1 -1</clus>
<clus scale="  281.273">  1  9  2 -1</clus>
<clus scale="  281.273">  1  5  2 -1</clus>
</clustering>
</event>
<event>
 9    2  0.4653788E-005  0.1758153E+03  0.7546771E-02  0.1202716E+00
          2   -1    0    0  502    0 -0.00000000000E+00  0.00000000000E+00  0.65399473313E+03  0.65399473313E+03  0.00000000000E+00 0. -1.
         21   -1    0    0  501  502  0.00000000000E+00 -0.00000000000E+00 -0.14837122104E+03  0.14837122104E+03  0.00000000000E+00 0.  1.
         24    2    1    2    0    0  0.22256737250E+02 -0.31422260488E+02 -0.64760403201E+02  0.10985395214E+03  0.79945357413E+02 0.  0.
         23    2    1    2    0    0 -0.16799059930E+03  0.15344202839E+02  0.48811970131E+03  0.52439221322E+03  0.90939894805E+02 0.  0.
        -11    1    3    3    0    0  0.30296110069E+01  0.26633560146E+02 -0.13282910038E+02  0.29915894905E+02  0.00000000000E+00 0.  1.
         12    1    3    3    0    0  0.19227126243E+02 -0.58055820633E+02 -0.51477493163E+02  0.79938057240E+02  0.00000000000E+00 0. -1.
        -11    1    4    4    0    0 -0.91321279477E+02  0.50842134390E+02  0.31229285547E+03  0.32931948969E+03  0.00000000000E+00 0.  1.
         11    1    4    4    0    0 -0.76669319824E+02 -0.35497931552E+02  0.17582684584E+03  0.19507272353E+03  0.00000000000E+00 0. -1.
          1    1    1    2  501    0  0.14573386205E+03  0.16078057649E+02  0.82264213987E+02  0.16811978881E+03  0.00000000000E+00 0. -1.
<scales pt_clust_5="13000.00000" pt_clust_6="13000.00000" pt_clust_7="13000.00000" pt_clust_8="13000.00000" pt_clust_9="150.46915"></scales>
<clustering>
<clus scale="   79.945">  5  6 -1 -1</clus>
<clus scale="   88.735">  1  5  2 -1</clus>
<clus scale="   90.940">  7  8 -1 -1</clus>
<clus scale="  150.469">  2  9  1 -1</clus>
<clus scale="  150.469">  2  5  1 -1</clus>
</clustering>
</event>
<event>
 9    2  0.4653788E-005  0.9149061E+02  0.7546771E-02  0.1304229E+00
          4   -1    0    0  502    0 -0.00000000000E+00  0.00000000000E+00  0.63472936175E+02  0.63472936175E+02  0.00000000000E+00 0. -1.
         21   -1    0    0  501  502  0.00000000000E+00 -0.00000000000E+00 -0.21846450435E+03  0.21846450435E+03  0.00000000000E+00 0.  1.
         24    2    1    2    0    0 -0.40886335255E+01 -0.92997809852E+01 -0.77829145584E+02  0.11321099454E+03  0.81585234771E+02 0.  0.
         23    2    1    2    0    0 -0.32886564448E+02  0.15343791294E+02 -0.86846153576E+02  0.13002928883E+03  0.89712894898E+02 0.  0.
        -11    1    3    3    0    0  0.29738491025E+02 -0.14581560712E+02 -0.70935413287E+02  0.78286861090E+02  0.00000000000E+00 0.  1.
         12    1    3    3    0    0 -0.33827124550E+02  0.52817797266E+01 -0.68937322972E+01  0.34924133453E+02  0.00000000000E+00 0. -1.
        -13    1    4    4    0    0 -0.43543698326E+02 -0.19376268216E+02 -0.15752550846E+02  0.50195978843E+02  0.00000000000E+00 0.  1.
         13    1    4    4    0    0  0.10657133877E+02  0.34720059509E+02 -0.71093602730E+02  0.79833309990E+02  0.00000000000E+00 0. -1.
          3    1    1    2  501    0  0.36975197974E+02 -0.60440103083E+01  0.96837309829E+01  0.38697157151E+02  0.00000000000E+00 0. -1.
<scales pt_clust_5="13000.00000" pt_clust_6="13000.00000" pt_clust_7="13000.00000" pt_clust_8="13000.00000" pt_clust_9="37.46594"></scales>
<clustering>
<clus scale="   37.466">  2  9  1 -1</clus>
<clus scale="   81.585">  5  6 -1 -1</clus>
<clus scale="   83.536">  1  5  2 -1</clus>
<clus scale="   89.713">  7  8 -1 -1</clus>
<clus scale="   37.466">  2  5  1 -1</clus>
</clustering>
</event>
<event>
 9    2  0.4653788E-005  0.1539278E+03  0.7546771E-02  0.1217569E+00
          2   -1    0    0  502    0 -0.00000000000E+00  0.00000000000E+00  0.36509136414E+03  0.36509136414E+03  0.00000000000E+00 0. -1.
         21   -1    0    0  501  502  0.00000000000E+00 -0.00000000000E+00 -0.61129029652E+03  0.61129029652E+03  0.00000000000E+00 0. -1.
         23    2    1    2    0    0 -0.42084314780E+01  0.29318810179E+02  0.15331993770E+03  0.18105151183E+03  0.91626104981E+02 0.  0.
         24    2    1    2    0    0  0.56066034340E+02  0.92437360749E+02  0.16645759510E+03  0.21408739810E+03  0.80232270244E+02 0.  0.
        -13    1    4    4    0    0  0.86491676495E+01  0.60115732411E+02  0.13639178352E+03  0.14930314128E+03  0.00000000000E+00 0.  1.
         14    1    4    4    0    0  0.47416866691E+02  0.32321628337E+02  0.30065811578E+02  0.64784256814E+02  0.00000000000E+00 0. -1.
        -11    1    3    3    0    0  0.38625184539E+02 -0.69586024308E+01  0.75608632616E+02  0.85187982453E+02  0.00000000000E+00 0.  1.
         11    1    3    3    0    0 -0.42833616017E+02  0.36277412610E+02  0.77711305083E+02  0.95863529376E+02  0.00000000000E+00 0. -1.
          1    1    1    2  501    0 -0.51857602862E+02 -0.12175617093E+03 -0.56597646518E+03  0.58124275073E+03  0.00000000000E+00 0. -1.
<scales pt_clust_5="13000.00000" pt_clust_6="13000.00000" pt_clust_7="13000.00000" pt_clust_8="13000.00000" pt_clust_9="131.36418"></scales>
<clustering>
<clus scale="   80.232">  5  6 -1 -1</clus>
<clus scale="   91.626">  7  8 -1 -1</clus>
<clus scale="   96.295">  1  7  2 -1</clus>
<clus scale="  131.364">  2  9  1 -1</clus>
<clus scale="  131.364">  2  5  1 -1</clus>
</clustering>
</event>
<event>
 9    2  0.4653788E-005  0.3303043E+03  0.7546771E-02  0.1092726E+00
          2   -1    0    0  502    0 -0.00000000000E+00  0.00000000000E+00  0.10843810193E+04  0.10843810193E+04  0.00000000000E+00 0. -1.
         21   -1    0    0  501  502  0.00000000000E+00 -0.00000000000E+00 -0.18731548735E+03  0.18731548735E+03  0.00000000000E+00 0. -1.
         23    2    1    2    0    0  0.11035597717E+03 -0.11531100393E+03  0.54370748334E+02  0.19220016229E+03  0.92247790128E+02 0.  0.
         24    2    1    2    0    0 -0.35516178413E+03  0.13441826180E+03  0.32904025761E+03  0.51016696475E+03  0.88287478060E+02 0.  0.
        -11    1    4    4    0    0 -0.13735879474E+03  0.39595383469E+02  0.17950141181E+03  0.22946892977E+03  0.00000000000E+00 0.  1.
         12    1    4    4    0    0 -0.21780298939E+03  0.94822878332E+02  0.14953884580E+03  0.28069803498E+03  0.00000000000E+00 0. -1.
        -13    1    3    3    0    0  0.10792604646E+03 -0.67937766648E+02  0.11129456237E+02  0.12801342288E+03  0.00000000000E+00 0.  1.
         13    1    3    3    0    0  0.24299307189E+01 -0.47373237282E+02  0.43241292097E+02  0.64186739410E+02  0.00000000000E+00 0. -1.
          1    1    1    2  501    0  0.24480580695E+03 -0.19107257872E+02  0.51365452604E+03  0.56932937966E+03  0.00000000000E+00 0. -1.
<scales pt_clust_5="13000.00000" pt_clust_6="13000.00000" pt_clust_7="13000.00000" pt_clust_8="13000.00000" pt_clust_9="318.28661"></scales>
<clustering>
<clus scale="   88.287">  5  6 -1 -1</clus>
<clus scale="   92.248">  7  8 -1 -1</clus>
<clus scale="  184.350">  1  7  2 -1</clus>
<clus scale="  318.287">  2  9  1 -1</clus>
<clus scale="  318.287">  2  5  1 -1</clus>
</clustering>
</event>
<event>
 9    2  0.4653788E-005  0.1369036E+03  0.7546771E-02  0.1235658E+00
         -3   -1    0    0    0  501 -0.00000000000E+00  0.00000000000E+00  0.41140621275E+03  0.41140621275E+03  0.00000000000E+00 0.  1.
         21   -1    0    0  501  502  0.00000000000E+00 -0.00000000000E+00 -0.11186172823E+03  0.11186172823E+03  0.00000000000E+00 0.  1.
         23    2    1    2    0    0  0.56760969864E+01  0.24714312274E+02  0.25163918394E+03  0.26862591822E+03  0.90523973273E+02 0.  0.
         24    2    1    2    0    0  0.10484811748E+03 -0.40773539527E+02  0.17840165838E+02  0.13898125547E+03  0.79636101052E+02 0.  0.
        -11    1    4    4    0    0  0.99804613972E+02 -0.11770483164E+02 -0.66100139698E+01  0.10071344264E+03  0.00000000000E+00 0.  1.
         12    1    4    4    0    0  0.50435035037E+01 -0.29003056363E+02  0.24450179807E+02  0.38267812827E+02  0.00000000000E+00 0. -1.
        -13    1    3    3    0    0  0.15890277745E+02 -0.30978182506E+02  0.67086473851E+02  0.75582694395E+02  0.00000000000E+00 0.  1.
         13    1    3    3    0    0 -0.10214180759E+02  0.55692494780E+02  0.18455271009E+03  0.19304322383E+03  0.00000000000E+00 0. -1.
         -4    1    1    2    0  502 -0.11052421446E+03  0.16059227253E+02  0.30065134742E+02  0.11566076729E+03  0.00000000000E+00 0.  1.
<scales pt_clust_5="13000.00000" pt_clust_6="13000.00000" pt_clust_7="13000.00000" pt_clust_8="13000.00000" pt_clust_9="111.35839"></scales>
<clustering>
<clus scale="   79.636">  5  6 -1 -1</clus>
<clus scale="   90.524">  7  8 -1 -1</clus>
<clus scale="   94.009">  1  7  2 -1</clus>
<clus scale="  111.358">  2  9  1 -1</clus>
<clus scale="  111.358">  2  5  1 -1</clus>
</clustering>
</event>
<event>
 9    2  0.4653788E-005  0.9927313E+02  0.7546771E-02  0.1286990E+00
         21   -1    0    0  501  502  0.00000000000E+00  0.00000000000E+00  0.13113397196E+03  0.13113397196E+03  0.00000000000E+00 0.  1.
          2   -1    0    0  502    0 -0.00000000000E+00 -0.00000000000E+00 -0.14660454510E+03  0.14660454510E+03  0.00000000000E+00 0. -1.
         24    2    1    2    0    0 -0.11077541657E+02 -0.69023942757E+02 -0.16565026783E+02  0.10758094276E+03  0.80076479261E+02 0.  0.
         23    2    1    2    0    0  0.87360482165E+01 -0.48978627159E-02  0.29585266161E+02  0.95443520556E+02  0.90320867356E+02 0.  0.
        -11    1    3    3    0    0 -0.21704689714E+01 -0.73270411182E+02  0.14729330774E+02  0.74767755586E+02  0.00000000000E+00 0.  1.
         12    1    3    3    0    0 -0.89070726859E+01  0.42464684249E+01 -0.31294357557E+02  0.32813187178E+02  0.00000000000E+00 0. -1.
        -11    1    4    4    0    0  0.41950303093E+02 -0.23674940159E+02  0.25365677250E+02  0.54440318731E+02  0.00000000000E+00 0. -1.
         11    1    4    4    0    0 -0.33214254877E+02  0.23670042297E+02  0.42195889109E+01  0.41003201825E+02  0.00000000000E+00 0.  1.
          1    1    1    2  501    0  0.23414934409E+01  0.69028840620E+02 -0.28490812509E+02  0.74714053740E+02  0.00000000000E+00 0. -1.
<scales pt_clust_5="13000.00000" pt_clust_6="13000.00000" pt_clust_7="13000.00000" pt_clust_8="13000.00000" pt_clust_9="69.06858"></scales>
<clustering>
<clus scale="   69.069">  1  9  2 -1</clus>
<clus scale="   80.076">  5  6 -1 -1</clus>
<clus scale="   90.053">  2  5  1 -1</clus>
<clus scale="   90.321">  7  8 -1 -1</clus>
<clus scale="   69.069">  1  5  2 -1</clus>
</clustering>
</event>
<event>
 9    2  0.4653788E-005  0.9430624E+02  0.7546771E-02  0.1301305E+00
         21   -1    0    0  501  502  0.00000000000E+00  0.00000000000E+00  0.42926297202E+02  0.42926297202E+02  0.00000000000E+00 0.  1.
          2   -1    0    0  502    0 -0.00000000000E+00 -0.00000000000E+00 -0.55134825964E+03  0.55134825964E+03  0.00000000000E+00 0. -1.
         23    2    1    2    0    0  0.12143582531E+02 -0.43045376841E+02 -0.20745592309E+03  0.23119994314E+03  0.91733759430E+02 0.  0.
         24    2    1    2    0    0  0.30269231292E+01 -0.28621825678E+02 -0.39577299693E+02  0.91614846189E+02  0.77450282262E+02 0.  0.
        -13    1    4    4    0    0  0.39637243915E+02 -0.10065980893E+02 -0.13865170707E+02  0.43181917920E+02  0.00000000000E+00 0.  1.
         14    1    4    4    0    0 -0.36610320786E+02 -0.18555844785E+02 -0.25712128986E+02  0.48432928269E+02  0.00000000000E+00 0. -1.
        -11    1    3    3    0    0  0.27113531367E+02  0.21933158616E+02 -0.60685257064E+02  0.69992195672E+02  0.00000000000E+00 0.  1.
         11    1    3    3    0    0 -0.14969948835E+02 -0.64978535457E+02 -0.14677066603E+03  0.16120774747E+03  0.00000000000E+00 0. -1.
          1    1    1    2  501    0 -0.15170505661E+02  0.71667202519E+02 -0.26138873966E+03  0.27145976752E+03  0.00000000000E+00 0. -1.
<scales pt_clust_5="13000.00000" pt_clust_6="13000.00000" pt_clust_7="13000.00000" pt_clust_8="13000.00000" pt_clust_9="73.25529"></scales>
<clustering>
<clus scale="   73.255">  1  9  2 -1</clus>
<clus scale="   77.450">  5  6 -1 -1</clus>
<clus scale="   80.481">  1  5  2 -1</clus>
<clus scale="   91.734">  7  8 -1 -1</clus>
<clus scale="   73.255">  1  5  2 -1</clus>
</clustering>
</event>
<event>
 9    2  0.4653788E-005  0.1402337E+03  0.7546771E-02  0.1214892E+00
          2   -1    0    0  502    0 -0.00000000000E+00  0.00000000000E+00  0.33269291193E+03  0.33269291193E+03  0.00000000000E+00 0. -1.
         21   -1    0    0  501  502  0.00000000000E+00 -0.00000000000E+00 -0.82129387504E+02  0.82129387504E+02  0.00000000000E+00 0.  1.
         23    2    1    2    0    0  0.22451598303E+02  0.97823970813E+02  0.16217219728E+03  0.21041163597E+03  0.88879870873E+02 0.  0.
         24    2    1    2    0    0 -0.52297875061E+02 -0.11500144104E+03  0.66742130304E+02  0.16373446104E+03  0.79962882625E+02 0.  0.
        -11    1    4    4    0    0 -0.11412922174E+02 -0.10690925160E+03  0.52835704559E+02  0.11979755651E+03  0.00000000000E+00 0.  1.
         12    1    4    4    0    0 -0.40884952887E+02 -0.80921894413E+01  0.13906425745E+02  0.43936904529E+02  0.00000000000E+00 0. -1.
        -11    1    3    3    0    0  0.44595663762E+02  0.83437055367E+02  0.79340500956E+02  0.12347238771E+03  0.00000000000E+00 0. -1.
         11    1    3    3    0    0 -0.22144065459E+02  0.14386915446E+02  0.82831696327E+02  0.86939248257E+02  0.00000000000E+00 0.  1.
          1    1    1    2  501    0  0.29846276758E+02  0.17177470230E+02  0.21649196838E+02  0.40676202423E+02  0.00000000000E+00 0. -1.
<scales pt_clust_5="13000.00000" pt_clust_6="13000.00000" pt_clust_7="13000.00000" pt_clust_8="13000.00000" pt_clust_9="34.43640"></scales>
<clustering>
<clus scale="   34.436">  2  9  1 -1</clus>
<clus scale="   79.963">  5  6 -1 -1</clus>
<clus scale="   88.880">  7  8 -1 -1</clus>
<clus scale="  134.759">  2  5  1 -1</clus>
<clus scale="   34.436">  2  5  1 -1</clus>
</clustering>
</event>
<event>
 9    2  0.4653788E-005  0.9212050E+02  0.7546771E-02  0.1303596E+00
         -3   -1    0    0    0  501 -0.00000000000E+00  0.00000000000E+00  0.53356919701E+02  0.53356919701E+02  0.00000000000E+00 0.  1.
         21   -1    0    0  501  502  0.00000000000E+00 -0.00000000000E+00 -0.28641697244E+03  0.28641697244E+03  0.00000000000E+00 0. -1.
         24    2    1    2    0    0  0.76057294835E+01  0.25304169379E+02 -0.78465592333E+02  0.11582349588E+03  0.80994351095E+02 0.  0.
         23    2    1    2    0    0  0.13808899508E+02 -0.21483616817E+01 -0.16667212520E+03  0.19017691921E+03  0.90511668426E+02 0.  0.
        -11    1    3    3    0    0 -0.17786102831E+02  0.35845561498E+02 -0.78744984730E+02  0.88329057241E+02  0.00000000000E+00 0.  1.
         12    1    3    3    0    0  0.25391832314E+02 -0.10541392119E+02  0.27939239696E+00  0.27494438641E+02  0.00000000000E+00 0. -1.
        -13    1    4    4    0    0 -0.27929158090E+02 -0.54615858634E+01 -0.13710925298E+02  0.31588862979E+02  0.00000000000E+00 0.  1.
         13    1    4    4    0    0  0.41738057598E+02  0.33132241816E+01 -0.15296119990E+03  0.15858805624E+03  0.00000000000E+00 0. -1.
         -4    1    1    2    0  502 -0.21414628991E+02 -0.23155807698E+02  0.12077664789E+02  0.33773477045E+02  0.00000000000E+00 0.  1.
<scales pt_clust_5="13000.00000" pt_clust_6="13000.00000" pt_clust_7="13000.00000" pt_clust_8="13000.00000" pt_clust_9="31.54011"></scales>
<clustering>
<clus scale="   31.540">  2  9  1 -1</clus>
<clus scale="   80.994">  5  6 -1 -1</clus>
<clus scale="   82.788">  1  5  2 -1</clus>
<clus scale="   90.512">  7  8 -1 -1</clus>
<clus scale="   31.540">  2  5  1 -1</clus>
</clustering>
</event>
<event>
 9    2  0.8794226E-005  0.1691360E+03  0.7546771E-02  0.1191819E+00
         -3   -1    0    0    0  501 -0.00000000000E+00  0.00000000000E+00  0.26834979795E+03  0.26834979795E+03  0.00000000000E+00 0.  1.
         21   -1    0    0  501  502  0.00000000000E+00 -0.00000000000E+00 -0.12428226931E+04  0.12428226931E+04  0.00000000000E+00 0.  1.
         23    2    1    2    0    0  0.82083834800E+02 -0.50582144999E+01 -0.24977205872E+03  0.27994479075E+03  0.96019076674E+02 0.  0.
         24    2    1    2    0    0 -0.22184266333E+03 -0.38953507815E+02  0.18948654889E+03  0.30537234586E+03  0.81336181172E+02 0.  0.
        -11    1    4    4    0    0 -0.15017872191E+03  0.13236118970E+02  0.11606353561E+03  0.19026189229E+03  0.00000000000E+00 0.  1.
         12    1    4    4    0    0 -0.71663941410E+02 -0.52189626785E+02  0.73423013278E+02  0.11511045357E+03  0.00000000000E+00 0. -1.
        -11    1    3    3    0    0  0.24372075687E+02 -0.45905719390E+02 -0.73489199942E+02  0.90011086284E+02  0.00000000000E+00 0.  1.
         11    1    3    3    0    0  0.57711759113E+02  0.40847504890E+02 -0.17628285878E+03  0.18993370447E+03  0.00000000000E+00 0. -1.
         -4    1    1    2    0  502  0.13975882852E+03  0.44011722314E+02 -0.91418738532E+03  0.92585535443E+03  0.00000000000E+00 0.  1.
<scales pt_clust_5="13000.00000" pt_clust_6="13000.00000" pt_clust_7="13000.00000" pt_clust_8="13000.00000" pt_clust_9="148.29502"></scales>
<clustering>
<clus scale="   81.336">  5  6 -1 -1</clus>
<clus scale="   96.019">  7  8 -1 -1</clus>
<clus scale="  126.424">  1  7  2 -1</clus>
<clus scale="  148.295">  2  9  1 -1</clus>
<clus scale="  148.295">  2  5  1 -1</clus>
</clustering>
</event>
<event>
 9    2  0.4653788E-005  0.9128833E+02  0.7546771E-02  0.1305481E+00
          2   -1    0    0  502    0 -0.00000000000E+00  0.00000000000E+00  0.18595218551E+03  0.18595218551E+03  0.00000000000E+00 0. -1.
         21   -1    0    0  501  502  0.00000000000E+00 -0.00000000000E+00 -0.20856061180E+03  0.20856061180E+03  0.00000000000E+00 0.  1.
         23    2    1    2    0    0  0.11928681907E+02 -0.12690403195E+01  0.15924198482E+03  0.18365753297E+03  0.90709292649E+02 0.  0.
         24    2    1    2    0    0  0.11584561237E+02 -0.39786841608E+01 -0.14561836027E+03  0.16734465962E+03  0.81544443514E+02 0.  0.
        -11    1    4    4    0    0 -0.12722643691E+02 -0.30229470117E+02 -0.11705990051E+03  0.12156770474E+03  0.00000000000E+00 0.  1.
         12    1    4    4    0    0  0.24307204928E+02  0.26250785956E+02 -0.28558459756E+02  0.45776954883E+02  0.00000000000E+00 0. -1.
        -11    1    3    3    0    0 -0.28262769220E+02  0.11436148214E+02  0.16182342666E+02  0.34517210550E+02  0.00000000000E+00 0.  1.
         11    1    3    3    0    0  0.40191451127E+02 -0.12705188533E+02  0.14305964215E+03  0.14914032242E+03  0.00000000000E+00 0. -1.
          1    1    1    2  501    0 -0.23513243144E+02  0.52477244803E+01 -0.36232050838E+02  0.43510604723E+02  0.00000000000E+00 0. -1.
<scales pt_clust_5="13000.00000" pt_clust_6="13000.00000" pt_clust_7="13000.00000" pt_clust_8="13000.00000" pt_clust_9="24.09173"></scales>
<clustering>
<clus scale="   24.092">  2  9  1 -1</clus>
<clus scale="   81.544">  5  6 -1 -1</clus>
<clus scale="   82.188">  2  5  1 -1</clus>
<clus scale="   90.709">  7  8 -1 -1</clus>
<clus scale="   24.092">  2  5  1 -1</clus>
</clustering>
</event>
<event>
 9    2  0.4653788E-005  0.1313079E+03  0.7546771E-02  0.1228800E+00
         21   -1    0    0  501  502  0.00000000000E+00  0.00000000000E+00  0.24211151034E+03  0.24211151034E+03  0.00000000000E+00 0.  1.
          2   -1    0    0  502    0 -0.00000000000E+00 -0.00000000000E+00 -0.18424206734E+03  0.18424206734E+03  0.00000000000E+00 0. -1.
         23    2    1    2    0    0  0.11368925708E+03  0.46350699234E+02 -0.93793182890E+02  0.17991166766E+03  0.92181410869E+02 0.  0.
         24    2    1    2    0    0 -0.19124088330E+02 -0.49623356284E+02  0.51196092791E+02  0.10843174482E+03  0.79424146983E+02 0.  0.
        -13    1    4    4    0    0 -0.16346829952E+02 -0.64870799818E+02  0.60632242077E+02  0.90286811317E+02  0.00000000000E+00 0.  1.
         14    1    4    4    0    0 -0.27772583783E+01  0.15247443534E+02 -0.94361492863E+01  0.18144933502E+02  0.00000000000E+00 0. -1.
        -13    1    3    3    0    0  0.10623168004E+03  0.16265879196E+01 -0.78359747644E+02  0.13201539942E+03  0.00000000000E+00 0. -1.
         13    1    3    3    0    0  0.74575770357E+01  0.44724111314E+02 -0.15433435245E+02  0.47896268243E+02  0.00000000000E+00 0.  1.
          1    1    1    2  501    0 -0.94565168747E+02  0.32726570503E+01  0.10046653310E+03  0.13801016519E+03  0.00000000000E+00 0. -1.
<scales pt_clust_5="13000.00000" pt_clust_6="13000.00000" pt_clust_7="13000.00000" pt_clust_8="13000.00000" pt_clust_9="94.62178"></scales>
<clustering>
<clus scale="   79.424">  5  6 -1 -1</clus>
<clus scale="   92.181">  7  8 -1 -1</clus>
<clus scale="   94.622">  1  9  2 -1</clus>
<clus scale="  122.689">  1  5  2 -1</clus>
<clus scale="   94.622">  1  5  2 -1</clus>
</clustering>
</event>
<event>
 9    2  0.4653788E-005  0.1028183E+03  0.7546771E-02  0.1278482E+00
          2   -1    0    0  502    0 -0.00000000000E+00  0.00000000000E+00  0.40869604809E+03  0.40869604809E+03  0.00000000000E+00 0. -1.
         21   -1    0    0  501  502  0.00000000000E+00 -0.00000000000E+00 -0.38465537845E+02  0.38465537845E+02  0.00000000000E+00 0. -1.
         23    2    1    2    0    0  0.12779603904E+02 -0.55494577708E+02  0.26926090588E+03  0.28934359337E+03  0.89304608832E+02 0.  0.
         24    2    1    2    0    0  0.11818219180E+02  0.41583903030E+02  0.87607847767E+02  0.12655945277E+03  0.80456626825E+02 0.  0.
        -13    1    4    4    0    0 -0.19918585487E+02  0.45757985355E+02  0.78947749044E+02  0.93398556470E+02  0.00000000000E+00 0.  1.
         14    1    4    4    0    0  0.31736804667E+02 -0.41740823251E+01  0.86600987233E+01  0.33160896303E+02  0.00000000000E+00 0. -1.
        -11    1    3    3    0    0 -0.34925523308E+02 -0.12224392527E+02  0.60946805870E+02  0.71300358321E+02  0.00000000000E+00 0.  1.
         11    1    3    3    0    0  0.47705127212E+02 -0.43270185181E+02  0.20831410001E+03  0.21804323505E+03  0.00000000000E+00 0. -1.
          1    1    1    2  501    0 -0.24597823084E+02  0.13910674678E+02  0.13361756598E+02  0.31258539790E+02  0.00000000000E+00 0. -1.
<scales pt_clust_5="13000.00000" pt_clust_6="13000.00000" pt_clust_7="13000.00000" pt_clust_8="13000.00000" pt_clust_9="28.25880"></scales>
<clustering>
<clus scale="   28.259">  2  9  1 -1</clus>
<clus scale="   80.457">  5  6 -1 -1</clus>
<clus scale="   89.305">  7  8 -1 -1</clus>
<clus scale="   95.234">  2  5  1 -1</clus>
<clus scale="   28.259">  2  5  1 -1</clus>
</clustering>
</event>
<event>
 9    2  0.4653788E-005  0.1298325E+03  0.7546771E-02  0.1230426E+00
          2   -1    0    0  502    0 -0.00000000000E+00  0.00000000000E+00  0.55372364348E+03  0.55372364348E+03  0.00000000000E+00 0. -1.
         21   -1    0    0  501  502  0.00000000000E+00 -0.00000000000E+00 -0.84267709958E+02  0.84267709958E+02  0.00000000000E+00 0. -1.
         23    2    1    2    0    0 -0.56988481280E+02 -0.85056862967E+02  0.21454393562E+03  0.25439509571E+03  0.90583704232E+02 0.  0.
         24    2    1    2    0    0  0.69106434110E+02  0.28223731701E+02 -0.12282554129E+02  0.11015562756E+03  0.80069487831E+02 0.  0.
        -11    1    4    4    0    0  0.13176536091E+02  0.46025207443E+02  0.69815814273E+01  0.48380608747E+02  0.00000000000E+00 0.  1.
         12    1    4    4    0    0  0.55929898019E+02 -0.17801475742E+02 -0.19264135557E+02  0.61775018817E+02  0.00000000000E+00 0. -1.
        -13    1    3    3    0    0 -0.75909637285E+02 -0.70385136985E+02  0.12811611781E+03  0.16471211305E+03  0.00000000000E+00 0. -1.
         13    1    3    3    0    0  0.18921156004E+02 -0.14671725982E+02  0.86427817811E+02  0.89682982663E+02  0.00000000000E+00 0.  1.
          1    1    1    2  501    0 -0.12117952830E+02  0.56833131267E+02  0.26719455202E+03  0.27344063016E+03  0.00000000000E+00 0. -1.
<scales pt_clust_5="13000.00000" pt_clust_6="13000.00000" pt_clust_7="13000.00000" pt_clust_8="13000.00000" pt_clust_9="58.11070"></scales>
<clustering>
<clus scale="   58.111">  2  9  1 -1</clus>
<clus scale="   80.069">  5  6 -1 -1</clus>
<clus scale="   90.584">  7  8 -1 -1</clus>
<clus scale="  122.728">  2  5  1 -1</clus>
<clus scale="   58.111">  2  5  1 -1</clus>
</clustering>
</event>
<event>
 9    2  0.4653788E-005  0.1678769E+03  0.7546771E-02  0.1187754E+00
         -1   -1    0    0    0  501 -0.00000000000E+00  0.00000000000E+00  0.48837582784E+03  0.48837582784E+03  0.00000000000E+00 0.  1.
         21   -1    0    0  501  502  0.00000000000E+00 -0.00000000000E+00 -0.65116396222E+02  0.65116396222E+02  0.00000000000E+00 0.  1.
         24    2    1    2    0    0 -0.60661746026E+02  0.83492078106E+02  0.16214890813E+03  0.20837624346E+03  0.80483637428E+02 0.  0.
         23    2    1    2    0    0  0.10274570091E+03 -0.90745989014E+02  0.21526754869E+03  0.28246411056E+03  0.12105512239E+03 0.  0.
        -13    1    3    3    0    0 -0.68267187690E+02  0.85152902470E+02  0.16678139941E+03  0.19931748770E+03  0.00000000000E+00 0.  1.
         14    1    3    3    0    0  0.76054416642E+01 -0.16608243632E+01 -0.46324912794E+01  0.90587557604E+01  0.00000000000E+00 0. -1.
        -13    1    4    4    0    0  0.10454908782E+02 -0.87545729588E+02  0.82558287781E+02  0.12078671603E+03  0.00000000000E+00 0.  1.
         13    1    4    4    0    0  0.92290792125E+02 -0.32002594256E+01  0.13270926091E+03  0.16167739453E+03  0.00000000000E+00 0. -1.
         -2    1    1    2    0  502 -0.42083954881E+02  0.72539109075E+01  0.45842974794E+02  0.62651870042E+02  0.00000000000E+00 0.  1.
<scales pt_clust_5="13000.00000" pt_clust_6="13000.00000" pt_clust_7="13000.00000" pt_clust_8="13000.00000" pt_clust_9="42.70455"></scales>
<clustering>
<clus scale="   42.705">  2  9  1 -1</clus>
<clus scale="   80.484">  5  6 -1 -1</clus>
<clus scale="  121.055">  7  8 -1 -1</clus>
<clus scale="  141.442">  1  5  2 -1</clus>
<clus scale="   42.705">  2  5  1 -1</clus>
</clustering>
</event>
<event>
 9    2  0.4653788E-005  0.1167226E+03  0.7546771E-02  0.1252672E+00
         21   -1    0    0  501  502  0.00000000000E+00  0.00000000000E+00  0.10512972704E+03  0.10512972704E+03  0.00000000000E+00 0. -1.
          2   -1    0    0  502    0 -0.00000000000E+00 -0.00000000000E+00 -0.34609564826E+03  0.34609564826E+03  0.00000000000E+00 0. -1.
         23    2    1    2    0    0  0.69137473112E+02 -0.18836513530E+02 -0.26951047539E+03  0.29347912098E+03  0.91429172998E+02 0.  0.
         24    2    1    2    0    0 -0.83607524459E+02 -0.11262518914E+02  0.39728403231E+02  0.12252676228E+03  0.79482066996E+02 0.  0.
        -13    1    4    4    0    0 -0.39501989525E+02  0.21245413820E+02 -0.12779370419E+02  0.46637828992E+02  0.00000000000E+00 0.  1.
         14    1    4    4    0    0 -0.44105534934E+02 -0.32507932734E+02  0.52507773650E+02  0.75888933292E+02  0.00000000000E+00 0. -1.
        -11    1    3    3    0    0 -0.67965948986E-01 -0.22475626495E+02 -0.95162524141E+01  0.24407324018E+02  0.00000000000E+00 0.  1.
         11    1    3    3    0    0  0.69205439061E+02  0.36391129654E+01 -0.25999422297E+03  0.26907179696E+03  0.00000000000E+00 0. -1.
          1    1    1    2  501    0  0.14470051347E+02  0.30099032443E+02 -0.11183849059E+02  0.35219492043E+02  0.00000000000E+00 0. -1.
<scales pt_clust_5="13000.00000" pt_clust_6="13000.00000" pt_clust_7="13000.00000" pt_clust_8="13000.00000" pt_clust_9="33.39662"></scales>
<clustering>
<clus scale="   33.397">  1  9  2 -1</clus>
<clus scale="   79.482">  5  6 -1 -1</clus>
<clus scale="   91.429">  7  8 -1 -1</clus>
<clus scale="  107.621">  1  5  2 -1</clus>
<clus scale="   33.397">  1  5  2 -1</clus>
</clustering>
</event>
<event>
 9    2  0.4653788E-005  0.1415842E+03  0.7546771E-02  0.1213167E+00
         21   -1    0    0  501  502  0.00000000000E+00  0.00000000000E+00  0.28259587439E+02  0.28259587439E+02  0.00000000000E+00 0. -1.
          2   -1    0    0  502    0 -0.00000000000E+00 -0.00000000000E+00 -0.89472579142E+03  0.89472579142E+03  0.00000000000E+00 0. -1.
         24    2    1    2    0    0 -0.46620437657E+01  0.10952857775E+03 -0.55126910202E+03  0.56818860843E+03  0.83201129260E+02 0.  0.
         23    2    1    2    0    0  0.26444692040E+02 -0.10093374273E+03 -0.26420028089E+03  0.29868054538E+03  0.92311091450E+02 0.  0.
        -11    1    3    3    0    0 -0.39104791060E+02  0.51460711439E+02 -0.19075480523E+03  0.20140701384E+03  0.00000000000E+00 0.  1.
         12    1    3    3    0    0  0.34442747295E+02  0.58067866314E+02 -0.36051429679E+03  0.36678159459E+03  0.00000000000E+00 0. -1.
        -11    1    4    4    0    0 -0.80213974651E+00 -0.23148086161E+02 -0.13387558649E+01  0.23200637671E+02  0.00000000000E+00 0. -1.
         11    1    4    4    0    0  0.27246831786E+02 -0.77785656572E+02 -0.26286152502E+03  0.27547990770E+03  0.00000000000E+00 0.  1.
          1    1    1    2  501    0 -0.21782648274E+02 -0.85948350205E+01 -0.50996821068E+02  0.56116225050E+02  0.00000000000E+00 0. -1.
<scales pt_clust_5="13000.00000" pt_clust_6="13000.00000" pt_clust_7="13000.00000" pt_clust_8="13000.00000" pt_clust_9="23.41698"></scales>
<clustering>
<clus scale="   23.417">  1  9  2 -1</clus>
<clus scale="   83.201">  5  6 -1 -1</clus>
<clus scale="   92.311">  7  8 -1 -1</clus>
<clus scale="  135.820">  2  5  1 -1</clus>
<clus scale="   23.417">  1  5  2 -1</clus>
</clustering>
</event>
<event>
 9    2  0.4653788E-005  0.1001636E+03  0.7546771E-02  0.1285548E+00
         -3   -1    0    0    0  501 -0.00000000000E+00  0.00000000000E+00  0.70853777011E+03  0.70853777011E+03  0.00000000000E+00 0.  1.
         21   -1    0    0  501  502  0.00000000000E+00 -0.00000000000E+00 -0.26150909607E+02  0.26150909607E+02  0.00000000000E+00 0. -1.
         23    2    1    2    0    0  0.35973126764E+02  0.54295246209E+02  0.32537120742E+03  0.34426519716E+03  0.91706399702E+02 0.  0.
         24    2    1    2    0    0 -0.35521582477E+02  0.13553795133E+02  0.22482898224E+03  0.24184013137E+03  0.80579710220E+02 0.  0.
        -11    1    4    4    0    0 -0.58396950695E+02  0.24751767872E+02  0.16758587707E+03  0.17918671842E+03  0.00000000000E+00 0.  1.
         12    1    4    4    0    0  0.22875368219E+02 -0.11197972740E+02  0.57243105171E+02  0.62653412950E+02  0.00000000000E+00 0. -1.
        -11    1    3    3    0    0  0.87367322933E+01 -0.23288389922E+02  0.38446023626E+02  0.45790570306E+02  0.00000000000E+00 0.  1.
         11    1    3    3    0    0  0.27236394471E+02  0.77583636131E+02  0.28692518380E+03  0.29847462686E+03  0.00000000000E+00 0. -1.
         -4    1    1    2    0  502 -0.45154428764E+00 -0.67849041342E+02  0.13218667084E+03  0.14858335119E+03  0.00000000000E+00 0.  1.
<scales pt_clust_5="13000.00000" pt_clust_6="13000.00000" pt_clust_7="13000.00000" pt_clust_8="13000.00000" pt_clust_9="67.85054"></scales>
<clustering>
<clus scale="   67.851">  2  9  1 -1</clus>
<clus scale="   80.580">  5  6 -1 -1</clus>
<clus scale="   90.088">  2  5  1 -1</clus>
<clus scale="   91.706">  7  8 -1 -1</clus>
<clus scale="   67.851">  2  5  1 -1</clus>
</clustering>
</event>
<event>
 9    2  0.4653788E-005  0.1031853E+03  0.7546771E-02  0.1279195E+00
          2   -1    0    0  502    0 -0.00000000000E+00  0.00000000000E+00  0.78273584036E+03  0.78273584036E+03  0.00000000000E+00 0. -1.
         21   -1    0    0  501  502  0.00000000000E+00 -0.00000000000E+00 -0.25632974721E+02  0.25632974721E+02  0.00000000000E+00 0. -1.
         24    2    1    2    0    0  0.45408913859E+02  0.28502770029E+02  0.55378362016E+03  0.56222122489E+03  0.80882818955E+02 0.  0.
         23    2    1    2    0    0 -0.12769263813E+02 -0.53143102847E+01  0.10851311156E+03  0.14323376969E+03  0.92463622080E+02 0.  0.
        -13    1    3    3    0    0  0.49657173442E+01 -0.20470926977E+02  0.47398492133E+02  0.51868432177E+02  0.00000000000E+00 0.  1.
         14    1    3    3    0    0  0.40443196515E+02  0.48973697006E+02  0.50638512803E+03  0.51035279272E+03  0.00000000000E+00 0. -1.
        -13    1    4    4    0    0 -0.61115935029E+00  0.39945247191E+02  0.24022061787E+02  0.46616045965E+02  0.00000000000E+00 0. -1.
         13    1    4    4    0    0 -0.12158104463E+02 -0.45259557475E+02  0.84491049772E+02  0.96617723729E+02  0.00000000000E+00 0.  1.
          1    1    1    2  501    0 -0.32639650046E+02 -0.23188459744E+02  0.94806133917E+02  0.10291382049E+03  0.00000000000E+00 0. -1.
<scales pt_clust_5="13000.00000" pt_clust_6="13000.00000" pt_clust_7="13000.00000" pt_clust_8="13000.00000" pt_clust_9="40.03812"></scales>
<clustering>
<clus scale="   40.038">  2  9  1 -1</clus>
<clus scale="   80.883">  5  6 -1 -1</clus>
<clus scale="   92.464">  7  8 -1 -1</clus>
<clus scale="   92.950">  1  5  2 -1</clus>
<clus scale="   40.038">  2  5  1 -1</clus>
</clustering>
</event>
<event>
 9    2  0.4653788E-005  0.1027925E+03  0.7546771E-02  0.1278151E+00
         21   -1    0    0  501  502  0.00000000000E+00  0.00000000000E+00  0.11917103263E+03  0.11917103263E+03  0.00000000000E+00 0.  1.
          2   -1    0    0  502    0 -0.00000000000E+00 -0.00000000000E+00 -0.15593281146E+03  0.15593281146E+03  0.00000000000E+00 0. -1.
         23    2    1    2    0    0  0.43489530963E+02 -0.53462683404E+01 -0.58642283524E+02  0.11513445149E+03  0.88865643609E+02 0.  0.
         24    2    1    2    0    0 -0.75076250087E+02 -0.95221330883E+01  0.43450850123E+02  0.11893197080E+03  0.80806701184E+02 0.  0.
        -13    1    4    4    0    0 -0.62892108558E+02  0.29552676509E+02  0.23153284056E+02  0.73245153904E+02  0.00000000000E+00 0.  1.
         14    1    4    4    0    0 -0.12184141529E+02 -0.39074809597E+02  0.20297566067E+02  0.45686816896E+02  0.00000000000E+00 0. -1.
        -11    1    3    3    0    0  0.61722613501E+02 -0.29484895852E+02 -0.45487078732E+02  0.82146907625E+02  0.00000000000E+00 0.  1.
         11    1    3    3    0    0 -0.18233082538E+02  0.24138627512E+02 -0.13155204792E+02  0.32987543863E+02  0.00000000000E+00 0. -1.
          1    1    1    2  501    0  0.31586719124E+02  0.14868401429E+02 -0.21570345424E+02  0.41037421797E+02  0.00000000000E+00 0. -1.
<scales pt_clust_5="13000.00000" pt_clust_6="13000.00000" pt_clust_7="13000.00000" pt_clust_8="13000.00000" pt_clust_9="34.91119"></scales>
<clustering>
<clus scale="   34.911">  1  9  2 -1</clus>
<clus scale="   80.807">  5  6 -1 -1</clus>
<clus scale="   88.866">  7  8 -1 -1</clus>
<clus scale="   95.911">  1  5  2 -1</clus>
<clus scale="   34.911">  1  5  2 -1</clus>
</clustering>
</event>
<event>
 9    2  0.4653788E-005  0.1047227E+03  0.7546771E-02  0.1276329E+00
         21   -1    0    0  501  502  0.00000000000E+00  0.00000000000E+00  0.32526206959E+03  0.32526206959E+03  0.00000000000E+00 0.  1.
          2   -1    0    0  502    0 -0.00000000000E+00 -0.00000000000E+00 -0.76212075003E+02  0.76212075003E+02  0.00000000000E+00 0. -1.
         24    2    1    2    0    0  0.35710377863E+02 -0.70866585807E+02  0.72685793360E+02  0.13394596592E+03  0.79755834638E+02 0.  0.
         23    2    1    2    0    0  0.43731540525E+02  0.21392784438E+02  0.11682950535E+03  0.15660903951E+03  0.92234261932E+02 0.  0.
        -13    1    3    3    0    0  0.48880490796E+02 -0.81745020515E+02  0.64292757010E+02  0.11491348643E+03  0.00000000000E+00 0.  1.
         14    1    3    3    0    0 -0.13170112933E+02  0.10878434708E+02  0.83930363499E+01  0.19032479490E+02  0.00000000000E+00 0. -1.
        -11    1    4    4    0    0  0.51650954911E+02  0.41315858299E+02  0.41027908312E+02  0.77833865063E+02  0.00000000000E+00 0.  1.
         11    1    4    4    0    0 -0.79194143858E+01 -0.19923073861E+02  0.75801597034E+02  0.78775174447E+02  0.00000000000E+00 0. -1.
          1    1    1    2  501    0 -0.79441918388E+02  0.49473801369E+02  0.59534695881E+02  0.11091913916E+03  0.00000000000E+00 0. -1.
<scales pt_clust_5="13000.00000" pt_clust_6="13000.00000" pt_clust_7="13000.00000" pt_clust_8="13000.00000" pt_clust_9="93.58784"></scales>
<clustering>
<clus scale="   79.756">  5  6 -1 -1</clus>
<clus scale="   92.234">  7  8 -1 -1</clus>
<clus scale="   93.588">  1  9  2 -1</clus>
<clus scale="   93.919">  2  5  1 -1</clus>
<clus scale="   93.588">  1  5  2 -1</clus>
</clustering>
</event>
<event>
 9    2  0.4653788E-005  0.1014187E+03  0.7546771E-02  0.1282467E+00
         -1   -1    0    0    0  501 -0.00000000000E+00  0.00000000000E+00  0.52451175154E+03  0.52451175154E+03  0.00000000000E+00 0.  1.
         21   -1    0    0  501  502  0.00000000000E+00 -0.00000000000E+00 -0.22647143187E+02  0.22647143187E+02  0.00000000000E+00 0.  1.
         23    2    1    2    0    0  0.12715264248E+02 -0.47256562933E+02  0.25215134660E+03  0.27304536204E+03  0.92620772280E+02 0.  0.
         24    2    1    2    0    0  0.51491317059E+01  0.34939048975E+02  0.17839158444E+03  0.19956395557E+03  0.82188589611E+02 0.  0.
        -11    1    4    4    0    0  0.32774819646E+02  0.43400310492E+02  0.14778485080E+03  0.15747424513E+03  0.00000000000E+00 0.  1.
         12    1    4    4    0    0 -0.27625687940E+02 -0.84612615173E+01  0.30606733644E+02  0.42089710440E+02  0.00000000000E+00 0. -1.
        -11    1    3    3    0    0  0.36785167952E+02 -0.12271816714E+01  0.18240940181E+03  0.18608558361E+03  0.00000000000E+00 0. -1.
         11    1    3    3    0    0 -0.24069903704E+02 -0.46029381262E+02  0.69741944782E+02  0.86959778436E+02  0.00000000000E+00 0.  1.
         -2    1    1    2    0  502 -0.17864395954E+02  0.12317513958E+02  0.71321677309E+02  0.74549577109E+02  0.00000000000E+00 0.  1.
<scales pt_clust_5="13000.00000" pt_clust_6="13000.00000" pt_clust_7="13000.00000" pt_clust_8="13000.00000" pt_clust_9="21.69927"></scales>
<clustering>
<clus scale="   21.699">  2  9  1 -1</clus>
<clus scale="   82.189">  5  6 -1 -1</clus>
<clus scale="   91.990">  2  5  1 -1</clus>
<clus scale="   92.621">  7  8 -1 -1</clus>
<clus scale="   21.699">  2  5  1 -1</clus>
</clustering>
</event>
<event>
 9    2  0.4653788E-005  0.1149931E+03  0.7546771E-02  0.1255365E+00
         21   -1    0    0  501  502  0.00000000000E+00  0.00000000000E+00  0.31520315832E+02  0.31520315832E+02  0.00000000000E+00 0. -1.
         -1   -1    0    0    0  501 -0.00000000000E+00 -0.00000000000E+00 -0.55573394355E+03  0.55573394355E+03  0.00000000000E+00 0.  1.
         23    2    1    2    0    0  0.87868165821E+01 -0.79460888342E+02 -0.31769109846E+03  0.34004546279E+03  0.91170399810E+02 0.  0.
         24    2    1    2    0    0  0.25063797294E+01  0.59945035765E+02 -0.19995105921E+03  0.22372286456E+03  0.80447528213E+02 0.  0.
        -13    1    4    4    0    0 -0.37551752266E+02  0.24358960438E+02 -0.11357819512E+03  0.12207988966E+03  0.00000000000E+00 0.  1.
         14    1    4    4    0    0  0.40058131995E+02  0.35586075327E+02 -0.86372864094E+02  0.10164297491E+03  0.00000000000E+00 0. -1.
        -11    1    3    3    0    0  0.29620175539E+02 -0.89224406054E+02 -0.21249649351E+03  0.23236417363E+03  0.00000000000E+00 0. -1.
         11    1    3    3    0    0 -0.20833358957E+02  0.97635177126E+01 -0.10519460495E+03  0.10768128916E+03  0.00000000000E+00 0.  1.
         -2    1    1    2    0  502 -0.11293196312E+02  0.19515852577E+02 -0.65714700444E+01  0.23485932029E+02  0.00000000000E+00 0.  1.
<scales pt_clust_5="13000.00000" pt_clust_6="13000.00000" pt_clust_7="13000.00000" pt_clust_8="13000.00000" pt_clust_9="22.54783"></scales>
<clustering>
<clus scale="   22.548">  1  9  2 -1</clus>
<clus scale="   80.448">  5  6 -1 -1</clus>
<clus scale="   91.170">  7  8 -1 -1</clus>
<clus scale="  106.692">  1  5  2 -1</clus>
<clus scale="   22.548">  1  5  2 -1</clus>
</clustering>
</event>
<event>
 9    2  0.4653788E-005  0.1303640E+03  0.7546771E-02  0.1245031E+00
          2   -1    0    0  502    0 -0.00000000000E+00  0.00000000000E+00  0.14572142324E+03  0.14572142324E+03  0.00000000000E+00 0. -1.
         21   -1    0    0  501  502  0.00000000000E+00 -0.00000000000E+00 -0.84393506458E+03  0.84393506458E+03  0.00000000000E+00 0. -1.
         23    2    1    2    0    0 -0.25443668030E+01  0.30489134828E+01  0.11372275560E+03  0.14503503805E+03  0.89925121320E+02 0.  0.
         24    2    1    2    0    0  0.16227114613E+02  0.98945237894E+02 -0.42080014944E+03  0.44017418670E+03  0.81406814910E+02 0.  0.
        -13    1    4    4    0    0  0.28622236901E+02 -0.78386099709E+00 -0.96861461184E+02  0.10100489862E+03  0.00000000000E+00 0.  1.
         14    1    4    4    0    0 -0.12395122288E+02  0.99729098891E+02 -0.32393868826E+03  0.33916928807E+03  0.00000000000E+00 0. -1.
        -11    1    3    3    0    0  0.85076734307E+00 -0.32331178081E+02  0.77461581376E+01  0.33257057101E+02  0.00000000000E+00 0.  1.
         11    1    3    3    0    0 -0.33951341461E+01  0.35380091563E+02  0.10597659746E+03  0.11177798094E+03  0.00000000000E+00 0. -1.
          1    1    1    2  501    0 -0.13682747810E+02 -0.10199415138E+03 -0.39113624750E+03  0.40444726308E+03  0.00000000000E+00 0. -1.
<scales pt_clust_5="13000.00000" pt_clust_6="13000.00000" pt_clust_7="13000.00000" pt_clust_8="13000.00000" pt_clust_9="101.82195"></scales>
<clustering>
<clus scale="   81.407">  5  6 -1 -1</clus>
<clus scale="   89.925">  7  8 -1 -1</clus>
<clus scale="   90.013">  1  7  2 -1</clus>
<clus scale="  101.822">  2  9  1 -1</clus>
<clus scale="  101.822">  2  5  1 -1</clus>
</clustering>
</event>
<event>
 9    2  0.4653788E-005  0.9932189E+02  0.7546771E-02  0.1285774E+00
         21   -1    0    0  501  502  0.00000000000E+00  0.00000000000E+00  0.16507492953E+03  0.16507492953E+03  0.00000000000E+00 0.  1.
          2   -1    0    0  502    0 -0.00000000000E+00 -0.00000000000E+00 -0.47442336178E+03  0.47442336178E+03  0.00000000000E+00 0. -1.
         24    2    1    2    0    0 -0.40730721915E+02  0.16976322368E+02 -0.41922411758E+03  0.42908143304E+03  0.80092622552E+02 0.  0.
         23    2    1    2    0    0  0.42332753680E+02 -0.72630814595E+02  0.61298613679E+02  0.13652693405E+03  0.88401280639E+02 0.  0.
        -11    1    3    3    0    0 -0.49291151726E+02 -0.11452241331E+02 -0.15176101778E+03  0.15997555434E+03  0.00000000000E+00 0.  1.
         12    1    3    3    0    0  0.85604298111E+01  0.28428563699E+02 -0.26746309980E+03  0.26910587869E+03  0.00000000000E+00 0. -1.
        -13    1    4    4    0    0 -0.27541239555E+02 -0.23423790047E+02  0.23193518058E+02  0.42955012470E+02  0.00000000000E+00 0. -1.
         13    1    4    4    0    0  0.69873993235E+02 -0.49207024548E+02  0.38105095621E+02  0.93571921578E+02  0.00000000000E+00 0.  1.
          1    1    1    2  501    0 -0.16020317654E+01  0.55654492228E+02  0.48577071649E+02  0.73889924218E+02  0.00000000000E+00 0. -1.
<scales pt_clust_5="13000.00000" pt_clust_6="13000.00000" pt_clust_7="13000.00000" pt_clust_8="13000.00000" pt_clust_9="55.67754"></scales>
<clustering>
<clus scale="   55.678">  1  9  2 -1</clus>
<clus scale="   80.093">  5  6 -1 -1</clus>
<clus scale="   88.401">  7  8 -1 -1</clus>
<clus scale="   92.005">  2  5  1 -1</clus>
<clus scale="   55.678">  1  5  2 -1</clus>
</clustering>
</event>
<event>
 9    2  0.4653788E-005  0.1183367E+03  0.7546771E-02  0.1250739E+00
         21   -1    0    0  501  502  0.00000000000E+00  0.00000000000E+00  0.93405397574E+03  0.93405397574E+03  0.00000000000E+00 0. -1.
         -1   -1    0    0    0  501 -0.00000000000E+00 -0.00000000000E+00 -0.26900202661E+02  0.26900202661E+02  0.00000000000E+00 0.  1.
         23    2    1    2    0    0 -0.46162256470E+02  0.71861154814E+02  0.24525738566E+03  0.27532292790E+03  0.91414166913E+02 0.  0.
         24    2    1    2    0    0  0.66637776889E+02 -0.15069825903E+02  0.53920142945E+03  0.54888859188E+03  0.76634273114E+02 0.  0.
        -13    1    4    4    0    0  0.15054176996E+01 -0.29808764382E+02  0.91780664617E+02  0.96511756351E+02  0.00000000000E+00 0.  1.
         14    1    4    4    0    0  0.65132359189E+02  0.14738938479E+02  0.44742076483E+03  0.45237683553E+03  0.00000000000E+00 0. -1.
        -11    1    3    3    0    0 -0.53088911319E+02  0.22943968847E+02  0.58977230437E+02  0.82602493434E+02  0.00000000000E+00 0. -1.
         11    1    3    3    0    0  0.69266548491E+01  0.48917185967E+02  0.18628015522E+03  0.19272043447E+03  0.00000000000E+00 0.  1.
         -2    1    1    2    0  502 -0.20475520418E+02 -0.56791328910E+02  0.12269495798E+03  0.13674265863E+03  0.00000000000E+00 0.  1.
<scales pt_clust_5="13000.00000" pt_clust_6="13000.00000" pt_clust_7="13000.00000" pt_clust_8="13000.00000" pt_clust_9="60.36974"></scales>
<clustering>
<clus scale="   60.370">  1  9  2 -1</clus>
<clus scale="   76.634">  5  6 -1 -1</clus>
<clus scale="   91.414">  7  8 -1 -1</clus>
<clus scale="  107.331">  1  5  2 -1</clus>
<clus scale="   60.370">  1  5  2 -1</clus>
</clustering>
</event>
<event>
 9    2  0.4653788E-005  0.1000680E+03  0.7546771E-02  0.1286085E+00
          2   -1    0    0  502    0 -0.00000000000E+00  0.00000000000E+00  0.20159485302E+03  0.20159485302E+03  0.00000000000E+00 0. -1.
         21   -1    0    0  501  502  0.00000000000E+00 -0.00000000000E+00 -0.14428262473E+03  0.14428262473E+03  0.00000000000E+00 0.  1.
         23    2    1    2    0    0  0.11707258368E+02  0.32135211241E+02  0.14634613995E+03  0.17635332254E+03  0.92269008829E+02 0.  0.
         24    2    1    2    0    0 -0.75655256511E+01 -0.60142777197E+02 -0.31944170714E+02  0.10579962130E+03  0.80614756696E+02 0.  0.
        -13    1    4    4    0    0  0.62715955999E+01 -0.73435019326E+02 -0.41265318084E+02  0.84468109078E+02  0.00000000000E+00 0.  1.
         14    1    4    4    0    0 -0.13837121251E+02  0.13292242129E+02  0.93211473703E+01  0.21331512221E+02  0.00000000000E+00 0. -1.
        -11    1    3    3    0    0  0.47990062962E+02  0.37575150322E+02  0.10170967569E+03  0.11857401146E+03  0.00000000000E+00 0. -1.
         11    1    3    3    0    0 -0.36282804595E+02 -0.54399390810E+01  0.44636464267E+02  0.57779311079E+02  0.00000000000E+00 0.  1.
          1    1    1    2  501    0 -0.41417327166E+01  0.28007565956E+02 -0.57089740954E+02  0.63724533916E+02  0.00000000000E+00 0. -1.
<scales pt_clust_5="13000.00000" pt_clust_6="13000.00000" pt_clust_7="13000.00000" pt_clust_8="13000.00000" pt_clust_9="28.31215"></scales>
<clustering>
<clus scale="   28.312">  2  9  1 -1</clus>
<clus scale="   80.615">  5  6 -1 -1</clus>
<clus scale="   89.436">  2  5  1 -1</clus>
<clus scale="   92.269">  7  8 -1 -1</clus>
<clus scale="   28.312">  2  5  1 -1</clus>
</clustering>
</event>
<event>
 9    2  0.5469030E-005  0.9443107E+02  0.7546771E-02  0.1298570E+00
         -1   -1    0    0    0  501 -0.00000000000E+00  0.00000000000E+00  0.36163242639E+03  0.36163242639E+03  0.00000000000E+00 0.  1.
         21   -1    0    0  501  502  0.00000000000E+00 -0.00000000000E+00 -0.23498433218E+03  0.23498433218E+03  0.00000000000E+00 0.  1.
         23    2    1    2    0    0 -0.94936599623E+01  0.56362423525E+01  0.26914274484E+03  0.28500945520E+03  0.93116462835E+02 0.  0.
         24    2    1    2    0    0  0.43283301073E+02  0.71604002267E+02  0.29665156385E+02  0.11991276931E+03  0.80613109656E+02 0.  0.
        -13    1    4    4    0    0  0.39498070290E+02  0.86362416628E+02  0.38301647437E+02  0.10239912480E+03  0.00000000000E+00 0.  1.
         14    1    4    4    0    0  0.37852307827E+01 -0.14758414361E+02 -0.86364910527E+01  0.17513644516E+02  0.00000000000E+00 0. -1.
        -11    1    3    3    0    0  0.16600913184E+02 -0.27209989275E+02  0.35831982478E+02  0.47957322728E+02  0.00000000000E+00 0.  1.
         11    1    3    3    0    0 -0.26094573146E+02  0.32846231628E+02  0.23331076236E+03  0.23705213248E+03  0.00000000000E+00 0. -1.
         -2    1    1    2    0  502 -0.33789641110E+02 -0.77240244619E+02 -0.17215980701E+03  0.19169453406E+03  0.00000000000E+00 0.  1.
<scales pt_clust_5="13000.00000" pt_clust_6="13000.00000" pt_clust_7="13000.00000" pt_clust_8="13000.00000" pt_clust_9="84.30774"></scales>
<clustering>
<clus scale="   80.613">  5  6 -1 -1</clus>
<clus scale="   84.308">  2  9  1 -1</clus>
<clus scale="   84.308">  2  5  1 -1</clus>
<clus scale="   93.116">  7  8 -1 -1</clus>
<clus scale="   84.308">  2  5  1 -1</clus>
</clustering>
</event>
<event>
 9    2  0.4653788E-005  0.1614973E+03  0.7546771E-02  0.1209519E+00
          2   -1    0    0  502    0 -0.00000000000E+00  0.00000000000E+00  0.13938229958E+04  0.13938229958E+04  0.00000000000E+00 0. -1.
         21   -1    0    0  501  502  0.00000000000E+00 -0.00000000000E+00 -0.48157958716E+02  0.48157958716E+02  0.00000000000E+00 0. -1.
         23    2    1    2    0    0 -0.11922602831E+02  0.34046652849E+02  0.66322584200E+02  0.11909285433E+03  0.92103744487E+02 0.  0.
         24    2    1    2    0    0 -0.12431207351E+03 -0.73598194281E+02  0.95364374415E+03  0.96763627354E+03  0.77545994631E+02 0.  0.
        -11    1    4    4    0    0 -0.24213055333E+02 -0.57136413031E+02  0.32731648952E+03  0.33314700367E+03  0.00000000000E+00 0.  1.
         12    1    4    4    0    0 -0.10009901818E+03 -0.16461781250E+02  0.62632725463E+03  0.63448926987E+03  0.00000000000E+00 0. -1.
        -11    1    3    3    0    0  0.18896399396E+02 -0.22959184010E+02  0.38305425892E+02  0.48492305506E+02  0.00000000000E+00 0.  1.
         11    1    3    3    0    0 -0.30819002227E+02  0.57005836859E+02  0.28017158308E+02  0.70600548822E+02  0.00000000000E+00 0. -1.
          1    1    1    2  501    0  0.13623467634E+03  0.39551541432E+02  0.32569870870E+03  0.35525182662E+03  0.00000000000E+00 0. -1.
<scales pt_clust_5="13000.00000" pt_clust_6="13000.00000" pt_clust_7="13000.00000" pt_clust_8="13000.00000" pt_clust_9="141.66156"></scales>
<clustering>
<clus scale="   77.546">  5  6 -1 -1</clus>
<clus scale="   92.104">  7  8 -1 -1</clus>
<clus scale="   98.916">  1  7  2 -1</clus>
<clus scale="  141.662">  2  9  1 -1</clus>
<clus scale="  141.662">  2  5  1 -1</clus>
</clustering>
</event>
<event>
 9    2  0.4653788E-005  0.1330091E+03  0.7546771E-02  0.1223761E+00
          4   -1    0    0  502    0 -0.00000000000E+00  0.00000000000E+00  0.63978399563E+03  0.63978399563E+03  0.00000000000E+00 0. -1.
         21   -1    0    0  501  502  0.00000000000E+00 -0.00000000000E+00 -0.81835272626E+02  0.81835272626E+02  0.00000000000E+00 0.  1.
         23    2    1    2    0    0 -0.13495717854E+02  0.10123408521E+03  0.53015842106E+03  0.54645399697E+03  0.84341834085E+02 0.  0.
         24    2    1    2    0    0 -0.68953119106E+01 -0.11067191687E+03 -0.24520210925E+01  0.13748948511E+03  0.81249785221E+02 0.  0.
        -13    1    4    4    0    0  0.36511694801E+02 -0.42426038146E+02 -0.73833374114E+01  0.56458712715E+02  0.00000000000E+00 0.  1.
         14    1    4    4    0    0 -0.43407006712E+02 -0.68245878722E+02  0.49313163189E+01  0.81030772394E+02  0.00000000000E+00 0. -1.
        -13    1    3    3    0    0  0.27465797697E+02  0.30176362100E+02  0.91389553804E+02  0.10008513085E+03  0.00000000000E+00 0.  1.
         13    1    3    3    0    0 -0.40961515551E+02  0.71057723113E+02  0.43876886725E+03  0.44636886612E+03  0.00000000000E+00 0. -1.
          3    1    1    2  501    0  0.20391029765E+02  0.94378316541E+01  0.30242323038E+02  0.37675786175E+02  0.00000000000E+00 0. -1.
<scales pt_clust_5="13000.00000" pt_clust_6="13000.00000" pt_clust_7="13000.00000" pt_clust_8="13000.00000" pt_clust_9="22.46925"></scales>
<clustering>
<clus scale="   22.469">  2  9  1 -1</clus>
<clus scale="   81.250">  5  6 -1 -1</clus>
<clus scale="   84.342">  7  8 -1 -1</clus>
<clus scale="  131.070">  2  5  1 -1</clus>
<clus scale="   22.469">  2  5  1 -1</clus>
</clustering>
</event>
<event>
 9    2  0.4653788E-005  0.1481326E+03  0.7546771E-02  0.1205150E+00
         -1   -1    0    0    0  501 -0.00000000000E+00  0.00000000000E+00  0.19532148316E+03  0.19532148316E+03  0.00000000000E+00 0.  1.
         21   -1    0    0  501  502  0.00000000000E+00 -0.00000000000E+00 -0.17768639632E+03  0.17768639632E+03  0.00000000000E+00 0.  1.
         24    2    1    2    0    0  0.76719084726E+02  0.72875983459E+02  0.38782111517E+02  0.13820844064E+03  0.80004962127E+02 0.  0.
         23    2    1    2    0    0 -0.12372376242E+03 -0.52378640611E+02  0.26058788207E+02  0.16510030284E+03  0.92346944595E+02 0.  0.
        -11    1    3    3    0    0  0.55360881265E+01  0.60074945200E+02  0.17333339062E+02  0.62770151789E+02  0.00000000000E+00 0.  1.
         12    1    3    3    0    0  0.71182996600E+02  0.12801038259E+02  0.21448772455E+02  0.75438288854E+02  0.00000000000E+00 0. -1.
        -13    1    4    4    0    0 -0.88081259761E+02 -0.23140043500E+02 -0.26829651807E+02  0.94939981833E+02  0.00000000000E+00 0. -1.
         13    1    4    4    0    0 -0.35642502654E+02 -0.29238597111E+02  0.52888440014E+02  0.70160321005E+02  0.00000000000E+00 0.  1.
         -2    1    1    2    0  502  0.47004677689E+02 -0.20497342848E+02 -0.47205812892E+02  0.69699136001E+02  0.00000000000E+00 0.  1.
<scales pt_clust_5="13000.00000" pt_clust_6="13000.00000" pt_clust_7="13000.00000" pt_clust_8="13000.00000" pt_clust_9="51.27944"></scales>
<clustering>
<clus scale="   51.279">  2  9  1 -1</clus>
<clus scale="   80.005">  5  6 -1 -1</clus>
<clus scale="   92.347">  7  8 -1 -1</clus>
<clus scale="  140.770">  1  5  2 -1</clus>
<clus scale="   51.279">  2  5  1 -1</clus>
</clustering>
</event>
<event>
 9    2  0.4653788E-005  0.1371678E+03  0.7546771E-02  0.1230915E+00
         -1   -1    0    0    0  501 -0.00000000000E+00  0.00000000000E+00  0.16272492689E+03  0.16272492689E+03  0.00000000000E+00 0.  1.
         21   -1    0    0  501  502  0.00000000000E+00 -0.00000000000E+00 -0.34449697700E+03  0.34449697700E+03  0.00000000000E+00 0.  1.
         23    2    1    2    0    0  0.21154656523E+02 -0.37005795130E+02 -0.20609479070E+03  0.23041220048E+03  0.93796433902E+02 0.  0.
         24    2    1    2    0    0 -0.11650893443E+03 -0.19389816949E+02  0.67367246009E+02  0.15795797720E+03  0.80387063156E+02 0.  0.
        -11    1    4    4    0    0 -0.64624599831E+02 -0.50410408259E+02  0.45004061707E+02  0.93503549314E+02  0.00000000000E+00 0.  1.
         12    1    4    4    0    0 -0.51884334598E+02  0.31020591310E+02  0.22363184302E+02  0.64454427885E+02  0.00000000000E+00 0. -1.
        -11    1    3    3    0    0 -0.30612201767E+02  0.10789214551E+02 -0.60068675295E+02  0.68277081070E+02  0.00000000000E+00 0. -1.
         11    1    3    3    0    0  0.51766858290E+02 -0.47795009681E+02 -0.14602611540E+03  0.16213511941E+03  0.00000000000E+00 0.  1.
         -2    1    1    2    0  502  0.95354277906E+02  0.56395612079E+02 -0.43044505425E+02  0.11885172621E+03  0.00000000000E+00 0.  1.
<scales pt_clust_5="13000.00000" pt_clust_6="13000.00000" pt_clust_7="13000.00000" pt_clust_8="13000.00000" pt_clust_9="111.14368"></scales>
<clustering>
<clus scale="   80.387">  5  6 -1 -1</clus>
<clus scale="   93.796">  7  8 -1 -1</clus>
<clus scale="  103.028">  1  7  2 -1</clus>
<clus scale="  111.144">  2  9  1 -1</clus>
<clus scale="  111.144">  2  5  1 -1</clus>
</clustering>
</event>
<event>
 9    2  0.4653788E-005  0.7822263E+03  0.7546771E-02  0.1010612E+00
          2   -1    0    0  502    0 -0.00000000000E+00  0.00000000000E+00  0.23193964612E+04  0.23193964612E+04  0.00000000000E+00 0. -1.
         21   -1    0    0  501  502  0.00000000000E+00 -0.00000000000E+00 -0.35793947242E+03  0.35793947242E+03  0.00000000000E+00 0. -1.
         24    2    1    2    0    0 -0.11555736561E+03  0.30191715612E+02  0.93052095420E+01  0.14423657738E+03  0.80327821402E+02 0.  0.
         23    2    1    2    0    0 -0.36970159054E+03 -0.65785689704E+03  0.13009401429E+04  0.15066898718E+04  0.90631955432E+02 0.  0.
        -11    1    3    3    0    0 -0.91095609145E+02  0.50704068815E+02 -0.13326659571E+02  0.10510429323E+03  0.00000000000E+00 0.  1.
         12    1    3    3    0    0 -0.24461756469E+02 -0.20512353203E+02  0.22631869113E+02  0.39132284153E+02  0.00000000000E+00 0. -1.
        -13    1    4    4    0    0 -0.35776514062E+02 -0.64082819644E+02  0.18790652760E+03  0.20173108300E+03  0.00000000000E+00 0.  1.
         13    1    4    4    0    0 -0.33392507648E+03 -0.59377407740E+03  0.11130336153E+04  0.13049587888E+04  0.00000000000E+00 0. -1.
          1    1    1    2  501    0  0.48525895616E+03  0.62766518143E+03  0.65121163642E+03  0.10264094845E+04  0.00000000000E+00 0. -1.
<scales pt_clust_5="13000.00000" pt_clust_6="13000.00000" pt_clust_7="13000.00000" pt_clust_8="13000.00000" pt_clust_9="776.95802"></scales>
<clustering>
<clus scale="   80.328">  5  6 -1 -1</clus>
<clus scale="   90.632">  7  8 -1 -1</clus>
<clus scale="  143.936">  1  5  2 -1</clus>
<clus scale="  776.958">  2  9  1 -1</clus>
<clus scale="  776.958">  2  5  1 -1</clus>
</clustering>
</event>
<event>
 9    2  0.4653788E-005  0.2313609E+03  0.7546771E-02  0.1125686E+00
          2   -1    0    0  502    0 -0.00000000000E+00  0.00000000000E+00  0.15232521308E+04  0.15232521308E+04  0.00000000000E+00 0. -1.
         21   -1    0    0  501  502  0.00000000000E+00 -0.00000000000E+00 -0.23378283871E+02  0.23378283871E+02  0.00000000000E+00 0. -1.
         24    2    1    2    0    0  0.74634530533E+02  0.69729622262E+02  0.42853136144E+03  0.44791297552E+03  0.80959079377E+02 0.  0.
         23    2    1    2    0    0  0.30419038903E+02  0.25547948243E+02  0.38512770161E+03  0.39800009420E+03  0.92210155908E+02 0.  0.
        -13    1    3    3    0    0  0.34934990315E+02  0.33993744710E+02  0.69264611047E+02  0.84697193408E+02  0.00000000000E+00 0.  1.
         14    1    3    3    0    0  0.39699540219E+02  0.35735877552E+02  0.35926675039E+03  0.36321578211E+03  0.00000000000E+00 0. -1.
        -11    1    4    4    0    0 -0.30345860742E+01 -0.32768710571E+02  0.14044046649E+03  0.14424465928E+03  0.00000000000E+00 0.  1.
         11    1    4    4    0    0  0.33453624978E+02  0.58316658814E+02  0.24468723512E+03  0.25375543492E+03  0.00000000000E+00 0. -1.
          1    1    1    2  501    0 -0.10505356944E+03 -0.95277570506E+02  0.68621478391E+03  0.70071734498E+03  0.00000000000E+00 0. -1.
<scales pt_clust_5="13000.00000" pt_clust_6="13000.00000" pt_clust_7="13000.00000" pt_clust_8="13000.00000" pt_clust_9="141.82414"></scales>
<clustering>
<clus scale="   80.959">  5  6 -1 -1</clus>
<clus scale="   92.210">  7  8 -1 -1</clus>
<clus scale="   92.416">  5  7 -1 -1</clus>
<clus scale="  141.824">  2  9  1 -1</clus>
<clus scale="  141.824">  2  5  1 -1</clus>
</clustering>
</event>
<event>
 9    2  0.4653788E-005  0.4400974E+03  0.7546771E-02  0.1030717E+00
          2   -1    0    0  502    0 -0.00000000000E+00  0.00000000000E+00  0.14556832801E+04  0.14556832801E+04  0.00000000000E+00 0. -1.
         21   -1    0    0  501  502  0.00000000000E+00 -0.00000000000E+00 -0.12329261845E+03  0.12329261845E+03  0.00000000000E+00 0. -1.
         24    2    1    2    0    0  0.18475052097E+03 -0.52281824094E+02  0.30450081926E+03  0.36890826768E+03  0.80662363609E+02 0.  0.
         23    2    1    2    0    0  0.17922297691E+03 -0.95490237158E+02  0.54276623820E+03  0.58584154955E+03  0.85882891211E+02 0.  0.
        -13    1    3    3    0    0  0.11793036129E+02 -0.18004316878E+02  0.62080649158E+01  0.22400249940E+02  0.00000000000E+00 0.  1.
         14    1    3    3    0    0  0.17295748484E+03 -0.34277507216E+02  0.29829275435E+03  0.34650801774E+03  0.00000000000E+00 0. -1.
        -13    1    4    4    0    0  0.10221541520E+03 -0.15324166654E+02  0.19438120228E+03  0.22015193160E+03  0.00000000000E+00 0.  1.
         13    1    4    4    0    0  0.77007561707E+02 -0.80166070505E+02  0.34838503592E+03  0.36568961795E+03  0.00000000000E+00 0. -1.
          1    1    1    2  501    0 -0.36397349788E+03  0.14777206125E+03  0.48512360416E+03  0.62422608128E+03  0.00000000000E+00 0. -1.
<scales pt_clust_5="13000.00000" pt_clust_6="13000.00000" pt_clust_7="13000.00000" pt_clust_8="13000.00000" pt_clust_9="392.82730"></scales>
<clustering>
<clus scale="   80.662">  5  6 -1 -1</clus>
<clus scale="   85.883">  7  8 -1 -1</clus>
<clus scale="  135.424">  5  7 -1 -1</clus>
<clus scale="  392.827">  2  9  1 -1</clus>
<clus scale="  392.827">  2  5  1 -1</clus>
</clustering>
</event>
<event>
 9    2  0.4653788E-005  0.1026679E+03  0.7546771E-02  0.1278263E+00
         21   -1    0    0  501  502  0.00000000000E+00  0.00000000000E+00  0.20594602252E+02  0.20594602252E+02  0.00000000000E+00 0. -1.
         -3   -1    0    0    0  501 -0.00000000000E+00 -0.00000000000E+00 -0.72471888760E+03  0.72471888760E+03  0.00000000000E+00 0.  1.
         24    2    1    2    0    0  0.36206433054E+02 -0.16452127316E+02 -0.34449450019E+03  0.35677274152E+03  0.83837641531E+02 0.  0.
         23    2    1    2    0    0 -0.61271076403E+02  0.14721227309E+02 -0.21712534812E+03  0.24383847836E+03  0.91339626652E+02 0.  0.
        -13    1    3    3    0    0  0.10073175574E+00  0.23339861770E+02 -0.31527050339E+02  0.39226447678E+02  0.00000000000E+00 0.  1.
         14    1    3    3    0    0  0.36105701298E+02 -0.39791989087E+02 -0.31296744986E+03  0.31754629384E+03  0.00000000000E+00 0. -1.
        -11    1    4    4    0    0 -0.39500677700E+02 -0.13046600238E+02 -0.25072133505E+02  0.48570867761E+02  0.00000000000E+00 0. -1.
         11    1    4    4    0    0 -0.21770398703E+02  0.27767827547E+02 -0.19205321462E+03  0.19526761060E+03  0.00000000000E+00 0.  1.
         -4    1    1    2    0  502  0.25064643349E+02  0.17309000078E+01 -0.14250443703E+03  0.14470226997E+03  0.00000000000E+00 0.  1.
<scales pt_clust_5="13000.00000" pt_clust_6="13000.00000" pt_clust_7="13000.00000" pt_clust_8="13000.00000" pt_clust_9="25.12435"></scales>
<clustering>
<clus scale="   25.124">  1  9  2 -1</clus>
<clus scale="   83.838">  5  6 -1 -1</clus>
<clus scale="   91.340">  7  8 -1 -1</clus>
<clus scale="   96.055">  2  5  1 -1</clus>
<clus scale="   25.124">  1  5  2 -1</clus>
</clustering>
</event>
<event>
 9    2  0.4653788E-005  0.1119207E+03  0.7546771E-02  0.1259418E+00
         21   -1    0    0  501  502  0.00000000000E+00  0.00000000000E+00  0.11630942521E+03  0.11630942521E+03  0.00000000000E+00 0.  1.
          2   -1    0    0  502    0 -0.00000000000E+00 -0.00000000000E+00 -0.30096457477E+03  0.30096457477E+03  0.00000000000E+00 0. -1.
         23    2    1    2    0    0 -0.14464350871E+02  0.73961434885E+02 -0.19106949174E+03  0.22471671902E+03  0.91162173274E+02 0.  0.
         24    2    1    2    0    0 -0.19888860226E+02 -0.16648834729E+02  0.59843343589E+02  0.10700299737E+03  0.84827266933E+02 0.  0.
        -13    1    4    4    0    0 -0.26110161210E+02  0.14915939698E+02  0.67532627812E+02  0.73924837468E+02  0.00000000000E+00 0.  1.
         14    1    4    4    0    0  0.62213009841E+01 -0.31564774427E+02 -0.76892842233E+01  0.33078159901E+02  0.00000000000E+00 0. -1.
        -11    1    3    3    0    0 -0.52273336721E+02  0.54525336239E+02 -0.11539235884E+03  0.13791631703E+03  0.00000000000E+00 0.  1.
         11    1    3    3    0    0  0.37808985851E+02  0.19436098646E+02 -0.75677132904E+02  0.86800401993E+02  0.00000000000E+00 0. -1.
          1    1    1    2  501    0  0.34353211097E+02 -0.57312600156E+02 -0.53429001406E+02  0.85554283589E+02  0.00000000000E+00 0. -1.
<scales pt_clust_5="13000.00000" pt_clust_6="13000.00000" pt_clust_7="13000.00000" pt_clust_8="13000.00000" pt_clust_9="66.81977"></scales>
<clustering>
<clus scale="   66.820">  1  9  2 -1</clus>
<clus scale="   84.827">  5  6 -1 -1</clus>
<clus scale="   91.162">  7  8 -1 -1</clus>
<clus scale="  106.824">  1  5  2 -1</clus>
<clus scale="   66.820">  1  5  2 -1</clus>
</clustering>
</event>
<event>
 9    2  0.4653788E-005  0.1018703E+03  0.7546771E-02  0.1284397E+00
         21   -1    0    0  501  502  0.00000000000E+00  0.00000000000E+00  0.70144050288E+02  0.70144050288E+02  0.00000000000E+00 0. -1.
          2   -1    0    0  502    0 -0.00000000000E+00 -0.00000000000E+00 -0.46905865334E+03  0.46905865334E+03  0.00000000000E+00 0. -1.
         23    2    1    2    0    0  0.24305991181E+01 -0.43334495184E+02 -0.40654118200E+03  0.41904936349E+03  0.91884982970E+02 0.  0.
         24    2    1    2    0    0 -0.25792469800E+02  0.45801607094E+02 -0.71449149897E+01  0.92403373000E+02  0.75659069653E+02 0.  0.
        -13    1    4    4    0    0  0.43669940367E+01  0.53845630882E+02  0.12595352908E+02  0.55471303544E+02  0.00000000000E+00 0.  1.
         14    1    4    4    0    0 -0.30159463837E+02 -0.80440237882E+01 -0.19740267897E+02  0.36932069456E+02  0.00000000000E+00 0. -1.
        -13    1    3    3    0    0  0.15351817253E+02 -0.69769109382E+02 -0.26342151985E+03  0.27293644688E+03  0.00000000000E+00 0. -1.
         13    1    3    3    0    0 -0.12921218135E+02  0.26434614198E+02 -0.14311966215E+03  0.14611291661E+03  0.00000000000E+00 0.  1.
          1    1    1    2  501    0  0.23361870682E+02 -0.24671119096E+01  0.14771493939E+02  0.27749967137E+02  0.00000000000E+00 0. -1.
<scales pt_clust_5="13000.00000" pt_clust_6="13000.00000" pt_clust_7="13000.00000" pt_clust_8="13000.00000" pt_clust_9="23.49178"></scales>
<clustering>
<clus scale="   23.492">  1  9  2 -1</clus>
<clus scale="   75.659">  5  6 -1 -1</clus>
<clus scale="   87.516">  1  5  2 -1</clus>
<clus scale="   91.885">  7  8 -1 -1</clus>
<clus scale="   23.492">  1  5  2 -1</clus>
</clustering>
</event>
<event>
 9    2  0.4653788E-005  0.1079480E+03  0.7546771E-02  0.1269487E+00
          2   -1    0    0  502    0 -0.00000000000E+00  0.00000000000E+00  0.72077372430E+03  0.72077372430E+03  0.00000000000E+00 0. -1.
         21   -1    0    0  501  502  0.00000000000E+00 -0.00000000000E+00 -0.42447409823E+02  0.42447409823E+02  0.00000000000E+00 0. -1.
         23    2    1    2    0    0  0.89128774081E+02 -0.26134169688E+02  0.45854271839E+03  0.47655742253E+03  0.90656600331E+02 0.  0.
         24    2    1    2    0    0 -0.25390606471E+02  0.10825357339E+02  0.20250782103E+03  0.21887458157E+03  0.78324923363E+02 0.  0.
        -11    1    4    4    0    0 -0.91230227021E+01  0.35682396417E+02  0.17345681166E+03  0.17732379555E+03  0.00000000000E+00 0.  1.
         12    1    4    4    0    0 -0.16267583769E+02 -0.24857039078E+02  0.29051009377E+02  0.41550786024E+02  0.00000000000E+00 0. -1.
        -13    1    3    3    0    0  0.50339157763E+02  0.20466534279E+02  0.10899483123E+03  0.12178991364E+03  0.00000000000E+00 0.  1.
         13    1    3    3    0    0  0.38789616319E+02 -0.46600703967E+02  0.34954788716E+03  0.35476750889E+03  0.00000000000E+00 0. -1.
          1    1    1    2  501    0 -0.63738167610E+02  0.15308812349E+02  0.17275775055E+02  0.67789130025E+02  0.00000000000E+00 0. -1.
<scales pt_clust_5="13000.00000" pt_clust_6="13000.00000" pt_clust_7="13000.00000" pt_clust_8="13000.00000" pt_clust_9="65.55085"></scales>
<clustering>
<clus scale="   65.551">  2  9  1 -1</clus>
<clus scale="   78.325">  5  6 -1 -1</clus>
<clus scale="   90.657">  7  8 -1 -1</clus>
<clus scale="   97.821">  2  5  1 -1</clus>
<clus scale="   65.551">  2  5  1 -1</clus>
</clustering>
</event>
<event>
 9    2  0.4653788E-005  0.1130345E+03  0.7546771E-02  0.1259682E+00
         -1   -1    0    0    0  501 -0.00000000000E+00  0.00000000000E+00  0.22078611413E+03  0.22078611413E+03  0.00000000000E+00 0.  1.
         21   -1    0    0  501  502  0.00000000000E+00 -0.00000000000E+00 -0.15449427172E+03  0.15449427172E+03  0.00000000000E+00 0.  1.
         24    2    1    2    0    0  0.50984520432E+02 -0.56303824479E+02  0.15393270467E+03  0.18946038747E+03  0.80189892609E+02 0.  0.
         23    2    1    2    0    0  0.10265985137E+00  0.33598959038E+02 -0.24449302741E+02  0.10144829639E+03  0.92547759825E+02 0.  0.
        -11    1    3    3    0    0  0.66145971004E+02 -0.24139118896E+02  0.12561344066E+03  0.14400251045E+03  0.00000000000E+00 0.  1.
         12    1    3    3    0    0 -0.15161450573E+02 -0.32164705583E+02  0.28319264011E+02  0.45457877017E+02  0.00000000000E+00 0. -1.
        -11    1    4    4    0    0 -0.13860673580E+02  0.62994791269E+02 -0.80372541468E+01  0.65000457332E+02  0.00000000000E+00 0. -1.
         11    1    4    4    0    0  0.13963333431E+02 -0.29395832231E+02 -0.16412048594E+02  0.36447839059E+02  0.00000000000E+00 0.  1.
         -2    1    1    2    0  502 -0.51087180283E+02  0.22704865441E+02 -0.63191559511E+02  0.84371701994E+02  0.00000000000E+00 0.  1.
<scales pt_clust_5="13000.00000" pt_clust_6="13000.00000" pt_clust_7="13000.00000" pt_clust_8="13000.00000" pt_clust_9="55.90537"></scales>
<clustering>
<clus scale="   55.905">  2  9  1 -1</clus>
<clus scale="   80.190">  5  6 -1 -1</clus>
<clus scale="   92.548">  7  8 -1 -1</clus>
<clus scale="  103.161">  1  5  2 -1</clus>
<clus scale="   55.905">  2  5  1 -1</clus>
</clustering>
</event>
<event>
 9    2  0.4653788E-005  0.9278952E+02  0.7546771E-02  0.1300162E+00
          2   -1    0    0  502    0 -0.00000000000E+00  0.00000000000E+00  0.34373054295E+03  0.34373054295E+03  0.00000000000E+00 0. -1.
         21   -1    0    0  501  502  0.00000000000E+00 -0.00000000000E+00 -0.47253287899E+02  0.47253287899E+02  0.00000000000E+00 0. -1.
         23    2    1    2    0    0  0.32109107337E+02  0.26179562593E+02  0.19252678352E+03  0.21601743646E+03  0.88772778534E+02 0.  0.
         24    2    1    2    0    0 -0.66345264309E+01 -0.87072282858E+01  0.11545085525E+03  0.14200436224E+03  0.81954293060E+02 0.  0.
        -11    1    4    4    0    0 -0.18339175681E+02 -0.36481499062E+02  0.28011756707E+02  0.49516498789E+02  0.00000000000E+00 0.  1.
         12    1    4    4    0    0  0.11704649251E+02  0.27774270776E+02  0.87439098544E+02  0.92487863449E+02  0.00000000000E+00 0. -1.
        -11    1    3    3    0    0  0.43280456830E+02 -0.17793550636E+02  0.60976310319E+02  0.76862987241E+02  0.00000000000E+00 0. -1.
         11    1    3    3    0    0 -0.11171349493E+02  0.43973113228E+02  0.13155047320E+03  0.13915444922E+03  0.00000000000E+00 0.  1.
          1    1    1    2  501    0 -0.25474580906E+02 -0.17472334307E+02 -0.11500383717E+02  0.32962032160E+02  0.00000000000E+00 0. -1.
<scales pt_clust_5="13000.00000" pt_clust_6="13000.00000" pt_clust_7="13000.00000" pt_clust_8="13000.00000" pt_clust_9="30.89072"></scales>
<clustering>
<clus scale="   30.891">  2  9  1 -1</clus>
<clus scale="   81.954">  5  6 -1 -1</clus>
<clus scale="   86.289">  2  5  1 -1</clus>
<clus scale="   88.773">  7  8 -1 -1</clus>
<clus scale="   30.891">  2  5  1 -1</clus>
</clustering>
</event>
<event>
 9    2  0.4653788E-005  0.9844159E+02  0.7546771E-02  0.1285539E+00
         -1   -1    0    0    0  501 -0.00000000000E+00  0.00000000000E+00  0.42112828481E+03  0.42112828481E+03  0.00000000000E+00 0.  1.
         21   -1    0    0  501  502  0.00000000000E+00 -0.00000000000E+00 -0.36437830185E+02  0.36437830185E+02  0.00000000000E+00 0. -1.
         23    2    1    2    0    0 -0.11436201996E+02  0.42145308675E+02  0.25154355720E+03  0.26907195441E+03  0.84962001641E+02 0.  0.
         24    2    1    2    0    0  0.36087121016E+02 -0.56325655519E+02  0.10261567054E+03  0.14676999660E+03  0.80849219465E+02 0.  0.
        -13    1    4    4    0    0 -0.22026143909E+01 -0.53943004074E+02  0.92487599333E+02  0.10709180748E+03  0.00000000000E+00 0.  1.
         14    1    4    4    0    0  0.38289735407E+02 -0.23826514446E+01  0.10128071208E+02  0.39678189120E+02  0.00000000000E+00 0. -1.
        -13    1    3    3    0    0  0.95629700813E+01  0.56903183472E+02  0.22446337291E+03  0.23176114529E+03  0.00000000000E+00 0.  1.
         13    1    3    3    0    0 -0.20999172078E+02 -0.14757874797E+02  0.27080184290E+02  0.37310809126E+02  0.00000000000E+00 0. -1.
         -2    1    1    2    0  502 -0.24650919020E+02  0.14180346844E+02  0.30531226883E+02  0.41724163983E+02  0.00000000000E+00 0.  1.
<scales pt_clust_5="13000.00000" pt_clust_6="13000.00000" pt_clust_7="13000.00000" pt_clust_8="13000.00000" pt_clust_9="28.43853"></scales>
<clustering>
<clus scale="   28.439">  2  9  1 -1</clus>
<clus scale="   80.849">  5  6 -1 -1</clus>
<clus scale="   84.962">  7  8 -1 -1</clus>
<clus scale="   94.915">  2  5  1 -1</clus>
<clus scale="   28.439">  2  5  1 -1</clus>
</clustering>
</event>
<event>
 9    2  0.4653788E-005  0.9561282E+02  0.7546771E-02  0.1296034E+00
         21   -1    0    0  501  502  0.00000000000E+00  0.00000000000E+00  0.29087041417E+03  0.29087041417E+03  0.00000000000E+00 0. -1.
          2   -1    0    0  502    0 -0.00000000000E+00 -0.00000000000E+00 -0.15022449731E+03  0.15022449731E+03  0.00000000000E+00 0. -1.
         23    2    1    2    0    0 -0.21781246345E+02  0.18137267634E+02 -0.11916025032E+03  0.15297803104E+03  0.91650038493E+02 0.  0.
         24    2    1    2    0    0  0.30347364035E+02  0.12262096666E+02  0.14566644166E+03  0.16968809736E+03  0.80647483785E+02 0.  0.
        -11    1    4    4    0    0  0.55927905314E+02  0.10375765247E+02  0.12276224073E+03  0.13530023964E+03  0.00000000000E+00 0.  1.
         12    1    4    4    0    0 -0.25580541279E+02  0.18863314189E+01  0.22904200935E+02  0.34387857724E+02  0.00000000000E+00 0. -1.
        -11    1    3    3    0    0 -0.44697070745E+02  0.19405698770E+02 -0.22574762193E+02  0.53703157877E+02  0.00000000000E+00 0. -1.
         11    1    3    3    0    0  0.22915824400E+02 -0.12684311357E+01 -0.96585488122E+02  0.99274873162E+02  0.00000000000E+00 0.  1.
          1    1    1    2  501    0 -0.85661176903E+01 -0.30399364301E+02  0.11413972551E+03  0.11842878308E+03  0.00000000000E+00 0. -1.
<scales pt_clust_5="13000.00000" pt_clust_6="13000.00000" pt_clust_7="13000.00000" pt_clust_8="13000.00000" pt_clust_9="31.58322"></scales>
<clustering>
<clus scale="   31.583">  1  9  2 -1</clus>
<clus scale="   80.647">  5  6 -1 -1</clus>
<clus scale="   85.124">  1  5  2 -1</clus>
<clus scale="   91.650">  7  8 -1 -1</clus>
<clus scale="   31.583">  1  5  2 -1</clus>
</clustering>
</event>
<event>
 9    2  0.4653788E-005  0.9872861E+02  0.7546771E-02  0.1293666E+00
         -1   -1    0    0    0  501 -0.00000000000E+00  0.00000000000E+00  0.37131505454E+03  0.37131505454E+03  0.00000000000E+00 0.  1.
         21   -1    0    0  501  502  0.00000000000E+00 -0.00000000000E+00 -0.41213528426E+02  0.41213528426E+02  0.00000000000E+00 0.  1.
         23    2    1    2    0    0 -0.45875608810E+01 -0.12241451169E+02  0.21225702418E+03  0.23306003871E+03  0.95357424921E+02 0.  0.
         24    2    1    2    0    0 -0.12976277074E+02  0.49975570142E+02  0.92428254596E+02  0.13070033979E+03  0.76639775548E+02 0.  0.
        -13    1    4    4    0    0  0.23414361588E+02  0.48290099223E+02  0.40343841810E+02  0.67140089243E+02  0.00000000000E+00 0.  1.
         14    1    4    4    0    0 -0.36390638662E+02  0.16854709188E+01  0.52084412786E+02  0.63560250548E+02  0.00000000000E+00 0. -1.
        -11    1    3    3    0    0  0.41427451480E+02 -0.18091587768E+02  0.14070189796E+03  0.14778553167E+03  0.00000000000E+00 0. -1.
         11    1    3    3    0    0 -0.46015012361E+02  0.58501365986E+01  0.71555126222E+02  0.85274507032E+02  0.00000000000E+00 0.  1.
         -2    1    1    2    0  502  0.17563837955E+02 -0.37734118973E+02  0.25416247343E+02  0.48768204471E+02  0.00000000000E+00 0.  1.
<scales pt_clust_5="13000.00000" pt_clust_6="13000.00000" pt_clust_7="13000.00000" pt_clust_8="13000.00000" pt_clust_9="41.62153"></scales>
<clustering>
<clus scale="   41.622">  2  9  1 -1</clus>
<clus scale="   76.640">  5  6 -1 -1</clus>
<clus scale="   80.796">  2  5  1 -1</clus>
<clus scale="   95.357">  7  8 -1 -1</clus>
<clus scale="   41.622">  2  5  1 -1</clus>
</clustering>
</event>
<event>
 9    2  0.4653788E-005  0.1424704E+03  0.7546771E-02  0.1212457E+00
         -3   -1    0    0    0  501 -0.00000000000E+00  0.00000000000E+00  0.88686194642E+02  0.88686194642E+02  0.00000000000E+00 0.  1.
         21   -1    0    0  501  502  0.00000000000E+00 -0.00000000000E+00 -0.34422691894E+03  0.34422691894E+03  0.00000000000E+00 0. -1.
         23    2    1    2    0    0  0.70746377508E+02  0.87238558482E+02 -0.29358914828E+02  0.14769734479E+03  0.91306865903E+02 0.  0.
         24    2    1    2    0    0 -0.38414510633E+02 -0.10005170266E+03 -0.14632751890E+03  0.19811677913E+03  0.79702556735E+02 0.  0.
        -11    1    4    4    0    0  0.20200605436E+02 -0.26052106955E+02 -0.14597525377E+02  0.36053633436E+02  0.00000000000E+00 0.  1.
         12    1    4    4    0    0 -0.58615116070E+02 -0.73999595708E+02 -0.13172999352E+03  0.16206314569E+03  0.00000000000E+00 0. -1.
        -11    1    3    3    0    0 -0.32140756972E+01  0.57120635527E+02 -0.35949535749E+02  0.67568235186E+02  0.00000000000E+00 0. -1.
         11    1    3    3    0    0  0.73960453205E+02  0.30117922954E+02  0.65906209209E+01  0.80129109601E+02  0.00000000000E+00 0.  1.
         -4    1    1    2    0  502 -0.32331866874E+02  0.12813144182E+02 -0.79854290571E+02  0.87098989672E+02  0.00000000000E+00 0.  1.
<scales pt_clust_5="13000.00000" pt_clust_6="13000.00000" pt_clust_7="13000.00000" pt_clust_8="13000.00000" pt_clust_9="34.77824"></scales>
<clustering>
<clus scale="   34.778">  2  9  1 -1</clus>
<clus scale="   79.703">  5  6 -1 -1</clus>
<clus scale="   91.307">  7  8 -1 -1</clus>
<clus scale="  135.327">  2  5  1 -1</clus>
<clus scale="   34.778">  2  5  1 -1</clus>
</clustering>
</event>
<event>
 9    2  0.4653788E-005  0.1067494E+03  0.7546771E-02  0.1272818E+00
         -1   -1    0    0    0  501 -0.00000000000E+00  0.00000000000E+00  0.16887599468E+03  0.16887599468E+03  0.00000000000E+00 0.  1.
         21   -1    0    0  501  502  0.00000000000E+00 -0.00000000000E+00 -0.21318533092E+03  0.21318533092E+03  0.00000000000E+00 0. -1.
         24    2    1    2    0    0 -0.55212379850E+02 -0.10708863899E+02  0.11465228150E+03  0.15025320444E+03  0.79169395205E+02 0.  0.
         23    2    1    2    0    0  0.21583501512E+02 -0.31708331696E+02 -0.14388999024E+03  0.17561849671E+03  0.93092756205E+02 0.  0.
        -11    1    3    3    0    0 -0.52580486731E+02 -0.46899030639E+01  0.21710121359E+02  0.57079174355E+02  0.00000000000E+00 0.  1.
         12    1    3    3    0    0 -0.26318931189E+01 -0.60189608354E+01  0.92942160141E+02  0.93174030086E+02  0.00000000000E+00 0. -1.
        -11    1    4    4    0    0 -0.23808848039E+02  0.83826243863E+01 -0.74126395468E+01  0.26307353755E+02  0.00000000000E+00 0.  1.
         11    1    4    4    0    0  0.45392349551E+02 -0.40090956082E+02 -0.13647735069E+03  0.14931114295E+03  0.00000000000E+00 0. -1.
         -2    1    1    2    0  502  0.33628878338E+02  0.42417195595E+02 -0.15071627509E+02  0.56189624453E+02  0.00000000000E+00 0.  1.
<scales pt_clust_5="13000.00000" pt_clust_6="13000.00000" pt_clust_7="13000.00000" pt_clust_8="13000.00000" pt_clust_9="54.13058"></scales>
<clustering>
<clus scale="   54.131">  2  9  1 -1</clus>
<clus scale="   79.169">  5  6 -1 -1</clus>
<clus scale="   93.093">  7  8 -1 -1</clus>
<clus scale="   94.852">  1  5  2 -1</clus>
<clus scale="   54.131">  2  5  1 -1</clus>
</clustering>
</event>
<event>
 9    2  0.4653788E-005  0.9682108E+02  0.7546771E-02  0.1296307E+00
          2   -1    0    0  502    0 -0.00000000000E+00  0.00000000000E+00  0.43515924625E+03  0.43515924625E+03  0.00000000000E+00 0. -1.
         21   -1    0    0  501  502  0.00000000000E+00 -0.00000000000E+00 -0.50019499387E+02  0.50019499387E+02  0.00000000000E+00 0.  1.
         23    2    1    2    0    0 -0.14406315839E+02  0.20272524312E+02  0.28309312149E+03  0.29882142107E+03  0.92379700596E+02 0.  0.
         24    2    1    2    0    0 -0.22043215719E+02 -0.59315499187E+02  0.47017123720E+02  0.10966854904E+03  0.76238762606E+02 0.  0.
        -13    1    4    4    0    0 -0.69406303151E+01 -0.75674349522E+02  0.30227134142E+02  0.81783000454E+02  0.00000000000E+00 0.  1.
         14    1    4    4    0    0 -0.15102585404E+02  0.16358850336E+02  0.16789989579E+02  0.27885548591E+02  0.00000000000E+00 0. -1.
        -11    1    3    3    0    0  0.22981261727E+02  0.45149263542E+02  0.14324152271E+03  0.15193659275E+03  0.00000000000E+00 0. -1.
         11    1    3    3    0    0 -0.37387577566E+02 -0.24876739229E+02  0.13985159877E+03  0.14688482832E+03  0.00000000000E+00 0.  1.
          1    1    1    2  501    0  0.36449531558E+02  0.39042974874E+02  0.55029501657E+02  0.76688775518E+02  0.00000000000E+00 0. -1.
<scales pt_clust_5="13000.00000" pt_clust_6="13000.00000" pt_clust_7="13000.00000" pt_clust_8="13000.00000" pt_clust_9="53.41275"></scales>
<clustering>
<clus scale="   53.413">  2  9  1 -1</clus>
<clus scale="   76.239">  5  6 -1 -1</clus>
<clus scale="   81.564">  2  5  1 -1</clus>
<clus scale="   92.380">  7  8 -1 -1</clus>
<clus scale="   53.413">  2  5  1 -1</clus>
</clustering>
</event>
<event>
 9    2  0.4653788E-005  0.1051793E+03  0.7546771E-02  0.1274395E+00
         21   -1    0    0  501  502  0.00000000000E+00  0.00000000000E+00  0.39925203760E+02  0.39925203760E+02  0.00000000000E+00 0. -1.
         -1   -1    0    0    0  501 -0.00000000000E+00 -0.00000000000E+00 -0.60581766405E+03  0.60581766405E+03  0.00000000000E+00 0.  1.
         23    2    1    2    0    0  0.45388898707E+02 -0.33749453884E+02 -0.45496786057E+03  0.46738988496E+03  0.90875588838E+02 0.  0.
         24    2    1    2    0    0 -0.34049086685E+02  0.11637109822E+02 -0.28877534650E+02  0.92625111168E+02  0.80316477652E+02 0.  0.
        -11    1    4    4    0    0 -0.34814184487E+02  0.13105818567E+02 -0.55028190200E+02  0.66422071923E+02  0.00000000000E+00 0.  1.
         12    1    4    4    0    0  0.76509780192E+00 -0.14687087449E+01  0.26150655550E+02  0.26203039246E+02  0.00000000000E+00 0. -1.
        -11    1    3    3    0    0 -0.21894208416E+02 -0.25152070779E+02 -0.85995399349E+02  0.92234438990E+02  0.00000000000E+00 0. -1.
         11    1    3    3    0    0  0.67283107123E+02 -0.85973831050E+01 -0.36897246122E+03  0.37515544597E+03  0.00000000000E+00 0.  1.
         -2    1    1    2    0  502 -0.11339812022E+02  0.22112344062E+02 -0.82047065065E+02  0.85727871677E+02  0.00000000000E+00 0.  1.
<scales pt_clust_5="13000.00000" pt_clust_6="13000.00000" pt_clust_7="13000.00000" pt_clust_8="13000.00000" pt_clust_9="24.85051"></scales>
<clustering>
<clus scale="   24.851">  1  9  2 -1</clus>
<clus scale="   80.316">  5  6 -1 -1</clus>
<clus scale="   90.876">  7  8 -1 -1</clus>
<clus scale="   96.203">  1  5  2 -1</clus>
<clus scale="   24.851">  1  5  2 -1</clus>
</clustering>
</event>
<event>
 9    2  0.4653788E-005  0.9216221E+02  0.7546771E-02  0.1297986E+00
         21   -1    0    0  501  502  0.00000000000E+00  0.00000000000E+00  0.50063215291E+02  0.50063215291E+02  0.00000000000E+00 0.  1.
          2   -1    0    0  502    0 -0.00000000000E+00 -0.00000000000E+00 -0.79798141025E+03  0.79798141025E+03  0.00000000000E+00 0. -1.
         24    2    1    2    0    0 -0.47877782754E+01 -0.42200176456E+02 -0.69113740591E+03  0.69726791049E+03  0.81901449553E+02 0.  0.
         23    2    1    2    0    0 -0.24952521939E+02  0.42529422998E+02 -0.70122045683E+02  0.11817943006E+03  0.81350453139E+02 0.  0.
        -13    1    3    3    0    0 -0.36150736640E+02 -0.35346721006E+01 -0.17469144186E+03  0.17842777117E+03  0.00000000000E+00 0.  1.
         14    1    3    3    0    0  0.31362958365E+02 -0.38665504356E+02 -0.51644596405E+03  0.51884013932E+03  0.00000000000E+00 0. -1.
        -11    1    4    4    0    0 -0.46660421518E+02  0.53267594075E+02 -0.49915624307E+02  0.86638334846E+02  0.00000000000E+00 0.  1.
         11    1    4    4    0    0  0.21707899580E+02 -0.10738171078E+02 -0.20206421376E+02  0.31541095210E+02  0.00000000000E+00 0. -1.
          1    1    1    2  501    0  0.29740300214E+02 -0.32924654117E+00  0.13341256637E+02  0.32597284991E+02  0.00000000000E+00 0. -1.
<scales pt_clust_5="13000.00000" pt_clust_6="13000.00000" pt_clust_7="13000.00000" pt_clust_8="13000.00000" pt_clust_9="29.74212"></scales>
<clustering>
<clus scale="   29.742">  1  9  2 -1</clus>
<clus scale="   81.350">  7  8 -1 -1</clus>
<clus scale="   81.901">  5  6 -1 -1</clus>
<clus scale="   91.673">  1  7  2 -1</clus>
<clus scale="   29.742">  1  5  2 -1</clus>
</clustering>
</event>
<event>
 9    2  0.4653788E-005  0.2754690E+03  0.7546771E-02  0.1123019E+00
          2   -1    0    0  502    0 -0.00000000000E+00  0.00000000000E+00  0.14559953714E+04  0.14559953714E+04  0.00000000000E+00 0. -1.
         21   -1    0    0  501  502  0.00000000000E+00 -0.00000000000E+00 -0.13362013915E+03  0.13362013915E+03  0.00000000000E+00 0. -1.
         24    2    1    2    0    0  0.95820142050E+02  0.76231471134E+02  0.55733654472E+03  0.57625522391E+03  0.80332572349E+02 0.  0.
         23    2    1    2    0    0  0.39051226415E+02 -0.27076941862E+03  0.95194344906E+02  0.30291905587E+03  0.88639239398E+02 0.  0.
        -13    1    3    3    0    0  0.45080074818E+02  0.83347006883E+01  0.86975437900E+02  0.98317888398E+02  0.00000000000E+00 0.  1.
         14    1    3    3    0    0  0.50740067232E+02  0.67896770446E+02  0.47036110682E+03  0.47793733551E+03  0.00000000000E+00 0. -1.
        -11    1    4    4    0    0 -0.21090673419E+02 -0.25308573063E+02  0.23256118229E+00  0.32945325320E+02  0.00000000000E+00 0.  1.
         11    1    4    4    0    0  0.60141899834E+02 -0.24546084556E+03  0.94961783724E+02  0.26997373055E+03  0.00000000000E+00 0. -1.
          1    1    1    2  501    0 -0.13487136846E+03  0.19453794749E+03  0.66984434260E+03  0.71044123075E+03  0.00000000000E+00 0. -1.
<scales pt_clust_5="13000.00000" pt_clust_6="13000.00000" pt_clust_7="13000.00000" pt_clust_8="13000.00000" pt_clust_9="260.81858"></scales>
<clustering>
<clus scale="   80.333">  5  6 -1 -1</clus>
<clus scale="   88.639">  7  8 -1 -1</clus>
<clus scale="  146.445">  1  5  2 -1</clus>
<clus scale="  260.819">  2  9  1 -1</clus>
<clus scale="  260.819">  2  5  1 -1</clus>
</clustering>
</event>
<event>
 9    2  0.4653788E-005  0.1054756E+03  0.7546771E-02  0.1279712E+00
         21   -1    0    0  501  502  0.00000000000E+00  0.00000000000E+00  0.27980811407E+02  0.27980811407E+02  0.00000000000E+00 0. -1.
          2   -1    0    0  502    0 -0.00000000000E+00 -0.00000000000E+00 -0.87730108053E+03  0.87730108053E+03  0.00000000000E+00 0. -1.
         23    2    1    2    0    0  0.73374212846E+01  0.56165361859E+02 -0.52795953527E+03  0.54037184809E+03  0.10026005039E+03 0.  0.
         24    2    1    2    0    0  0.23921473593E+02  0.19598409982E+02 -0.11852270528E+03  0.14613953973E+03  0.79704446770E+02 0.  0.
        -11    1    4    4    0    0 -0.25426684449E+02 -0.61478795513E+00 -0.14583612085E+02  0.29318526357E+02  0.00000000000E+00 0.  1.
         12    1    4    4    0    0  0.49348158042E+02  0.20213197938E+02 -0.10393909319E+03  0.11682101338E+03  0.00000000000E+00 0. -1.
        -13    1    3    3    0    0 -0.17858694189E+02 -0.21316213271E+02 -0.71875043827E+02  0.77067086564E+02  0.00000000000E+00 0.  1.
         13    1    3    3    0    0  0.25196115473E+02  0.77481575129E+02 -0.45608449144E+03  0.46330476153E+03  0.00000000000E+00 0. -1.
          1    1    1    2  501    0 -0.31258894878E+02 -0.75763771841E+02 -0.20283802858E+03  0.21877050411E+03  0.00000000000E+00 0. -1.
<scales pt_clust_5="13000.00000" pt_clust_6="13000.00000" pt_clust_7="13000.00000" pt_clust_8="13000.00000" pt_clust_9="81.95894"></scales>
<clustering>
<clus scale="   79.704">  5  6 -1 -1</clus>
<clus scale="   81.959">  1  9  2 -1</clus>
<clus scale="   86.173">  1  5  2 -1</clus>
<clus scale="  100.260">  7  8 -1 -1</clus>
<clus scale="   81.959">  1  5  2 -1</clus>
</clustering>
</event>
<event>
 9    2  0.4653788E-005  0.1030938E+03  0.7546771E-02  0.1279868E+00
         21   -1    0    0  501  502  0.00000000000E+00  0.00000000000E+00  0.41028200685E+03  0.41028200685E+03  0.00000000000E+00 0.  1.
         -3   -1    0    0    0  501 -0.00000000000E+00 -0.00000000000E+00 -0.10048634267E+03  0.10048634267E+03  0.00000000000E+00 0.  1.
         24    2    1    2    0    0  0.67463238119E+02  0.15642468206E+02 -0.19576180836E+02  0.10756783270E+03  0.79947710829E+02 0.  0.
         23    2    1    2    0    0 -0.10063517213E+02 -0.60220448965E+01  0.29576000012E+02  0.97807607293E+02  0.92488101203E+02 0.  0.
        -11    1    3    3    0    0  0.78983729749E+02  0.21694791443E+02  0.24935837324E+01  0.81947004220E+02  0.00000000000E+00 0.  1.
         12    1    3    3    0    0 -0.11520491630E+02 -0.60523232365E+01 -0.22069764569E+02  0.25620828481E+02  0.00000000000E+00 0. -1.
        -11    1    4    4    0    0 -0.31621491412E+02  0.28205543360E+02  0.37504853275E+02  0.56586972127E+02  0.00000000000E+00 0.  1.
         11    1    4    4    0    0  0.21557974199E+02 -0.34227588256E+02 -0.79288532622E+01  0.41220635166E+02  0.00000000000E+00 0. -1.
         -4    1    1    2    0  502 -0.57399720906E+02 -0.96204233100E+01  0.29979584501E+03  0.30539290953E+03  0.00000000000E+00 0.  1.
<scales pt_clust_5="13000.00000" pt_clust_6="13000.00000" pt_clust_7="13000.00000" pt_clust_8="13000.00000" pt_clust_9="58.20035"></scales>
<clustering>
<clus scale="   58.200">  1  9  2 -1</clus>
<clus scale="   79.948">  5  6 -1 -1</clus>
<clus scale="   92.010">  2  5  1 -1</clus>
<clus scale="   92.488">  7  8 -1 -1</clus>
<clus scale="   58.200">  1  5  2 -1</clus>
</clustering>
</event>
<event>
 9    2  0.4653788E-005  0.1080310E+03  0.7546771E-02  0.1270433E+00
         -1   -1    0    0    0  501 -0.00000000000E+00  0.00000000000E+00  0.49777129965E+03  0.49777129965E+03  0.00000000000E+00 0.  1.
         21   -1    0    0  501  502  0.00000000000E+00 -0.00000000000E+00 -0.30710024923E+02  0.30710024923E+02  0.00000000000E+00 0. -1.
         23    2    1    2    0    0 -0.18554665136E+02 -0.38744978286E+02  0.17400973620E+03  0.20203248436E+03  0.93232438041E+02 0.  0.
         24    2    1    2    0    0  0.32485239894E+02  0.59208049161E+02  0.15715335620E+03  0.18831443414E+03  0.78767155863E+02 0.  0.
        -11    1    4    4    0    0  0.94685597845E+01 -0.19525081468E+02  0.31155145852E+02  0.37967427406E+02  0.00000000000E+00 0.  1.
         12    1    4    4    0    0  0.23016680110E+02  0.78733130630E+02  0.12599821035E+03  0.15034700673E+03  0.00000000000E+00 0. -1.
        -11    1    3    3    0    0  0.25173407119E+02  0.10148739084E+02  0.17400545385E+02  0.32240910513E+02  0.00000000000E+00 0.  1.
         11    1    3    3    0    0 -0.43728072255E+02 -0.48893717371E+02  0.15660919082E+03  0.16979157385E+03  0.00000000000E+00 0. -1.
         -2    1    1    2    0  502 -0.13930574759E+02 -0.20463070875E+02  0.13589818233E+03  0.13813440608E+03  0.00000000000E+00 0.  1.
<scales pt_clust_5="13000.00000" pt_clust_6="13000.00000" pt_clust_7="13000.00000" pt_clust_8="13000.00000" pt_clust_9="24.75477"></scales>
<clustering>
<clus scale="   24.755">  2  9  1 -1</clus>
<clus scale="   78.767">  5  6 -1 -1</clus>
<clus scale="   93.232">  7  8 -1 -1</clus>
<clus scale="   95.826">  2  5  1 -1</clus>
<clus scale="   24.755">  2  5  1 -1</clus>
</clustering>
</event>
<event>
 9    2  0.4653788E-005  0.8955117E+02  0.7546771E-02  0.1314333E+00
         21   -1    0    0  501  502  0.00000000000E+00  0.00000000000E+00  0.12639905850E+03  0.12639905850E+03  0.00000000000E+00 0.  1.
          2   -1    0    0  502    0 -0.00000000000E+00 -0.00000000000E+00 -0.19030582593E+03  0.19030582593E+03  0.00000000000E+00 0. -1.
         23    2    1    2    0    0 -0.78565916088E+01  0.24240287644E+02 -0.50498588562E+02  0.90691386413E+02  0.70890778991E+02 0.  0.
         24    2    1    2    0    0 -0.34816959580E+02 -0.89131333172E+01  0.79179656390E+02  0.12291907107E+03  0.86879315302E+02 0.  0.
        -11    1    4    4    0    0 -0.50820281557E+02 -0.33167128398E+02  0.69557877236E+02  0.92309575393E+02  0.00000000000E+00 0.  1.
         12    1    4    4    0    0  0.16003321977E+02  0.24253995081E+02  0.96217791547E+01  0.30609495680E+02  0.00000000000E+00 0. -1.
        -11    1    3    3    0    0 -0.26488862327E+02  0.31761728524E+02 -0.56225467265E+02  0.69798068708E+02  0.00000000000E+00 0.  1.
         11    1    3    3    0    0  0.18632270718E+02 -0.75214408804E+01  0.57268787031E+01  0.20893317705E+02  0.00000000000E+00 0. -1.
          1    1    1    2  501    0  0.42673551189E+02 -0.15327154327E+02 -0.92587835251E+02  0.10309442695E+03  0.00000000000E+00 0. -1.
<scales pt_clust_5="13000.00000" pt_clust_6="13000.00000" pt_clust_7="13000.00000" pt_clust_8="13000.00000" pt_clust_9="45.34265"></scales>
<clustering>
<clus scale="   45.343">  1  9  2 -1</clus>
<clus scale="   70.891">  7  8 -1 -1</clus>
<clus scale="   74.141">  2  7  1 -1</clus>
<clus scale="   86.879">  5  6 -1 -1</clus>
<clus scale="   45.343">  1  5  2 -1</clus>
</clustering>
</event>
<event>
 9    2  0.4653788E-005  0.2134589E+03  0.7546771E-02  0.1139614E+00
         -1   -1    0    0    0  501 -0.00000000000E+00  0.00000000000E+00  0.18393187765E+03  0.18393187765E+03  0.00000000000E+00 0.  1.
         21   -1    0    0  501  502  0.00000000000E+00 -0.00000000000E+00 -0.58387409524E+03  0.58387409524E+03  0.00000000000E+00 0. -1.
         24    2    1    2    0    0 -0.20174083507E+03  0.96402927413E+02  0.32818257509E+02  0.23996145443E+03  0.80694316017E+02 0.  0.
         23    2    1    2    0    0  0.12822231650E+03  0.23508217847E+02 -0.26609054025E+03  0.30975618197E+03  0.90283541738E+02 0.  0.
        -11    1    3    3    0    0 -0.93229522397E+02  0.59083519525E+02  0.54634466827E+02  0.12315653085E+03  0.00000000000E+00 0.  1.
         12    1    3    3    0    0 -0.10851131267E+03  0.37319407887E+02 -0.21816209318E+02  0.11680492357E+03  0.00000000000E+00 0. -1.
        -13    1    4    4    0    0  0.78762942126E+02  0.49723652138E+02 -0.11117696025E+03  0.14503916411E+03  0.00000000000E+00 0. -1.
         13    1    4    4    0    0  0.49459374372E+02 -0.26215434291E+02 -0.15491357999E+03  0.16471701787E+03  0.00000000000E+00 0.  1.
         -2    1    1    2    0  502  0.73518518568E+02 -0.11991114526E+03 -0.16666993486E+03  0.21808833650E+03  0.00000000000E+00 0.  1.
<scales pt_clust_5="13000.00000" pt_clust_6="13000.00000" pt_clust_7="13000.00000" pt_clust_8="13000.00000" pt_clust_9="140.65438"></scales>
<clustering>
<clus scale="   80.694">  5  6 -1 -1</clus>
<clus scale="   90.284">  7  8 -1 -1</clus>
<clus scale="  140.654">  2  9  1 -1</clus>
<clus scale="  209.583">  1  5  2 -1</clus>
<clus scale="  140.654">  2  5  1 -1</clus>
</clustering>
</event>
<event>
 9    2  0.4653788E-005  0.1404629E+03  0.7546771E-02  0.1213060E+00
         21   -1    0    0  501  502  0.00000000000E+00  0.00000000000E+00  0.14655647540E+03  0.14655647540E+03  0.00000000000E+00 0.  1.
         -1   -1    0    0    0  501 -0.00000000000E+00 -0.00000000000E+00 -0.48303544063E+03  0.48303544063E+03  0.00000000000E+00 0.  1.
         24    2    1    2    0    0 -0.23565829497E+02 -0.97954515888E+02 -0.38361874577E+03  0.40806113917E+03  0.95917233575E+02 0.  0.
         23    2    1    2    0    0  0.47149335878E+02  0.10394586849E+03 -0.20621938336E+02  0.14953266145E+03  0.94376634023E+02 0.  0.
        -13    1    3    3    0    0 -0.71025083620E+01 -0.11237136542E+03 -0.35229248856E+03  0.36984830254E+03  0.00000000000E+00 0.  1.
         14    1    3    3    0    0 -0.16463321135E+02  0.14416849535E+02 -0.31326257204E+02  0.38212836636E+02  0.00000000000E+00 0. -1.
        -11    1    4    4    0    0  0.23706169720E+02  0.15518184306E+02  0.32998810733E+02  0.43493885050E+02  0.00000000000E+00 0.  1.
         11    1    4    4    0    0  0.23443166157E+02  0.88427684181E+02 -0.53620749069E+02  0.10603877640E+03  0.00000000000E+00 0. -1.
         -2    1    1    2    0  502 -0.23583506380E+02 -0.59913525989E+01  0.67761718872E+02  0.71998115417E+02  0.00000000000E+00 0.  1.
<scales pt_clust_5="13000.00000" pt_clust_6="13000.00000" pt_clust_7="13000.00000" pt_clust_8="13000.00000" pt_clust_9="24.33265"></scales>
<clustering>
<clus scale="   24.333">  1  9  2 -1</clus>
<clus scale="   94.377">  7  8 -1 -1</clus>
<clus scale="   95.917">  5  6 -1 -1</clus>
<clus scale="  139.415">  1  7  2 -1</clus>
<clus scale="   24.333">  1  5  2 -1</clus>
</clustering>
</event>
<event>
 9    2  0.4653788E-005  0.9423778E+02  0.7546771E-02  0.1299984E+00
          2   -1    0    0  502    0 -0.00000000000E+00  0.00000000000E+00  0.55738974052E+03  0.55738974052E+03  0.00000000000E+00 0. -1.
         21   -1    0    0  501  502  0.00000000000E+00 -0.00000000000E+00 -0.29387684391E+02  0.29387684391E+02  0.00000000000E+00 0. -1.
         24    2    1    2    0    0 -0.55842377335E+01  0.69030844047E+01  0.22214088615E+03  0.23676084808E+03  0.81426590244E+02 0.  0.
         23    2    1    2    0    0 -0.13757507575E+02  0.41311228503E+02  0.26391840331E+03  0.28324892931E+03  0.93172666215E+02 0.  0.
        -11    1    3    3    0    0  0.30097806919E+02 -0.27124680198E+01  0.36072038845E+02  0.47057703413E+02  0.00000000000E+00 0.  1.
         12    1    3    3    0    0 -0.35682044653E+02  0.96155524244E+01  0.18606884730E+03  0.18970314466E+03  0.00000000000E+00 0. -1.
        -11    1    4    4    0    0 -0.92565159763E+01 -0.28717371284E+02  0.53293008445E+02  0.61241450428E+02  0.00000000000E+00 0.  1.
         11    1    4    4    0    0 -0.45009915990E+01  0.70028599787E+02  0.21062539487E+03  0.22200747888E+03  0.00000000000E+00 0. -1.
          1    1    1    2  501    0  0.19341745309E+02 -0.48214312908E+02  0.41942766668E+02  0.66767647529E+02  0.00000000000E+00 0. -1.
<scales pt_clust_5="13000.00000" pt_clust_6="13000.00000" pt_clust_7="13000.00000" pt_clust_8="13000.00000" pt_clust_9="51.94924"></scales>
<clustering>
<clus scale="   51.949">  2  9  1 -1</clus>
<clus scale="   81.427">  5  6 -1 -1</clus>
<clus scale="   82.643">  1  5  2 -1</clus>
<clus scale="   93.173">  7  8 -1 -1</clus>
<clus scale="   51.949">  2  5  1 -1</clus>
</clustering>
</event>
<event>
 9    2  0.4653788E-005  0.1091809E+03  0.7546771E-02  0.1268262E+00
          2   -1    0    0  502    0 -0.00000000000E+00  0.00000000000E+00  0.13006377757E+03  0.13006377757E+03  0.00000000000E+00 0. -1.
         21   -1    0    0  501  502  0.00000000000E+00 -0.00000000000E+00 -0.19193339523E+03  0.19193339523E+03  0.00000000000E+00 0. -1.
         23    2    1    2    0    0 -0.95859940268E+01 -0.30135550041E+02  0.58316715202E+01  0.97678153387E+02  0.92233240205E+02 0.  0.
         24    2    1    2    0    0  0.66995997447E+02  0.84187954860E+02 -0.25395959063E+02  0.13483543480E+03  0.77198214508E+02 0.  0.
        -13    1    4    4    0    0  0.25474096876E+02  0.14555369125E+02 -0.42824405289E+02  0.51910673954E+02  0.00000000000E+00 0.  1.
         14    1    4    4    0    0  0.41521900571E+02  0.69632585735E+02  0.17428446227E+02  0.82924760844E+02  0.00000000000E+00 0. -1.
        -13    1    3    3    0    0  0.15743542955E+02 -0.47877227440E+02 -0.22998699082E+02  0.55398810562E+02  0.00000000000E+00 0. -1.
         13    1    3    3    0    0 -0.25329536982E+02  0.17741677400E+02  0.28830370603E+02  0.42279342826E+02  0.00000000000E+00 0.  1.
          1    1    1    2  501    0 -0.57410003420E+02 -0.54052404819E+02 -0.42305330111E+02  0.89483584613E+02  0.00000000000E+00 0. -1.
<scales pt_clust_5="13000.00000" pt_clust_6="13000.00000" pt_clust_7="13000.00000" pt_clust_8="13000.00000" pt_clust_9="78.85158"></scales>
<clustering>
<clus scale="   77.198">  5  6 -1 -1</clus>
<clus scale="   78.852">  2  9  1 -1</clus>
<clus scale="   92.233">  7  8 -1 -1</clus>
<clus scale="   96.815">  2  5  1 -1</clus>
<clus scale="   78.852">  2  5  1 -1</clus>
</clustering>
</event>
<event>
 9    2  0.4653788E-005  0.1830328E+03  0.7546771E-02  0.1197737E+00
          2   -1    0    0  502    0 -0.00000000000E+00  0.00000000000E+00  0.82605156006E+03  0.82605156006E+03  0.00000000000E+00 0. -1.
         21   -1    0    0  501  502  0.00000000000E+00 -0.00000000000E+00 -0.76649924031E+02  0.76649924031E+02  0.00000000000E+00 0.  1.
         24    2    1    2    0    0 -0.18353101584E+02  0.27281546867E+02  0.35574846839E+02  0.94570598226E+02  0.81221359161E+02 0.  0.
         23    2    1    2    0    0  0.16354871249E+03 -0.72539660647E+02  0.54561009769E+03  0.58135584846E+03  0.90961860762E+02 0.  0.
        -13    1    3    3    0    0 -0.12152769756E+02 -0.16611904959E+02 -0.16357845305E+02  0.26291144938E+02  0.00000000000E+00 0.  1.
         14    1    3    3    0    0 -0.62003318281E+01  0.43893451826E+02  0.51932692144E+02  0.68279453288E+02  0.00000000000E+00 0. -1.
        -11    1    4    4    0    0  0.10440546510E+03  0.23753114622E+01  0.31134273767E+03  0.32839068736E+03  0.00000000000E+00 0.  1.
         11    1    4    4    0    0  0.59143247398E+02 -0.74914972109E+02  0.23426736001E+03  0.25296516109E+03  0.00000000000E+00 0. -1.
          1    1    1    2  501    0 -0.14519561091E+03  0.45258113779E+02  0.16821669150E+03  0.22677503740E+03  0.00000000000E+00 0. -1.
<scales pt_clust_5="13000.00000" pt_clust_6="13000.00000" pt_clust_7="13000.00000" pt_clust_8="13000.00000" pt_clust_9="158.82993"></scales>
<clustering>
<clus scale="   81.221">  5  6 -1 -1</clus>
<clus scale="   87.624">  1  5  2 -1</clus>
<clus scale="   90.962">  7  8 -1 -1</clus>
<clus scale="  158.830">  2  9  1 -1</clus>
<clus scale="  158.830">  2  5  1 -1</clus>
</clustering>
</event>
<event>
 9    2  0.4653788E-005  0.1251099E+03  0.7546771E-02  0.1245042E+00
         21   -1    0    0  501  502  0.00000000000E+00  0.00000000000E+00  0.93451980346E+02  0.93451980346E+02  0.00000000000E+00 0. -1.
          2   -1    0    0  502    0 -0.00000000000E+00 -0.00000000000E+00 -0.46474396857E+03  0.46474396857E+03  0.00000000000E+00 0. -1.
         23    2    1    2    0    0  0.38777453843E+02  0.18377472688E+02 -0.18470550972E+03  0.21531925283E+03  0.10200408272E+03 0.  0.
         24    2    1    2    0    0 -0.12063913758E+03  0.19928313970E+02 -0.20640837638E+03  0.25034791034E+03  0.71545224572E+02 0.  0.
        -11    1    4    4    0    0 -0.50713929160E+02 -0.26769371615E+02 -0.76643726207E+02  0.95722320461E+02  0.00000000000E+00 0.  1.
         12    1    4    4    0    0 -0.69925208420E+02  0.46697685585E+02 -0.12976465017E+03  0.15462558988E+03  0.00000000000E+00 0. -1.
        -11    1    3    3    0    0  0.14819276331E+02  0.55310388015E+02 -0.14552687880E+03  0.15638709163E+03  0.00000000000E+00 0. -1.
         11    1    3    3    0    0  0.23958177512E+02 -0.36932915327E+02 -0.39178630915E+02  0.58932161208E+02  0.00000000000E+00 0.  1.
          1    1    1    2  501    0  0.81861683737E+02 -0.38305786658E+02  0.19821897872E+02  0.92528785742E+02  0.00000000000E+00 0. -1.
<scales pt_clust_5="13000.00000" pt_clust_6="13000.00000" pt_clust_7="13000.00000" pt_clust_8="13000.00000" pt_clust_9="90.38069"></scales>
<clustering>
<clus scale="   71.545">  5  6 -1 -1</clus>
<clus scale="   90.381">  1  9  2 -1</clus>
<clus scale="  101.815">  1  5  2 -1</clus>
<clus scale="  102.004">  7  8 -1 -1</clus>
<clus scale="   90.381">  1  5  2 -1</clus>
</clustering>
</event>
<event>
 9    2  0.4653788E-005  0.1309550E+03  0.7546771E-02  0.1228902E+00
          2   -1    0    0  502    0 -0.00000000000E+00  0.00000000000E+00  0.32643455598E+03  0.32643455598E+03  0.00000000000E+00 0. -1.
         21   -1    0    0  501  502  0.00000000000E+00 -0.00000000000E+00 -0.88409034139E+02  0.88409034139E+02  0.00000000000E+00 0. -1.
         24    2    1    2    0    0  0.10218177049E+03  0.93055841222E+01  0.15300885207E+03  0.20074099586E+03  0.79734123768E+02 0.  0.
         23    2    1    2    0    0 -0.76605856852E+02  0.50609391325E+02  0.41425096088E+02  0.13571792141E+03  0.90959044690E+02 0.  0.
        -13    1    3    3    0    0  0.58181618432E+02 -0.33938472741E+02  0.68078432495E+02  0.95768437526E+02  0.00000000000E+00 0.  1.
         14    1    3    3    0    0  0.44000152058E+02  0.43244056863E+02  0.84930419571E+02  0.10497255834E+03  0.00000000000E+00 0. -1.
        -13    1    4    4    0    0 -0.22814248704E+01  0.51898352559E+02  0.31421921500E+02  0.60712280871E+02  0.00000000000E+00 0.  1.
         13    1    4    4    0    0 -0.74324431982E+02 -0.12889612346E+01  0.10003174588E+02  0.75005640537E+02  0.00000000000E+00 0. -1.
          1    1    1    2  501    0 -0.25575913638E+02 -0.59914975447E+02  0.43591573687E+02  0.78384672850E+02  0.00000000000E+00 0. -1.
<scales pt_clust_5="13000.00000" pt_clust_6="13000.00000" pt_clust_7="13000.00000" pt_clust_8="13000.00000" pt_clust_9="65.14547"></scales>
<clustering>
<clus scale="   65.145">  2  9  1 -1</clus>
<clus scale="   79.734">  5  6 -1 -1</clus>
<clus scale="   90.959">  7  8 -1 -1</clus>
<clus scale="  123.423">  1  5  2 -1</clus>
<clus scale="   65.145">  2  5  1 -1</clus>
</clustering>
</event>
<event>
 9    2  0.4653788E-005  0.2169844E+03  0.7546771E-02  0.1179080E+00
          2   -1    0    0  502    0 -0.00000000000E+00  0.00000000000E+00  0.31659663306E+03  0.31659663306E+03  0.00000000000E+00 0. -1.
         21   -1    0    0  501  502  0.00000000000E+00 -0.00000000000E+00 -0.24823229679E+03  0.24823229679E+03  0.00000000000E+00 0. -1.
         24    2    1    2    0    0  0.66495612657E+01  0.10034551318E+02  0.12148423790E+03  0.14519323868E+03  0.78598648943E+02 0.  0.
         23    2    1    2    0    0 -0.19846172253E+03 -0.32730836841E+02 -0.51691745217E+02  0.22648014189E+03  0.90348520507E+02 0.  0.
        -13    1    3    3    0    0 -0.71880528171E+01  0.32357941323E+02  0.16601009454E+02  0.37071525256E+02  0.00000000000E+00 0.  1.
         14    1    3    3    0    0  0.13837614083E+02 -0.22323390005E+02  0.10488322845E+03  0.10812171343E+03  0.00000000000E+00 0. -1.
        -11    1    4    4    0    0 -0.56218128292E+02  0.14095044814E+01  0.24734928461E+02  0.61435179966E+02  0.00000000000E+00 0.  1.
         11    1    4    4    0    0 -0.14224359424E+03 -0.34140341322E+02 -0.76426673679E+02  0.16504496192E+03  0.00000000000E+00 0. -1.
          1    1    1    2  501    0  0.19181216126E+03  0.22696285523E+02 -0.14281564148E+01  0.19315554927E+03  0.00000000000E+00 0. -1.
<scales pt_clust_5="13000.00000" pt_clust_6="13000.00000" pt_clust_7="13000.00000" pt_clust_8="13000.00000" pt_clust_9="197.28002"></scales>
<clustering>
<clus scale="   78.599">  5  6 -1 -1</clus>
<clus scale="   79.515">  1  5  2 -1</clus>
<clus scale="   90.349">  7  8 -1 -1</clus>
<clus scale="  197.280">  2  9  1 -1</clus>
<clus scale="  197.280">  2  5  1 -1</clus>
</clustering>
</event>
<event>
 9    2  0.4653788E-005  0.1454813E+03  0.7546771E-02  0.1208743E+00
         21   -1    0    0  501  502  0.00000000000E+00  0.00000000000E+00  0.51575093444E+02  0.51575093444E+02  0.00000000000E+00 0.  1.
          2   -1    0    0  502    0 -0.00000000000E+00 -0.00000000000E+00 -0.78661215281E+03  0.78661215281E+03  0.00000000000E+00 0. -1.
         24    2    1    2    0    0 -0.99722370314E+02  0.10216747253E+02 -0.57990844826E+03  0.59694665704E+03  0.10001284876E+03 0.  0.
         23    2    1    2    0    0  0.12760163868E+03 -0.48376002097E+01 -0.14045279195E+03  0.20927860406E+03  0.88119048920E+02 0.  0.
        -11    1    3    3    0    0 -0.85377387510E+02 -0.21773997138E+02 -0.24791119474E+03  0.26310333660E+03  0.00000000000E+00 0.  1.
         12    1    3    3    0    0 -0.14344982803E+02  0.31990744391E+02 -0.33199725352E+03  0.33384332044E+03  0.00000000000E+00 0. -1.
        -11    1    4    4    0    0  0.42685434586E+01 -0.26037757088E+02 -0.92369891576E+01  0.27955450741E+02  0.00000000000E+00 0. -1.
         11    1    4    4    0    0  0.12333309522E+03  0.21200156878E+02 -0.13121580279E+03  0.18132315332E+03  0.00000000000E+00 0.  1.
          1    1    1    2  501    0 -0.27879268363E+02 -0.53791470435E+01 -0.14675819160E+02  0.31961985160E+02  0.00000000000E+00 0. -1.
<scales pt_clust_5="13000.00000" pt_clust_6="13000.00000" pt_clust_7="13000.00000" pt_clust_8="13000.00000" pt_clust_9="28.39346"></scales>
<clustering>
<clus scale="   28.393">  1  9  2 -1</clus>
<clus scale="   88.119">  7  8 -1 -1</clus>
<clus scale="  100.013">  5  6 -1 -1</clus>
<clus scale="  137.576">  1  7  2 -1</clus>
<clus scale="   28.393">  1  5  2 -1</clus>
</clustering>
</event>
<event>
 9    2  0.4653788E-005  0.8924783E+02  0.7546771E-02  0.1318332E+00
         -1   -1    0    0    0  501 -0.00000000000E+00  0.00000000000E+00  0.16423459325E+03  0.16423459325E+03  0.00000000000E+00 0.  1.
         21   -1    0    0  501  502  0.00000000000E+00 -0.00000000000E+00 -0.58959463988E+02  0.58959463988E+02  0.00000000000E+00 0. -1.
         23    2    1    2    0    0  0.27551291577E+01  0.78887092852E+01  0.89258055481E+02  0.12558222179E+03  0.87943569927E+02 0.  0.
         24    2    1    2    0    0  0.81627498362E+01 -0.26465273735E+02  0.18975548062E+02  0.75862320537E+02  0.68029251461E+02 0.  0.
        -11    1    4    4    0    0 -0.28543463571E+02 -0.98260834598E+00  0.10179357741E+02  0.30320193861E+02  0.00000000000E+00 0.  1.
         12    1    4    4    0    0  0.36706213407E+02 -0.25482665389E+02  0.87961903215E+01  0.45542126676E+02  0.00000000000E+00 0. -1.
        -13    1    3    3    0    0 -0.16247837536E+02 -0.31919716126E+02  0.67460087863E+02  0.76378818769E+02  0.00000000000E+00 0.  1.
         13    1    3    3    0    0  0.19002966693E+02  0.39808425411E+02  0.21797967618E+02  0.49203403024E+02  0.00000000000E+00 0. -1.
         -2    1    1    2    0  502 -0.10917878994E+02  0.18576564450E+02 -0.29584742844E+01  0.21749514904E+02  0.00000000000E+00 0.  1.
<scales pt_clust_5="13000.00000" pt_clust_6="13000.00000" pt_clust_7="13000.00000" pt_clust_8="13000.00000" pt_clust_9="21.54736"></scales>
<clustering>
<clus scale="   21.547">  2  9  1 -1</clus>
<clus scale="   68.029">  5  6 -1 -1</clus>
<clus scale="   69.707">  2  5  1 -1</clus>
<clus scale="   87.944">  7  8 -1 -1</clus>
<clus scale="   21.547">  2  5  1 -1</clus>
</clustering>
</event>
<event>
 9    2  0.4692148E-005  0.2616157E+03  0.7546771E-02  0.1106176E+00
         21   -1    0    0  501  502  0.00000000000E+00  0.00000000000E+00  0.33283186199E+03  0.33283186199E+03  0.00000000000E+00 0.  1.
         -1   -1    0    0    0  501 -0.00000000000E+00 -0.00000000000E+00 -0.17260574253E+03  0.17260574253E+03  0.00000000000E+00 0.  1.
         24    2    1    2    0    0  0.10853496879E+03  0.75567811281E+02  0.15973104269E+03  0.22210657503E+03  0.79542385681E+02 0.  0.
         23    2    1    2    0    0  0.37035450353E+02  0.58863702858E+01  0.45675090667E+02  0.11051099513E+03  0.93381969349E+02 0.  0.
        -13    1    3    3    0    0  0.11929655937E+03  0.69189826648E+02  0.12863719002E+03  0.18859063563E+03  0.00000000000E+00 0.  1.
         14    1    3    3    0    0 -0.10761590587E+02  0.63779846329E+01  0.31093852670E+02  0.33515939399E+02  0.00000000000E+00 0. -1.
        -13    1    4    4    0    0  0.57879050072E+02 -0.14245264520E+02  0.39855746544E+01  0.59739407462E+02  0.00000000000E+00 0.  1.
         13    1    4    4    0    0 -0.20843599719E+02  0.20131634805E+02  0.41689516013E+02  0.50771587670E+02  0.00000000000E+00 0. -1.
         -2    1    1    2    0  502 -0.14557041914E+03 -0.81454181567E+02 -0.45180013895E+02  0.17282003437E+03  0.00000000000E+00 0.  1.
<scales pt_clust_5="13000.00000" pt_clust_6="13000.00000" pt_clust_7="13000.00000" pt_clust_8="13000.00000" pt_clust_9="166.80995"></scales>
<clustering>
<clus scale="   79.542">  5  6 -1 -1</clus>
<clus scale="   93.382">  7  8 -1 -1</clus>
<clus scale="   95.881">  5  7 -1 -1</clus>
<clus scale="  166.810">  1  9  2 -1</clus>
<clus scale="  166.810">  1  5  2 -1</clus>
</clustering>
</event>
<event>
 9    2  0.4653788E-005  0.1424903E+03  0.7546771E-02  0.1216406E+00
         21   -1    0    0  501  502  0.00000000000E+00  0.00000000000E+00  0.30488234262E+02  0.30488234262E+02  0.00000000000E+00 0.  1.
          2   -1    0    0  502    0 -0.00000000000E+00 -0.00000000000E+00 -0.94268882000E+03  0.94268882000E+03  0.00000000000E+00 0. -1.
         23    2    1    2    0    0 -0.78215334163E+02  0.68900263106E+02 -0.55339669114E+03  0.57318124423E+03  0.10688290893E+03 0.  0.
         24    2    1    2    0    0  0.24329115210E+02 -0.84995947277E+02 -0.23001661279E+03  0.25946481844E+03  0.81228892317E+02 0.  0.
        -11    1    4    4    0    0  0.17488245178E+02 -0.80976932088E+02 -0.10291521132E+03  0.13211602087E+03  0.00000000000E+00 0.  1.
         12    1    4    4    0    0  0.68408700321E+01 -0.40190151894E+01 -0.12710140147E+03  0.12734879757E+03  0.00000000000E+00 0. -1.
        -13    1    3    3    0    0 -0.93232816663E+02  0.48470451303E+02 -0.52367537545E+03  0.53411388449E+03  0.00000000000E+00 0.  1.
         13    1    3    3    0    0  0.15017482500E+02  0.20429811803E+02 -0.29721315691E+02  0.39067359743E+02  0.00000000000E+00 0. -1.
          1    1    1    2  501    0  0.53886218952E+02  0.16095684171E+02 -0.12878728180E+03  0.14053099158E+03  0.00000000000E+00 0. -1.
<scales pt_clust_5="13000.00000" pt_clust_6="13000.00000" pt_clust_7="13000.00000" pt_clust_8="13000.00000" pt_clust_9="56.23874"></scales>
<clustering>
<clus scale="   56.239">  1  9  2 -1</clus>
<clus scale="   81.229">  5  6 -1 -1</clus>
<clus scale="  106.883">  7  8 -1 -1</clus>
<clus scale="  124.409">  1  5  2 -1</clus>
<clus scale="   56.239">  1  5  2 -1</clus>
</clustering>
</event>
<event>
 9    2  0.4653788E-005  0.9563645E+02  0.7546771E-02  0.1295988E+00
         -3   -1    0    0    0  501 -0.00000000000E+00  0.00000000000E+00  0.52898708025E+02  0.52898708025E+02  0.00000000000E+00 0.  1.
         21   -1    0    0  501  502  0.00000000000E+00 -0.00000000000E+00 -0.28396480198E+03  0.28396480198E+03  0.00000000000E+00 0. -1.
         23    2    1    2    0    0  0.18572700863E+02  0.10236637000E+02 -0.22341429970E+02  0.96725928596E+02  0.91689867572E+02 0.  0.
         24    2    1    2    0    0 -0.36884483202E+02 -0.19053957424E+02 -0.12801130234E+03  0.15690469572E+03  0.80676338649E+02 0.  0.
        -11    1    4    4    0    0 -0.25268248849E+02 -0.95752462982E+01  0.98542702920E+00  0.27039615530E+02  0.00000000000E+00 0.  1.
         12    1    4    4    0    0 -0.11616234353E+02 -0.94787111255E+01 -0.12899672937E+03  0.12986508019E+03  0.00000000000E+00 0. -1.
        -11    1    3    3    0    0  0.18007165269E+02 -0.12751395283E+02  0.31339152893E+02  0.38327517357E+02  0.00000000000E+00 0.  1.
         11    1    3    3    0    0  0.56553559376E+00  0.22988032283E+02 -0.53680582863E+02  0.58398411239E+02  0.00000000000E+00 0. -1.
         -4    1    1    2    0  502  0.18311782340E+02  0.88173204238E+01 -0.80713361644E+02  0.83232885687E+02  0.00000000000E+00 0.  1.
<scales pt_clust_5="13000.00000" pt_clust_6="13000.00000" pt_clust_7="13000.00000" pt_clust_8="13000.00000" pt_clust_9="20.32404"></scales>
<clustering>
<clus scale="   20.324">  2  9  1 -1</clus>
<clus scale="   80.676">  5  6 -1 -1</clus>
<clus scale="   85.135">  2  5  1 -1</clus>
<clus scale="   91.690">  7  8 -1 -1</clus>
<clus scale="   20.324">  2  5  1 -1</clus>
</clustering>
</event>
<event>
 9    2  0.4653788E-005  0.1414423E+03  0.7546771E-02  0.1211515E+00
          2   -1    0    0  502    0 -0.00000000000E+00  0.00000000000E+00  0.84348187209E+03  0.84348187209E+03  0.00000000000E+00 0. -1.
         21   -1    0    0  501  502  0.00000000000E+00 -0.00000000000E+00 -0.72907661004E+02  0.72907661004E+02  0.00000000000E+00 0. -1.
         24    2    1    2    0    0  0.51441979394E+02  0.10659339488E+03  0.49003182462E+03  0.51025854976E+03  0.78893405206E+02 0.  0.
         23    2    1    2    0    0 -0.87673636652E+02 -0.81681647579E+02  0.31759260190E+03  0.34863275202E+03  0.79505829238E+02 0.  0.
        -11    1    3    3    0    0  0.53138016331E+02  0.65641770904E+02  0.19651693415E+03  0.21389576030E+03  0.00000000000E+00 0.  1.
         12    1    3    3    0    0 -0.16960369372E+01  0.40951623980E+02  0.29351489047E+03  0.29636278945E+03  0.00000000000E+00 0. -1.
        -11    1    4    4    0    0 -0.57014466722E+02 -0.94467654612E+02  0.23519823180E+03  0.25979414048E+03  0.00000000000E+00 0. -1.
         11    1    4    4    0    0 -0.30659169930E+02  0.12786007033E+02  0.82394370096E+02  0.88838611539E+02  0.00000000000E+00 0.  1.
          1    1    1    2  501    0  0.36231657257E+02 -0.24911747305E+02 -0.37050215430E+02  0.57498231319E+02  0.00000000000E+00 0. -1.
<scales pt_clust_5="13000.00000" pt_clust_6="13000.00000" pt_clust_7="13000.00000" pt_clust_8="13000.00000" pt_clust_9="43.96963"></scales>
<clustering>
<clus scale="   43.970">  2  9  1 -1</clus>
<clus scale="   78.893">  5  6 -1 -1</clus>
<clus scale="   79.506">  7  8 -1 -1</clus>
<clus scale="  141.099">  1  5  2 -1</clus>
<clus scale="   43.970">  2  5  1 -1</clus>
</clustering>
</event>
<event>
 9    2  0.4653788E-005  0.1157901E+03  0.7546771E-02  0.1253969E+00
         21   -1    0    0  501  502  0.00000000000E+00  0.00000000000E+00  0.99817235346E+02  0.99817235346E+02  0.00000000000E+00 0. -1.
         -1   -1    0    0    0  501 -0.00000000000E+00 -0.00000000000E+00 -0.23621820207E+03  0.23621820207E+03  0.00000000000E+00 0.  1.
         23    2    1    2    0    0  0.74651602498E+02  0.38264872747E+02 -0.15508269094E+03  0.19841470803E+03  0.90998313675E+02 0.  0.
         24    2    1    2    0    0 -0.30494325137E+02 -0.27431057105E+02  0.19786572647E+02  0.92140432610E+02  0.80099838357E+02 0.  0.
        -11    1    4    4    0    0 -0.26882998853E+02 -0.79738188549E+01 -0.28484355641E+02  0.39970438210E+02  0.00000000000E+00 0.  1.
         12    1    4    4    0    0 -0.36113262843E+01 -0.19457238251E+02  0.48270928288E+02  0.52169994399E+02  0.00000000000E+00 0. -1.
        -13    1    3    3    0    0  0.92440624934E+02  0.23747194291E+02 -0.14439753987E+03  0.17308913281E+03  0.00000000000E+00 0.  1.
         13    1    3    3    0    0 -0.17789022437E+02  0.14517678455E+02 -0.10685151067E+02  0.25325575222E+02  0.00000000000E+00 0. -1.
         -2    1    1    2    0  502 -0.44157277361E+02 -0.10833815641E+02 -0.11048484363E+01  0.45480296781E+02  0.00000000000E+00 0.  1.
<scales pt_clust_5="13000.00000" pt_clust_6="13000.00000" pt_clust_7="13000.00000" pt_clust_8="13000.00000" pt_clust_9="45.46687"></scales>
<clustering>
<clus scale="   45.467">  1  9  2 -1</clus>
<clus scale="   80.100">  5  6 -1 -1</clus>
<clus scale="   90.998">  7  8 -1 -1</clus>
<clus scale="  107.437">  1  5  2 -1</clus>
<clus scale="   45.467">  1  5  2 -1</clus>
</clustering>
</event>
<event>
 9    2  0.4653788E-005  0.9157925E+02  0.7546771E-02  0.1302549E+00
         21   -1    0    0  501  502  0.00000000000E+00  0.00000000000E+00  0.66262785712E+02  0.66262785712E+02  0.00000000000E+00 0. -1.
         -1   -1    0    0    0  501 -0.00000000000E+00 -0.00000000000E+00 -0.17964751208E+03  0.17964751208E+03  0.00000000000E+00 0.  1.
         23    2    1    2    0    0  0.21052220615E+02  0.49808498251E+01 -0.56716622493E+02  0.10637312273E+03  0.87352510639E+02 0.  0.
         24    2    1    2    0    0 -0.24786006260E+02 -0.31831566539E+02 -0.18455555871E+02  0.92685270422E+02  0.81377866008E+02 0.  0.
        -11    1    4    4    0    0 -0.49851159332E+02 -0.12373810443E+02 -0.29323124614E+02  0.59144694679E+02  0.00000000000E+00 0.  1.
         12    1    4    4    0    0  0.25065153072E+02 -0.19457756096E+02  0.10867568742E+02  0.33540575743E+02  0.00000000000E+00 0. -1.
        -13    1    3    3    0    0  0.41124608154E+02 -0.15944715009E+02 -0.62803733006E+02  0.76744877432E+02  0.00000000000E+00 0.  1.
         13    1    3    3    0    0 -0.20072387539E+02  0.20925564834E+02  0.60871105135E+01  0.29628245300E+02  0.00000000000E+00 0. -1.
         -2    1    1    2    0  502  0.37337856445E+01  0.26850716714E+02 -0.38212548006E+02  0.46851904640E+02  0.00000000000E+00 0.  1.
<scales pt_clust_5="13000.00000" pt_clust_6="13000.00000" pt_clust_7="13000.00000" pt_clust_8="13000.00000" pt_clust_9="27.10909"></scales>
<clustering>
<clus scale="   27.109">  1  9  2 -1</clus>
<clus scale="   81.378">  5  6 -1 -1</clus>
<clus scale="   85.899">  1  5  2 -1</clus>
<clus scale="   87.353">  7  8 -1 -1</clus>
<clus scale="   27.109">  1  5  2 -1</clus>
</clustering>
</event>
<event>
 9    2  0.1060853E-004  0.1311531E+03  0.7546771E-02  0.1237998E+00
         21   -1    0    0  501  502  0.00000000000E+00  0.00000000000E+00  0.60250892800E+03  0.60250892800E+03  0.00000000000E+00 0.  1.
         -1   -1    0    0    0  501 -0.00000000000E+00 -0.00000000000E+00 -0.97247838776E+02  0.97247838776E+02  0.00000000000E+00 0.  1.
         23    2    1    2    0    0  0.30973747526E+02 -0.31885313642E+02  0.20512829647E+03  0.22905995104E+03  0.91732202068E+02 0.  0.
         24    2    1    2    0    0  0.67175172591E+02 -0.16391501932E+02 -0.41165170323E+02  0.11230016251E+03  0.78329880019E+02 0.  0.
        -11    1    4    4    0    0  0.45177677920E+02 -0.28636005711E+02 -0.60354089210E+02  0.80645269481E+02  0.00000000000E+00 0.  1.
         12    1    4    4    0    0  0.21997494672E+02  0.12244503779E+02  0.19188918887E+02  0.31654893029E+02  0.00000000000E+00 0. -1.
        -13    1    3    3    0    0 -0.31267619021E+02 -0.15414803298E+02  0.98664622875E+02  0.10464219019E+03  0.00000000000E+00 0. -1.
         13    1    3    3    0    0  0.62241366547E+02 -0.16470510344E+02  0.10646367360E+03  0.12441776086E+03  0.00000000000E+00 0.  1.
         -2    1    1    2    0  502 -0.98148920117E+02  0.48276815574E+02  0.34129796308E+03  0.35839665323E+03  0.00000000000E+00 0.  1.
<scales pt_clust_5="13000.00000" pt_clust_6="13000.00000" pt_clust_7="13000.00000" pt_clust_8="13000.00000" pt_clust_9="105.19305"></scales>
<clustering>
<clus scale="   78.330">  5  6 -1 -1</clus>
<clus scale="   91.732">  7  8 -1 -1</clus>
<clus scale="  101.936">  2  7  1 -1</clus>
<clus scale="  105.193">  1  9  2 -1</clus>
<clus scale="  105.193">  1  5  2 -1</clus>
</clustering>
</event>
<event>
 9    2  0.4653788E-005  0.1416614E+03  0.7546771E-02  0.1214730E+00
         21   -1    0    0  501  502  0.00000000000E+00  0.00000000000E+00  0.13568802950E+03  0.13568802950E+03  0.00000000000E+00 0. -1.
          4   -1    0    0  502    0 -0.00000000000E+00 -0.00000000000E+00 -0.33448621534E+03  0.33448621534E+03  0.00000000000E+00 0. -1.
         23    2    1    2    0    0 -0.10751482836E+03  0.35256330115E+01 -0.26534721320E+03  0.30182377267E+03  0.95480771842E+02 0.  0.
         24    2    1    2    0    0  0.91080522640E+02 -0.20342344532E+02  0.31807794942E+02  0.12640000827E+03  0.79093322643E+02 0.  0.
        -11    1    4    4    0    0  0.75687010686E+02  0.16709795707E+02  0.40574209802E+01  0.77615742760E+02  0.00000000000E+00 0.  1.
         12    1    4    4    0    0  0.15393511954E+02 -0.37052140239E+02  0.27750373962E+02  0.48784265512E+02  0.00000000000E+00 0. -1.
        -13    1    3    3    0    0 -0.10955299367E+02  0.36974096845E+02 -0.10311530206E+03  0.11009027178E+03  0.00000000000E+00 0.  1.
         13    1    3    3    0    0 -0.96559528989E+02 -0.33448463834E+02 -0.16223191114E+03  0.19173350089E+03  0.00000000000E+00 0. -1.
          3    1    1    2  501    0  0.16434305716E+02  0.16816711520E+02  0.34741232421E+02  0.41950463893E+02  0.00000000000E+00 0. -1.
<scales pt_clust_5="13000.00000" pt_clust_6="13000.00000" pt_clust_7="13000.00000" pt_clust_8="13000.00000" pt_clust_9="23.51357"></scales>
<clustering>
<clus scale="   23.514">  1  9  2 -1</clus>
<clus scale="   79.093">  5  6 -1 -1</clus>
<clus scale="   95.481">  7  8 -1 -1</clus>
<clus scale="  131.176">  1  5  2 -1</clus>
<clus scale="   23.514">  1  5  2 -1</clus>
</clustering>
</event>
<event>
 9    2  0.4653788E-005  0.1246813E+03  0.7546771E-02  0.1238540E+00
         21   -1    0    0  501  502  0.00000000000E+00  0.00000000000E+00  0.51034874548E+03  0.51034874548E+03  0.00000000000E+00 0.  1.
         -3   -1    0    0    0  501 -0.00000000000E+00 -0.00000000000E+00 -0.84225746700E+02  0.84225746700E+02  0.00000000000E+00 0.  1.
         23    2    1    2    0    0 -0.73691371054E+02  0.11135477549E+01  0.68795135346E+02  0.13531585964E+03  0.90254933751E+02 0.  0.
         24    2    1    2    0    0  0.10554492003E+03 -0.10380382281E+03  0.28070867437E+03  0.32723423591E+03  0.79811788032E+02 0.  0.
        -11    1    4    4    0    0  0.93990826582E+02 -0.11714915709E+03  0.24439026018E+03  0.28685327217E+03  0.00000000000E+00 0.  1.
         12    1    4    4    0    0  0.11554093451E+02  0.13345334279E+02  0.36318414196E+02  0.40380963736E+02  0.00000000000E+00 0. -1.
        -11    1    3    3    0    0  0.92789711954E+01 -0.25950982292E+02  0.26885353550E+02  0.38501623652E+02  0.00000000000E+00 0. -1.
         11    1    3    3    0    0 -0.82970342249E+02  0.27064530047E+02  0.41909781796E+02  0.96814235988E+02  0.00000000000E+00 0.  1.
         -4    1    1    2    0  502 -0.31853548979E+02  0.10269027505E+03  0.76619189061E+02  0.13202439663E+03  0.00000000000E+00 0.  1.
<scales pt_clust_5="13000.00000" pt_clust_6="13000.00000" pt_clust_7="13000.00000" pt_clust_8="13000.00000" pt_clust_9="107.51722"></scales>
<clustering>
<clus scale="   79.812">  5  6 -1 -1</clus>
<clus scale="   90.255">  7  8 -1 -1</clus>
<clus scale="  107.517">  1  9  2 -1</clus>
<clus scale="  117.343">  1  5  2 -1</clus>
<clus scale="  107.517">  1  5  2 -1</clus>
</clustering>
</event>
<event>
 9    2  0.4653788E-005  0.1427095E+03  0.7546771E-02  0.1211434E+00
         21   -1    0    0  501  502  0.00000000000E+00  0.00000000000E+00  0.18576604897E+03  0.18576604897E+03  0.00000000000E+00 0.  1.
          2   -1    0    0  502    0 -0.00000000000E+00 -0.00000000000E+00 -0.13973359907E+03  0.13973359907E+03  0.00000000000E+00 0. -1.
         23    2    1    2    0    0  0.78915134069E+02  0.92454083782E+02 -0.59161669621E+01  0.15181961189E+03  0.90768042452E+02 0.  0.
         24    2    1    2    0    0 -0.64335527884E+02 -0.75073757223E+02  0.14099889718E+02  0.12955332299E+03  0.82523496262E+02 0.  0.
        -11    1    4    4    0    0  0.10810710888E+01 -0.61742291841E+02  0.25809863035E+01  0.61805669697E+02  0.00000000000E+00 0.  1.
         12    1    4    4    0    0 -0.65416598973E+02 -0.13331465383E+02  0.11518903415E+02  0.67747653290E+02  0.00000000000E+00 0. -1.
        -13    1    3    3    0    0  0.81936192290E+02  0.28818473684E+02 -0.12588109472E+02  0.87763913612E+02  0.00000000000E+00 0.  1.
         13    1    3    3    0    0 -0.30210582204E+01  0.63635610098E+02  0.66719425103E+01  0.64055698281E+02  0.00000000000E+00 0. -1.
          1    1    1    2  501    0 -0.14579606185E+02 -0.17380326559E+02  0.37848727149E+02  0.44126713164E+02  0.00000000000E+00 0. -1.
<scales pt_clust_5="13000.00000" pt_clust_6="13000.00000" pt_clust_7="13000.00000" pt_clust_8="13000.00000" pt_clust_9="22.68569"></scales>
<clustering>
<clus scale="   22.686">  1  9  2 -1</clus>
<clus scale="   82.523">  5  6 -1 -1</clus>
<clus scale="   90.768">  7  8 -1 -1</clus>
<clus scale="  137.613">  1  5  2 -1</clus>
<clus scale="   22.686">  1  5  2 -1</clus>
</clustering>
</event>
<event>
 9    2  0.4653788E-005  0.1157273E+03  0.7546771E-02  0.1254879E+00
          4   -1    0    0  502    0 -0.00000000000E+00  0.00000000000E+00  0.29099614853E+03  0.29099614853E+03  0.00000000000E+00 0. -1.
         21   -1    0    0  501  502  0.00000000000E+00 -0.00000000000E+00 -0.77984720652E+02  0.77984720652E+02  0.00000000000E+00 0. -1.
         23    2    1    2    0    0  0.30921966836E+02  0.71168981047E+02  0.19301017144E+03  0.22722657486E+03  0.91420994033E+02 0.  0.
         24    2    1    2    0    0  0.52788552731E+01 -0.61546117456E+02  0.27670051027E+02  0.10351937002E+03  0.78325202581E+02 0.  0.
        -13    1    4    4    0    0 -0.27234858843E+02 -0.65136354961E+01  0.27998388526E+02  0.39598923516E+02  0.00000000000E+00 0.  1.
         14    1    4    4    0    0  0.32513714116E+02 -0.55032481960E+02 -0.32833749953E+00  0.63920446508E+02  0.00000000000E+00 0. -1.
        -11    1    3    3    0    0 -0.12584032651E+02 -0.16309307802E+02  0.49514278749E+02  0.53628492416E+02  0.00000000000E+00 0.  1.
         11    1    3    3    0    0  0.43505999488E+02  0.87478288849E+02  0.14349589269E+03  0.17359808245E+03  0.00000000000E+00 0. -1.
          3    1    1    2  501    0 -0.36200822109E+02 -0.96228635906E+01 -0.76687945879E+01  0.38234924291E+02  0.00000000000E+00 0. -1.
<scales pt_clust_5="13000.00000" pt_clust_6="13000.00000" pt_clust_7="13000.00000" pt_clust_8="13000.00000" pt_clust_9="37.45796"></scales>
<clustering>
<clus scale="   37.458">  2  9  1 -1</clus>
<clus scale="   78.325">  5  6 -1 -1</clus>
<clus scale="   91.421">  7  8 -1 -1</clus>
<clus scale="  105.687">  2  5  1 -1</clus>
<clus scale="   37.458">  2  5  1 -1</clus>
</clustering>
</event>
<event>
 9    2  0.4653788E-005  0.1375519E+03  0.7546771E-02  0.1219040E+00
         21   -1    0    0  501  502  0.00000000000E+00  0.00000000000E+00  0.87182728492E+02  0.87182728492E+02  0.00000000000E+00 0.  1.
         -1   -1    0    0    0  501 -0.00000000000E+00 -0.00000000000E+00 -0.37595662719E+03  0.37595662719E+03  0.00000000000E+00 0.  1.
         23    2    1    2    0    0  0.83464371797E+02 -0.74588745678E+02 -0.20666919143E+03  0.25258151531E+03  0.92495863972E+02 0.  0.
         24    2    1    2    0    0 -0.58361451653E+02  0.69447786904E+02 -0.11562088007E+03  0.16836874348E+03  0.82163201798E+02 0.  0.
        -13    1    4    4    0    0 -0.30173034808E+02  0.30183268060E+02 -0.11204906839E+03  0.11990177408E+03  0.00000000000E+00 0.  1.
         14    1    4    4    0    0 -0.28188416845E+02  0.39264518844E+02 -0.35718116743E+01  0.48466969401E+02  0.00000000000E+00 0. -1.
        -11    1    3    3    0    0  0.39303962098E+02 -0.88592879956E+02 -0.11946828242E+03  0.15383813025E+03  0.00000000000E+00 0.  1.
         11    1    3    3    0    0  0.44160409699E+02  0.14004134277E+02 -0.87200909007E+02  0.98743385061E+02  0.00000000000E+00 0. -1.
         -2    1    1    2    0  502 -0.25102920144E+02  0.51409587748E+01  0.33516172797E+02  0.42189096883E+02  0.00000000000E+00 0.  1.
<scales pt_clust_5="13000.00000" pt_clust_6="13000.00000" pt_clust_7="13000.00000" pt_clust_8="13000.00000" pt_clust_9="25.62394"></scales>
<clustering>
<clus scale="   25.624">  1  9  2 -1</clus>
<clus scale="   82.163">  5  6 -1 -1</clus>
<clus scale="   92.496">  7  8 -1 -1</clus>
<clus scale="  130.828">  1  5  2 -1</clus>
<clus scale="   25.624">  1  5  2 -1</clus>
</clustering>
</event>
<event>
 9    2  0.4653788E-005  0.1008507E+03  0.7546771E-02  0.1286082E+00
         -3   -1    0    0    0  501 -0.00000000000E+00  0.00000000000E+00  0.26029274437E+03  0.26029274437E+03  0.00000000000E+00 0.  1.
         21   -1    0    0  501  502  0.00000000000E+00 -0.00000000000E+00 -0.99064860997E+02  0.99064860997E+02  0.00000000000E+00 0.  1.
         23    2    1    2    0    0 -0.43461406173E+02  0.51429816883E+01  0.17781283892E+03  0.20586977508E+03  0.94072389798E+02 0.  0.
         24    2    1    2    0    0  0.19882143967E+02  0.26871644609E+02  0.30884878104E+02  0.91566081202E+02  0.79454934387E+02 0.  0.
        -11    1    4    4    0    0 -0.67827665600E+01  0.49783315284E+02  0.11990575737E+02  0.51654218699E+02  0.00000000000E+00 0.  1.
         12    1    4    4    0    0  0.26664910527E+02 -0.22911670675E+02  0.18894302368E+02  0.39911862503E+02  0.00000000000E+00 0. -1.
        -13    1    3    3    0    0 -0.44180458172E+02  0.37675204871E+02  0.59388594415E+02  0.83056240541E+02  0.00000000000E+00 0. -1.
         13    1    3    3    0    0  0.71905199909E+00 -0.32532223182E+02  0.11842424450E+03  0.12281353454E+03  0.00000000000E+00 0.  1.
         -4    1    1    2    0  502  0.23579262206E+02 -0.32014626298E+02 -0.47469833646E+02  0.61921749083E+02  0.00000000000E+00 0.  1.
<scales pt_clust_5="13000.00000" pt_clust_6="13000.00000" pt_clust_7="13000.00000" pt_clust_8="13000.00000" pt_clust_9="39.76076"></scales>
<clustering>
<clus scale="   39.761">  2  9  1 -1</clus>
<clus scale="   79.455">  5  6 -1 -1</clus>
<clus scale="   87.375">  2  5  1 -1</clus>
<clus scale="   94.072">  7  8 -1 -1</clus>
<clus scale="   39.761">  2  5  1 -1</clus>
</clustering>
</event>
<event>
 9    2  0.4653788E-005  0.1295341E+03  0.7546771E-02  0.1244579E+00
         21   -1    0    0  501  502  0.00000000000E+00  0.00000000000E+00  0.22770659689E+03  0.22770659689E+03  0.00000000000E+00 0.  1.
          2   -1    0    0  502    0 -0.00000000000E+00 -0.00000000000E+00 -0.13719001472E+03  0.13719001472E+03  0.00000000000E+00 0. -1.
         24    2    1    2    0    0 -0.31783928235E+02 -0.33670707911E+02 -0.36488967199E+02  0.99524458369E+02  0.80185649720E+02 0.  0.
         23    2    1    2    0    0 -0.32943588278E+02 -0.61839099026E+02  0.77735301009E+02  0.13991565884E+03  0.92866896083E+02 0.  0.
        -13    1    3    3    0    0 -0.34315329777E+02  0.14992745446E+02 -0.34242893864E+02  0.50743473017E+02  0.00000000000E+00 0.  1.
         14    1    3    3    0    0  0.25314015417E+01 -0.48663453358E+02 -0.22460733357E+01  0.48780985352E+02  0.00000000000E+00 0. -1.
        -13    1    4    4    0    0  0.18382462980E+02 -0.62198270315E+02  0.39867924801E+02  0.76131407470E+02  0.00000000000E+00 0.  1.
         13    1    4    4    0    0 -0.51326051258E+02  0.35917128893E+00  0.37867376208E+02  0.63784251368E+02  0.00000000000E+00 0. -1.
          1    1    1    2  501    0  0.64727516513E+02  0.95509806938E+02  0.49270248365E+02  0.12545649441E+03  0.00000000000E+00 0. -1.
<scales pt_clust_5="13000.00000" pt_clust_6="13000.00000" pt_clust_7="13000.00000" pt_clust_8="13000.00000" pt_clust_9="90.30405"></scales>
<clustering>
<clus scale="   80.186">  5  6 -1 -1</clus>
<clus scale="   92.594">  2  5  1 -1</clus>
<clus scale="   90.304">  1  9  2 -1</clus>
<clus scale="   92.867">  7  8 -1 -1</clus>
<clus scale="   90.304">  1  5  2 -1</clus>
</clustering>
</event>
<event>
 9    2  0.4653788E-005  0.1278552E+03  0.7546771E-02  0.1235955E+00
         21   -1    0    0  501  502  0.00000000000E+00  0.00000000000E+00  0.20356068666E+03  0.20356068666E+03  0.00000000000E+00 0.  1.
          4   -1    0    0  502    0 -0.00000000000E+00 -0.00000000000E+00 -0.11925330382E+03  0.11925330382E+03  0.00000000000E+00 0. -1.
         24    2    1    2    0    0  0.66832238855E+02  0.51686951939E+02 -0.47129357792E+02  0.12568145636E+03  0.80228193021E+02 0.  0.
         23    2    1    2    0    0 -0.47674632569E+02 -0.58457200234E+02  0.97366285095E+02  0.15746332590E+03  0.98103978931E+02 0.  0.
        -13    1    3    3    0    0  0.63548467899E+02  0.29686677166E+02  0.36585041220E+01  0.70235968178E+02  0.00000000000E+00 0.  1.
         14    1    3    3    0    0  0.32837709561E+01  0.22000274773E+02 -0.50787861914E+02  0.55445488181E+02  0.00000000000E+00 0. -1.
        -11    1    4    4    0    0 -0.41331700540E+02  0.12682448622E+02  0.95609800293E+01  0.44278282619E+02  0.00000000000E+00 0. -1.
         11    1    4    4    0    0 -0.63429320291E+01 -0.71139648855E+02  0.87805305065E+02  0.11318504329E+03  0.00000000000E+00 0.  1.
          3    1    1    2  501    0 -0.19157606286E+02  0.67702482948E+01  0.34070455532E+02  0.39669208220E+02  0.00000000000E+00 0. -1.
<scales pt_clust_5="13000.00000" pt_clust_6="13000.00000" pt_clust_7="13000.00000" pt_clust_8="13000.00000" pt_clust_9="20.31871"></scales>
<clustering>
<clus scale="   20.319">  1  9  2 -1</clus>
<clus scale="   80.228">  5  6 -1 -1</clus>
<clus scale="   98.104">  7  8 -1 -1</clus>
<clus scale="  114.713">  2  5  1 -1</clus>
<clus scale="   20.319">  1  5  2 -1</clus>
</clustering>
</event>
<event>
 9    2  0.4653788E-005  0.1238706E+03  0.7546771E-02  0.1240710E+00
         21   -1    0    0  501  502  0.00000000000E+00  0.00000000000E+00  0.18428597829E+03  0.18428597829E+03  0.00000000000E+00 0. -1.
          2   -1    0    0  502    0 -0.00000000000E+00 -0.00000000000E+00 -0.12211149845E+03  0.12211149845E+03  0.00000000000E+00 0. -1.
         23    2    1    2    0    0 -0.60582311068E+02  0.49015074021E+02 -0.67960831889E+01  0.12077836726E+03  0.92024634509E+02 0.  0.
         24    2    1    2    0    0  0.84791267275E+02 -0.42697152468E+02  0.90110828120E+02  0.15286394955E+03  0.78960875706E+02 0.  0.
        -13    1    4    4    0    0  0.15572782629E+02  0.14634897298E+02 -0.50594988257E+01  0.21961108945E+02  0.00000000000E+00 0.  1.
         14    1    4    4    0    0  0.69218484646E+02 -0.57332049766E+02  0.95170326945E+02  0.13090284060E+03  0.00000000000E+00 0. -1.
        -11    1    3    3    0    0 -0.20959757566E+02  0.70705658881E+02  0.55353107750E+01  0.73954319011E+02  0.00000000000E+00 0.  1.
         11    1    3    3    0    0 -0.39622553502E+02 -0.21690584861E+02 -0.12331393964E+02  0.46824048252E+02  0.00000000000E+00 0. -1.
          1    1    1    2  501    0 -0.24208956207E+02 -0.63179215530E+01 -0.21140265094E+02  0.32755159923E+02  0.00000000000E+00 0. -1.
<scales pt_clust_5="13000.00000" pt_clust_6="13000.00000" pt_clust_7="13000.00000" pt_clust_8="13000.00000" pt_clust_9="25.01980"></scales>
<clustering>
<clus scale="   25.020">  1  9  2 -1</clus>
<clus scale="   78.961">  5  6 -1 -1</clus>
<clus scale="   92.025">  7  8 -1 -1</clus>
<clus scale="  114.500">  1  5  2 -1</clus>
<clus scale="   25.020">  1  5  2 -1</clus>
</clustering>
</event>
<event>
 9    2  0.4653788E-005  0.9617309E+02  0.7546771E-02  0.1294237E+00
          2   -1    0    0  502    0 -0.00000000000E+00  0.00000000000E+00  0.70396351316E+03  0.70396351316E+03  0.00000000000E+00 0. -1.
         21   -1    0    0  501  502  0.00000000000E+00 -0.00000000000E+00 -0.43257565441E+02  0.43257565441E+02  0.00000000000E+00 0.  1.
         23    2    1    2    0    0  0.59742096909E+01  0.51115931007E+02  0.24957262013E+03  0.27041379004E+03  0.90490858867E+02 0.  0.
         24    2    1    2    0    0 -0.14593498612E+02  0.23366826281E+02  0.32374428132E+02  0.90698136652E+02  0.80119096494E+02 0.  0.
        -13    1    4    4    0    0 -0.97389880472E+01  0.18618706403E+02 -0.25151110810E+02  0.32773197758E+02  0.00000000000E+00 0.  1.
         14    1    4    4    0    0 -0.48545105652E+01  0.47481198787E+01  0.57525538942E+02  0.57924938894E+02  0.00000000000E+00 0. -1.
        -13    1    3    3    0    0 -0.30376069458E+02  0.57944556279E+02  0.13496897117E+03  0.14998966757E+03  0.00000000000E+00 0. -1.
         13    1    3    3    0    0  0.36350279149E+02 -0.68286252724E+01  0.11460364896E+03  0.12042412247E+03  0.00000000000E+00 0.  1.
          1    1    1    2  501    0  0.86192889215E+01 -0.74482757288E+02  0.37875889945E+03  0.38610915191E+03  0.00000000000E+00 0. -1.
<scales pt_clust_5="13000.00000" pt_clust_6="13000.00000" pt_clust_7="13000.00000" pt_clust_8="13000.00000" pt_clust_9="74.97986"></scales>
<clustering>
<clus scale="   74.980">  2  9  1 -1</clus>
<clus scale="   80.119">  5  6 -1 -1</clus>
<clus scale="   86.485">  2  5  1 -1</clus>
<clus scale="   90.491">  7  8 -1 -1</clus>
<clus scale="   74.980">  2  5  1 -1</clus>
</clustering>
</event>
<event>
 9    2  0.4653788E-005  0.9543791E+02  0.7546771E-02  0.1296324E+00
         -1   -1    0    0    0  501 -0.00000000000E+00  0.00000000000E+00  0.14617231147E+03  0.14617231147E+03  0.00000000000E+00 0.  1.
         21   -1    0    0  501  502  0.00000000000E+00 -0.00000000000E+00 -0.46417300400E+03  0.46417300400E+03  0.00000000000E+00 0. -1.
         23    2    1    2    0    0 -0.29418702451E+02  0.79239700708E+01  0.11609016521E+03  0.15032691934E+03  0.90515230012E+02 0.  0.
         24    2    1    2    0    0  0.36567351846E+02  0.43422329087E+02 -0.32218952309E+03  0.33669177969E+03  0.79577608915E+02 0.  0.
        -11    1    4    4    0    0  0.13728900103E+02  0.23260036295E+02 -0.21659201734E+02  0.34621279674E+02  0.00000000000E+00 0.  1.
         12    1    4    4    0    0  0.22838451743E+02  0.20162292792E+02 -0.30053032136E+03  0.30207050002E+03  0.00000000000E+00 0. -1.
        -13    1    3    3    0    0  0.22535846904E+02  0.31100515808E+02  0.51707136268E+02  0.64410670081E+02  0.00000000000E+00 0.  1.
         13    1    3    3    0    0 -0.51954549355E+02 -0.23176545737E+02  0.64383028940E+02  0.85916249258E+02  0.00000000000E+00 0. -1.
         -2    1    1    2    0  502 -0.71486493951E+01 -0.51346299158E+02 -0.11190133465E+03  0.12332661643E+03  0.00000000000E+00 0.  1.
<scales pt_clust_5="13000.00000" pt_clust_6="13000.00000" pt_clust_7="13000.00000" pt_clust_8="13000.00000" pt_clust_9="51.84154"></scales>
<clustering>
<clus scale="   51.842">  2  9  1 -1</clus>
<clus scale="   79.578">  5  6 -1 -1</clus>
<clus scale="   85.135">  2  5  1 -1</clus>
<clus scale="   90.515">  7  8 -1 -1</clus>
<clus scale="   51.842">  2  5  1 -1</clus>
</clustering>
</event>
<event>
 9    2  0.4653788E-005  0.1766551E+03  0.7546771E-02  0.1172911E+00
          4   -1    0    0  502    0 -0.00000000000E+00  0.00000000000E+00  0.25934110304E+03  0.25934110304E+03  0.00000000000E+00 0. -1.
         21   -1    0    0  501  502  0.00000000000E+00 -0.00000000000E+00 -0.17157566249E+03  0.17157566249E+03  0.00000000000E+00 0. -1.
         24    2    1    2    0    0 -0.96872991924E+02 -0.95266409735E+02  0.68067620427E+02  0.17002300888E+03  0.76253243932E+02 0.  0.
         23    2    1    2    0    0  0.11665138077E+03  0.14175912029E+03 -0.41498932584E+01  0.20502363733E+03  0.91182659688E+02 0.  0.
        -11    1    3    3    0    0 -0.34808459713E+02  0.30055215850E+01  0.34363083956E+02  0.49004934104E+02  0.00000000000E+00 0.  1.
         12    1    3    3    0    0 -0.62064532211E+02 -0.98271931320E+02  0.33704536472E+02  0.12101807478E+03  0.00000000000E+00 0. -1.
        -11    1    4    4    0    0  0.26819039645E+02  0.49706346326E+02 -0.42637681143E+02  0.70766896256E+02  0.00000000000E+00 0. -1.
         11    1    4    4    0    0  0.89832341127E+02  0.92052773963E+02  0.38487787885E+02  0.13425674107E+03  0.00000000000E+00 0.  1.
          3    1    1    2  501    0 -0.19778388848E+02 -0.46492710554E+02  0.23847713376E+02  0.55870119325E+02  0.00000000000E+00 0. -1.
<scales pt_clust_5="13000.00000" pt_clust_6="13000.00000" pt_clust_7="13000.00000" pt_clust_8="13000.00000" pt_clust_9="50.52484"></scales>
<clustering>
<clus scale="   50.525">  2  9  1 -1</clus>
<clus scale="   76.253">  5  6 -1 -1</clus>
<clus scale="   91.183">  7  8 -1 -1</clus>
<clus scale="  169.432">  1  5  2 -1</clus>
<clus scale="   50.525">  2  5  1 -1</clus>
</clustering>
</event>
<event>
 9    2  0.4653788E-005  0.1841052E+03  0.7546771E-02  0.1164862E+00
         21   -1    0    0  501  502  0.00000000000E+00  0.00000000000E+00  0.14118844818E+03  0.14118844818E+03  0.00000000000E+00 0.  1.
          2   -1    0    0  502    0 -0.00000000000E+00 -0.00000000000E+00 -0.51809776824E+03  0.51809776824E+03  0.00000000000E+00 0. -1.
         24    2    1    2    0    0 -0.40021088754E+02 -0.15237752962E+03 -0.32718402082E+03  0.37186833158E+03  0.80100396227E+02 0.  0.
         23    2    1    2    0    0  0.98354744967E+01  0.18249598857E+03  0.21523777340E+02  0.20438341132E+03  0.88925718613E+02 0.  0.
        -11    1    3    3    0    0  0.22212417395E+02 -0.68291678220E+02 -0.12238764571E+03  0.14190095357E+03  0.00000000000E+00 0.  1.
         12    1    3    3    0    0 -0.62233506149E+02 -0.84085851396E+02 -0.20479637511E+03  0.22996737801E+03  0.00000000000E+00 0. -1.
        -11    1    4    4    0    0  0.61255873493E+01  0.12814495411E+03 -0.27374488338E+02  0.13117932267E+03  0.00000000000E+00 0. -1.
         11    1    4    4    0    0  0.37098871474E+01  0.54351034459E+02  0.48898265678E+02  0.73204088655E+02  0.00000000000E+00 0.  1.
          1    1    1    2  501    0  0.30185614257E+02 -0.30118458951E+02 -0.71249076580E+02  0.83034473511E+02  0.00000000000E+00 0. -1.
<scales pt_clust_5="13000.00000" pt_clust_6="13000.00000" pt_clust_7="13000.00000" pt_clust_8="13000.00000" pt_clust_9="42.64147"></scales>
<clustering>
<clus scale="   42.641">  1  9  2 -1</clus>
<clus scale="   80.100">  5  6 -1 -1</clus>
<clus scale="   88.926">  7  8 -1 -1</clus>
<clus scale="  180.008">  2  5  1 -1</clus>
<clus scale="   42.641">  1  5  2 -1</clus>
</clustering>
</event>
<event>
 9    2  0.4653788E-005  0.1799200E+03  0.7546771E-02  0.1168965E+00
         -1   -1    0    0    0  501 -0.00000000000E+00  0.00000000000E+00  0.86562935461E+03  0.86562935461E+03  0.00000000000E+00 0.  1.
         21   -1    0    0  501  502  0.00000000000E+00 -0.00000000000E+00 -0.65259884752E+02  0.65259884752E+02  0.00000000000E+00 0.  1.
         24    2    1    2    0    0 -0.89601336061E+02  0.91624953579E+02  0.24689691040E+03  0.28965652925E+03  0.80742114341E+02 0.  0.
         23    2    1    2    0    0  0.13818497663E+03 -0.15204440686E+03  0.29011560827E+03  0.36670080996E+03  0.89943473577E+02 0.  0.
        -13    1    3    3    0    0 -0.10043061154E+03  0.57788885905E+02  0.19268447835E+03  0.22484032393E+03  0.00000000000E+00 0.  1.
         14    1    3    3    0    0  0.10829275476E+02  0.33836067674E+02  0.54212432048E+02  0.64816205316E+02  0.00000000000E+00 0. -1.
        -11    1    4    4    0    0  0.12034944339E+03 -0.10644043783E+03  0.26909989889E+03  0.31341396094E+03  0.00000000000E+00 0.  1.
         11    1    4    4    0    0  0.17835533232E+02 -0.45603969032E+02  0.21015709376E+02  0.53286849013E+02  0.00000000000E+00 0. -1.
         -2    1    1    2    0  502 -0.48583640565E+02  0.60419453279E+02  0.26335695119E+03  0.27453190015E+03  0.00000000000E+00 0.  1.
<scales pt_clust_5="13000.00000" pt_clust_6="13000.00000" pt_clust_7="13000.00000" pt_clust_8="13000.00000" pt_clust_9="77.52991"></scales>
<clustering>
<clus scale="   77.530">  2  9  1 -1</clus>
<clus scale="   80.742">  5  6 -1 -1</clus>
<clus scale="   89.943">  7  8 -1 -1</clus>
<clus scale="  175.501">  1  5  2 -1</clus>
<clus scale="   77.530">  2  5  1 -1</clus>
</clustering>
</event>
<event>
 9    2  0.4653788E-005  0.1014100E+03  0.7546771E-02  0.1284676E+00
          2   -1    0    0  502    0 -0.00000000000E+00  0.00000000000E+00  0.12149034835E+03  0.12149034835E+03  0.00000000000E+00 0. -1.
         21   -1    0    0  501  502  0.00000000000E+00 -0.00000000000E+00 -0.17025338498E+03  0.17025338498E+03  0.00000000000E+00 0. -1.
         24    2    1    2    0    0 -0.25653315722E+02 -0.71068268778E-01  0.34428171013E+02  0.91513983373E+02  0.80817154956E+02 0.  0.
         23    2    1    2    0    0  0.53123247021E+02  0.51148437239E+02 -0.36255419775E+02  0.12562101769E+03  0.95015486197E+02 0.  0.
        -13    1    3    3    0    0  0.76292811997E+01 -0.33515435807E+02  0.23378780773E+01  0.34452228417E+02  0.00000000000E+00 0.  1.
         14    1    3    3    0    0 -0.33282596922E+02  0.33444367538E+02  0.32090292936E+02  0.57061754956E+02  0.00000000000E+00 0. -1.
        -11    1    4    4    0    0  0.56670319553E+02 -0.42858795558E+01 -0.40689618819E+02  0.69896630544E+02  0.00000000000E+00 0.  1.
         11    1    4    4    0    0 -0.35470725315E+01  0.55434316795E+02  0.44341990435E+01  0.55724387150E+02  0.00000000000E+00 0. -1.
          1    1    1    2  501    0 -0.27469931299E+02 -0.51077368970E+02 -0.46935787867E+02  0.74608732258E+02  0.00000000000E+00 0. -1.
<scales pt_clust_5="13000.00000" pt_clust_6="13000.00000" pt_clust_7="13000.00000" pt_clust_8="13000.00000" pt_clust_9="57.99564"></scales>
<clustering>
<clus scale="   57.996">  2  9  1 -1</clus>
<clus scale="   80.817">  5  6 -1 -1</clus>
<clus scale="   88.247">  1  5  2 -1</clus>
<clus scale="   95.015">  7  8 -1 -1</clus>
<clus scale="   57.996">  2  5  1 -1</clus>
</clustering>
</event>
<event>
 9    2  0.4653788E-005  0.1286091E+03  0.7546771E-02  0.1233393E+00
         -1   -1    0    0    0  501 -0.00000000000E+00  0.00000000000E+00  0.62904223158E+02  0.62904223158E+02  0.00000000000E+00 0.  1.
         21   -1    0    0  501  502  0.00000000000E+00 -0.00000000000E+00 -0.85242758548E+03  0.85242758548E+03  0.00000000000E+00 0.  1.
         23    2    1    2    0    0 -0.49679768979E+02 -0.55012185195E+02 -0.63504262234E+02  0.13609923630E+03  0.94846142963E+02 0.  0.
         24    2    1    2    0    0  0.13668926222E+03  0.31789959313E+02 -0.27401763438E+03  0.31834728434E+03  0.81023290323E+02 0.  0.
        -13    1    4    4    0    0  0.14612931147E+03  0.22564884938E+02 -0.25992773998E+03  0.29904076598E+03  0.00000000000E+00 0.  1.
         14    1    4    4    0    0 -0.94400492522E+01  0.92250743751E+01 -0.14089894400E+02  0.19306518363E+02  0.00000000000E+00 0. -1.
        -13    1    3    3    0    0 -0.35133053886E+02  0.18525220993E+02 -0.42672208620E+02  0.58296077713E+02  0.00000000000E+00 0. -1.
         13    1    3    3    0    0 -0.14546715093E+02 -0.73537406189E+02 -0.20832053614E+02  0.77803158591E+02  0.00000000000E+00 0.  1.
         -2    1    1    2    0  502 -0.87009493242E+02  0.23222225882E+02 -0.45200146571E+03  0.46088528800E+03  0.00000000000E+00 0.  1.
<scales pt_clust_5="13000.00000" pt_clust_6="13000.00000" pt_clust_7="13000.00000" pt_clust_8="13000.00000" pt_clust_9="90.05511"></scales>
<clustering>
<clus scale="   81.023">  5  6 -1 -1</clus>
<clus scale="   90.055">  2  9  1 -1</clus>
<clus scale="   94.846">  7  8 -1 -1</clus>
<clus scale="  118.783">  2  5  1 -1</clus>
<clus scale="   90.055">  2  5  1 -1</clus>
</clustering>
</event>
<event>
 9    2  0.4653788E-005  0.1021827E+03  0.7546771E-02  0.1279607E+00
         21   -1    0    0  501  502  0.00000000000E+00  0.00000000000E+00  0.34449888986E+03  0.34449888986E+03  0.00000000000E+00 0.  1.
          4   -1    0    0  502    0 -0.00000000000E+00 -0.00000000000E+00 -0.12286050405E+03  0.12286050405E+03  0.00000000000E+00 0. -1.
         23    2    1    2    0    0 -0.18498055925E+02  0.39271047812E+02 -0.58475599165E+02  0.11576430953E+03  0.89986590079E+02 0.  0.
         24    2    1    2    0    0 -0.81567329178E+01 -0.69891838696E+02  0.51657781710E+02  0.11955985557E+03  0.81698416409E+02 0.  0.
        -13    1    4    4    0    0 -0.24922982550E+02 -0.58867481094E+00  0.40257894368E+02  0.47351870672E+02  0.00000000000E+00 0.  1.
         14    1    4    4    0    0  0.16766249632E+02 -0.69303163885E+02  0.11399887342E+02  0.72207984895E+02  0.00000000000E+00 0. -1.
        -13    1    3    3    0    0 -0.41945182362E+02 -0.96462597815E+01 -0.39138336097E+02  0.58174375833E+02  0.00000000000E+00 0.  1.
         13    1    3    3    0    0  0.23447126436E+02  0.48917307594E+02 -0.19337263068E+02  0.57589933698E+02  0.00000000000E+00 0. -1.
          3    1    1    2  501    0  0.26654788843E+02  0.30620790884E+02  0.22845620326E+03  0.23203522882E+03  0.00000000000E+00 0. -1.
<scales pt_clust_5="13000.00000" pt_clust_6="13000.00000" pt_clust_7="13000.00000" pt_clust_8="13000.00000" pt_clust_9="40.59693"></scales>
<clustering>
<clus scale="   40.597">  1  9  2 -1</clus>
<clus scale="   81.698">  5  6 -1 -1</clus>
<clus scale="   89.987">  7  8 -1 -1</clus>
<clus scale="   94.965">  1  5  2 -1</clus>
<clus scale="   40.597">  1  5  2 -1</clus>
</clustering>
</event>
<event>
 9    2  0.4653788E-005  0.1124347E+03  0.7546771E-02  0.1260629E+00
          2   -1    0    0  502    0 -0.00000000000E+00  0.00000000000E+00  0.44513928391E+03  0.44513928391E+03  0.00000000000E+00 0. -1.
         21   -1    0    0  501  502  0.00000000000E+00 -0.00000000000E+00 -0.68306478471E+02  0.68306478471E+02  0.00000000000E+00 0.  1.
         23    2    1    2    0    0 -0.78825141894E+02 -0.53004566969E+02  0.15319900536E+03  0.20273698764E+03  0.92787196315E+02 0.  0.
         24    2    1    2    0    0 -0.11132449813E+02  0.43239186405E+02  0.30372978778E+02  0.97313657616E+02  0.80955984577E+02 0.  0.
        -13    1    4    4    0    0 -0.17533939596E+02  0.66051492906E+02  0.18431575745E+02  0.70781083188E+02  0.00000000000E+00 0.  1.
         14    1    4    4    0    0  0.64014897829E+01 -0.22812306501E+02  0.11941403034E+02  0.26532574427E+02  0.00000000000E+00 0. -1.
        -11    1    3    3    0    0 -0.16444073576E+02 -0.64586867422E+02  0.58104977874E+02  0.88419791070E+02  0.00000000000E+00 0.  1.
         11    1    3    3    0    0 -0.62381068318E+02  0.11582300452E+02  0.95094027481E+02  0.11431719657E+03  0.00000000000E+00 0. -1.
          1    1    1    2  501    0  0.89957591707E+02  0.97653805639E+01  0.19326082131E+03  0.21339511713E+03  0.00000000000E+00 0. -1.
<scales pt_clust_5="13000.00000" pt_clust_6="13000.00000" pt_clust_7="13000.00000" pt_clust_8="13000.00000" pt_clust_9="90.48613"></scales>
<clustering>
<clus scale="   80.956">  5  6 -1 -1</clus>
<clus scale="   90.486">  2  9  1 -1</clus>
<clus scale="   92.787">  7  8 -1 -1</clus>
<clus scale="  102.888">  2  5  1 -1</clus>
<clus scale="   90.486">  2  5  1 -1</clus>
</clustering>
</event>
<event>
 9    2  0.4653788E-005  0.1011967E+03  0.7546771E-02  0.1283630E+00
         21   -1    0    0  501  502  0.00000000000E+00  0.00000000000E+00  0.21277606385E+03  0.21277606385E+03  0.00000000000E+00 0. -1.
          4   -1    0    0  502    0 -0.00000000000E+00 -0.00000000000E+00 -0.12058944960E+03  0.12058944960E+03  0.00000000000E+00 0. -1.
         24    2    1    2    0    0  0.90726424744E+01  0.15561405429E+02 -0.97353820665E+01  0.83833224099E+02  0.81294290196E+02 0.  0.
         23    2    1    2    0    0 -0.29951135490E+02 -0.61973634418E+02 -0.20013997478E+02  0.11740207686E+03  0.92977877345E+02 0.  0.
        -11    1    3    3    0    0  0.13460872031E+02  0.16410802347E+02  0.33885358399E+02  0.39984084626E+02  0.00000000000E+00 0.  1.
         12    1    3    3    0    0 -0.43882295567E+01 -0.84939691819E+00 -0.43620740466E+02  0.43849139473E+02  0.00000000000E+00 0. -1.
        -13    1    4    4    0    0  0.12134127082E+02 -0.48036310529E+02  0.23893677305E+02  0.55005745013E+02  0.00000000000E+00 0. -1.
         13    1    4    4    0    0 -0.42085262572E+02 -0.13937323889E+02 -0.43907674783E+02  0.62396331846E+02  0.00000000000E+00 0.  1.
          3    1    1    2  501    0  0.20878493015E+02  0.46412228989E+02  0.12193599380E+03  0.13213021250E+03  0.00000000000E+00 0. -1.
<scales pt_clust_5="13000.00000" pt_clust_6="13000.00000" pt_clust_7="13000.00000" pt_clust_8="13000.00000" pt_clust_9="50.89211"></scales>
<clustering>
<clus scale="   50.892">  1  9  2 -1</clus>
<clus scale="   81.294">  5  6 -1 -1</clus>
<clus scale="   90.579">  2  5  1 -1</clus>
<clus scale="   92.978">  7  8 -1 -1</clus>
<clus scale="   50.892">  1  5  2 -1</clus>
</clustering>
</event>
<event>
 9    2  0.4653788E-005  0.9752021E+02  0.7546771E-02  0.1289820E+00
          2   -1    0    0  502    0 -0.00000000000E+00  0.00000000000E+00  0.17816577647E+04  0.17816577647E+04  0.00000000000E+00 0. -1.
         21   -1    0    0  501  502  0.00000000000E+00 -0.00000000000E+00 -0.88917898510E+01  0.88917898510E+01  0.00000000000E+00 0.  1.
         24    2    1    2    0    0 -0.33182183578E+02 -0.16129083105E+02  0.91498535393E+03  0.91935708062E+03  0.81596808528E+02 0.  0.
         23    2    1    2    0    0  0.49417096619E+02 -0.24702915615E+02  0.52048808645E+03  0.53104974164E+03  0.89742389519E+02 0.  0.
        -13    1    3    3    0    0  0.65947305155E+01  0.24583507431E+02  0.14078984885E+03  0.14307208269E+03  0.00000000000E+00 0.  1.
         14    1    3    3    0    0 -0.39776914094E+02 -0.40712590535E+02  0.77419550508E+03  0.77628499793E+03  0.00000000000E+00 0. -1.
        -13    1    4    4    0    0  0.51774975685E+02 -0.52031436421E+02  0.43833306921E+03  0.44443649496E+03  0.00000000000E+00 0. -1.
         13    1    4    4    0    0 -0.23578790659E+01  0.27328520806E+02  0.82155017240E+02  0.86613246682E+02  0.00000000000E+00 0.  1.
          1    1    1    2  501    0 -0.16234913040E+02  0.40831998720E+02  0.33729253447E+03  0.34014273229E+03  0.00000000000E+00 0. -1.
<scales pt_clust_5="13000.00000" pt_clust_6="13000.00000" pt_clust_7="13000.00000" pt_clust_8="13000.00000" pt_clust_9="43.94117"></scales>
<clustering>
<clus scale="   43.941">  2  9  1 -1</clus>
<clus scale="   81.597">  5  6 -1 -1</clus>
<clus scale="   89.742">  7  8 -1 -1</clus>
<clus scale="   90.081">  1  5  2 -1</clus>
<clus scale="   43.941">  2  5  1 -1</clus>
</clustering>
</event>
<event>
 9    2  0.4653788E-005  0.9266302E+02  0.7546771E-02  0.1302905E+00
         -3   -1    0    0    0  501 -0.00000000000E+00  0.00000000000E+00  0.22852747971E+03  0.22852747971E+03  0.00000000000E+00 0.  1.
         21   -1    0    0  501  502  0.00000000000E+00 -0.00000000000E+00 -0.10310477193E+03  0.10310477193E+03  0.00000000000E+00 0.  1.
         24    2    1    2    0    0 -0.15386233867E+02  0.80046904387E-01  0.12290655956E+03  0.14766538914E+03  0.80388445484E+02 0.  0.
         23    2    1    2    0    0  0.18781640293E+02 -0.21364704976E+02  0.66689306985E+02  0.11627077872E+03  0.90896807906E+02 0.  0.
        -13    1    3    3    0    0  0.20093636152E+02  0.13702266902E+01  0.10679467799E+03  0.10867720544E+03  0.00000000000E+00 0.  1.
         14    1    3    3    0    0 -0.35479870019E+02 -0.12901797858E+01  0.16111881563E+02  0.38988183697E+02  0.00000000000E+00 0. -1.
        -11    1    4    4    0    0  0.44109447672E+02 -0.41341551543E+02  0.55671364693E+02  0.82183137593E+02  0.00000000000E+00 0.  1.
         11    1    4    4    0    0 -0.25327807379E+02  0.19976846567E+02  0.11017942293E+02  0.34087641129E+02  0.00000000000E+00 0. -1.
         -4    1    1    2    0  502 -0.33954064265E+01  0.21284658071E+02 -0.64173158759E+02  0.67696083780E+02  0.00000000000E+00 0.  1.
<scales pt_clust_5="13000.00000" pt_clust_6="13000.00000" pt_clust_7="13000.00000" pt_clust_8="13000.00000" pt_clust_9="21.55378"></scales>
<clustering>
<clus scale="   21.554">  2  9  1 -1</clus>
<clus scale="   80.388">  5  6 -1 -1</clus>
<clus scale="   82.380">  1  5  2 -1</clus>
<clus scale="   90.897">  7  8 -1 -1</clus>
<clus scale="   21.554">  2  5  1 -1</clus>
</clustering>
</event>
<event>
 9    2  0.4653788E-005  0.1154071E+03  0.7546771E-02  0.1253752E+00
         21   -1    0    0  501  502  0.00000000000E+00  0.00000000000E+00  0.30962072208E+03  0.30962072208E+03  0.00000000000E+00 0. -1.
          2   -1    0    0  502    0 -0.00000000000E+00 -0.00000000000E+00 -0.10626438545E+03  0.10626438545E+03  0.00000000000E+00 0. -1.
         24    2    1    2    0    0 -0.55272497684E+02 -0.63916018111E+02 -0.38816455498E+02  0.12198205730E+03  0.78946809399E+02 0.  0.
         23    2    1    2    0    0  0.55969063126E+02  0.31138599878E+01  0.13186545665E+03  0.16794632791E+03  0.87608437087E+02 0.  0.
        -11    1    3    3    0    0 -0.14112273956E+02 -0.48436645846E+02  0.14858799699E+02  0.52593239732E+02  0.00000000000E+00 0.  1.
         12    1    3    3    0    0 -0.41160223728E+02 -0.15479372264E+02 -0.53675255197E+02  0.69388817568E+02  0.00000000000E+00 0. -1.
        -13    1    4    4    0    0 -0.22400468216E+01  0.30815766968E+02  0.78147824834E+02  0.84033992110E+02  0.00000000000E+00 0.  1.
         13    1    4    4    0    0  0.58209109948E+02 -0.27701906980E+02  0.53717631820E+02  0.83912335801E+02  0.00000000000E+00 0. -1.
          1    1    1    2  501    0 -0.69656544211E+00  0.60802158123E+02  0.11030733548E+03  0.12595672232E+03  0.00000000000E+00 0. -1.
<scales pt_clust_5="13000.00000" pt_clust_6="13000.00000" pt_clust_7="13000.00000" pt_clust_8="13000.00000" pt_clust_9="60.80615"></scales>
<clustering>
<clus scale="   60.806">  1  9  2 -1</clus>
<clus scale="   78.947">  5  6 -1 -1</clus>
<clus scale="   87.608">  7  8 -1 -1</clus>
<clus scale="  108.978">  2  5  1 -1</clus>
<clus scale="   60.806">  1  5  2 -1</clus>
</clustering>
</event>
<event>
 9    2  0.4653788E-005  0.1251440E+03  0.7546771E-02  0.1237886E+00
         21   -1    0    0  501  502  0.00000000000E+00  0.00000000000E+00  0.27861560215E+03  0.27861560215E+03  0.00000000000E+00 0.  1.
         -1   -1    0    0    0  501 -0.00000000000E+00 -0.00000000000E+00 -0.13250826596E+03  0.13250826596E+03  0.00000000000E+00 0.  1.
         23    2    1    2    0    0  0.56641923990E+02  0.70000273802E+02 -0.38988040605E+02  0.13448238770E+03  0.91962489130E+02 0.  0.
         24    2    1    2    0    0  0.19218835712E+02 -0.93965226501E+02  0.11987144762E+03  0.17376614440E+03  0.81404431986E+02 0.  0.
        -13    1    4    4    0    0  0.29493170147E+01 -0.94069130408E+02  0.59744708371E+02  0.11147703775E+03  0.00000000000E+00 0.  1.
         14    1    4    4    0    0  0.16269518697E+02  0.10390390648E+00  0.60126739249E+02  0.62289106651E+02  0.00000000000E+00 0. -1.
        -11    1    3    3    0    0  0.47572420377E+02  0.91362665867E+02 -0.41679148187E+02  0.11111896008E+03  0.00000000000E+00 0.  1.
         11    1    3    3    0    0  0.90695036132E+01 -0.21362392065E+02  0.26911075817E+01  0.23363427629E+02  0.00000000000E+00 0. -1.
         -2    1    1    2    0  502 -0.75860759702E+02  0.23964952700E+02  0.65223929176E+02  0.10287533600E+03  0.00000000000E+00 0.  1.
<scales pt_clust_5="13000.00000" pt_clust_6="13000.00000" pt_clust_7="13000.00000" pt_clust_8="13000.00000" pt_clust_9="79.55610"></scales>
<clustering>
<clus scale="   79.556">  1  9  2 -1</clus>
<clus scale="   81.404">  5  6 -1 -1</clus>
<clus scale="   91.962">  7  8 -1 -1</clus>
<clus scale="  117.604">  1  5  2 -1</clus>
<clus scale="   79.556">  1  5  2 -1</clus>
</clustering>
</event>
<event>
 9    2  0.4653788E-005  0.2431362E+03  0.7546771E-02  0.1118389E+00
          2   -1    0    0  502    0 -0.00000000000E+00  0.00000000000E+00  0.12680150564E+04  0.12680150564E+04  0.00000000000E+00 0. -1.
         21   -1    0    0  501  502  0.00000000000E+00 -0.00000000000E+00 -0.92947659693E+02  0.92947659693E+02  0.00000000000E+00 0.  1.
         24    2    1    2    0    0 -0.13157063014E+03 -0.19887139310E+03  0.42763083340E+03  0.49630694198E+03  0.81189834812E+02 0.  0.
         23    2    1    2    0    0  0.20946191533E+03  0.90322009667E+02  0.25492249808E+03  0.35434202219E+03  0.92414442921E+02 0.  0.
        -13    1    3    3    0    0 -0.11840046956E+03 -0.19119213710E+03  0.34188861016E+03  0.40921989961E+03  0.00000000000E+00 0.  1.
         14    1    3    3    0    0 -0.13170160582E+02 -0.76792559944E+01  0.85742223243E+02  0.87087042371E+02  0.00000000000E+00 0. -1.
        -13    1    4    4    0    0  0.18933306335E+03  0.10913642329E+03  0.22469862812E+03  0.31344415969E+03  0.00000000000E+00 0.  1.
         13    1    4    4    0    0  0.20128851976E+02 -0.18814413619E+02  0.30223869961E+02  0.40897862500E+02  0.00000000000E+00 0. -1.
          1    1    1    2  501    0 -0.77891285185E+02  0.10854938343E+03  0.49251406519E+03  0.51031375188E+03  0.00000000000E+00 0. -1.
<scales pt_clust_5="13000.00000" pt_clust_6="13000.00000" pt_clust_7="13000.00000" pt_clust_8="13000.00000" pt_clust_9="133.60404"></scales>
<clustering>
<clus scale="   81.190">  5  6 -1 -1</clus>
<clus scale="   92.414">  7  8 -1 -1</clus>
<clus scale="  133.604">  2  9  1 -1</clus>
<clus scale="  239.095">  1  5  2 -1</clus>
<clus scale="  133.604">  2  5  1 -1</clus>
</clustering>
</event>
<event>
 9    2  0.4653788E-005  0.1769896E+03  0.7546771E-02  0.1188532E+00
          2   -1    0    0  502    0 -0.00000000000E+00  0.00000000000E+00  0.80938717723E+03  0.80938717723E+03  0.00000000000E+00 0. -1.
         21   -1    0    0  501  502  0.00000000000E+00 -0.00000000000E+00 -0.66255560368E+02  0.66255560368E+02  0.00000000000E+00 0. -1.
         23    2    1    2    0    0  0.61741923562E+02 -0.12177333975E+02  0.14712896674E+03  0.18900258453E+03  0.10057182267E+03 0.  0.
         24    2    1    2    0    0 -0.16771549390E+03 -0.74577384521E+02  0.30163525181E+03  0.36197271710E+03  0.79687825991E+02 0.  0.
        -13    1    4    4    0    0 -0.30550865211E+02 -0.42293763088E+02  0.43705344682E+02  0.68060817766E+02  0.00000000000E+00 0.  1.
         14    1    4    4    0    0 -0.13716462869E+03 -0.32283621433E+02  0.25792990713E+03  0.29391189934E+03  0.00000000000E+00 0. -1.
        -11    1    3    3    0    0  0.11928235816E+02  0.42493997445E+02  0.46437601769E+02  0.64066164913E+02  0.00000000000E+00 0.  1.
         11    1    3    3    0    0  0.49813687746E+02 -0.54671331420E+02  0.10069136497E+03  0.12493641961E+03  0.00000000000E+00 0. -1.
          1    1    1    2  501    0  0.10597357034E+03  0.86754718496E+02  0.29436739830E+03  0.32466743596E+03  0.00000000000E+00 0. -1.
<scales pt_clust_5="13000.00000" pt_clust_6="13000.00000" pt_clust_7="13000.00000" pt_clust_8="13000.00000" pt_clust_9="158.03538"></scales>
<clustering>
<clus scale="   79.688">  5  6 -1 -1</clus>
<clus scale="  100.572">  7  8 -1 -1</clus>
<clus scale="  118.638">  1  7  2 -1</clus>
<clus scale="  158.035">  2  9  1 -1</clus>
<clus scale="  158.035">  2  5  1 -1</clus>
</clustering>
</event>
<event>
 9    2  0.4653788E-005  0.9420150E+02  0.7546771E-02  0.1297431E+00
          2   -1    0    0  502    0 -0.00000000000E+00  0.00000000000E+00  0.22519814589E+03  0.22519814589E+03  0.00000000000E+00 0. -1.
         21   -1    0    0  501  502  0.00000000000E+00 -0.00000000000E+00 -0.63709262171E+02  0.63709262171E+02  0.00000000000E+00 0. -1.
         23    2    1    2    0    0  0.52752262882E+00  0.26911854377E+02  0.12688919373E+03  0.15707737435E+03  0.88588418324E+02 0.  0.
         24    2    1    2    0    0 -0.29185134493E+02 -0.38109413130E+02  0.37273120915E+02  0.10094652237E+03  0.80602824960E+02 0.  0.
        -13    1    4    4    0    0  0.25628477595E+02 -0.80320187282E+01  0.26065522247E+02  0.37426509839E+02  0.00000000000E+00 0.  1.
         14    1    4    4    0    0 -0.54813612089E+02 -0.30077394402E+02  0.11207598668E+02  0.63520012532E+02  0.00000000000E+00 0. -1.
        -11    1    3    3    0    0  0.29610857650E+02  0.40455654397E+02  0.39005265231E+02  0.63520654745E+02  0.00000000000E+00 0.  1.
         11    1    3    3    0    0 -0.29083335021E+02 -0.13543800020E+02  0.87883928503E+02  0.93556719609E+02  0.00000000000E+00 0. -1.
          1    1    1    2  501    0  0.28657611864E+02  0.11197558753E+02 -0.26734309258E+01  0.30883511340E+02  0.00000000000E+00 0. -1.
<scales pt_clust_5="13000.00000" pt_clust_6="13000.00000" pt_clust_7="13000.00000" pt_clust_8="13000.00000" pt_clust_9="30.76758"></scales>
<clustering>
<clus scale="   30.768">  2  9  1 -1</clus>
<clus scale="   80.603">  5  6 -1 -1</clus>
<clus scale="   86.734">  2  5  1 -1</clus>
<clus scale="   88.588">  7  8 -1 -1</clus>
<clus scale="   30.768">  2  5  1 -1</clus>
</clustering>
</event>
<event>
 9    2  0.4653788E-005  0.9404452E+02  0.7546771E-02  0.1299922E+00
         21   -1    0    0  501  502  0.00000000000E+00  0.00000000000E+00  0.96755210655E+02  0.96755210655E+02  0.00000000000E+00 0. -1.
         -3   -1    0    0    0  501 -0.00000000000E+00 -0.00000000000E+00 -0.20532679809E+03  0.20532679809E+03  0.00000000000E+00 0.  1.
         24    2    1    2    0    0 -0.11956998836E+02  0.25271872082E+02 -0.29383315556E+02  0.91797167593E+02  0.82351098386E+02 0.  0.
         23    2    1    2    0    0 -0.46567671308E+02  0.28386192633E+02 -0.16845063431E+02  0.10933435545E+03  0.93251923173E+02 0.  0.
        -11    1    3    3    0    0 -0.21479797572E+02  0.37927630889E+02 -0.49654904104E+02  0.66071903182E+02  0.00000000000E+00 0.  1.
         12    1    3    3    0    0  0.95227987352E+01 -0.12655758807E+02  0.20271588549E+02  0.25725264411E+02  0.00000000000E+00 0. -1.
        -13    1    4    4    0    0 -0.51618698307E+02 -0.16281761088E+02  0.12630540102E+02  0.55579819200E+02  0.00000000000E+00 0. -1.
         13    1    4    4    0    0  0.50510269991E+01  0.44667953721E+02 -0.29475603533E+02  0.53754536246E+02  0.00000000000E+00 0.  1.
         -4    1    1    2    0  502  0.58524670145E+02 -0.53658064715E+02 -0.62343208446E+02  0.10095048570E+03  0.00000000000E+00 0.  1.
<scales pt_clust_5="13000.00000" pt_clust_6="13000.00000" pt_clust_7="13000.00000" pt_clust_8="13000.00000" pt_clust_9="79.39982"></scales>
<clustering>
<clus scale="   79.400">  1  9  2 -1</clus>
<clus scale="   82.351">  5  6 -1 -1</clus>
<clus scale="   83.248">  2  5  1 -1</clus>
<clus scale="   93.252">  7  8 -1 -1</clus>
<clus scale="   79.400">  1  5  2 -1</clus>
</clustering>
</event>
<event>
 9    2  0.4653788E-005  0.1443959E+03  0.7546771E-02  0.1207906E+00
         21   -1    0    0  501  502  0.00000000000E+00  0.00000000000E+00  0.14324013443E+03  0.14324013443E+03  0.00000000000E+00 0. -1.
         -1   -1    0    0    0  501 -0.00000000000E+00 -0.00000000000E+00 -0.39136257449E+03  0.39136257449E+03  0.00000000000E+00 0.  1.
         23    2    1    2    0    0  0.37156244822E+02 -0.10069208665E+03 -0.23206484539E+03  0.27128669435E+03  0.90680180967E+02 0.  0.
         24    2    1    2    0    0 -0.11997860589E+03  0.95406038745E+02  0.65750996534E+01  0.17729436238E+03  0.88841887045E+02 0.  0.
        -11    1    4    4    0    0 -0.64347269878E+02  0.28125336276E+02 -0.37377501559E+02  0.79553021968E+02  0.00000000000E+00 0.  1.
         12    1    4    4    0    0 -0.55631336015E+02  0.67280702469E+02  0.43952601212E+02  0.97741340408E+02  0.00000000000E+00 0. -1.
        -13    1    3    3    0    0  0.56894272506E+02 -0.10524495965E+03 -0.20668828318E+03  0.23881688839E+03  0.00000000000E+00 0.  1.
         13    1    3    3    0    0 -0.19738027684E+02  0.45528729986E+01 -0.25376562213E+02  0.32469805961E+02  0.00000000000E+00 0. -1.
         -2    1    1    2    0  502  0.82822361071E+02  0.52860479056E+01 -0.22632694322E+02  0.86021652205E+02  0.00000000000E+00 0.  1.
<scales pt_clust_5="13000.00000" pt_clust_6="13000.00000" pt_clust_7="13000.00000" pt_clust_8="13000.00000" pt_clust_9="82.99088"></scales>
<clustering>
<clus scale="   82.991">  1  9  2 -1</clus>
<clus scale="   88.842">  5  6 -1 -1</clus>
<clus scale="   90.680">  7  8 -1 -1</clus>
<clus scale="  143.249">  1  5  2 -1</clus>
<clus scale="   82.991">  1  5  2 -1</clus>
</clustering>
</event>
<event>
 9    2  0.4653788E-005  0.1113740E+03  0.7546771E-02  0.1261521E+00
         21   -1    0    0  501  502  0.00000000000E+00  0.00000000000E+00  0.17642302514E+03  0.17642302514E+03  0.00000000000E+00 0.  1.
         -3   -1    0    0    0  501 -0.00000000000E+00 -0.00000000000E+00 -0.48806715094E+03  0.48806715094E+03  0.00000000000E+00 0.  1.
         24    2    1    2    0    0 -0.74580639659E+02  0.51476866578E+02 -0.30736859817E+03  0.33497058056E+03  0.97558675132E+02 0.  0.
         23    2    1    2    0    0 -0.32384846521E+01 -0.28145331945E+02 -0.14177499534E+03  0.16981273831E+03  0.89070586017E+02 0.  0.
        -11    1    3    3    0    0 -0.42432358212E+02  0.68177777682E+02 -0.12174143387E+03  0.14584132169E+03  0.00000000000E+00 0.  1.
         12    1    3    3    0    0 -0.32148281447E+02 -0.16700911104E+02 -0.18562716430E+03  0.18912925887E+03  0.00000000000E+00 0. -1.
        -11    1    4    4    0    0 -0.27241870425E+02  0.92998692201E+01 -0.11353396959E+03  0.11712629646E+03  0.00000000000E+00 0.  1.
         11    1    4    4    0    0  0.24003385773E+02 -0.37445201165E+02 -0.28241025755E+02  0.52686441847E+02  0.00000000000E+00 0. -1.
         -4    1    1    2    0  502  0.77819124311E+02 -0.23331534633E+02  0.13749946772E+03  0.15970685721E+03  0.00000000000E+00 0.  1.
<scales pt_clust_5="13000.00000" pt_clust_6="13000.00000" pt_clust_7="13000.00000" pt_clust_8="13000.00000" pt_clust_9="81.24147"></scales>
<clustering>
<clus scale="   81.241">  1  9  2 -1</clus>
<clus scale="   89.071">  7  8 -1 -1</clus>
<clus scale="   97.559">  5  6 -1 -1</clus>
<clus scale="  104.019">  1  7  2 -1</clus>
<clus scale="   81.241">  1  5  2 -1</clus>
</clustering>
</event>
<event>
 9    2  0.4653788E-005  0.1002014E+03  0.7546771E-02  0.1285110E+00
         -3   -1    0    0    0  501 -0.00000000000E+00  0.00000000000E+00  0.48941664148E+02  0.48941664148E+02  0.00000000000E+00 0.  1.
         21   -1    0    0  501  502  0.00000000000E+00 -0.00000000000E+00 -0.48444916346E+03  0.48444916346E+03  0.00000000000E+00 0. -1.
         23    2    1    2    0    0  0.43079603647E+02  0.27891440533E+02 -0.86556719634E+02  0.13622372758E+03  0.91820768543E+02 0.  0.
         24    2    1    2    0    0  0.26940124162E+02 -0.43843308212E+02 -0.28563459254E+03  0.30142701481E+03  0.81382546245E+02 0.  0.
        -11    1    4    4    0    0  0.70001518349E+01 -0.37680712125E+02 -0.41837094686E+02  0.56737824101E+02  0.00000000000E+00 0.  1.
         12    1    4    4    0    0  0.19939972327E+02 -0.61625960874E+01 -0.24379749786E+03  0.24468919071E+03  0.00000000000E+00 0. -1.
        -13    1    3    3    0    0  0.26366511429E+02 -0.30754876463E+02 -0.52711619402E+02  0.66479847857E+02  0.00000000000E+00 0. -1.
         13    1    3    3    0    0  0.16713092218E+02  0.58646316996E+02 -0.33845100233E+02  0.69743879720E+02  0.00000000000E+00 0.  1.
         -4    1    1    2    0  502 -0.70019727809E+02  0.15951867679E+02 -0.63316187130E+02  0.95740085218E+02  0.00000000000E+00 0.  1.
<scales pt_clust_5="13000.00000" pt_clust_6="13000.00000" pt_clust_7="13000.00000" pt_clust_8="13000.00000" pt_clust_9="71.81385"></scales>
<clustering>
<clus scale="   71.814">  2  9  1 -1</clus>
<clus scale="   81.383">  5  6 -1 -1</clus>
<clus scale="   90.732">  2  5  1 -1</clus>
<clus scale="   91.821">  7  8 -1 -1</clus>
<clus scale="   71.814">  2  5  1 -1</clus>
</clustering>
</event>
<event>
 9    2  0.4653788E-005  0.9265391E+02  0.7546771E-02  0.1303114E+00
         21   -1    0    0  501  502  0.00000000000E+00  0.00000000000E+00  0.94269882171E+02  0.94269882171E+02  0.00000000000E+00 0. -1.
         -3   -1    0    0    0  501 -0.00000000000E+00 -0.00000000000E+00 -0.16175086626E+03  0.16175086626E+03  0.00000000000E+00 0.  1.
         24    2    1    2    0    0  0.31938011432E+01 -0.21014391501E+02 -0.73398163247E+02  0.11122357697E+03  0.80818244791E+02 0.  0.
         23    2    1    2    0    0 -0.24862349346E+02 -0.17580508705E+02  0.19673681269E+02  0.98447051139E+02  0.91528997820E+02 0.  0.
        -11    1    3    3    0    0 -0.38440252489E+02 -0.53534157247E+01 -0.38700633078E+02  0.54809224333E+02  0.00000000000E+00 0.  1.
         12    1    3    3    0    0  0.41634053632E+02 -0.15660975776E+02 -0.34697530169E+02  0.56414352641E+02  0.00000000000E+00 0. -1.
        -11    1    4    4    0    0  0.33553191413E+02 -0.12014721375E+02  0.17555717235E+02  0.39728747669E+02  0.00000000000E+00 0.  1.
         11    1    4    4    0    0 -0.58415540759E+02 -0.55657873301E+01  0.21179640345E+01  0.58718303470E+02  0.00000000000E+00 0. -1.
         -4    1    1    2    0  502  0.21668548203E+02  0.38594900206E+02 -0.13756502111E+02  0.46350120318E+02  0.00000000000E+00 0.  1.
<scales pt_clust_5="13000.00000" pt_clust_6="13000.00000" pt_clust_7="13000.00000" pt_clust_8="13000.00000" pt_clust_9="44.26166"></scales>
<clustering>
<clus scale="   44.262">  1  9  2 -1</clus>
<clus scale="   80.818">  5  6 -1 -1</clus>
<clus scale="   82.090">  2  5  1 -1</clus>
<clus scale="   91.529">  7  8 -1 -1</clus>
<clus scale="   44.262">  1  5  2 -1</clus>
</clustering>
</event>
<event>
 9    2  0.4653788E-005  0.1512721E+03  0.7546771E-02  0.1201193E+00
         -1   -1    0    0    0  501 -0.00000000000E+00  0.00000000000E+00  0.21461637747E+03  0.21461637747E+03  0.00000000000E+00 0.  1.
         21   -1    0    0  501  502  0.00000000000E+00 -0.00000000000E+00 -0.26539212290E+03  0.26539212290E+03  0.00000000000E+00 0.  1.
         24    2    1    2    0    0  0.14082085210E+03 -0.29196679487E+02  0.88208970137E+02  0.18632228489E+03  0.79070936232E+02 0.  0.
         23    2    1    2    0    0 -0.74941898214E+02  0.61001276091E+02  0.37998029475E+01  0.13325246698E+03  0.91675174732E+02 0.  0.
        -13    1    3    3    0    0  0.40096365247E+02  0.18513315064E+02  0.53953929391E+02  0.69724370470E+02  0.00000000000E+00 0.  1.
         14    1    3    3    0    0  0.10072448685E+03 -0.47709994551E+02  0.34255040745E+02  0.11659791442E+03  0.00000000000E+00 0. -1.
        -11    1    4    4    0    0  0.19056971242E+02  0.21303315513E+02 -0.10008023754E+02  0.30284648656E+02  0.00000000000E+00 0.  1.
         11    1    4    4    0    0 -0.93998869456E+02  0.39697960579E+02  0.13807826702E+02  0.10296781833E+03  0.00000000000E+00 0. -1.
         -2    1    1    2    0  502 -0.65878953884E+02 -0.31804596604E+02 -0.14278451851E+03  0.16043374849E+03  0.00000000000E+00 0.  1.
<scales pt_clust_5="13000.00000" pt_clust_6="13000.00000" pt_clust_7="13000.00000" pt_clust_8="13000.00000" pt_clust_9="73.15442"></scales>
<clustering>
<clus scale="   73.154">  2  9  1 -1</clus>
<clus scale="   79.071">  5  6 -1 -1</clus>
<clus scale="   91.675">  7  8 -1 -1</clus>
<clus scale="  143.983">  1  5  2 -1</clus>
<clus scale="   73.154">  2  5  1 -1</clus>
</clustering>
</event>
<event>
 9    2  0.4653788E-005  0.1076055E+03  0.7546771E-02  0.1265356E+00
          2   -1    0    0  502    0 -0.00000000000E+00  0.00000000000E+00  0.60286340909E+03  0.60286340909E+03  0.00000000000E+00 0. -1.
         21   -1    0    0  501  502  0.00000000000E+00 -0.00000000000E+00 -0.50591100743E+02  0.50591100743E+02  0.00000000000E+00 0. -1.
         23    2    1    2    0    0 -0.33448543000E+02  0.40281694497E+02  0.35788169863E+03  0.37403736516E+03  0.95305930453E+02 0.  0.
         24    2    1    2    0    0  0.11834629684E+01 -0.49639418682E+02  0.21455814606E+03  0.24023383301E+03  0.95977205688E+02 0.  0.
        -13    1    4    4    0    0  0.35881278795E+02 -0.61185284897E+02  0.12961591967E+03  0.14775449870E+03  0.00000000000E+00 0.  1.
         14    1    4    4    0    0 -0.34697815827E+02  0.11545866215E+02  0.84942226394E+02  0.92479334310E+02  0.00000000000E+00 0. -1.
        -13    1    3    3    0    0 -0.63570554464E+02  0.30627050992E+02  0.17947799076E+03  0.19285118826E+03  0.00000000000E+00 0.  1.
         13    1    3    3    0    0  0.30122011464E+02  0.96546435054E+01  0.17840370787E+03  0.18118617689E+03  0.00000000000E+00 0. -1.
          1    1    1    2  501    0  0.32265080031E+02  0.93577241841E+01 -0.20167536337E+02  0.39183311668E+02  0.00000000000E+00 0. -1.
<scales pt_clust_5="13000.00000" pt_clust_6="13000.00000" pt_clust_7="13000.00000" pt_clust_8="13000.00000" pt_clust_9="33.59468"></scales>
<clustering>
<clus scale="   33.595">  2  9  1 -1</clus>
<clus scale="   95.306">  7  8 -1 -1</clus>
<clus scale="   95.977">  5  6 -1 -1</clus>
<clus scale="  107.007">  1  7  2 -1</clus>
<clus scale="   33.595">  2  5  1 -1</clus>
</clustering>
</event>
<event>
 9    2  0.4653788E-005  0.1072058E+03  0.7546771E-02  0.1269161E+00
         21   -1    0    0  501  502  0.00000000000E+00  0.00000000000E+00  0.46605976491E+02  0.46605976491E+02  0.00000000000E+00 0.  1.
         -1   -1    0    0    0  501 -0.00000000000E+00 -0.00000000000E+00 -0.44743307459E+03  0.44743307459E+03  0.00000000000E+00 0.  1.
         24    2    1    2    0    0 -0.14932846387E+02 -0.25799520785E+02 -0.10256596840E+03  0.13484603979E+03  0.82310821883E+02 0.  0.
         23    2    1    2    0    0 -0.55350021128E+01  0.91416267332E+02 -0.22145949087E+03  0.25612515997E+03  0.90378212483E+02 0.  0.
        -11    1    3    3    0    0 -0.10494393430E+02 -0.45805717479E+02 -0.22318256479E+02  0.52023077759E+02  0.00000000000E+00 0.  1.
         12    1    3    3    0    0 -0.44384529569E+01  0.20006196694E+02 -0.80247711922E+02  0.82822962031E+02  0.00000000000E+00 0. -1.
        -11    1    4    4    0    0 -0.38503334055E+02  0.55110186730E+02 -0.17917295222E+03  0.19137028563E+03  0.00000000000E+00 0.  1.
         11    1    4    4    0    0  0.32968331943E+02  0.36306080602E+02 -0.42286538649E+02  0.64754874339E+02  0.00000000000E+00 0. -1.
         -2    1    1    2    0  502  0.20467848499E+02 -0.65616746546E+02 -0.76801638831E+02  0.10306785132E+03  0.00000000000E+00 0.  1.
<scales pt_clust_5="13000.00000" pt_clust_6="13000.00000" pt_clust_7="13000.00000" pt_clust_8="13000.00000" pt_clust_9="68.73493"></scales>
<clustering>
<clus scale="   68.735">  1  9  2 -1</clus>
<clus scale="   82.311">  5  6 -1 -1</clus>
<clus scale="   90.378">  7  8 -1 -1</clus>
<clus scale="  100.498">  2  5  1 -1</clus>
<clus scale="   68.735">  1  5  2 -1</clus>
</clustering>
</event>
<event>
 9    2  0.4653788E-005  0.1686602E+03  0.7546771E-02  0.1196626E+00
          2   -1    0    0  502    0 -0.00000000000E+00  0.00000000000E+00  0.90177353989E+03  0.90177353989E+03  0.00000000000E+00 0. -1.
         21   -1    0    0  501  502  0.00000000000E+00 -0.00000000000E+00 -0.62868701273E+02  0.62868701273E+02  0.00000000000E+00 0. -1.
         24    2    1    2    0    0  0.53344501328E+01  0.58727357982E+02  0.11166076811E+03  0.16010241919E+03  0.98424075112E+02 0.  0.
         23    2    1    2    0    0  0.12335584312E+03 -0.11476131252E+03  0.53065950244E+03  0.56298964491E+03  0.83492573685E+02 0.  0.
        -11    1    3    3    0    0 -0.20165811626E+02 -0.87458967430E-01 -0.10057621263E+02  0.22534936279E+02  0.00000000000E+00 0.  1.
         12    1    3    3    0    0  0.25500261759E+02  0.58814816950E+02  0.12171838938E+03  0.13756748291E+03  0.00000000000E+00 0. -1.
        -11    1    4    4    0    0  0.71755023664E+02 -0.10451101694E+03  0.44273743005E+03  0.46052987748E+03  0.00000000000E+00 0. -1.
         11    1    4    4    0    0  0.51600819460E+02 -0.10250295573E+02  0.87922072391E+02  0.10245976743E+03  0.00000000000E+00 0.  1.
          1    1    1    2  501    0 -0.12869029326E+03  0.56033954533E+02  0.19658456807E+03  0.24155017707E+03  0.00000000000E+00 0. -1.
<scales pt_clust_5="13000.00000" pt_clust_6="13000.00000" pt_clust_7="13000.00000" pt_clust_8="13000.00000" pt_clust_9="146.54440"></scales>
<clustering>
<clus scale="   83.493">  7  8 -1 -1</clus>
<clus scale="   98.424">  5  6 -1 -1</clus>
<clus scale="  114.737">  1  5  2 -1</clus>
<clus scale="  146.544">  2  9  1 -1</clus>
<clus scale="  146.544">  2  5  1 -1</clus>
</clustering>
</event>
<event>
 9    2  0.4653788E-005  0.1033480E+03  0.7546771E-02  0.1279126E+00
         -1   -1    0    0    0  501 -0.00000000000E+00  0.00000000000E+00  0.13058096230E+03  0.13058096230E+03  0.00000000000E+00 0.  1.
         21   -1    0    0  501  502  0.00000000000E+00 -0.00000000000E+00 -0.33543827043E+03  0.33543827043E+03  0.00000000000E+00 0.  1.
         23    2    1    2    0    0 -0.32100440346E+02 -0.15033608665E+02  0.55558528818E+02  0.11388961269E+03  0.92885123101E+02 0.  0.
         24    2    1    2    0    0  0.66702917245E+02  0.11327664602E+02 -0.17610503336E+02  0.10684306220E+03  0.80794275527E+02 0.  0.
        -11    1    4    4    0    0  0.66737278466E+02 -0.19557209244E+02  0.31731756627E+01  0.69616218041E+02  0.00000000000E+00 0.  1.
         12    1    4    4    0    0 -0.34361221631E-01  0.30884873847E+02 -0.20783678999E+02  0.37226844158E+02  0.00000000000E+00 0. -1.
        -13    1    3    3    0    0  0.26424301038E+02 -0.12561131274E+02  0.46031660997E+02  0.54543006136E+02  0.00000000000E+00 0.  1.
         13    1    3    3    0    0 -0.58524741384E+02 -0.24724773912E+01  0.95268678213E+01  0.59346606550E+02  0.00000000000E+00 0. -1.
         -2    1    1    2    0  502 -0.34602476899E+02  0.37059440630E+01 -0.24280533362E+03  0.24528655785E+03  0.00000000000E+00 0.  1.
<scales pt_clust_5="13000.00000" pt_clust_6="13000.00000" pt_clust_7="13000.00000" pt_clust_8="13000.00000" pt_clust_9="34.80037"></scales>
<clustering>
<clus scale="   34.800">  2  9  1 -1</clus>
<clus scale="   80.794">  5  6 -1 -1</clus>
<clus scale="   92.633">  2  5  1 -1</clus>
<clus scale="   92.885">  7  8 -1 -1</clus>
<clus scale="   34.800">  2  5  1 -1</clus>
</clustering>
</event>
<event>
 9    2  0.4653788E-005  0.9701874E+02  0.7546771E-02  0.1292402E+00
         21   -1    0    0  501  502  0.00000000000E+00  0.00000000000E+00  0.18209559264E+03  0.18209559264E+03  0.00000000000E+00 0. -1.
          2   -1    0    0  502    0 -0.00000000000E+00 -0.00000000000E+00 -0.11070729038E+03  0.11070729038E+03  0.00000000000E+00 0. -1.
         24    2    1    2    0    0 -0.30554318228E+02 -0.26052451421E+02 -0.53994702179E+02  0.10516756654E+03  0.80823836837E+02 0.  0.
         23    2    1    2    0    0 -0.68151864338E+01  0.18692912413E+02  0.57402211599E+02  0.10971207933E+03  0.91355649605E+02 0.  0.
        -11    1    3    3    0    0 -0.35650114311E+02  0.91837735724E+01  0.40892573469E+01  0.37040442398E+02  0.00000000000E+00 0.  1.
         12    1    3    3    0    0  0.50957960835E+01 -0.35236224994E+02 -0.58083959526E+02  0.68127124141E+02  0.00000000000E+00 0. -1.
        -13    1    4    4    0    0 -0.23118808692E+02  0.36072140562E+02  0.70516579154E+02  0.82512220765E+02  0.00000000000E+00 0. -1.
         13    1    4    4    0    0  0.16303622258E+02 -0.17379228149E+02 -0.13114367555E+02  0.27199858569E+02  0.00000000000E+00 0.  1.
          1    1    1    2  501    0  0.37369504661E+02  0.73595390080E+01  0.67980792839E+02  0.77923237151E+02  0.00000000000E+00 0. -1.
<scales pt_clust_5="13000.00000" pt_clust_6="13000.00000" pt_clust_7="13000.00000" pt_clust_8="13000.00000" pt_clust_9="38.08730"></scales>
<clustering>
<clus scale="   38.087">  1  9  2 -1</clus>
<clus scale="   80.824">  5  6 -1 -1</clus>
<clus scale="   87.174">  2  5  1 -1</clus>
<clus scale="   91.356">  7  8 -1 -1</clus>
<clus scale="   38.087">  1  5  2 -1</clus>
</clustering>
</event>
<event>
 9    2  0.4653788E-005  0.9839748E+02  0.7546771E-02  0.1287565E+00
         21   -1    0    0  501  502  0.00000000000E+00  0.00000000000E+00  0.12468401409E+03  0.12468401409E+03  0.00000000000E+00 0. -1.
         -3   -1    0    0    0  501 -0.00000000000E+00 -0.00000000000E+00 -0.21203734591E+03  0.21203734591E+03  0.00000000000E+00 0.  1.
         23    2    1    2    0    0 -0.40415625733E+02 -0.20325269077E+01 -0.88452638978E+02  0.13508545943E+03  0.93737175326E+02 0.  0.
         24    2    1    2    0    0 -0.17739001429E+02 -0.68589805284E+02  0.57066240231E+01  0.11003512638E+03  0.83999582846E+02 0.  0.
        -13    1    4    4    0    0  0.26050644634E+02  0.27265311660E+01  0.18850473503E+01  0.26260682808E+02  0.00000000000E+00 0.  1.
         14    1    4    4    0    0 -0.43789646063E+02 -0.71316336450E+02  0.38215766728E+01  0.83774443569E+02  0.00000000000E+00 0. -1.
        -13    1    3    3    0    0 -0.45654362919E+02  0.39224856979E+02 -0.57510909423E+02  0.83249113876E+02  0.00000000000E+00 0. -1.
         13    1    3    3    0    0  0.52387371863E+01 -0.41257383886E+02 -0.30941729555E+02  0.51836345553E+02  0.00000000000E+00 0.  1.
         -4    1    1    2    0  502  0.58154627162E+02  0.70622332192E+02 -0.46073168710E+01  0.91600774196E+02  0.00000000000E+00 0.  1.
<scales pt_clust_5="13000.00000" pt_clust_6="13000.00000" pt_clust_7="13000.00000" pt_clust_8="13000.00000" pt_clust_9="91.48483"></scales>
<clustering>
<clus scale="   84.000">  5  6 -1 -1</clus>
<clus scale="   91.485">  1  9  2 -1</clus>
<clus scale="   91.485">  1  5  2 -1</clus>
<clus scale="   93.737">  7  8 -1 -1</clus>
<clus scale="   91.485">  1  5  2 -1</clus>
</clustering>
</event>
<event>
 9    2  0.4653788E-005  0.1307310E+03  0.7546771E-02  0.1227660E+00
         -3   -1    0    0    0  501 -0.00000000000E+00  0.00000000000E+00  0.11549521672E+03  0.11549521672E+03  0.00000000000E+00 0.  1.
         21   -1    0    0  501  502  0.00000000000E+00 -0.00000000000E+00 -0.24092346100E+03  0.24092346100E+03  0.00000000000E+00 0.  1.
         23    2    1    2    0    0 -0.10925095767E+02  0.85564662822E+02 -0.16340066986E+02  0.12482653966E+03  0.88735550789E+02 0.  0.
         24    2    1    2    0    0  0.66690367082E+02 -0.97341255416E+02 -0.60690926055E+02  0.15682083643E+03  0.83585053485E+02 0.  0.
        -11    1    4    4    0    0  0.26884513801E+02 -0.89531401300E+02 -0.13271537226E+02  0.94418126445E+02  0.00000000000E+00 0.  1.
         12    1    4    4    0    0  0.39805853281E+02 -0.78098541165E+01 -0.47419388829E+02  0.62402709987E+02  0.00000000000E+00 0. -1.
        -11    1    3    3    0    0  0.27386190229E+02  0.48991603809E+02 -0.37810992574E+02  0.67674602463E+02  0.00000000000E+00 0.  1.
         11    1    3    3    0    0 -0.38311285995E+02  0.36573059013E+02  0.21470925588E+02  0.57151937201E+02  0.00000000000E+00 0. -1.
         -4    1    1    2    0  502 -0.55765271315E+02  0.11776592594E+02 -0.48397251244E+02  0.74771301620E+02  0.00000000000E+00 0.  1.
<scales pt_clust_5="13000.00000" pt_clust_6="13000.00000" pt_clust_7="13000.00000" pt_clust_8="13000.00000" pt_clust_9="56.99521"></scales>
<clustering>
<clus scale="   56.995">  2  9  1 -1</clus>
<clus scale="   83.585">  5  6 -1 -1</clus>
<clus scale="   88.736">  7  8 -1 -1</clus>
<clus scale="  127.291">  2  5  1 -1</clus>
<clus scale="   56.995">  2  5  1 -1</clus>
</clustering>
</event>
<event>
 9    2  0.4653788E-005  0.9153917E+02  0.7546771E-02  0.1308322E+00
         21   -1    0    0  501  502  0.00000000000E+00  0.00000000000E+00  0.10503748846E+03  0.10503748846E+03  0.00000000000E+00 0. -1.
         -3   -1    0    0    0  501 -0.00000000000E+00 -0.00000000000E+00 -0.28670150903E+03  0.28670150903E+03  0.00000000000E+00 0.  1.
         23    2    1    2    0    0 -0.13433597397E+02 -0.73876963491E+01 -0.24879885369E+03  0.26507771186E+03  0.90168088212E+02 0.  0.
         24    2    1    2    0    0  0.26730547529E+02 -0.12418230841E+02  0.40258055135E+02  0.90724607577E+02  0.75772744363E+02 0.  0.
        -13    1    4    4    0    0  0.23591255426E+02  0.30330454009E+02  0.18172985299E+02  0.42505778050E+02  0.00000000000E+00 0.  1.
         14    1    4    4    0    0  0.31392921026E+01 -0.42748684850E+02  0.22085069836E+02  0.48218829527E+02  0.00000000000E+00 0. -1.
        -11    1    3    3    0    0  0.38208173162E+02 -0.75332587833E+01 -0.12542087144E+03  0.13132787014E+03  0.00000000000E+00 0. -1.
         11    1    3    3    0    0 -0.51641770559E+02  0.14556243423E+00 -0.12337798225E+03  0.13374984172E+03  0.00000000000E+00 0.  1.
         -4    1    1    2    0  502 -0.13296950132E+02  0.19805927191E+02  0.26876777988E+02  0.35936678056E+02  0.00000000000E+00 0.  1.
<scales pt_clust_5="13000.00000" pt_clust_6="13000.00000" pt_clust_7="13000.00000" pt_clust_8="13000.00000" pt_clust_9="23.85547"></scales>
<clustering>
<clus scale="   23.855">  1  9  2 -1</clus>
<clus scale="   75.773">  5  6 -1 -1</clus>
<clus scale="   77.399">  1  5  2 -1</clus>
<clus scale="   90.168">  7  8 -1 -1</clus>
<clus scale="   23.855">  1  5  2 -1</clus>
</clustering>
</event>
<event>
 9    2  0.4653788E-005  0.2039452E+03  0.7546771E-02  0.1159852E+00
         21   -1    0    0  501  502  0.00000000000E+00  0.00000000000E+00  0.14484038844E+03  0.14484038844E+03  0.00000000000E+00 0. -1.
          2   -1    0    0  502    0 -0.00000000000E+00 -0.00000000000E+00 -0.54414469590E+03  0.54414469590E+03  0.00000000000E+00 0. -1.
         23    2    1    2    0    0  0.44929467879E+02  0.10861753602E+03 -0.97678261748E+02  0.17793522460E+03  0.91123406002E+02 0.  0.
         24    2    1    2    0    0 -0.20692837676E+03 -0.11656364149E+03 -0.16552685698E+03  0.29931942678E+03  0.76069331796E+02 0.  0.
        -13    1    4    4    0    0 -0.48255105938E+02 -0.98689641338E+00 -0.11027307906E+02  0.49508895496E+02  0.00000000000E+00 0.  1.
         14    1    4    4    0    0 -0.15867327082E+03 -0.11557674507E+03 -0.15449954907E+03  0.24981053128E+03  0.00000000000E+00 0. -1.
        -13    1    3    3    0    0 -0.21864555867E+02  0.30512107236E+02 -0.55149203131E+02  0.66711933694E+02  0.00000000000E+00 0.  1.
         13    1    3    3    0    0  0.66794023746E+02  0.78105428786E+02 -0.42529058617E+02  0.11122329091E+03  0.00000000000E+00 0. -1.
          1    1    1    2  501    0  0.16199890888E+03  0.79461054646E+01 -0.13609918873E+03  0.21173043297E+03  0.00000000000E+00 0. -1.
<scales pt_clust_5="13000.00000" pt_clust_6="13000.00000" pt_clust_7="13000.00000" pt_clust_8="13000.00000" pt_clust_9="189.22765"></scales>
<clustering>
<clus scale="   76.069">  5  6 -1 -1</clus>
<clus scale="   91.123">  7  8 -1 -1</clus>
<clus scale="  148.728">  2  7  1 -1</clus>
<clus scale="  189.228">  1  9  2 -1</clus>
<clus scale="  189.228">  1  5  2 -1</clus>
</clustering>
</event>
<event>
 9    2  0.4653788E-005  0.3319824E+03  0.7546771E-02  0.1070593E+00
          2   -1    0    0  502    0 -0.00000000000E+00  0.00000000000E+00  0.14248211033E+04  0.14248211033E+04  0.00000000000E+00 0. -1.
         21   -1    0    0  501  502  0.00000000000E+00 -0.00000000000E+00 -0.15428959471E+03  0.15428959471E+03  0.00000000000E+00 0.  1.
         24    2    1    2    0    0  0.85184827617E+02 -0.30221458437E+03  0.11031387349E+04  0.11495838050E+04  0.77702937186E+02 0.  0.
         23    2    1    2    0    0 -0.97348593697E+02  0.33402445395E+03  0.16515302298E+03  0.39539711868E+03  0.89522488392E+02 0.  0.
        -13    1    3    3    0    0  0.34722537129E+02 -0.53698819936E+02  0.32285840396E+03  0.32913031895E+03  0.00000000000E+00 0.  1.
         14    1    3    3    0    0  0.50462290488E+02 -0.24851576444E+03  0.78028033097E+03  0.82045348609E+03  0.00000000000E+00 0. -1.
        -11    1    4    4    0    0 -0.75603532178E+02  0.22954013066E+03  0.15736725209E+03  0.28839039112E+03  0.00000000000E+00 0.  1.
         11    1    4    4    0    0 -0.21745061520E+02  0.10448432329E+03  0.77857708895E+01  0.10700672756E+03  0.00000000000E+00 0. -1.
          1    1    1    2  501    0  0.12163766080E+02 -0.31809869581E+02  0.22397506518E+01  0.34129774260E+02  0.00000000000E+00 0. -1.
<scales pt_clust_5="13000.00000" pt_clust_6="13000.00000" pt_clust_7="13000.00000" pt_clust_8="13000.00000" pt_clust_9="34.05620"></scales>
<clustering>
<clus scale="   34.056">  2  9  1 -1</clus>
<clus scale="   77.703">  5  6 -1 -1</clus>
<clus scale="   89.522">  7  8 -1 -1</clus>
<clus scale="  328.992">  1  5  2 -1</clus>
<clus scale="   34.056">  2  5  1 -1</clus>
</clustering>
</event>
<event>
 9    2  0.4653788E-005  0.9819808E+02  0.7546771E-02  0.1289709E+00
         21   -1    0    0  501  502  0.00000000000E+00  0.00000000000E+00  0.58028236179E+03  0.58028236179E+03  0.00000000000E+00 0.  1.
         -3   -1    0    0    0  501 -0.00000000000E+00 -0.00000000000E+00 -0.27846216479E+02  0.27846216479E+02  0.00000000000E+00 0.  1.
         23    2    1    2    0    0  0.14658549887E+02  0.13219267436E+02  0.13493898255E+03  0.16416011706E+03  0.91380484280E+02 0.  0.
         24    2    1    2    0    0 -0.38991053914E+02 -0.50326800705E+02  0.24197785404E+03  0.26292684302E+03  0.80772233990E+02 0.  0.
        -13    1    4    4    0    0 -0.31972480878E+02 -0.68979715331E+02  0.14292405008E+03  0.16188800064E+03  0.00000000000E+00 0.  1.
         14    1    4    4    0    0 -0.70185730355E+01  0.18652914626E+02  0.99053803956E+02  0.10103884238E+03  0.00000000000E+00 0. -1.
        -13    1    3    3    0    0 -0.34536485206E+02  0.21841139890E+02  0.41683449260E+02  0.58372203524E+02  0.00000000000E+00 0. -1.
         13    1    3    3    0    0  0.49195035093E+02 -0.86218724544E+01  0.93255533285E+02  0.10578791354E+03  0.00000000000E+00 0.  1.
         -4    1    1    2    0  502  0.24332504026E+02  0.37107533269E+02  0.17551930873E+03  0.18104161819E+03  0.00000000000E+00 0.  1.
<scales pt_clust_5="13000.00000" pt_clust_6="13000.00000" pt_clust_7="13000.00000" pt_clust_8="13000.00000" pt_clust_9="44.37386"></scales>
<clustering>
<clus scale="   44.374">  1  9  2 -1</clus>
<clus scale="   80.772">  5  6 -1 -1</clus>
<clus scale="   88.412">  1  5  2 -1</clus>
<clus scale="   91.380">  7  8 -1 -1</clus>
<clus scale="   44.374">  1  5  2 -1</clus>
</clustering>
</event>
<event>
 9    2  0.4653788E-005  0.1600216E+03  0.7546771E-02  0.1212823E+00
         21   -1    0    0  501  502  0.00000000000E+00  0.00000000000E+00  0.65080792377E+02  0.65080792377E+02  0.00000000000E+00 0. -1.
          2   -1    0    0  502    0 -0.00000000000E+00 -0.00000000000E+00 -0.70980175261E+03  0.70980175261E+03  0.00000000000E+00 0. -1.
         23    2    1    2    0    0  0.26136994641E+02  0.72639615568E+01 -0.60852975094E+02  0.11262054655E+03  0.90798652532E+02 0.  0.
         24    2    1    2    0    0 -0.84567419097E+02 -0.12708343003E+03 -0.39884342048E+03  0.43421614985E+03  0.78522252719E+02 0.  0.
        -13    1    4    4    0    0  0.70541615511E+01 -0.21389836299E+02 -0.19103680340E+02  0.29533656980E+02  0.00000000000E+00 0.  1.
         14    1    4    4    0    0 -0.91621580648E+02 -0.10569359373E+03 -0.37973974014E+03  0.40468249287E+03  0.00000000000E+00 0. -1.
        -13    1    3    3    0    0  0.46228083321E+02 -0.41648095214E+01 -0.73001791955E+02  0.86508051385E+02  0.00000000000E+00 0.  1.
         13    1    3    3    0    0 -0.20091088680E+02  0.11428771078E+02  0.12148816861E+02  0.26112495167E+02  0.00000000000E+00 0. -1.
          1    1    1    2  501    0  0.58430424457E+02  0.11981946847E+03 -0.18502456466E+03  0.22804584858E+03  0.00000000000E+00 0. -1.
<scales pt_clust_5="13000.00000" pt_clust_6="13000.00000" pt_clust_7="13000.00000" pt_clust_8="13000.00000" pt_clust_9="139.43163"></scales>
<clustering>
<clus scale="   78.522">  5  6 -1 -1</clus>
<clus scale="   90.799">  7  8 -1 -1</clus>
<clus scale="   94.765">  2  7  1 -1</clus>
<clus scale="  139.432">  1  9  2 -1</clus>
<clus scale="  139.432">  1  5  2 -1</clus>
</clustering>
</event>
<event>
 9    2  0.4653788E-005  0.9709121E+02  0.7546771E-02  0.1293028E+00
          2   -1    0    0  502    0 -0.00000000000E+00  0.00000000000E+00  0.21276996679E+03  0.21276996679E+03  0.00000000000E+00 0. -1.
         21   -1    0    0  501  502  0.00000000000E+00 -0.00000000000E+00 -0.16914462696E+03  0.16914462696E+03  0.00000000000E+00 0. -1.
         24    2    1    2    0    0  0.34228378385E+02 -0.59799393244E+01  0.12422231915E+03  0.15173166909E+03  0.79899770145E+02 0.  0.
         23    2    1    2    0    0 -0.42108435513E+01 -0.33359162564E+02 -0.12841392328E+03  0.16137102551E+03  0.91760052600E+02 0.  0.
        -13    1    3    3    0    0 -0.10997911587E+02 -0.29741382928E+02  0.72010809432E+02  0.78683292971E+02  0.00000000000E+00 0.  1.
         14    1    3    3    0    0  0.45226289972E+02  0.23761443603E+02  0.52211509714E+02  0.73048376117E+02  0.00000000000E+00 0. -1.
        -11    1    4    4    0    0  0.92263677650E+00  0.22639228786E+02 -0.16783411913E+01  0.22720096122E+02  0.00000000000E+00 0.  1.
         11    1    4    4    0    0 -0.51334803278E+01 -0.55998391350E+02 -0.12673558209E+03  0.13865092939E+03  0.00000000000E+00 0. -1.
          1    1    1    2  501    0 -0.30017534833E+02  0.39339101888E+02  0.47816943961E+02  0.68811899150E+02  0.00000000000E+00 0. -1.
<scales pt_clust_5="13000.00000" pt_clust_6="13000.00000" pt_clust_7="13000.00000" pt_clust_8="13000.00000" pt_clust_9="49.48353"></scales>
<clustering>
<clus scale="   49.484">  2  9  1 -1</clus>
<clus scale="   79.900">  5  6 -1 -1</clus>
<clus scale="   85.970">  1  5  2 -1</clus>
<clus scale="   91.760">  7  8 -1 -1</clus>
<clus scale="   49.484">  2  5  1 -1</clus>
</clustering>
</event>
<event>
 9    2  0.4653788E-005  0.7894319E+02  0.7546771E-02  0.1332366E+00
         -1   -1    0    0    0  501 -0.00000000000E+00  0.00000000000E+00  0.67461681338E+02  0.67461681338E+02  0.00000000000E+00 0.  1.
         21   -1    0    0  501  502  0.00000000000E+00 -0.00000000000E+00 -0.16309283332E+03  0.16309283332E+03  0.00000000000E+00 0.  1.
         24    2    1    2    0    0 -0.39343180329E+01 -0.20299951997E+02 -0.24478361561E+00  0.80700237505E+02  0.78005778663E+02 0.  0.
         23    2    1    2    0    0 -0.83717128480E+01 -0.12705180401E+02 -0.59734638643E+02  0.99736186679E+02  0.78406458245E+02 0.  0.
        -13    1    3    3    0    0  0.30883866963E+02  0.40587169103E+01 -0.16444970700E+02  0.35223904991E+02  0.00000000000E+00 0.  1.
         14    1    3    3    0    0 -0.34818184996E+02 -0.24358668907E+02  0.16200187084E+02  0.45476332513E+02  0.00000000000E+00 0. -1.
        -11    1    4    4    0    0  0.37368421733E+01 -0.42759197555E+02 -0.50016257020E+02  0.65908564931E+02  0.00000000000E+00 0.  1.
         11    1    4    4    0    0 -0.12108555021E+02  0.30054017154E+02 -0.97183816232E+01  0.33827621748E+02  0.00000000000E+00 0. -1.
         -2    1    1    2    0  502  0.12306030881E+02  0.33005132398E+02 -0.35651729727E+02  0.50118090478E+02  0.00000000000E+00 0.  1.
<scales pt_clust_5="13000.00000" pt_clust_6="13000.00000" pt_clust_7="13000.00000" pt_clust_8="13000.00000" pt_clust_9="35.22467"></scales>
<clustering>
<clus scale="   35.225">  2  9  1 -1</clus>
<clus scale="   78.006">  5  6 -1 -1</clus>
<clus scale="   78.406">  7  8 -1 -1</clus>
<clus scale="   78.545">  1  5  2 -1</clus>
<clus scale="   35.225">  2  5  1 -1</clus>
</clustering>
</event>
<event>
 9    2  0.4653788E-005  0.1522816E+03  0.7546771E-02  0.1211756E+00
         -3   -1    0    0    0  501 -0.00000000000E+00  0.00000000000E+00  0.25568400458E+03  0.25568400458E+03  0.00000000000E+00 0.  1.
         21   -1    0    0  501  502  0.00000000000E+00 -0.00000000000E+00 -0.17551535312E+03  0.17551535312E+03  0.00000000000E+00 0.  1.
         23    2    1    2    0    0  0.46867827821E+02 -0.44116741991E+02  0.71333267108E+02  0.13319589844E+03  0.92248751519E+02 0.  0.
         24    2    1    2    0    0  0.96504094582E+02 -0.39425688431E+02 -0.43377439498E+01  0.13154512477E+03  0.80111663618E+02 0.  0.
        -13    1    4    4    0    0  0.22082831155E+02 -0.39466556081E+02 -0.28314263684E+02  0.53356892795E+02  0.00000000000E+00 0.  1.
         14    1    4    4    0    0  0.74421263427E+02  0.40867650188E-01  0.23976519734E+02  0.78188231971E+02  0.00000000000E+00 0. -1.
        -13    1    3    3    0    0  0.67986337118E+02 -0.58499755173E+01  0.49764367280E+02  0.84456240143E+02  0.00000000000E+00 0.  1.
         13    1    3    3    0    0 -0.21118509297E+02 -0.38266766474E+02  0.21568899827E+02  0.48739658299E+02  0.00000000000E+00 0. -1.
         -4    1    1    2    0  502 -0.14337192240E+03  0.83542430423E+02  0.13173128302E+02  0.16645833450E+03  0.00000000000E+00 0.  1.
<scales pt_clust_5="13000.00000" pt_clust_6="13000.00000" pt_clust_7="13000.00000" pt_clust_8="13000.00000" pt_clust_9="129.50611"></scales>
<clustering>
<clus scale="   80.112">  5  6 -1 -1</clus>
<clus scale="   92.249">  7  8 -1 -1</clus>
<clus scale="  112.484">  1  7  2 -1</clus>
<clus scale="  129.506">  2  9  1 -1</clus>
<clus scale="  129.506">  2  5  1 -1</clus>
</clustering>
</event>
<event>
 9    2  0.4653788E-005  0.4046836E+03  0.7546771E-02  0.1042170E+00
         21   -1    0    0  501  502  0.00000000000E+00  0.00000000000E+00  0.25787432984E+04  0.25787432984E+04  0.00000000000E+00 0. -1.
          2   -1    0    0  502    0 -0.00000000000E+00 -0.00000000000E+00 -0.71394476996E+02  0.71394476996E+02  0.00000000000E+00 0. -1.
         24    2    1    2    0    0  0.18613979946E+02  0.19832440314E+03  0.50856731252E+03  0.55218894545E+03  0.81196496084E+02 0.  0.
         23    2    1    2    0    0  0.93996502768E+01  0.13824337528E+03  0.16716159596E+03  0.23545208140E+03  0.91077435395E+02 0.  0.
        -13    1    3    3    0    0  0.48867200652E+02  0.11519548813E+03  0.26510151451E+03  0.29314981969E+03  0.00000000000E+00 0.  1.
         14    1    3    3    0    0 -0.30253220706E+02  0.83128915006E+02  0.24346579801E+03  0.25903912576E+03  0.00000000000E+00 0. -1.
        -11    1    4    4    0    0  0.30696569678E+02  0.96529765454E+02  0.58132428101E+02  0.11678893015E+03  0.00000000000E+00 0. -1.
         11    1    4    4    0    0 -0.21296919401E+02  0.41713609825E+02  0.10902916786E+03  0.11866315125E+03  0.00000000000E+00 0.  1.
          1    1    1    2  501    0 -0.28013630223E+02 -0.33656777842E+03  0.18316199129E+04  0.18624967485E+04  0.00000000000E+00 0. -1.
<scales pt_clust_5="13000.00000" pt_clust_6="13000.00000" pt_clust_7="13000.00000" pt_clust_8="13000.00000" pt_clust_9="337.73160"></scales>
<clustering>
<clus scale="   81.196">  5  6 -1 -1</clus>
<clus scale="   91.077">  7  8 -1 -1</clus>
<clus scale="  149.068">  5  7 -1 -1</clus>
<clus scale="  337.732">  1  9  2 -1</clus>
<clus scale="  337.732">  1  5  2 -1</clus>
</clustering>
</event>
<event>
 9    2  0.4653788E-005  0.1131261E+03  0.7546771E-02  0.1257769E+00
         21   -1    0    0  501  502  0.00000000000E+00  0.00000000000E+00  0.24047271873E+02  0.24047271873E+02  0.00000000000E+00 0. -1.
          2   -1    0    0  502    0 -0.00000000000E+00 -0.00000000000E+00 -0.12407873191E+04  0.12407873191E+04  0.00000000000E+00 0. -1.
         24    2    1    2    0    0  0.13037052218E+02 -0.63991393081E+02 -0.39372513877E+03  0.40770731979E+03  0.83312127554E+02 0.  0.
         23    2    1    2    0    0  0.84182985205E+02  0.51827884444E+02 -0.57357203690E+03  0.58913206079E+03  0.91207449985E+02 0.  0.
        -11    1    3    3    0    0 -0.20395399129E+02  0.11395175074E+02 -0.83145006542E+02  0.86365006996E+02  0.00000000000E+00 0.  1.
         12    1    3    3    0    0  0.33432451347E+02 -0.75386568155E+02 -0.31058013222E+03  0.32134231280E+03  0.00000000000E+00 0. -1.
        -11    1    4    4    0    0  0.42769739594E+02  0.75285323197E+02 -0.35015855023E+03  0.36070506070E+03  0.00000000000E+00 0. -1.
         11    1    4    4    0    0  0.41413245611E+02 -0.23457438754E+02 -0.22341348667E+03  0.22842700009E+03  0.00000000000E+00 0.  1.
          1    1    1    2  501    0 -0.97220037424E+02  0.12163508637E+02 -0.24944287154E+03  0.26799521037E+03  0.00000000000E+00 0. -1.
<scales pt_clust_5="13000.00000" pt_clust_6="13000.00000" pt_clust_7="13000.00000" pt_clust_8="13000.00000" pt_clust_9="97.97799"></scales>
<clustering>
<clus scale="   83.312">  5  6 -1 -1</clus>
<clus scale="   91.207">  7  8 -1 -1</clus>
<clus scale="   97.978">  1  9  2 -1</clus>
<clus scale="  106.863">  2  5  1 -1</clus>
<clus scale="   97.978">  1  5  2 -1</clus>
</clustering>
</event>
<event>
 9    2  0.4653788E-005  0.1365497E+03  0.7546771E-02  0.1249021E+00
         -3   -1    0    0    0  501 -0.00000000000E+00  0.00000000000E+00  0.23149977136E+03  0.23149977136E+03  0.00000000000E+00 0.  1.
         21   -1    0    0  501  502  0.00000000000E+00 -0.00000000000E+00 -0.17722025543E+03  0.17722025543E+03  0.00000000000E+00 0.  1.
         23    2    1    2    0    0  0.22726604946E+02 -0.11488420521E+02  0.10689568214E+03  0.12904875960E+03  0.67663972062E+02 0.  0.
         24    2    1    2    0    0  0.94514336456E+02 -0.40782053857E+02 -0.74230397941E+02  0.14949901267E+03  0.79016878563E+02 0.  0.
        -11    1    4    4    0    0  0.10689144843E+03 -0.39463971002E+02 -0.54831747366E+02  0.12645041429E+03  0.00000000000E+00 0.  1.
         12    1    4    4    0    0 -0.12377111972E+02 -0.13180828547E+01 -0.19398650575E+02  0.23048598381E+02  0.00000000000E+00 0. -1.
        -13    1    3    3    0    0 -0.13052343451E+02 -0.25903392113E+02  0.69561054498E+02  0.75366369791E+02  0.00000000000E+00 0.  1.
         13    1    3    3    0    0  0.35778948397E+02  0.14414971592E+02  0.37334627646E+02  0.53682389812E+02  0.00000000000E+00 0. -1.
         -4    1    1    2    0  502 -0.11724094140E+03  0.52270474377E+02  0.21614231727E+02  0.13017225451E+03  0.00000000000E+00 0.  1.
<scales pt_clust_5="13000.00000" pt_clust_6="13000.00000" pt_clust_7="13000.00000" pt_clust_8="13000.00000" pt_clust_9="111.36496"></scales>
<clustering>
<clus scale="   67.664">  7  8 -1 -1</clus>
<clus scale="   72.297">  1  7  2 -1</clus>
<clus scale="   79.017">  5  6 -1 -1</clus>
<clus scale="  111.365">  2  9  1 -1</clus>
<clus scale="  111.365">  2  5  1 -1</clus>
</clustering>
</event>
<event>
 9    2  0.4653788E-005  0.1063039E+03  0.7546771E-02  0.1271405E+00
          2   -1    0    0  502    0 -0.00000000000E+00  0.00000000000E+00  0.18503752685E+03  0.18503752685E+03  0.00000000000E+00 0. -1.
         21   -1    0    0  501  502  0.00000000000E+00 -0.00000000000E+00 -0.13086289725E+03  0.13086289725E+03  0.00000000000E+00 0. -1.
         24    2    1    2    0    0  0.52022776367E+02  0.14252499187E+02  0.10512646775E+03  0.14404680610E+03  0.82391778298E+02 0.  0.
         23    2    1    2    0    0 -0.36988924090E+02 -0.60387118279E+02 -0.34913004797E+02  0.12074917623E+03  0.91360062923E+02 0.  0.
        -13    1    3    3    0    0 -0.32771501421E+01  0.35777860673E+02  0.22760430487E+02  0.42530368249E+02  0.00000000000E+00 0.  1.
         14    1    3    3    0    0  0.55299926509E+02 -0.21525361486E+02  0.82366037268E+02  0.10151643785E+03  0.00000000000E+00 0. -1.
        -11    1    4    4    0    0  0.40302517393E+01 -0.72663259279E+02 -0.21985246458E+02  0.76023307216E+02  0.00000000000E+00 0. -1.
         11    1    4    4    0    0 -0.41019175829E+02  0.12276141000E+02 -0.12927758339E+02  0.44725869016E+02  0.00000000000E+00 0.  1.
          1    1    1    2  501    0 -0.15033852278E+02  0.46134619092E+02 -0.16038833363E+02  0.51104441771E+02  0.00000000000E+00 0. -1.
<scales pt_clust_5="13000.00000" pt_clust_6="13000.00000" pt_clust_7="13000.00000" pt_clust_8="13000.00000" pt_clust_9="48.52236"></scales>
<clustering>
<clus scale="   48.522">  2  9  1 -1</clus>
<clus scale="   82.392">  5  6 -1 -1</clus>
<clus scale="   91.360">  7  8 -1 -1</clus>
<clus scale="   98.703">  1  5  2 -1</clus>
<clus scale="   48.522">  2  5  1 -1</clus>
</clustering>
</event>
<event>
 9    2  0.4653788E-005  0.8639088E+02  0.7546771E-02  0.1312508E+00
         -3   -1    0    0    0  501 -0.00000000000E+00  0.00000000000E+00  0.16207869142E+03  0.16207869142E+03  0.00000000000E+00 0.  1.
         21   -1    0    0  501  502  0.00000000000E+00 -0.00000000000E+00 -0.11756936029E+03  0.11756936029E+03  0.00000000000E+00 0.  1.
         23    2    1    2    0    0  0.15964264920E+02  0.47544918740E+01  0.94278158758E+02  0.12872523838E+03  0.86048549263E+02 0.  0.
         24    2    1    2    0    0  0.24707040357E+02  0.25069894608E+02 -0.34010117245E+02  0.98083566035E+02  0.84998590531E+02 0.  0.
        -11    1    4    4    0    0  0.14625151825E+02  0.50517126278E+02  0.22649559838E+01  0.52640337564E+02  0.00000000000E+00 0.  1.
         12    1    4    4    0    0  0.10081888532E+02 -0.25447231670E+02 -0.36275073229E+02  0.45443228470E+02  0.00000000000E+00 0. -1.
        -11    1    3    3    0    0 -0.29247514673E+02 -0.14634699120E+02  0.16338013821E+02  0.36558476835E+02  0.00000000000E+00 0.  1.
         11    1    3    3    0    0  0.45211779592E+02  0.19389190994E+02  0.77940144937E+02  0.92166761547E+02  0.00000000000E+00 0. -1.
         -4    1    1    2    0  502 -0.40671305276E+02 -0.29824386482E+02 -0.15758710376E+02  0.52839247294E+02  0.00000000000E+00 0.  1.
<scales pt_clust_5="13000.00000" pt_clust_6="13000.00000" pt_clust_7="13000.00000" pt_clust_8="13000.00000" pt_clust_9="50.43460"></scales>
<clustering>
<clus scale="   50.435">  2  9  1 -1</clus>
<clus scale="   84.999">  5  6 -1 -1</clus>
<clus scale="   85.345">  2  5  1 -1</clus>
<clus scale="   86.049">  7  8 -1 -1</clus>
<clus scale="   50.435">  2  5  1 -1</clus>
</clustering>
</event>
<event>
 9    2  0.4653788E-005  0.9488310E+02  0.7546771E-02  0.1298290E+00
          2   -1    0    0  502    0 -0.00000000000E+00  0.00000000000E+00  0.27548031445E+03  0.27548031445E+03  0.00000000000E+00 0. -1.
         21   -1    0    0  501  502  0.00000000000E+00 -0.00000000000E+00 -0.98976626549E+02  0.98976626549E+02  0.00000000000E+00 0. -1.
         23    2    1    2    0    0  0.20494828321E+02 -0.12804905232E+02  0.20138040469E+03  0.22310357330E+03  0.92936179392E+02 0.  0.
         24    2    1    2    0    0 -0.12437893990E+02 -0.13846925462E+02  0.30939867489E+02  0.88977688545E+02  0.81322291574E+02 0.  0.
        -11    1    4    4    0    0  0.34759431820E+02 -0.64731498785E+01  0.94597540671E+01  0.36600638202E+02  0.00000000000E+00 0.  1.
         12    1    4    4    0    0 -0.47197325810E+02 -0.73737755837E+01  0.21480113422E+02  0.52377050342E+02  0.00000000000E+00 0. -1.
        -13    1    3    3    0    0  0.53530207213E+02 -0.26555362636E+02  0.13658416898E+03  0.14908355236E+03  0.00000000000E+00 0.  1.
         13    1    3    3    0    0 -0.33035378892E+02  0.13750457404E+02  0.64796235704E+02  0.74020020931E+02  0.00000000000E+00 0. -1.
          1    1    1    2  501    0 -0.80569343310E+01  0.26651830694E+02 -0.55816584275E+02  0.62375679157E+02  0.00000000000E+00 0. -1.
<scales pt_clust_5="13000.00000" pt_clust_6="13000.00000" pt_clust_7="13000.00000" pt_clust_8="13000.00000" pt_clust_9="27.84303"></scales>
<clustering>
<clus scale="   27.843">  2  9  1 -1</clus>
<clus scale="   81.322">  5  6 -1 -1</clus>
<clus scale="   83.540">  2  5  1 -1</clus>
<clus scale="   92.936">  7  8 -1 -1</clus>
<clus scale="   27.843">  2  5  1 -1</clus>
</clustering>
</event>
<event>
 9    2  0.4653788E-005  0.1749905E+03  0.7546771E-02  0.1173984E+00
          2   -1    0    0  502    0 -0.00000000000E+00  0.00000000000E+00  0.68683878435E+03  0.68683878435E+03  0.00000000000E+00 0. -1.
         21   -1    0    0  501  502  0.00000000000E+00 -0.00000000000E+00 -0.94726892527E+02  0.94726892527E+02  0.00000000000E+00 0. -1.
         24    2    1    2    0    0  0.13931653241E+03 -0.80320539118E+02  0.37319055244E+03  0.41456532258E+03  0.82053233035E+02 0.  0.
         23    2    1    2    0    0 -0.11191864510E+03  0.23065864818E+02  0.80210503238E+01  0.14675577687E+03  0.91733873548E+02 0.  0.
        -13    1    3    3    0    0  0.27288914785E+02 -0.60311921805E+02  0.15295557972E+03  0.16666619978E+03  0.00000000000E+00 0.  1.
         14    1    3    3    0    0  0.11202761762E+03 -0.20008617313E+02  0.22023497272E+03  0.24789912280E+03  0.00000000000E+00 0. -1.
        -13    1    4    4    0    0 -0.10868549552E+03 -0.51703243531E+01 -0.15445380313E+02  0.10989917635E+03  0.00000000000E+00 0. -1.
         13    1    4    4    0    0 -0.32331495839E+01  0.28236189171E+02  0.23466430637E+02  0.36856600521E+02  0.00000000000E+00 0.  1.
          1    1    1    2  501    0 -0.27397887309E+02  0.57254674300E+02  0.21090028906E+03  0.22024457742E+03  0.00000000000E+00 0. -1.
<scales pt_clust_5="13000.00000" pt_clust_6="13000.00000" pt_clust_7="13000.00000" pt_clust_8="13000.00000" pt_clust_9="63.47240"></scales>
<clustering>
<clus scale="   63.472">  2  9  1 -1</clus>
<clus scale="   82.053">  5  6 -1 -1</clus>
<clus scale="   91.734">  7  8 -1 -1</clus>
<clus scale="  170.116">  1  5  2 -1</clus>
<clus scale="   63.472">  2  5  1 -1</clus>
</clustering>
</event>
<event>
 9    2  0.4653788E-005  0.1186573E+03  0.7546771E-02  0.1254967E+00
         21   -1    0    0  501  502  0.00000000000E+00  0.00000000000E+00  0.91116988033E+02  0.91116988033E+02  0.00000000000E+00 0.  1.
         -1   -1    0    0    0  501 -0.00000000000E+00 -0.00000000000E+00 -0.26581325074E+03  0.26581325074E+03  0.00000000000E+00 0.  1.
         24    2    1    2    0    0 -0.27030560206E+02 -0.45561783398E+02 -0.14259448980E+03  0.17195112083E+03  0.80171517019E+02 0.  0.
         23    2    1    2    0    0  0.69689226182E+01  0.76588207320E+02  0.85393897747E+01  0.13005360121E+03  0.10453085012E+03 0.  0.
        -13    1    3    3    0    0 -0.23482606268E+02  0.36506339241E+01 -0.11064880030E+03  0.11317206781E+03  0.00000000000E+00 0.  1.
         14    1    3    3    0    0 -0.35479539378E+01 -0.49212417322E+02 -0.31945689502E+02  0.58779053017E+02  0.00000000000E+00 0. -1.
        -13    1    4    4    0    0  0.42437244726E+02  0.17762079594E+02  0.33562814292E+02  0.56946235298E+02  0.00000000000E+00 0.  1.
         13    1    4    4    0    0 -0.35468322107E+02  0.58826127727E+02 -0.25023424517E+02  0.73107365915E+02  0.00000000000E+00 0. -1.
         -2    1    1    2    0  502  0.20061637588E+02 -0.31026423923E+02 -0.40641162679E+02  0.54925516730E+02  0.00000000000E+00 0.  1.
<scales pt_clust_5="13000.00000" pt_clust_6="13000.00000" pt_clust_7="13000.00000" pt_clust_8="13000.00000" pt_clust_9="36.94739"></scales>
<clustering>
<clus scale="   36.947">  1  9  2 -1</clus>
<clus scale="   80.172">  5  6 -1 -1</clus>
<clus scale="   97.879">  2  5  1 -1</clus>
<clus scale="  104.531">  7  8 -1 -1</clus>
<clus scale="   36.947">  1  5  2 -1</clus>
</clustering>
</event>
<event>
 9    2  0.4653788E-005  0.1226392E+03  0.7546771E-02  0.1242572E+00
         -3   -1    0    0    0  501 -0.00000000000E+00  0.00000000000E+00  0.30816841627E+03  0.30816841627E+03  0.00000000000E+00 0.  1.
         21   -1    0    0  501  502  0.00000000000E+00 -0.00000000000E+00 -0.15185401302E+03  0.15185401302E+03  0.00000000000E+00 0. -1.
         23    2    1    2    0    0  0.85940402319E+02 -0.10188503016E+01  0.26086931553E+03  0.28971569424E+03  0.92171540612E+02 0.  0.
         24    2    1    2    0    0 -0.50195658722E+02  0.12033848005E+02 -0.61087960764E+02  0.11296222577E+03  0.79776612169E+02 0.  0.
        -11    1    4    4    0    0 -0.39965489853E+02 -0.14944290498E+02  0.29035652649E+01  0.42766843336E+02  0.00000000000E+00 0.  1.
         12    1    4    4    0    0 -0.10230168869E+02  0.26978138503E+02 -0.63991526029E+02  0.70195382439E+02  0.00000000000E+00 0. -1.
        -11    1    3    3    0    0  0.35692067192E+02 -0.24057515679E+02  0.21074559358E+03  0.21509624110E+03  0.00000000000E+00 0.  1.
         11    1    3    3    0    0  0.50248335128E+02  0.23038665378E+02  0.50123721948E+02  0.74619453144E+02  0.00000000000E+00 0. -1.
         -4    1    1    2    0  502 -0.35744743597E+02 -0.11014997704E+02 -0.43466951513E+02  0.57344509267E+02  0.00000000000E+00 0.  1.
<scales pt_clust_5="13000.00000" pt_clust_6="13000.00000" pt_clust_7="13000.00000" pt_clust_8="13000.00000" pt_clust_9="37.40343"></scales>
<clustering>
<clus scale="   37.403">  2  9  1 -1</clus>
<clus scale="   79.777">  5  6 -1 -1</clus>
<clus scale="   92.172">  7  8 -1 -1</clus>
<clus scale="  113.618">  2  5  1 -1</clus>
<clus scale="   37.403">  2  5  1 -1</clus>
</clustering>
</event>
<event>
 9    2  0.4653788E-005  0.1049256E+03  0.7546771E-02  0.1272998E+00
         -1   -1    0    0    0  501 -0.00000000000E+00  0.00000000000E+00  0.12027462626E+03  0.12027462626E+03  0.00000000000E+00 0.  1.
         21   -1    0    0  501  502  0.00000000000E+00 -0.00000000000E+00 -0.16816212208E+03  0.16816212208E+03  0.00000000000E+00 0. -1.
         23    2    1    2    0    0  0.53902012547E+02  0.89690774282E+01  0.28152209725E+02  0.10860308249E+03  0.89533297196E+02 0.  0.
         24    2    1    2    0    0 -0.55680748893E+02  0.41691614224E+02 -0.69362452831E+02  0.12870387722E+03  0.83156488946E+02 0.  0.
        -13    1    4    4    0    0  0.20025924369E+02  0.50466751412E+01 -0.16360107859E+01  0.20716734977E+02  0.00000000000E+00 0.  1.
         14    1    4    4    0    0 -0.75706673263E+02  0.36644939082E+02 -0.67726442045E+02  0.10798714224E+03  0.00000000000E+00 0. -1.
        -13    1    3    3    0    0  0.30896609234E+02  0.19827508339E+02 -0.28516875010E+02  0.46485940987E+02  0.00000000000E+00 0.  1.
         13    1    3    3    0    0  0.23005403313E+02 -0.10858430911E+02  0.56669084735E+02  0.62117141500E+02  0.00000000000E+00 0. -1.
         -2    1    1    2    0  502  0.17787363469E+01 -0.50660691652E+02 -0.66772527176E+01  0.51129788631E+02  0.00000000000E+00 0.  1.
<scales pt_clust_5="13000.00000" pt_clust_6="13000.00000" pt_clust_7="13000.00000" pt_clust_8="13000.00000" pt_clust_9="50.69193"></scales>
<clustering>
<clus scale="   50.692">  2  9  1 -1</clus>
<clus scale="   83.156">  5  6 -1 -1</clus>
<clus scale="   89.533">  7  8 -1 -1</clus>
<clus scale="   99.540">  2  5  1 -1</clus>
<clus scale="   50.692">  2  5  1 -1</clus>
</clustering>
</event>
<event>
 9    2  0.4653788E-005  0.1443616E+03  0.7546771E-02  0.1223374E+00
         21   -1    0    0  501  502  0.00000000000E+00  0.00000000000E+00  0.69232056934E+02  0.69232056934E+02  0.00000000000E+00 0. -1.
          2   -1    0    0  502    0 -0.00000000000E+00 -0.00000000000E+00 -0.15435238795E+04  0.15435238795E+04  0.00000000000E+00 0. -1.
         23    2    1    2    0    0  0.31063240541E+02 -0.40551809310E+02 -0.70434028113E+02  0.12506667042E+03  0.89840667748E+02 0.  0.
         24    2    1    2    0    0 -0.10077328009E+03  0.13359862417E+03 -0.13442530269E+04  0.13570373327E+04  0.80810120494E+02 0.  0.
        -11    1    4    4    0    0 -0.77118265150E+02  0.91355170969E+02 -0.63651610949E+03  0.64764631685E+03  0.00000000000E+00 0.  1.
         12    1    4    4    0    0 -0.23655014945E+02  0.42243453197E+02 -0.70773691746E+03  0.70939101587E+03  0.00000000000E+00 0. -1.
        -11    1    3    3    0    0  0.23624185793E+02  0.11539641636E+02 -0.67414597319E+02  0.72360164560E+02  0.00000000000E+00 0.  1.
         11    1    3    3    0    0  0.74390547488E+01 -0.52091450946E+02 -0.30194307945E+01  0.52706505856E+02  0.00000000000E+00 0. -1.
          1    1    1    2  501    0  0.69710039553E+02 -0.93046814855E+02 -0.59604767531E+02  0.13065193333E+03  0.00000000000E+00 0. -1.
<scales pt_clust_5="13000.00000" pt_clust_6="13000.00000" pt_clust_7="13000.00000" pt_clust_8="13000.00000" pt_clust_9="119.62438"></scales>
<clustering>
<clus scale="   80.810">  5  6 -1 -1</clus>
<clus scale="   89.841">  7  8 -1 -1</clus>
<clus scale="  103.348">  2  7  1 -1</clus>
<clus scale="  119.624">  1  9  2 -1</clus>
<clus scale="  119.624">  1  5  2 -1</clus>
</clustering>
</event>
<event>
 9    2  0.4653788E-005  0.9402061E+02  0.7546771E-02  0.1299514E+00
          2   -1    0    0  502    0 -0.00000000000E+00  0.00000000000E+00  0.59530072696E+03  0.59530072696E+03  0.00000000000E+00 0. -1.
         21   -1    0    0  501  502  0.00000000000E+00 -0.00000000000E+00 -0.24444447940E+02  0.24444447940E+02  0.00000000000E+00 0.  1.
         23    2    1    2    0    0 -0.77864929414E+01  0.10438246101E+02  0.21424405169E+03  0.23301252089E+03  0.90690323377E+02 0.  0.
         24    2    1    2    0    0  0.37256028963E+02 -0.22111967465E+02  0.13515137249E+03  0.16301488639E+03  0.80193571424E+02 0.  0.
        -11    1    4    4    0    0  0.29381684298E+02  0.21714816332E+02  0.25183432743E+02  0.44373662292E+02  0.00000000000E+00 0.  1.
         12    1    4    4    0    0  0.78743446655E+01 -0.43826783797E+02  0.10996793975E+03  0.11864122409E+03  0.00000000000E+00 0. -1.
        -11    1    3    3    0    0 -0.27351975205E+02 -0.18631602303E+02  0.27557986962E+02  0.43066341816E+02  0.00000000000E+00 0.  1.
         11    1    3    3    0    0  0.19565482264E+02  0.29069848404E+02  0.18668606472E+03  0.18994617907E+03  0.00000000000E+00 0. -1.
          1    1    1    2  501    0 -0.29469536022E+02  0.11673721364E+02  0.22146085484E+03  0.22371776763E+03  0.00000000000E+00 0. -1.
<scales pt_clust_5="13000.00000" pt_clust_6="13000.00000" pt_clust_7="13000.00000" pt_clust_8="13000.00000" pt_clust_9="31.69748"></scales>
<clustering>
<clus scale="   31.697">  2  9  1 -1</clus>
<clus scale="   80.194">  5  6 -1 -1</clus>
<clus scale="   83.941">  2  5  1 -1</clus>
<clus scale="   90.690">  7  8 -1 -1</clus>
<clus scale="   31.697">  2  5  1 -1</clus>
</clustering>
</event>
<event>
 9    2  0.4653788E-005  0.1319612E+03  0.7546771E-02  0.1226974E+00
         -3   -1    0    0    0  501 -0.00000000000E+00  0.00000000000E+00  0.82415995107E+02  0.82415995107E+02  0.00000000000E+00 0.  1.
         21   -1    0    0  501  502  0.00000000000E+00 -0.00000000000E+00 -0.35410153197E+03  0.35410153197E+03  0.00000000000E+00 0.  1.
         23    2    1    2    0    0 -0.13568393314E+00  0.10021319832E+03 -0.16121764829E+02  0.13563696593E+03  0.89970949193E+02 0.  0.
         24    2    1    2    0    0  0.17558194738E+02 -0.87908875477E+02 -0.14566938357E+03  0.18893541002E+03  0.80254341083E+02 0.  0.
        -13    1    4    4    0    0  0.37783913278E+02 -0.35893043058E+02 -0.11257121951E+03  0.12404924065E+03  0.00000000000E+00 0.  1.
         14    1    4    4    0    0 -0.20225718541E+02 -0.52015832419E+02 -0.33098164052E+02  0.64886169376E+02  0.00000000000E+00 0. -1.
        -13    1    3    3    0    0  0.37749728103E+02  0.57369555362E+02  0.15332806335E+02  0.70366204988E+02  0.00000000000E+00 0.  1.
         13    1    3    3    0    0 -0.37885412037E+02  0.42843642953E+02 -0.31454571165E+02  0.65270760941E+02  0.00000000000E+00 0. -1.
         -4    1    1    2    0  502 -0.17422510805E+02 -0.12304322838E+02 -0.10989438847E+03  0.11194515112E+03  0.00000000000E+00 0.  1.
<scales pt_clust_5="13000.00000" pt_clust_6="13000.00000" pt_clust_7="13000.00000" pt_clust_8="13000.00000" pt_clust_9="21.32933"></scales>
<clustering>
<clus scale="   21.329">  2  9  1 -1</clus>
<clus scale="   80.254">  5  6 -1 -1</clus>
<clus scale="   89.971">  7  8 -1 -1</clus>
<clus scale="  125.538">  2  5  1 -1</clus>
<clus scale="   21.329">  2  5  1 -1</clus>
</clustering>
</event>
<event>
 9    2  0.1375906E-004  0.1219498E+03  0.7546771E-02  0.1244050E+00
         -1   -1    0    0    0  501 -0.00000000000E+00  0.00000000000E+00  0.67923372669E+03  0.67923372669E+03  0.00000000000E+00 0.  1.
         21   -1    0    0  501  502  0.00000000000E+00 -0.00000000000E+00 -0.14628328114E+03  0.14628328114E+03  0.00000000000E+00 0.  1.
         24    2    1    2    0    0  0.79065489474E+02  0.14241333948E+02  0.61324352061E+03  0.62381687992E+03  0.81398506646E+02 0.  0.
         23    2    1    2    0    0 -0.48703044825E+02  0.23240561563E+01  0.82899034250E+01  0.10660420648E+03  0.94436997667E+02 0.  0.
        -13    1    3    3    0    0  0.77261736547E+02  0.39969845451E+02  0.42466532407E+03  0.43348310457E+03  0.00000000000E+00 0.  1.
         14    1    3    3    0    0  0.18037529271E+01 -0.25728511503E+02  0.18857819654E+03  0.19033377535E+03  0.00000000000E+00 0. -1.
        -11    1    4    4    0    0 -0.74783202921E+01  0.37566054855E+02  0.29523040238E+02  0.48360558895E+02  0.00000000000E+00 0.  1.
         11    1    4    4    0    0 -0.41224724533E+02 -0.35241998699E+02 -0.21233136813E+02  0.58243647585E+02  0.00000000000E+00 0. -1.
         -2    1    1    2    0  502 -0.30362444649E+02 -0.16565390104E+02 -0.88582978488E+02  0.95095921428E+02  0.00000000000E+00 0.  1.
<scales pt_clust_5="13000.00000" pt_clust_6="13000.00000" pt_clust_7="13000.00000" pt_clust_8="13000.00000" pt_clust_9="34.58743"></scales>
<clustering>
<clus scale="   34.587">  2  9  1 -1</clus>
<clus scale="   81.399">  5  6 -1 -1</clus>
<clus scale="   94.437">  7  8 -1 -1</clus>
<clus scale="  112.157">  1  5  2 -1</clus>
<clus scale="   34.587">  2  5  1 -1</clus>
</clustering>
</event>
<event>
 9    2  0.4653788E-005  0.9789052E+02  0.7546771E-02  0.1285156E+00
         21   -1    0    0  501  502  0.00000000000E+00  0.00000000000E+00  0.72151431869E+02  0.72151431869E+02  0.00000000000E+00 0.  1.
         -1   -1    0    0    0  501 -0.00000000000E+00 -0.00000000000E+00 -0.29156031391E+03  0.29156031391E+03  0.00000000000E+00 0.  1.
         23    2    1    2    0    0 -0.98523194179E+01  0.48430659835E+02 -0.14892936849E+03  0.17862371429E+03  0.85345635486E+02 0.  0.
         24    2    1    2    0    0 -0.34166798949E+02 -0.45709599175E+02 -0.90746856021E+02  0.13655091041E+03  0.84583814337E+02 0.  0.
        -13    1    4    4    0    0 -0.60840295332E+02 -0.41851777952E+02 -0.75393788520E+02  0.10553357855E+03  0.00000000000E+00 0.  1.
         14    1    4    4    0    0  0.26673496383E+02 -0.38578212235E+01 -0.15353067501E+02  0.31017331858E+02  0.00000000000E+00 0. -1.
        -13    1    3    3    0    0 -0.22868717269E+02 -0.17352561248E+02 -0.66009082684E+02  0.71981168428E+02  0.00000000000E+00 0.  1.
         13    1    3    3    0    0  0.13016397851E+02  0.65783221083E+02 -0.82920285807E+02  0.10664254586E+03  0.00000000000E+00 0. -1.
         -2    1    1    2    0  502  0.44019118367E+02 -0.27210606601E+01  0.20267342467E+02  0.48537121089E+02  0.00000000000E+00 0.  1.
<scales pt_clust_5="13000.00000" pt_clust_6="13000.00000" pt_clust_7="13000.00000" pt_clust_8="13000.00000" pt_clust_9="44.10314"></scales>
<clustering>
<clus scale="   44.103">  1  9  2 -1</clus>
<clus scale="   84.584">  5  6 -1 -1</clus>
<clus scale="   85.346">  7  8 -1 -1</clus>
<clus scale="   97.227">  1  5  2 -1</clus>
<clus scale="   44.103">  1  5  2 -1</clus>
</clustering>
</event>
<event>
 9    2  0.4653788E-005  0.1371541E+03  0.7546771E-02  0.1219319E+00
          2   -1    0    0  502    0 -0.00000000000E+00  0.00000000000E+00  0.14320021779E+03  0.14320021779E+03  0.00000000000E+00 0. -1.
         21   -1    0    0  501  502  0.00000000000E+00 -0.00000000000E+00 -0.24543247421E+03  0.24543247421E+03  0.00000000000E+00 0. -1.
         24    2    1    2    0    0  0.84309268909E+02  0.61291878019E+01  0.57644454091E+01  0.12481986634E+03  0.91657789829E+02 0.  0.
         23    2    1    2    0    0 -0.12205808428E+03  0.65706529312E+01 -0.14128818797E+03  0.21190346170E+03  0.99996877953E+02 0.  0.
        -13    1    3    3    0    0  0.11541259162E+01  0.30475934918E+02  0.20750135219E+02  0.36887433191E+02  0.00000000000E+00 0.  1.
         14    1    3    3    0    0  0.83155142993E+02 -0.24346747116E+02 -0.14985689810E+02  0.87932433154E+02  0.00000000000E+00 0. -1.
        -13    1    4    4    0    0 -0.22120118750E+01 -0.28108765412E+02 -0.49668637972E+02  0.57113652375E+02  0.00000000000E+00 0.  1.
         13    1    4    4    0    0 -0.11984607241E+03  0.34679418344E+02 -0.91619550002E+02  0.15478980932E+03  0.00000000000E+00 0. -1.
          1    1    1    2  501    0  0.37748815373E+02 -0.12699840733E+02  0.33291486143E+02  0.51909363956E+02  0.00000000000E+00 0. -1.
<scales pt_clust_5="13000.00000" pt_clust_6="13000.00000" pt_clust_7="13000.00000" pt_clust_8="13000.00000" pt_clust_9="39.82789"></scales>
<clustering>
<clus scale="   39.828">  2  9  1 -1</clus>
<clus scale="   91.658">  5  6 -1 -1</clus>
<clus scale="   99.997">  7  8 -1 -1</clus>
<clus scale="  131.198">  1  5  2 -1</clus>
<clus scale="   39.828">  2  5  1 -1</clus>
</clustering>
</event>
<event>
 9    2  0.4653788E-005  0.3164331E+03  0.7546771E-02  0.1100401E+00
          2   -1    0    0  502    0 -0.00000000000E+00  0.00000000000E+00  0.14052061524E+04  0.14052061524E+04  0.00000000000E+00 0. -1.
         21   -1    0    0  501  502  0.00000000000E+00 -0.00000000000E+00 -0.11860562378E+03  0.11860562378E+03  0.00000000000E+00 0. -1.
         23    2    1    2    0    0 -0.10714749757E+03 -0.99339815220E+02  0.27328474878E+03  0.32268885568E+03  0.89969764608E+02 0.  0.
         24    2    1    2    0    0  0.17406669707E+03 -0.23465334871E+03  0.44122340705E+03  0.53530065006E+03  0.80667725484E+02 0.  0.
        -11    1    4    4    0    0  0.71253777503E+02 -0.68445127733E+02  0.21321733248E+03  0.23499673868E+03  0.00000000000E+00 0.  1.
         12    1    4    4    0    0  0.10281291957E+03 -0.16620822098E+03  0.22800607457E+03  0.30030391138E+03  0.00000000000E+00 0. -1.
        -13    1    3    3    0    0 -0.97923958196E+02 -0.73194580514E+02  0.26785664684E+03  0.29443799256E+03  0.00000000000E+00 0. -1.
         13    1    3    3    0    0 -0.92235393722E+01 -0.26145234705E+02  0.54281019321E+01  0.28250863118E+02  0.00000000000E+00 0.  1.
          1    1    1    2  501    0 -0.66919199505E+02  0.33399316393E+03  0.57209237281E+03  0.66582227046E+03  0.00000000000E+00 0. -1.
<scales pt_clust_5="13000.00000" pt_clust_6="13000.00000" pt_clust_7="13000.00000" pt_clust_8="13000.00000" pt_clust_9="305.97826"></scales>
<clustering>
<clus scale="   80.668">  5  6 -1 -1</clus>
<clus scale="   89.970">  7  8 -1 -1</clus>
<clus scale="  171.591">  1  7  2 -1</clus>
<clus scale="  305.978">  2  9  1 -1</clus>
<clus scale="  305.978">  2  5  1 -1</clus>
</clustering>
</event>
<event>
 9    2  0.4653788E-005  0.1013646E+03  0.7546771E-02  0.1281534E+00
         21   -1    0    0  501  502  0.00000000000E+00  0.00000000000E+00  0.12766026302E+03  0.12766026302E+03  0.00000000000E+00 0.  1.
          2   -1    0    0  502    0 -0.00000000000E+00 -0.00000000000E+00 -0.13368428774E+03  0.13368428774E+03  0.00000000000E+00 0. -1.
         23    2    1    2    0    0 -0.46849463155E+02 -0.62491208073E+01 -0.54648222296E+02  0.11598950306E+03  0.90737053689E+02 0.  0.
         24    2    1    2    0    0  0.41240428193E+02 -0.26721705711E+02  0.13235327158E+02  0.96663068650E+02  0.82181217332E+02 0.  0.
        -11    1    4    4    0    0  0.10570372184E+02 -0.28500184843E+02  0.43808204730E+02  0.53321216282E+02  0.00000000000E+00 0.  1.
         12    1    4    4    0    0  0.30670056010E+02  0.17784791319E+01 -0.30572877571E+02  0.43341852368E+02  0.00000000000E+00 0. -1.
        -11    1    3    3    0    0 -0.34620413300E+02  0.20187586191E+02 -0.71770450704E+02  0.82201637743E+02  0.00000000000E+00 0. -1.
         11    1    3    3    0    0 -0.12229049855E+02 -0.26436706999E+02  0.17122228408E+02  0.33787865321E+02  0.00000000000E+00 0.  1.
          1    1    1    2  501    0  0.56090349614E+01  0.32970826518E+02  0.35388870410E+02  0.48691979046E+02  0.00000000000E+00 0. -1.
<scales pt_clust_5="13000.00000" pt_clust_6="13000.00000" pt_clust_7="13000.00000" pt_clust_8="13000.00000" pt_clust_9="33.44453"></scales>
<clustering>
<clus scale="   33.445">  1  9  2 -1</clus>
<clus scale="   82.181">  5  6 -1 -1</clus>
<clus scale="   90.737">  7  8 -1 -1</clus>
<clus scale="   93.783">  1  5  2 -1</clus>
<clus scale="   33.445">  1  5  2 -1</clus>
</clustering>
</event>
<event>
 9    2  0.4653788E-005  0.1758523E+03  0.7546771E-02  0.1176118E+00
         21   -1    0    0  501  502  0.00000000000E+00  0.00000000000E+00  0.25296514511E+03  0.25296514511E+03  0.00000000000E+00 0. -1.
          2   -1    0    0  502    0 -0.00000000000E+00 -0.00000000000E+00 -0.28743521535E+03  0.28743521535E+03  0.00000000000E+00 0. -1.
         24    2    1    2    0    0 -0.22969786361E+02  0.14649819596E+03 -0.20615793428E+03  0.25937954401E+03  0.52795089558E+02 0.  0.
         23    2    1    2    0    0  0.40504995840E+02 -0.16564049129E+03  0.16556227177E+03  0.25434809775E+03  0.90579589035E+02 0.  0.
        -11    1    3    3    0    0 -0.27979112716E+02  0.31635875764E+02 -0.61318731798E+02  0.74455666360E+02  0.00000000000E+00 0.  1.
         12    1    3    3    0    0  0.50093263552E+01  0.11486232019E+03 -0.14483920248E+03  0.18492387765E+03  0.00000000000E+00 0. -1.
        -11    1    4    4    0    0  0.43882028632E+02 -0.30511418267E+02  0.73196350901E+02  0.90632692042E+02  0.00000000000E+00 0.  1.
         11    1    4    4    0    0 -0.33770327917E+01 -0.13512907302E+03  0.92365920871E+02  0.16371540570E+03  0.00000000000E+00 0. -1.
          1    1    1    2  501    0 -0.17535209479E+02  0.19142295336E+02  0.61255922740E+01  0.26672718701E+02  0.00000000000E+00 0. -1.
<scales pt_clust_5="13000.00000" pt_clust_6="13000.00000" pt_clust_7="13000.00000" pt_clust_8="13000.00000" pt_clust_9="25.95980"></scales>
<clustering>
<clus scale="   25.960">  1  9  2 -1</clus>
<clus scale="   52.795">  5  6 -1 -1</clus>
<clus scale="   90.580">  7  8 -1 -1</clus>
<clus scale="  159.708">  2  5  1 -1</clus>
<clus scale="   25.960">  1  5  2 -1</clus>
</clustering>
</event>
<event>
 9    2  0.4653788E-005  0.1550742E+03  0.7546771E-02  0.1195950E+00
          2   -1    0    0  502    0 -0.00000000000E+00  0.00000000000E+00  0.32867178657E+03  0.32867178657E+03  0.00000000000E+00 0. -1.
         21   -1    0    0  501  502  0.00000000000E+00 -0.00000000000E+00 -0.14391099003E+03  0.14391099003E+03  0.00000000000E+00 0.  1.
         23    2    1    2    0    0  0.11452631381E+03 -0.92410348940E+02  0.18648795446E+03  0.25370411161E+03  0.89062168980E+02 0.  0.
         24    2    1    2    0    0 -0.28199100457E+02  0.85191068101E+02 -0.36776639916E+02  0.12542829331E+03  0.79542618559E+02 0.  0.
        -13    1    4    4    0    0  0.25089106015E+02  0.21642083526E+02  0.33386904830E+01  0.33301499577E+02  0.00000000000E+00 0.  1.
         14    1    4    4    0    0 -0.53288206472E+02  0.63548984575E+02 -0.40115330399E+02  0.92126793728E+02  0.00000000000E+00 0. -1.
        -11    1    3    3    0    0  0.98405689676E+02 -0.29734002722E+02  0.85251782408E+02  0.13355020435E+03  0.00000000000E+00 0. -1.
         11    1    3    3    0    0  0.16120624131E+02 -0.62676346218E+02  0.10123617205E+03  0.12015390726E+03  0.00000000000E+00 0.  1.
          1    1    1    2  501    0 -0.86327213349E+02  0.72192808390E+01  0.35049481984E+02  0.93450371684E+02  0.00000000000E+00 0. -1.
<scales pt_clust_5="13000.00000" pt_clust_6="13000.00000" pt_clust_7="13000.00000" pt_clust_8="13000.00000" pt_clust_9="86.62855"></scales>
<clustering>
<clus scale="   79.543">  5  6 -1 -1</clus>
<clus scale="   86.629">  2  9  1 -1</clus>
<clus scale="   89.062">  7  8 -1 -1</clus>
<clus scale="  149.810">  2  5  1 -1</clus>
<clus scale="   86.629">  2  5  1 -1</clus>
</clustering>
</event>
<event>
 9    2  0.4653788E-005  0.1613124E+03  0.7546771E-02  0.1188974E+00
         21   -1    0    0  501  502  0.00000000000E+00  0.00000000000E+00  0.15588515698E+02  0.15588515698E+02  0.00000000000E+00 0. -1.
          2   -1    0    0  502    0 -0.00000000000E+00 -0.00000000000E+00 -0.20714224040E+04  0.20714224040E+04  0.00000000000E+00 0. -1.
         24    2    1    2    0    0  0.12593569342E+03 -0.71878049123E+02 -0.11706568625E+04  0.11823445869E+04  0.80467259060E+02 0.  0.
         23    2    1    2    0    0 -0.11050075804E+03  0.37885554203E+02 -0.66926359596E+03  0.68554915831E+03  0.91750503210E+02 0.  0.
        -11    1    3    3    0    0  0.47654484521E+02 -0.41231794646E+02 -0.24856343589E+03  0.25642697293E+03  0.00000000000E+00 0.  1.
         12    1    3    3    0    0  0.78281208895E+02 -0.30646254477E+02 -0.92209342657E+03  0.92591761399E+03  0.00000000000E+00 0. -1.
        -11    1    4    4    0    0 -0.86968952466E+02  0.59752887483E+02 -0.59988587963E+03  0.60909529208E+03  0.00000000000E+00 0.  1.
         11    1    4    4    0    0 -0.23531805578E+02 -0.21867333280E+02 -0.69377716331E+02  0.76453866232E+02  0.00000000000E+00 0. -1.
          1    1    1    2  501    0 -0.15434935371E+02  0.33992494920E+02 -0.21591342991E+03  0.21911717449E+03  0.00000000000E+00 0. -1.
<scales pt_clust_5="13000.00000" pt_clust_6="13000.00000" pt_clust_7="13000.00000" pt_clust_8="13000.00000" pt_clust_9="37.33267"></scales>
<clustering>
<clus scale="   37.333">  1  9  2 -1</clus>
<clus scale="   80.467">  5  6 -1 -1</clus>
<clus scale="   91.751">  7  8 -1 -1</clus>
<clus scale="  155.173">  2  5  1 -1</clus>
<clus scale="   37.333">  1  5  2 -1</clus>
</clustering>
</event>
<event>
 9    2  0.4653788E-005  0.1083627E+03  0.7546771E-02  0.1267754E+00
          2   -1    0    0  502    0 -0.00000000000E+00  0.00000000000E+00  0.10683658372E+04  0.10683658372E+04  0.00000000000E+00 0. -1.
         21   -1    0    0  501  502  0.00000000000E+00 -0.00000000000E+00 -0.24654408374E+02  0.24654408374E+02  0.00000000000E+00 0.  1.
         24    2    1    2    0    0  0.47664800290E+02  0.30525387847E+02  0.84407196217E+03  0.84983362723E+03  0.80969032118E+02 0.  0.
         23    2    1    2    0    0 -0.51837545268E+02 -0.51992393197E+02  0.16869850271E+03  0.20529747256E+03  0.91090764460E+02 0.  0.
        -13    1    3    3    0    0 -0.14181724097E+02  0.17063895843E+02  0.76396385185E+02  0.79553161528E+02  0.00000000000E+00 0.  1.
         14    1    3    3    0    0  0.61846524388E+02  0.13461492004E+02  0.76767557698E+03  0.77028046570E+03  0.00000000000E+00 0. -1.
        -11    1    4    4    0    0 -0.22476461455E+02 -0.68569480300E+02  0.15068058520E+03  0.16706766205E+03  0.00000000000E+00 0.  1.
         11    1    4    4    0    0 -0.29361083813E+02  0.16577087103E+02  0.18017917517E+02  0.38229810503E+02  0.00000000000E+00 0. -1.
          1    1    1    2  501    0  0.41727449776E+01  0.21467005350E+02  0.30940963981E+02  0.37889145826E+02  0.00000000000E+00 0. -1.
<scales pt_clust_5="13000.00000" pt_clust_6="13000.00000" pt_clust_7="13000.00000" pt_clust_8="13000.00000" pt_clust_9="21.86879"></scales>
<clustering>
<clus scale="   21.869">  2  9  1 -1</clus>
<clus scale="   80.969">  5  6 -1 -1</clus>
<clus scale="   91.091">  7  8 -1 -1</clus>
<clus scale="  100.005">  1  5  2 -1</clus>
<clus scale="   21.869">  2  5  1 -1</clus>
</clustering>
</event>
<event>
 9    2  0.4653788E-005  0.8134459E+02  0.7546771E-02  0.1327829E+00
         -1   -1    0    0    0  501 -0.00000000000E+00  0.00000000000E+00  0.31881590742E+03  0.31881590742E+03  0.00000000000E+00 0.  1.
         21   -1    0    0  501  502  0.00000000000E+00 -0.00000000000E+00 -0.59599385987E+02  0.59599385987E+02  0.00000000000E+00 0. -1.
         23    2    1    2    0    0 -0.10193682903E+02 -0.13265784653E+02  0.22710003948E+03  0.24008827726E+03  0.76079305554E+02 0.  0.
         24    2    1    2    0    0 -0.24693550189E+02  0.26846811949E+02 -0.19474826909E+01  0.87711632886E+02  0.79743433096E+02 0.  0.
        -13    1    4    4    0    0 -0.36190211714E+02  0.23387987176E+02  0.30712511387E+02  0.52914910221E+02  0.00000000000E+00 0.  1.
         14    1    4    4    0    0  0.11496661526E+02  0.34588247729E+01 -0.32659994078E+02  0.34796722664E+02  0.00000000000E+00 0. -1.
        -11    1    3    3    0    0 -0.23881583288E+02 -0.34569559276E+02  0.19353181057E+03  0.19804026397E+03  0.00000000000E+00 0.  1.
         11    1    3    3    0    0  0.13687900385E+02  0.21303774623E+02  0.33568228911E+02  0.42048013298E+02  0.00000000000E+00 0. -1.
         -2    1    1    2    0  502  0.34887233092E+02 -0.13581027295E+02  0.34063964644E+02  0.50615383259E+02  0.00000000000E+00 0.  1.
<scales pt_clust_5="13000.00000" pt_clust_6="13000.00000" pt_clust_7="13000.00000" pt_clust_8="13000.00000" pt_clust_9="37.43746"></scales>
<clustering>
<clus scale="   37.437">  2  9  1 -1</clus>
<clus scale="   76.079">  7  8 -1 -1</clus>
<clus scale="   77.756">  1  7  2 -1</clus>
<clus scale="   79.743">  5  6 -1 -1</clus>
<clus scale="   37.437">  2  5  1 -1</clus>
</clustering>
</event>
<event>
 9    2  0.4653788E-005  0.9671016E+02  0.7546771E-02  0.1294259E+00
          2   -1    0    0  502    0 -0.00000000000E+00  0.00000000000E+00  0.73335105971E+03  0.73335105971E+03  0.00000000000E+00 0. -1.
         21   -1    0    0  501  502  0.00000000000E+00 -0.00000000000E+00 -0.22510212062E+02  0.22510212062E+02  0.00000000000E+00 0.  1.
         23    2    1    2    0    0 -0.30155120367E+02 -0.43852819752E+02  0.33114664246E+03  0.34809852143E+03  0.93177683642E+02 0.  0.
         24    2    1    2    0    0 -0.22174120421E+02  0.71567134570E+01  0.19929863027E+03  0.21637958203E+03  0.80976967903E+02 0.  0.
        -13    1    4    4    0    0  0.16011311050E+02  0.13401900149E+02  0.99709809667E+01  0.23138571057E+02  0.00000000000E+00 0.  1.
         14    1    4    4    0    0 -0.38185431471E+02 -0.62451866919E+01  0.18932764930E+03  0.19324101098E+03  0.00000000000E+00 0. -1.
        -11    1    3    3    0    0 -0.57068280251E+02 -0.22198178074E+01  0.19576770723E+03  0.20392820157E+03  0.00000000000E+00 0.  1.
         11    1    3    3    0    0  0.26913159885E+02 -0.41633001945E+02  0.13537893523E+03  0.14417031986E+03  0.00000000000E+00 0. -1.
          1    1    1    2  501    0  0.52329240788E+02  0.36696106295E+02  0.18039557492E+03  0.19138316830E+03  0.00000000000E+00 0. -1.
<scales pt_clust_5="13000.00000" pt_clust_6="13000.00000" pt_clust_7="13000.00000" pt_clust_8="13000.00000" pt_clust_9="63.91367"></scales>
<clustering>
<clus scale="   63.914">  2  9  1 -1</clus>
<clus scale="   80.977">  5  6 -1 -1</clus>
<clus scale="   85.018">  2  5  1 -1</clus>
<clus scale="   93.178">  7  8 -1 -1</clus>
<clus scale="   63.914">  2  5  1 -1</clus>
</clustering>
</event>
<event>
 9    2  0.4653788E-005  0.1471321E+03  0.7546771E-02  0.1234543E+00
          2   -1    0    0  502    0 -0.00000000000E+00  0.00000000000E+00  0.37935627358E+03  0.37935627358E+03  0.00000000000E+00 0. -1.
         21   -1    0    0  501  502  0.00000000000E+00 -0.00000000000E+00 -0.19796123528E+03  0.19796123528E+03  0.00000000000E+00 0. -1.
         24    2    1    2    0    0 -0.22757424365E+02 -0.28828146308E+01 -0.73223486714E+02  0.10660720962E+03  0.74008155984E+02 0.  0.
         23    2    1    2    0    0 -0.21965906986E+02  0.10914834664E+03  0.31057478990E+03  0.34255553640E+03  0.92150598224E+02 0.  0.
        -13    1    3    3    0    0 -0.29939267000E+02 -0.30140522047E+01  0.28225440365E+01  0.30222689722E+02  0.00000000000E+00 0.  1.
         14    1    3    3    0    0  0.71818426351E+01  0.13123757397E+00 -0.76046030751E+02  0.76384519897E+02  0.00000000000E+00 0. -1.
        -11    1    4    4    0    0  0.28430218810E+02  0.77030963082E+02  0.14657319196E+03  0.16800519996E+03  0.00000000000E+00 0. -1.
         11    1    4    4    0    0 -0.50396125796E+02  0.32117383562E+02  0.16400159794E+03  0.17455033643E+03  0.00000000000E+00 0.  1.
          1    1    1    2  501    0  0.44723331351E+02 -0.10626553201E+03 -0.55956264879E+02  0.12815476285E+03  0.00000000000E+00 0. -1.
<scales pt_clust_5="13000.00000" pt_clust_6="13000.00000" pt_clust_7="13000.00000" pt_clust_8="13000.00000" pt_clust_9="114.70013"></scales>
<clustering>
<clus scale="   74.008">  5  6 -1 -1</clus>
<clus scale="   77.482">  1  5  2 -1</clus>
<clus scale="   92.151">  7  8 -1 -1</clus>
<clus scale="  114.700">  2  9  1 -1</clus>
<clus scale="  114.700">  2  5  1 -1</clus>
</clustering>
</event>
<event>
 9    2  0.4653788E-005  0.1129265E+03  0.7546771E-02  0.1275356E+00
         21   -1    0    0  501  502  0.00000000000E+00  0.00000000000E+00  0.72929945559E+02  0.72929945559E+02  0.00000000000E+00 0.  1.
          2   -1    0    0  502    0 -0.00000000000E+00 -0.00000000000E+00 -0.24135486361E+03  0.24135486361E+03  0.00000000000E+00 0. -1.
         24    2    1    2    0    0  0.28675555677E+02  0.36531497964E+02 -0.35532506873E+02  0.84177398448E+02  0.60551115002E+02 0.  0.
         23    2    1    2    0    0  0.32738724064E+02  0.26043334430E+02 -0.75271958612E+02  0.12519106329E+03  0.90867239708E+02 0.  0.
        -11    1    3    3    0    0  0.42770022429E+02  0.36192621212E+02 -0.12870288862E+02  0.57487607222E+02  0.00000000000E+00 0.  1.
         12    1    3    3    0    0 -0.14094466752E+02  0.33887675233E+00 -0.22662218012E+02  0.26689791226E+02  0.00000000000E+00 0. -1.
        -13    1    4    4    0    0  0.33288149735E+02  0.51365796605E+02 -0.78625133275E+02  0.99641645692E+02  0.00000000000E+00 0. -1.
         13    1    4    4    0    0 -0.54942567110E+00 -0.25322462175E+02  0.33531746626E+01  0.25549417596E+02  0.00000000000E+00 0.  1.
          1    1    1    2  501    0 -0.61414279741E+02 -0.62574832394E+02 -0.57620452568E+02  0.10491634744E+03  0.00000000000E+00 0. -1.
<scales pt_clust_5="13000.00000" pt_clust_6="13000.00000" pt_clust_7="13000.00000" pt_clust_8="13000.00000" pt_clust_9="67.04882"></scales>
<clustering>
<clus scale="   60.551">  5  6 -1 -1</clus>
<clus scale="   76.310">  2  5  1 -1</clus>
<clus scale="   67.049">  1  9  2 -1</clus>
<clus scale="   90.867">  7  8 -1 -1</clus>
<clus scale="   67.049">  1  5  2 -1</clus>
</clustering>
</event>
<event>
 9    2  0.4653788E-005  0.8432775E+02  0.7546771E-02  0.1318933E+00
          2   -1    0    0  502    0 -0.00000000000E+00  0.00000000000E+00  0.82518634002E+03  0.82518634002E+03  0.00000000000E+00 0. -1.
         21   -1    0    0  501  502  0.00000000000E+00 -0.00000000000E+00 -0.17348114932E+02  0.17348114932E+02  0.00000000000E+00 0.  1.
         23    2    1    2    0    0  0.71699649698E+01  0.74570066302E+00  0.31819640374E+03  0.32898191379E+03  0.83235712185E+02 0.  0.
         24    2    1    2    0    0 -0.33780939907E+01  0.37949066340E+02  0.17393345103E+03  0.19545909833E+03  0.80621774844E+02 0.  0.
        -11    1    4    4    0    0  0.70177437218E+01  0.51557167625E+02  0.56600523198E+02  0.76883089732E+02  0.00000000000E+00 0.  1.
         12    1    4    4    0    0 -0.10395837713E+02 -0.13608101285E+02  0.11733292783E+03  0.11857600860E+03  0.00000000000E+00 0. -1.
        -13    1    3    3    0    0 -0.67579945261E+01 -0.38833002633E+02  0.11713243061E+03  0.12358672617E+03  0.00000000000E+00 0.  1.
         13    1    3    3    0    0  0.13927959496E+02  0.39578703296E+02  0.20106397313E+03  0.20539518762E+03  0.00000000000E+00 0. -1.
          1    1    1    2  501    0 -0.37918709790E+01 -0.38694767003E+02  0.31570837032E+03  0.31809344283E+03  0.00000000000E+00 0. -1.
<scales pt_clust_5="13000.00000" pt_clust_6="13000.00000" pt_clust_7="13000.00000" pt_clust_8="13000.00000" pt_clust_9="38.88013"></scales>
<clustering>
<clus scale="   38.880">  2  9  1 -1</clus>
<clus scale="   80.622">  5  6 -1 -1</clus>
<clus scale="   81.749">  2  5  1 -1</clus>
<clus scale="   83.236">  7  8 -1 -1</clus>
<clus scale="   38.880">  2  5  1 -1</clus>
</clustering>
</event>
<event>
 9    2  0.4653788E-005  0.1142784E+03  0.7546771E-02  0.1256738E+00
          4   -1    0    0  502    0 -0.00000000000E+00  0.00000000000E+00  0.21494912411E+03  0.21494912411E+03  0.00000000000E+00 0. -1.
         21   -1    0    0  501  502  0.00000000000E+00 -0.00000000000E+00 -0.37829937382E+03  0.37829937382E+03  0.00000000000E+00 0.  1.
         23    2    1    2    0    0  0.69226554817E+02  0.34589848499E+01  0.18294133763E+03  0.21619599064E+03  0.92026587946E+02 0.  0.
         24    2    1    2    0    0 -0.37036248628E+02  0.63443926362E+01 -0.32529889718E+03  0.33739125336E+03  0.81249924995E+02 0.  0.
        -11    1    4    4    0    0 -0.37570261497E+02  0.32739769825E+02 -0.28425052017E+03  0.28858581963E+03  0.00000000000E+00 0.  1.
         12    1    4    4    0    0  0.53401286894E+00 -0.26395377189E+02 -0.41048377009E+02  0.48805433732E+02  0.00000000000E+00 0. -1.
        -13    1    3    3    0    0 -0.21751365717E+02 -0.48331944177E+01  0.23133646991E+02  0.32119266834E+02  0.00000000000E+00 0.  1.
         13    1    3    3    0    0  0.90977920534E+02  0.82921792676E+01  0.15980769064E+03  0.18407672381E+03  0.00000000000E+00 0. -1.
          3    1    1    2  501    0 -0.32190306189E+02 -0.98033774861E+01 -0.20992690160E+02  0.39661253924E+02  0.00000000000E+00 0. -1.
<scales pt_clust_5="13000.00000" pt_clust_6="13000.00000" pt_clust_7="13000.00000" pt_clust_8="13000.00000" pt_clust_9="33.64999"></scales>
<clustering>
<clus scale="   33.650">  2  9  1 -1</clus>
<clus scale="   81.250">  5  6 -1 -1</clus>
<clus scale="   92.027">  7  8 -1 -1</clus>
<clus scale="  105.793">  2  5  1 -1</clus>
<clus scale="   33.650">  2  5  1 -1</clus>
</clustering>
</event>
<event>
 9    2  0.4653788E-005  0.1185079E+03  0.7546771E-02  0.1250371E+00
         21   -1    0    0  501  502  0.00000000000E+00  0.00000000000E+00  0.11139495677E+03  0.11139495677E+03  0.00000000000E+00 0. -1.
          2   -1    0    0  502    0 -0.00000000000E+00 -0.00000000000E+00 -0.66244290459E+03  0.66244290459E+03  0.00000000000E+00 0. -1.
         24    2    1    2    0    0  0.43731165563E+02  0.47687650312E+02 -0.42507649130E+03  0.43724005427E+03  0.79387119641E+02 0.  0.
         23    2    1    2    0    0 -0.56306255248E+02 -0.83870292762E+02 -0.20605147001E+03  0.24782773862E+03  0.93577557952E+02 0.  0.
        -11    1    3    3    0    0 -0.19760254832E+02  0.14038201132E+02 -0.52882120907E+02  0.58172652283E+02  0.00000000000E+00 0.  1.
         12    1    3    3    0    0  0.63491420395E+02  0.33649449181E+02 -0.37219437040E+03  0.37906740199E+03  0.00000000000E+00 0. -1.
        -13    1    4    4    0    0  0.20063365240E+01 -0.39063048412E+02 -0.12958796172E+02  0.41205309557E+02  0.00000000000E+00 0.  1.
         13    1    4    4    0    0 -0.58312591772E+02 -0.44807244350E+02 -0.19309267383E+03  0.20662242907E+03  0.00000000000E+00 0. -1.
          1    1    1    2  501    0  0.12575089685E+02  0.36182642450E+02  0.80080013485E+02  0.88770068464E+02  0.00000000000E+00 0. -1.
<scales pt_clust_5="13000.00000" pt_clust_6="13000.00000" pt_clust_7="13000.00000" pt_clust_8="13000.00000" pt_clust_9="38.30557"></scales>
<clustering>
<clus scale="   38.306">  1  9  2 -1</clus>
<clus scale="   79.387">  5  6 -1 -1</clus>
<clus scale="   93.578">  7  8 -1 -1</clus>
<clus scale="  107.655">  2  5  1 -1</clus>
<clus scale="   38.306">  1  5  2 -1</clus>
</clustering>
</event>
<event>
 9    2  0.4653788E-005  0.1590262E+03  0.7546771E-02  0.1213443E+00
          2   -1    0    0  502    0 -0.00000000000E+00  0.00000000000E+00  0.35135129595E+03  0.35135129595E+03  0.00000000000E+00 0. -1.
         21   -1    0    0  501  502  0.00000000000E+00 -0.00000000000E+00 -0.28676103558E+03  0.28676103558E+03  0.00000000000E+00 0. -1.
         23    2    1    2    0    0 -0.26562031762E+02  0.66740989210E+01  0.23448565251E+03  0.25310830321E+03  0.91269966528E+02 0.  0.
         24    2    1    2    0    0  0.23069312155E+02 -0.14631168937E+03 -0.16272174969E+00  0.16518584173E+03  0.73123404058E+02 0.  0.
        -11    1    4    4    0    0 -0.61305356877E+01 -0.25907229340E+02 -0.27538079653E+02  0.38302921962E+02  0.00000000000E+00 0.  1.
         12    1    4    4    0    0  0.29199847843E+02 -0.12040446003E+03  0.27375357903E+02  0.12688291977E+03  0.00000000000E+00 0. -1.
        -13    1    3    3    0    0  0.30152823809E+02  0.19828441352E+02  0.72666722788E+02  0.81134533158E+02  0.00000000000E+00 0.  1.
         13    1    3    3    0    0 -0.56714855571E+02 -0.13154342431E+02  0.16181892972E+03  0.17197377005E+03  0.00000000000E+00 0. -1.
          1    1    1    2  501    0  0.34927196071E+01  0.13963759045E+03 -0.16973267039E+03  0.21981818659E+03  0.00000000000E+00 0. -1.
<scales pt_clust_5="13000.00000" pt_clust_6="13000.00000" pt_clust_7="13000.00000" pt_clust_8="13000.00000" pt_clust_9="141.21724"></scales>
<clustering>
<clus scale="   73.123">  5  6 -1 -1</clus>
<clus scale="   91.270">  7  8 -1 -1</clus>
<clus scale="   95.291">  1  7  2 -1</clus>
<clus scale="  141.217">  2  9  1 -1</clus>
<clus scale="  141.217">  2  5  1 -1</clus>
</clustering>
</event>
<event>
 9    2  0.4653788E-005  0.8011377E+02  0.7546771E-02  0.1329645E+00
         -1   -1    0    0    0  501 -0.00000000000E+00  0.00000000000E+00  0.16420133800E+03  0.16420133800E+03  0.00000000000E+00 0.  1.
         21   -1    0    0  501  502  0.00000000000E+00 -0.00000000000E+00 -0.18346788807E+03  0.18346788807E+03  0.00000000000E+00 0. -1.
         24    2    1    2    0    0  0.11624469785E+02  0.15197880565E+02  0.11537294546E+03  0.13992463274E+03  0.76823710100E+02 0.  0.
         23    2    1    2    0    0 -0.40747155458E+02  0.35058969971E+02 -0.56553622343E+02  0.11042406396E+03  0.78138976490E+02 0.  0.
        -13    1    3    3    0    0  0.22347324063E+02 -0.15823371882E+02  0.99999093347E+02  0.10368028096E+03  0.00000000000E+00 0.  1.
         14    1    3    3    0    0 -0.10722854278E+02  0.31021252447E+02  0.15373852110E+02  0.36244351780E+02  0.00000000000E+00 0. -1.
        -11    1    4    4    0    0  0.20927839445E+02  0.21798370329E+02 -0.93415889555E+01  0.31629238010E+02  0.00000000000E+00 0.  1.
         11    1    4    4    0    0 -0.61674994903E+02  0.13260599641E+02 -0.47212033387E+02  0.78794825945E+02  0.00000000000E+00 0. -1.
         -2    1    1    2    0  502  0.29122685673E+02 -0.50256850536E+02 -0.78085873187E+02  0.97320529376E+02  0.00000000000E+00 0.  1.
<scales pt_clust_5="13000.00000" pt_clust_6="13000.00000" pt_clust_7="13000.00000" pt_clust_8="13000.00000" pt_clust_9="58.08513"></scales>
<clustering>
<clus scale="   58.085">  2  9  1 -1</clus>
<clus scale="   76.824">  5  6 -1 -1</clus>
<clus scale="   78.139">  7  8 -1 -1</clus>
<clus scale="   78.831">  1  5  2 -1</clus>
<clus scale="   58.085">  2  5  1 -1</clus>
</clustering>
</event>
<event>
 9    2  0.4653788E-005  0.1607527E+03  0.7546771E-02  0.1193648E+00
         21   -1    0    0  501  502  0.00000000000E+00  0.00000000000E+00  0.15369466453E+03  0.15369466453E+03  0.00000000000E+00 0.  1.
          2   -1    0    0  502    0 -0.00000000000E+00 -0.00000000000E+00 -0.39139279062E+03  0.39139279062E+03  0.00000000000E+00 0. -1.
         24    2    1    2    0    0  0.68102279648E+02 -0.82555282200E+02 -0.19009527910E+03  0.23155239626E+03  0.77633768187E+02 0.  0.
         23    2    1    2    0    0 -0.59659526497E+02  0.17319450685E+03 -0.53601382133E+01  0.21317971240E+03  0.10890942288E+03 0.  0.
        -11    1    3    3    0    0  0.55585210989E+02 -0.97580731188E+02 -0.16758645457E+03  0.20173481240E+03  0.00000000000E+00 0.  1.
         12    1    3    3    0    0  0.12517068659E+02  0.15025448987E+02 -0.22508824535E+02  0.29817583856E+02  0.00000000000E+00 0. -1.
        -11    1    4    4    0    0 -0.42679172900E+02  0.15798862217E+03  0.34512821246E+02  0.16725146147E+03  0.00000000000E+00 0.  1.
         11    1    4    4    0    0 -0.16980353597E+02  0.15205884684E+02 -0.39872959460E+02  0.45928250929E+02  0.00000000000E+00 0. -1.
          1    1    1    2  501    0 -0.84427531511E+01 -0.90639224652E+02 -0.42242708775E+02  0.10035534650E+03  0.00000000000E+00 0. -1.
<scales pt_clust_5="13000.00000" pt_clust_6="13000.00000" pt_clust_7="13000.00000" pt_clust_8="13000.00000" pt_clust_9="91.03158"></scales>
<clustering>
<clus scale="   77.634">  5  6 -1 -1</clus>
<clus scale="   91.032">  1  9  2 -1</clus>
<clus scale="  108.909">  7  8 -1 -1</clus>
<clus scale="  141.447">  2  5  1 -1</clus>
<clus scale="   91.032">  1  5  2 -1</clus>
</clustering>
</event>
<event>
 9    2  0.4653788E-005  0.9609030E+02  0.7546771E-02  0.1297574E+00
          2   -1    0    0  502    0 -0.00000000000E+00  0.00000000000E+00  0.11531102115E+03  0.11531102115E+03  0.00000000000E+00 0. -1.
         21   -1    0    0  501  502  0.00000000000E+00 -0.00000000000E+00 -0.37002426372E+03  0.37002426372E+03  0.00000000000E+00 0. -1.
         24    2    1    2    0    0 -0.24363068971E+02  0.19180852737E+02  0.76101002854E+02  0.11305444211E+03  0.77643286920E+02 0.  0.
         23    2    1    2    0    0 -0.10154801788E+02  0.13345113591E+02 -0.10338785216E+03  0.13996169538E+03  0.92838656512E+02 0.  0.
        -11    1    3    3    0    0  0.24604967868E+02  0.19916419485E+02  0.15823888448E+02  0.35390163245E+02  0.00000000000E+00 0.  1.
         12    1    3    3    0    0 -0.48968036839E+02 -0.73556674804E+00  0.60277114406E+02  0.77664278864E+02  0.00000000000E+00 0. -1.
        -13    1    4    4    0    0  0.28210354237E+02  0.27155555712E+02 -0.88108806252E+02  0.96417892693E+02  0.00000000000E+00 0.  1.
         13    1    4    4    0    0 -0.38365156025E+02 -0.13810442120E+02 -0.15279045905E+02  0.43543802684E+02  0.00000000000E+00 0. -1.
          1    1    1    2  501    0  0.34517870759E+02 -0.32525966328E+02 -0.22742639327E+03  0.23231914739E+03  0.00000000000E+00 0. -1.
<scales pt_clust_5="13000.00000" pt_clust_6="13000.00000" pt_clust_7="13000.00000" pt_clust_8="13000.00000" pt_clust_9="47.42807"></scales>
<clustering>
<clus scale="   47.428">  2  9  1 -1</clus>
<clus scale="   77.643">  5  6 -1 -1</clus>
<clus scale="   81.503">  1  5  2 -1</clus>
<clus scale="   92.839">  7  8 -1 -1</clus>
<clus scale="   47.428">  2  5  1 -1</clus>
</clustering>
</event>
<event>
 9    2  0.4653788E-005  0.1343563E+03  0.7546771E-02  0.1238954E+00
         21   -1    0    0  501  502  0.00000000000E+00  0.00000000000E+00  0.46953232897E+02  0.46953232897E+02  0.00000000000E+00 0. -1.
          4   -1    0    0  502    0 -0.00000000000E+00 -0.00000000000E+00 -0.11861538576E+04  0.11861538576E+04  0.00000000000E+00 0. -1.
         24    2    1    2    0    0  0.41262914015E+02  0.22929933505E+02 -0.55480884604E+02  0.10828208625E+03  0.80115365083E+02 0.  0.
         23    2    1    2    0    0 -0.34189506462E+02  0.90212377735E+02 -0.24639257255E+03  0.27985873202E+03  0.91128561005E+02 0.  0.
        -13    1    3    3    0    0 -0.18310212829E+02  0.26761431044E+02 -0.26730663029E+02  0.42023403376E+02  0.00000000000E+00 0.  1.
         14    1    3    3    0    0  0.59573126844E+02 -0.38314975387E+01 -0.28750221575E+02  0.66258682872E+02  0.00000000000E+00 0. -1.
        -11    1    4    4    0    0  0.21060107826E+02  0.18782320412E+02 -0.16088373092E+02  0.32482910129E+02  0.00000000000E+00 0.  1.
         11    1    4    4    0    0 -0.55249614287E+02  0.71430057324E+02 -0.23030419945E+03  0.24737582189E+03  0.00000000000E+00 0. -1.
          3    1    1    2  501    0 -0.70734075529E+01 -0.11314231124E+03 -0.83732716753E+03  0.84496627221E+03  0.00000000000E+00 0. -1.
<scales pt_clust_5="13000.00000" pt_clust_6="13000.00000" pt_clust_7="13000.00000" pt_clust_8="13000.00000" pt_clust_9="98.72797"></scales>
<clustering>
<clus scale="   80.115">  5  6 -1 -1</clus>
<clus scale="   91.129">  7  8 -1 -1</clus>
<clus scale="   92.989">  2  5  1 -1</clus>
<clus scale="   98.728">  1  9  2 -1</clus>
<clus scale="   98.728">  1  5  2 -1</clus>
</clustering>
</event>
<event>
 9    2  0.4653788E-005  0.1067641E+03  0.7546771E-02  0.1269470E+00
         -3   -1    0    0    0  501 -0.00000000000E+00  0.00000000000E+00  0.53376572666E+03  0.53376572666E+03  0.00000000000E+00 0.  1.
         21   -1    0    0  501  502  0.00000000000E+00 -0.00000000000E+00 -0.10715721969E+03  0.10715721969E+03  0.00000000000E+00 0. -1.
         24    2    1    2    0    0  0.41510457970E+02 -0.41492130821E+02  0.44429579949E+03  0.45548909338E+03  0.81405415684E+02 0.  0.
         23    2    1    2    0    0 -0.77961634134E+02  0.38040905018E+02 -0.52926441336E+02  0.13461656445E+03  0.88290907687E+02 0.  0.
        -11    1    3    3    0    0  0.16800809844E+02 -0.40341758964E+02  0.87199459181E+02  0.97537020711E+02  0.00000000000E+00 0.  1.
         12    1    3    3    0    0  0.24709648126E+02 -0.11503718572E+01  0.35709634031E+03  0.35795207267E+03  0.00000000000E+00 0. -1.
        -11    1    4    4    0    0 -0.10774948030E+02  0.30984862836E+02  0.17370839486E+02  0.37120173685E+02  0.00000000000E+00 0.  1.
         11    1    4    4    0    0 -0.67186686104E+02  0.70560421823E+01 -0.70297280823E+02  0.97496390764E+02  0.00000000000E+00 0. -1.
         -4    1    1    2    0  502  0.36451176164E+02  0.34512258033E+01  0.35239148816E+02  0.50817288521E+02  0.00000000000E+00 0.  1.
<scales pt_clust_5="13000.00000" pt_clust_6="13000.00000" pt_clust_7="13000.00000" pt_clust_8="13000.00000" pt_clust_9="36.61421"></scales>
<clustering>
<clus scale="   36.614">  2  9  1 -1</clus>
<clus scale="   81.405">  5  6 -1 -1</clus>
<clus scale="   88.291">  7  8 -1 -1</clus>
<clus scale="  101.144">  1  5  2 -1</clus>
<clus scale="   36.614">  2  5  1 -1</clus>
</clustering>
</event>
<event>
 9    2  0.4653788E-005  0.1042892E+03  0.7546771E-02  0.1276508E+00
          2   -1    0    0  502    0 -0.00000000000E+00  0.00000000000E+00  0.13366607583E+03  0.13366607583E+03  0.00000000000E+00 0. -1.
         21   -1    0    0  501  502  0.00000000000E+00 -0.00000000000E+00 -0.11101838934E+03  0.11101838934E+03  0.00000000000E+00 0.  1.
         24    2    1    2    0    0  0.23905735296E-01 -0.27790589751E+02  0.51044486433E+02  0.10795175330E+03  0.90971006342E+02 0.  0.
         23    2    1    2    0    0  0.26202115622E+02  0.19746665965E+02 -0.19032703408E+02  0.10774659088E+03  0.10084940440E+03 0.  0.
        -13    1    3    3    0    0 -0.21710685491E+02  0.17473347654E+02 -0.93639196826E+01  0.29399910452E+02  0.00000000000E+00 0.  1.
         14    1    3    3    0    0  0.21734591227E+02 -0.45263937405E+02  0.60408406116E+02  0.78551842847E+02  0.00000000000E+00 0. -1.
        -11    1    4    4    0    0  0.40003766053E+02 -0.20796783819E+02  0.20439220959E+02  0.49503224835E+02  0.00000000000E+00 0. -1.
         11    1    4    4    0    0 -0.13801650431E+02  0.40543449785E+02 -0.39471924367E+02  0.58243366045E+02  0.00000000000E+00 0.  1.
          1    1    1    2  501    0 -0.26226021358E+02  0.80439237860E+01 -0.93640965378E+01  0.28986120991E+02  0.00000000000E+00 0. -1.
<scales pt_clust_5="13000.00000" pt_clust_6="13000.00000" pt_clust_7="13000.00000" pt_clust_8="13000.00000" pt_clust_9="27.43190"></scales>
<clustering>
<clus scale="   27.432">  2  9  1 -1</clus>
<clus scale="   90.971">  5  6 -1 -1</clus>
<clus scale="   94.770">  1  5  2 -1</clus>
<clus scale="  100.849">  7  8 -1 -1</clus>
<clus scale="   27.432">  2  5  1 -1</clus>
</clustering>
</event>
<event>
 9    2  0.4653788E-005  0.1044352E+03  0.7546771E-02  0.1274254E+00
          4   -1    0    0  502    0 -0.00000000000E+00  0.00000000000E+00  0.26805806951E+03  0.26805806951E+03  0.00000000000E+00 0. -1.
         21   -1    0    0  501  502  0.00000000000E+00 -0.00000000000E+00 -0.11647034040E+03  0.11647034040E+03  0.00000000000E+00 0.  1.
         23    2    1    2    0    0 -0.49158566074E+02  0.25813442820E+02  0.21943375149E+03  0.24331200961E+03  0.89256172198E+02 0.  0.
         24    2    1    2    0    0  0.51104473042E+02  0.26256691090E+00 -0.46415285636E+02  0.10740780206E+03  0.82281960947E+02 0.  0.
        -11    1    4    4    0    0  0.70184701111E+02  0.15979602961E+02 -0.31817916662E+02  0.78699554011E+02  0.00000000000E+00 0.  1.
         12    1    4    4    0    0 -0.19080228068E+02 -0.15717036050E+02 -0.14597368974E+02  0.28708248053E+02  0.00000000000E+00 0. -1.
        -13    1    3    3    0    0 -0.34348756799E+01  0.49939443854E+02  0.13857306565E+03  0.14733716757E+03  0.00000000000E+00 0. -1.
         13    1    3    3    0    0 -0.45723690394E+02 -0.24126001034E+02  0.80860685842E+02  0.95974842037E+02  0.00000000000E+00 0.  1.
          3    1    1    2  501    0 -0.19459069680E+01 -0.26076009731E+02 -0.21430736742E+02  0.33808598236E+02  0.00000000000E+00 0. -1.
<scales pt_clust_5="13000.00000" pt_clust_6="13000.00000" pt_clust_7="13000.00000" pt_clust_8="13000.00000" pt_clust_9="26.14852"></scales>
<clustering>
<clus scale="   26.149">  2  9  1 -1</clus>
<clus scale="   82.282">  5  6 -1 -1</clus>
<clus scale="   89.256">  7  8 -1 -1</clus>
<clus scale="   98.541">  2  5  1 -1</clus>
<clus scale="   26.149">  2  5  1 -1</clus>
</clustering>
</event>
<event>
 9    2  0.4653788E-005  0.9287240E+02  0.7546771E-02  0.1301315E+00
         -1   -1    0    0    0  501 -0.00000000000E+00  0.00000000000E+00  0.27205014235E+03  0.27205014235E+03  0.00000000000E+00 0.  1.
         21   -1    0    0  501  502  0.00000000000E+00 -0.00000000000E+00 -0.32939290936E+03  0.32939290936E+03  0.00000000000E+00 0. -1.
         23    2    1    2    0    0  0.14789556973E+02  0.17215378908E+02  0.24970961034E+03  0.26640017427E+03  0.89994794786E+02 0.  0.
         24    2    1    2    0    0 -0.45335250263E+02  0.30694470348E+01 -0.17692450565E+03  0.19984755009E+03  0.81068219142E+02 0.  0.
        -13    1    4    4    0    0 -0.22000692438E+02 -0.30633373227E+02 -0.32721435455E+02  0.49931216301E+02  0.00000000000E+00 0.  1.
         14    1    4    4    0    0 -0.23334557825E+02  0.33702820261E+02 -0.14420307019E+03  0.14991633378E+03  0.00000000000E+00 0. -1.
        -11    1    3    3    0    0  0.17696440399E+02 -0.24281153000E+02  0.28838995899E+02  0.41646441364E+02  0.00000000000E+00 0. -1.
         11    1    3    3    0    0 -0.29068834264E+01  0.41496531908E+02  0.22087061444E+03  0.22475373291E+03  0.00000000000E+00 0.  1.
         -2    1    1    2    0  502  0.30545693291E+02 -0.20284825942E+02 -0.13012787171E+03  0.13519532735E+03  0.00000000000E+00 0.  1.
<scales pt_clust_5="13000.00000" pt_clust_6="13000.00000" pt_clust_7="13000.00000" pt_clust_8="13000.00000" pt_clust_9="36.66761"></scales>
<clustering>
<clus scale="   36.668">  2  9  1 -1</clus>
<clus scale="   81.068">  5  6 -1 -1</clus>
<clus scale="   84.251">  2  5  1 -1</clus>
<clus scale="   89.995">  7  8 -1 -1</clus>
<clus scale="   36.668">  2  5  1 -1</clus>
</clustering>
</event>
<event>
 9    2  0.4653788E-005  0.9511150E+02  0.7546771E-02  0.1295002E+00
          2   -1    0    0  502    0 -0.00000000000E+00  0.00000000000E+00  0.88391352991E+03  0.88391352991E+03  0.00000000000E+00 0. -1.
         21   -1    0    0  501  502  0.00000000000E+00 -0.00000000000E+00 -0.15955530917E+02  0.15955530917E+02  0.00000000000E+00 0. -1.
         24    2    1    2    0    0  0.22147067521E+02 -0.38798700337E+02  0.43339056242E+03  0.44339869162E+03  0.82335826861E+02 0.  0.
         23    2    1    2    0    0 -0.24876926051E+02  0.49821467107E+00  0.36819542750E+03  0.37979166997E+03  0.89748148025E+02 0.  0.
        -11    1    3    3    0    0 -0.20772844051E+02  0.14394642994E+02  0.11049749498E+03  0.11335084117E+03  0.00000000000E+00 0.  1.
         12    1    3    3    0    0  0.42919911572E+02 -0.53193343331E+02  0.32289306744E+03  0.33004785045E+03  0.00000000000E+00 0. -1.
        -13    1    4    4    0    0 -0.54464424550E+02 -0.16732307547E+02  0.19094054563E+03  0.19926022088E+03  0.00000000000E+00 0.  1.
         13    1    4    4    0    0  0.29587498500E+02  0.17230522218E+02  0.17725488187E+03  0.18053144909E+03  0.00000000000E+00 0. -1.
          1    1    1    2  501    0  0.27298585297E+01  0.38300485666E+02  0.66372009065E+02  0.76678699240E+02  0.00000000000E+00 0. -1.
<scales pt_clust_5="13000.00000" pt_clust_6="13000.00000" pt_clust_7="13000.00000" pt_clust_8="13000.00000" pt_clust_9="38.39765"></scales>
<clustering>
<clus scale="   38.398">  2  9  1 -1</clus>
<clus scale="   82.336">  5  6 -1 -1</clus>
<clus scale="   88.151">  1  5  2 -1</clus>
<clus scale="   89.748">  7  8 -1 -1</clus>
<clus scale="   38.398">  2  5  1 -1</clus>
</clustering>
</event>
<event>
 9    2  0.4653788E-005  0.1019909E+03  0.7546771E-02  0.1280048E+00
         21   -1    0    0  501  502  0.00000000000E+00  0.00000000000E+00  0.25223008322E+03  0.25223008322E+03  0.00000000000E+00 0.  1.
          4   -1    0    0  502    0 -0.00000000000E+00 -0.00000000000E+00 -0.90271459091E+02  0.90271459091E+02  0.00000000000E+00 0. -1.
         23    2    1    2    0    0 -0.76384714851E+02  0.92893087884E+01  0.73902822047E+02  0.13964779495E+03  0.90105291790E+02 0.  0.
         24    2    1    2    0    0  0.12434581883E+02 -0.13093504502E+02  0.10716674680E+03  0.13600077719E+03  0.81764546664E+02 0.  0.
        -11    1    4    4    0    0 -0.29577100642E+02  0.13254294553E+02  0.56289431183E+02  0.64953685572E+02  0.00000000000E+00 0.  1.
         12    1    4    4    0    0  0.42011682525E+02 -0.26347799055E+02  0.50877315616E+02  0.71047091622E+02  0.00000000000E+00 0. -1.
        -11    1    3    3    0    0 -0.18703447431E+02  0.29596396611E+02  0.70125746689E+02  0.78379754956E+02  0.00000000000E+00 0.  1.
         11    1    3    3    0    0 -0.57681267420E+02 -0.20307087823E+02  0.37770753578E+01  0.61268039999E+02  0.00000000000E+00 0. -1.
          3    1    1    2  501    0  0.63950132968E+02  0.38041957139E+01 -0.19110944716E+02  0.66852970163E+02  0.00000000000E+00 0. -1.
<scales pt_clust_5="13000.00000" pt_clust_6="13000.00000" pt_clust_7="13000.00000" pt_clust_8="13000.00000" pt_clust_9="64.06321"></scales>
<clustering>
<clus scale="   64.063">  1  9  2 -1</clus>
<clus scale="   81.765">  5  6 -1 -1</clus>
<clus scale="   90.105">  7  8 -1 -1</clus>
<clus scale="   94.703">  1  5  2 -1</clus>
<clus scale="   64.063">  1  5  2 -1</clus>
</clustering>
</event>
<event>
 9    2  0.4653788E-005  0.1267452E+03  0.7546771E-02  0.1251014E+00
         21   -1    0    0  501  502  0.00000000000E+00  0.00000000000E+00  0.36084202062E+03  0.36084202062E+03  0.00000000000E+00 0.  1.
         -1   -1    0    0    0  501 -0.00000000000E+00 -0.00000000000E+00 -0.73038155792E+02  0.73038155792E+02  0.00000000000E+00 0.  1.
         24    2    1    2    0    0  0.15690389770E+02  0.24273982981E+02  0.25430081734E+02  0.90522839721E+02  0.81928510747E+02 0.  0.
         23    2    1    2    0    0  0.62222623229E+02  0.42875548424E+02  0.15461314526E+03  0.19438803707E+03  0.90396442276E+02 0.  0.
        -13    1    3    3    0    0  0.27226013756E+02 -0.24475772243E+02  0.13550062395E+02  0.39037462044E+02  0.00000000000E+00 0.  1.
         14    1    3    3    0    0 -0.11535623986E+02  0.48749755223E+02  0.11880019338E+02  0.51485377677E+02  0.00000000000E+00 0. -1.
        -13    1    4    4    0    0  0.46448419355E+02  0.70122751836E+02  0.12800481379E+03  0.15316621148E+03  0.00000000000E+00 0.  1.
         13    1    4    4    0    0  0.15774203874E+02 -0.27247203412E+02  0.26608331463E+02  0.41221825588E+02  0.00000000000E+00 0. -1.
         -2    1    1    2    0  502 -0.77913012998E+02 -0.67149531405E+02  0.10776063784E+03  0.14896929962E+03  0.00000000000E+00 0.  1.
<scales pt_clust_5="13000.00000" pt_clust_6="13000.00000" pt_clust_7="13000.00000" pt_clust_8="13000.00000" pt_clust_9="88.84169"></scales>
<clustering>
<clus scale="   81.929">  5  6 -1 -1</clus>
<clus scale="   86.877">  2  5  1 -1</clus>
<clus scale="   88.842">  1  9  2 -1</clus>
<clus scale="   90.396">  7  8 -1 -1</clus>
<clus scale="   88.842">  1  5  2 -1</clus>
</clustering>
</event>
<event>
 9    2  0.4653788E-005  0.1462324E+03  0.7546771E-02  0.1207291E+00
          4   -1    0    0  502    0 -0.00000000000E+00  0.00000000000E+00  0.31131385571E+03  0.31131385571E+03  0.00000000000E+00 0. -1.
         21   -1    0    0  501  502  0.00000000000E+00 -0.00000000000E+00 -0.46895935734E+03  0.46895935734E+03  0.00000000000E+00 0. -1.
         24    2    1    2    0    0 -0.24336605886E+02  0.11966798753E+03  0.23339886453E+03  0.27605008356E+03  0.82558591559E+02 0.  0.
         23    2    1    2    0    0 -0.82530996152E+02 -0.74583191822E+02 -0.66514413129E+02  0.15958852069E+03  0.93114504533E+02 0.  0.
        -11    1    3    3    0    0 -0.24666038372E+02  0.98193000118E+01  0.98856123976E+02  0.10235900229E+03  0.00000000000E+00 0.  1.
         12    1    3    3    0    0  0.32943248549E+00  0.10984868752E+03  0.13454274056E+03  0.17369108127E+03  0.00000000000E+00 0. -1.
        -13    1    4    4    0    0 -0.17014041481E+02 -0.63492005761E+02 -0.23122744681E+00  0.65732532807E+02  0.00000000000E+00 0.  1.
         13    1    4    4    0    0 -0.65516954671E+02 -0.11091186061E+02 -0.66283185682E+02  0.93855987884E+02  0.00000000000E+00 0. -1.
          3    1    1    2  501    0  0.10686760204E+03 -0.45084795713E+02 -0.32452995303E+03  0.34463460880E+03  0.00000000000E+00 0. -1.
<scales pt_clust_5="13000.00000" pt_clust_6="13000.00000" pt_clust_7="13000.00000" pt_clust_8="13000.00000" pt_clust_9="115.98846"></scales>
<clustering>
<clus scale="   82.559">  5  6 -1 -1</clus>
<clus scale="   93.115">  7  8 -1 -1</clus>
<clus scale="  115.988">  2  9  1 -1</clus>
<clus scale="  139.748">  1  5  2 -1</clus>
<clus scale="  115.988">  2  5  1 -1</clus>
</clustering>
</event>
<event>
 9    2  0.4653788E-005  0.1220338E+03  0.7546771E-02  0.1243281E+00
         21   -1    0    0  501  502  0.00000000000E+00  0.00000000000E+00  0.92866482673E+02  0.92866482673E+02  0.00000000000E+00 0. -1.
         -3   -1    0    0    0  501 -0.00000000000E+00 -0.00000000000E+00 -0.23962004556E+03  0.23962004556E+03  0.00000000000E+00 0.  1.
         24    2    1    2    0    0  0.97248497879E+02  0.78055636834E+01 -0.12680139778E+03  0.17799826130E+03  0.78016596851E+02 0.  0.
         23    2    1    2    0    0 -0.59466542340E+02  0.75457100127E+01 -0.30887847213E+02  0.11226591608E+03  0.89757280543E+02 0.  0.
        -11    1    3    3    0    0  0.76786519948E+02 -0.26636077534E+02 -0.10369471182E+03  0.13175068703E+03  0.00000000000E+00 0.  1.
         12    1    3    3    0    0  0.20461977932E+02  0.34441641218E+02 -0.23106685958E+02  0.46247574278E+02  0.00000000000E+00 0. -1.
        -11    1    4    4    0    0 -0.83106711227E+02  0.43241958347E+01 -0.29760991777E+02  0.88380658247E+02  0.00000000000E+00 0. -1.
         11    1    4    4    0    0  0.23640168887E+02  0.32215141780E+01 -0.11268554358E+01  0.23885257834E+02  0.00000000000E+00 0.  1.
         -4    1    1    2    0  502 -0.37781955540E+02 -0.15351273696E+02  0.10935682102E+02  0.42222350853E+02  0.00000000000E+00 0.  1.
<scales pt_clust_5="13000.00000" pt_clust_6="13000.00000" pt_clust_7="13000.00000" pt_clust_8="13000.00000" pt_clust_9="40.78159"></scales>
<clustering>
<clus scale="   40.782">  1  9  2 -1</clus>
<clus scale="   78.017">  5  6 -1 -1</clus>
<clus scale="   89.757">  7  8 -1 -1</clus>
<clus scale="  113.677">  2  5  1 -1</clus>
<clus scale="   40.782">  1  5  2 -1</clus>
</clustering>
</event>
<event>
 9    2  0.4653788E-005  0.1156811E+03  0.7546771E-02  0.1255484E+00
         21   -1    0    0  501  502  0.00000000000E+00  0.00000000000E+00  0.14081966885E+03  0.14081966885E+03  0.00000000000E+00 0.  1.
         -1   -1    0    0    0  501 -0.00000000000E+00 -0.00000000000E+00 -0.30673349099E+03  0.30673349099E+03  0.00000000000E+00 0.  1.
         23    2    1    2    0    0 -0.27323878126E+02  0.65280590499E+02 -0.14893280549E+03  0.19001682566E+03  0.94431264274E+02 0.  0.
         24    2    1    2    0    0  0.66241397234E+02 -0.17677526494E+02  0.86904089724E+02  0.13681872849E+03  0.80415334380E+02 0.  0.
        -13    1    4    4    0    0  0.33013120675E+02 -0.58415081575E+01  0.94902193643E+02  0.10064996628E+03  0.00000000000E+00 0.  1.
         14    1    4    4    0    0  0.33228276559E+02 -0.11836018336E+02 -0.79981039187E+01  0.36168762205E+02  0.00000000000E+00 0. -1.
        -11    1    3    3    0    0  0.56052980336E+01  0.55002251871E+02 -0.14513929799E+03  0.15531285490E+03  0.00000000000E+00 0.  1.
         11    1    3    3    0    0 -0.32929176159E+02  0.10278338628E+02 -0.37935075010E+01  0.34703970762E+02  0.00000000000E+00 0. -1.
         -2    1    1    2    0  502 -0.38917519108E+02 -0.47603064006E+02 -0.10388510637E+03  0.12071760569E+03  0.00000000000E+00 0.  1.
<scales pt_clust_5="13000.00000" pt_clust_6="13000.00000" pt_clust_7="13000.00000" pt_clust_8="13000.00000" pt_clust_9="61.48682"></scales>
<clustering>
<clus scale="   61.487">  1  9  2 -1</clus>
<clus scale="   80.415">  5  6 -1 -1</clus>
<clus scale="   94.431">  7  8 -1 -1</clus>
<clus scale="  104.554">  1  5  2 -1</clus>
<clus scale="   61.487">  1  5  2 -1</clus>
</clustering>
</event>
<event>
 9    2  0.4653788E-005  0.1595509E+03  0.7546771E-02  0.1216867E+00
         21   -1    0    0  501  502  0.00000000000E+00  0.00000000000E+00  0.62420423729E+02  0.62420423729E+02  0.00000000000E+00 0.  1.
          2   -1    0    0  502    0 -0.00000000000E+00 -0.00000000000E+00 -0.88918791268E+03  0.88918791268E+03  0.00000000000E+00 0. -1.
         24    2    1    2    0    0  0.40005006232E+01 -0.11816525307E+01 -0.38963993836E+03  0.39940033468E+03  0.87658116963E+02 0.  0.
         23    2    1    2    0    0  0.35106008101E+02  0.12760209020E+03 -0.95772146838E+02  0.18610015183E+03  0.89141669116E+02 0.  0.
        -13    1    3    3    0    0 -0.17939729043E+02 -0.20805934222E+02 -0.40011578763E+02  0.48535010170E+02  0.00000000000E+00 0.  1.
         14    1    3    3    0    0  0.21940229667E+02  0.19624281692E+02 -0.34962835960E+03  0.35086532451E+03  0.00000000000E+00 0. -1.
        -11    1    4    4    0    0  0.11377055595E+02  0.23133307099E+02  0.16744247144E+02  0.30740154583E+02  0.00000000000E+00 0. -1.
         11    1    4    4    0    0  0.23728952506E+02  0.10446878310E+03 -0.11251639398E+03  0.15535999725E+03  0.00000000000E+00 0.  1.
          1    1    1    2  501    0 -0.39106508724E+02 -0.12642043767E+03 -0.34135540375E+03  0.36610784990E+03  0.00000000000E+00 0. -1.
<scales pt_clust_5="13000.00000" pt_clust_6="13000.00000" pt_clust_7="13000.00000" pt_clust_8="13000.00000" pt_clust_9="132.32635"></scales>
<clustering>
<clus scale="   87.658">  5  6 -1 -1</clus>
<clus scale="   87.757">  2  5  1 -1</clus>
<clus scale="   89.142">  7  8 -1 -1</clus>
<clus scale="  132.326">  1  9  2 -1</clus>
<clus scale="  132.326">  1  5  2 -1</clus>
</clustering>
</event>
<event>
 9    2  0.4653788E-005  0.1240531E+03  0.7546771E-02  0.1239054E+00
         21   -1    0    0  501  502  0.00000000000E+00  0.00000000000E+00  0.23925270438E+03  0.23925270438E+03  0.00000000000E+00 0.  1.
         -3   -1    0    0    0  501 -0.00000000000E+00 -0.00000000000E+00 -0.32472133734E+03  0.32472133734E+03  0.00000000000E+00 0.  1.
         23    2    1    2    0    0  0.46941348998E+02  0.56916164043E+02 -0.20856378847E+03  0.23924603671E+03  0.91087168389E+02 0.  0.
         24    2    1    2    0    0 -0.11929669671E+03 -0.69676410427E+02 -0.21687160444E+02  0.16237025421E+03  0.82506136188E+02 0.  0.
        -13    1    4    4    0    0 -0.98198938054E+02 -0.84052827187E+02 -0.60495277796E+00  0.12926049343E+03  0.00000000000E+00 0.  1.
         14    1    4    4    0    0 -0.21097758659E+02  0.14376416760E+02 -0.21082207666E+02  0.33109760787E+02  0.00000000000E+00 0. -1.
        -13    1    3    3    0    0  0.22805638722E+02  0.80370389564E+02 -0.15060439216E+03  0.17222421321E+03  0.00000000000E+00 0.  1.
         13    1    3    3    0    0  0.24135710277E+02 -0.23454225520E+02 -0.57959396310E+02  0.67021823505E+02  0.00000000000E+00 0. -1.
         -4    1    1    2    0  502  0.72355347715E+02  0.12760246384E+02  0.14478231596E+03  0.16235775080E+03  0.00000000000E+00 0.  1.
<scales pt_clust_5="13000.00000" pt_clust_6="13000.00000" pt_clust_7="13000.00000" pt_clust_8="13000.00000" pt_clust_9="73.47190"></scales>
<clustering>
<clus scale="   73.472">  1  9  2 -1</clus>
<clus scale="   82.506">  5  6 -1 -1</clus>
<clus scale="   91.087">  7  8 -1 -1</clus>
<clus scale="  117.896">  1  5  2 -1</clus>
<clus scale="   73.472">  1  5  2 -1</clus>
</clustering>
</event>
<event>
 9    2  0.4653788E-005  0.9298421E+02  0.7546771E-02  0.1302695E+00
          2   -1    0    0  502    0 -0.00000000000E+00  0.00000000000E+00  0.16080617579E+03  0.16080617579E+03  0.00000000000E+00 0. -1.
         21   -1    0    0  501  502  0.00000000000E+00 -0.00000000000E+00 -0.92244834330E+02  0.92244834330E+02  0.00000000000E+00 0.  1.
         24    2    1    2    0    0  0.16609892974E+02  0.74100080132E+01  0.69708841817E+02  0.10706944095E+03  0.79206980724E+02 0.  0.
         23    2    1    2    0    0 -0.34369929266E+02  0.22922362811E+02 -0.25948989813E+02  0.10296313721E+03  0.90671554508E+02 0.  0.
        -13    1    3    3    0    0  0.22537974206E+02 -0.33155868953E+02  0.30897931834E+02  0.50615749712E+02  0.00000000000E+00 0.  1.
         14    1    3    3    0    0 -0.59280812325E+01  0.40565876966E+02  0.38810909983E+02  0.56453691241E+02  0.00000000000E+00 0. -1.
        -13    1    4    4    0    0  0.18881743442E+02 -0.21279309724E+02 -0.17102114149E+02  0.33193547055E+02  0.00000000000E+00 0. -1.
         13    1    4    4    0    0 -0.53251672708E+02  0.44201672535E+02 -0.88468756638E+01  0.69769590153E+02  0.00000000000E+00 0.  1.
          1    1    1    2  501    0  0.17760036292E+02 -0.30332370825E+02  0.24801489460E+02  0.43018431961E+02  0.00000000000E+00 0. -1.
<scales pt_clust_5="13000.00000" pt_clust_6="13000.00000" pt_clust_7="13000.00000" pt_clust_8="13000.00000" pt_clust_9="35.14929"></scales>
<clustering>
<clus scale="   35.149">  2  9  1 -1</clus>
<clus scale="   79.207">  5  6 -1 -1</clus>
<clus scale="   81.844">  1  5  2 -1</clus>
<clus scale="   90.672">  7  8 -1 -1</clus>
<clus scale="   35.149">  2  5  1 -1</clus>
</clustering>
</event>
<event>
 9    2  0.4653788E-005  0.1246548E+03  0.7546771E-02  0.1238478E+00
          2   -1    0    0  502    0 -0.00000000000E+00  0.00000000000E+00  0.89249496139E+03  0.89249496139E+03  0.00000000000E+00 0. -1.
         21   -1    0    0  501  502  0.00000000000E+00 -0.00000000000E+00 -0.43124798991E+02  0.43124798991E+02  0.00000000000E+00 0. -1.
         24    2    1    2    0    0 -0.91101069707E+02 -0.33405375087E+02  0.69319697894E+03  0.70486500965E+03  0.83050022392E+02 0.  0.
         23    2    1    2    0    0  0.30524171592E+02 -0.39026033641E+01  0.78230271798E+02  0.12522492879E+03  0.92813533505E+02 0.  0.
        -13    1    3    3    0    0 -0.75067411160E+02  0.10294904508E+01  0.27880864370E+03  0.28873939092E+03  0.00000000000E+00 0.  1.
         14    1    3    3    0    0 -0.16033658547E+02 -0.34434865538E+02  0.41438833524E+03  0.41612561872E+03  0.00000000000E+00 0. -1.
        -11    1    4    4    0    0  0.37180403287E+02 -0.43416464743E+02  0.52445290105E+02  0.77574997606E+02  0.00000000000E+00 0. -1.
         11    1    4    4    0    0 -0.66562316956E+01  0.39513861378E+02  0.25784981693E+02  0.47649931189E+02  0.00000000000E+00 0.  1.
          1    1    1    2  501    0  0.60576898115E+02  0.37307978451E+02  0.77942911660E+02  0.10552982194E+03  0.00000000000E+00 0. -1.
<scales pt_clust_5="13000.00000" pt_clust_6="13000.00000" pt_clust_7="13000.00000" pt_clust_8="13000.00000" pt_clust_9="71.14384"></scales>
<clustering>
<clus scale="   71.144">  2  9  1 -1</clus>
<clus scale="   83.050">  5  6 -1 -1</clus>
<clus scale="   92.814">  7  8 -1 -1</clus>
<clus scale="  117.566">  1  5  2 -1</clus>
<clus scale="   71.144">  2  5  1 -1</clus>
</clustering>
</event>
<event>
 9    2  0.4653788E-005  0.1010442E+03  0.7546771E-02  0.1286298E+00
         -1   -1    0    0    0  501 -0.00000000000E+00  0.00000000000E+00  0.90665902699E+02  0.90665902699E+02  0.00000000000E+00 0.  1.
         21   -1    0    0  501  502  0.00000000000E+00 -0.00000000000E+00 -0.16812986660E+03  0.16812986660E+03  0.00000000000E+00 0.  1.
         24    2    1    2    0    0  0.25215267210E+02  0.63850942707E+00 -0.58619512124E+01  0.81915203002E+02  0.77714352703E+02 0.  0.
         23    2    1    2    0    0 -0.55540301614E+02  0.32115678791E+02 -0.33876708275E+02  0.11843706238E+03  0.93613911646E+02 0.  0.
        -13    1    3    3    0    0  0.49318364867E+02  0.13727046930E+02 -0.14416992211E+02  0.53184420604E+02  0.00000000000E+00 0.  1.
         14    1    3    3    0    0 -0.24103097658E+02 -0.13088537503E+02  0.85550409988E+01  0.28730782397E+02  0.00000000000E+00 0. -1.
        -11    1    4    4    0    0 -0.69227589884E+02  0.16365609507E+02 -0.54106236453E+02  0.89374365446E+02  0.00000000000E+00 0.  1.
         11    1    4    4    0    0  0.13687288270E+02  0.15750069285E+02  0.20229528178E+02  0.29062696932E+02  0.00000000000E+00 0. -1.
         -2    1    1    2    0  502  0.30325034404E+02 -0.32754188218E+02 -0.37725304416E+02  0.58443503923E+02  0.00000000000E+00 0.  1.
<scales pt_clust_5="13000.00000" pt_clust_6="13000.00000" pt_clust_7="13000.00000" pt_clust_8="13000.00000" pt_clust_9="44.63681"></scales>
<clustering>
<clus scale="   44.637">  2  9  1 -1</clus>
<clus scale="   77.714">  5  6 -1 -1</clus>
<clus scale="   86.521">  1  5  2 -1</clus>
<clus scale="   93.614">  7  8 -1 -1</clus>
<clus scale="   44.637">  2  5  1 -1</clus>
</clustering>
</event>
<event>
 9    2  0.4653788E-005  0.2105307E+03  0.7546771E-02  0.1142160E+00
          2   -1    0    0  502    0 -0.00000000000E+00  0.00000000000E+00  0.17405074663E+04  0.17405074663E+04  0.00000000000E+00 0. -1.
         21   -1    0    0  501  502  0.00000000000E+00 -0.00000000000E+00 -0.10557197419E+03  0.10557197419E+03  0.00000000000E+00 0. -1.
         24    2    1    2    0    0  0.39442878858E+02 -0.18898504934E+03  0.15175769267E+04  0.15318163834E+04  0.78425853540E+02 0.  0.
         23    2    1    2    0    0 -0.15498125333E+02  0.17052962557E+03  0.16717990593E+03  0.25598681951E+03  0.90882263014E+02 0.  0.
        -13    1    3    3    0    0  0.37658131092E+02 -0.33454240020E+02  0.27893882281E+03  0.28345050341E+03  0.00000000000E+00 0.  1.
         14    1    3    3    0    0  0.17847477667E+01 -0.15553080932E+03  0.12386381039E+04  0.12483658800E+04  0.00000000000E+00 0. -1.
        -11    1    4    4    0    0  0.48236478604E+01  0.17269538097E+03  0.14254077742E+03  0.22397507766E+03  0.00000000000E+00 0.  1.
         11    1    4    4    0    0 -0.20321773194E+02 -0.21657554029E+01  0.24639128508E+02  0.32011741843E+02  0.00000000000E+00 0. -1.
          1    1    1    2  501    0 -0.23944753525E+02  0.18455423770E+02 -0.49821340545E+02  0.58276237538E+02  0.00000000000E+00 0. -1.
<scales pt_clust_5="13000.00000" pt_clust_6="13000.00000" pt_clust_7="13000.00000" pt_clust_8="13000.00000" pt_clust_9="30.23167"></scales>
<clustering>
<clus scale="   30.232">  2  9  1 -1</clus>
<clus scale="   78.426">  5  6 -1 -1</clus>
<clus scale="   90.882">  7  8 -1 -1</clus>
<clus scale="  205.461">  1  5  2 -1</clus>
<clus scale="   30.232">  2  5  1 -1</clus>
</clustering>
</event>
<event>
 9    2  0.4653788E-005  0.9246249E+02  0.7546771E-02  0.1303684E+00
         21   -1    0    0  501  502  0.00000000000E+00  0.00000000000E+00  0.28510167472E+03  0.28510167472E+03  0.00000000000E+00 0. -1.
          2   -1    0    0  502    0 -0.00000000000E+00 -0.00000000000E+00 -0.69317756966E+02  0.69317756966E+02  0.00000000000E+00 0. -1.
         23    2    1    2    0    0  0.26795876200E+02  0.13781167144E+02  0.14405001602E+02  0.97573828773E+02  0.91679923871E+02 0.  0.
         24    2    1    2    0    0  0.40821618149E+02 -0.98325488976E+00  0.11670046431E+03  0.14772936990E+03  0.80855408372E+02 0.  0.
        -13    1    4    4    0    0 -0.20363344451E+02 -0.82951703573E+01  0.60340257982E+02  0.64221665985E+02  0.00000000000E+00 0.  1.
         14    1    4    4    0    0  0.61184962601E+02  0.73119154676E+01  0.56360206329E+02  0.83507703918E+02  0.00000000000E+00 0. -1.
        -13    1    3    3    0    0 -0.28059690974E+02 -0.15845572107E+02  0.14235102339E+02  0.35228774483E+02  0.00000000000E+00 0.  1.
         13    1    3    3    0    0  0.54855567174E+02  0.29626739251E+02  0.16989926256E+00  0.62345054290E+02  0.00000000000E+00 0. -1.
          1    1    1    2  501    0 -0.67617494349E+02 -0.12797912254E+02  0.84678451836E+02  0.10911623301E+03  0.00000000000E+00 0. -1.
<scales pt_clust_5="13000.00000" pt_clust_6="13000.00000" pt_clust_7="13000.00000" pt_clust_8="13000.00000" pt_clust_9="68.81796"></scales>
<clustering>
<clus scale="   68.818">  1  9  2 -1</clus>
<clus scale="   80.855">  5  6 -1 -1</clus>
<clus scale="   81.742">  1  5  2 -1</clus>
<clus scale="   91.680">  7  8 -1 -1</clus>
<clus scale="   68.818">  1  5  2 -1</clus>
</clustering>
</event>
<event>
 9    2  0.4653788E-005  0.1338664E+03  0.7546771E-02  0.1238664E+00
         21   -1    0    0  501  502  0.00000000000E+00  0.00000000000E+00  0.53367104405E+03  0.53367104405E+03  0.00000000000E+00 0.  1.
         -3   -1    0    0    0  501 -0.00000000000E+00 -0.00000000000E+00 -0.56562750415E+03  0.56562750415E+03  0.00000000000E+00 0.  1.
         23    2    1    2    0    0 -0.28032850541E+02  0.25748219367E+02 -0.51652018500E+03  0.52510626679E+03  0.86571810645E+02 0.  0.
         24    2    1    2    0    0 -0.69209259662E+02 -0.73650024306E+02  0.73463748114E+02  0.14904077686E+03  0.81252588745E+02 0.  0.
        -11    1    4    4    0    0 -0.73574560411E+02 -0.21147121414E+02  0.37441330780E+02  0.85218952906E+02  0.00000000000E+00 0.  1.
         12    1    4    4    0    0  0.43653007487E+01 -0.52502902892E+02  0.36022417334E+02  0.63821823958E+02  0.00000000000E+00 0. -1.
        -11    1    3    3    0    0 -0.32401217075E+02  0.55549293061E+02 -0.33806884319E+03  0.34413094247E+03  0.00000000000E+00 0.  1.
         11    1    3    3    0    0  0.43683665345E+01 -0.29801073694E+02 -0.17845134181E+03  0.18097532432E+03  0.00000000000E+00 0. -1.
         -4    1    1    2    0  502  0.97242110203E+02  0.47901804939E+02  0.41109997679E+03  0.42515150456E+03  0.00000000000E+00 0.  1.
<scales pt_clust_5="13000.00000" pt_clust_6="13000.00000" pt_clust_7="13000.00000" pt_clust_8="13000.00000" pt_clust_9="106.38712"></scales>
<clustering>
<clus scale="   81.253">  5  6 -1 -1</clus>
<clus scale="   86.572">  7  8 -1 -1</clus>
<clus scale="   94.570">  2  7  1 -1</clus>
<clus scale="  106.387">  1  9  2 -1</clus>
<clus scale="  106.387">  1  5  2 -1</clus>
</clustering>
</event>
<event>
 9    2  0.4653788E-005  0.9561244E+02  0.7546771E-02  0.1291147E+00
         21   -1    0    0  501  502  0.00000000000E+00  0.00000000000E+00  0.57436920150E+03  0.57436920150E+03  0.00000000000E+00 0. -1.
         -1   -1    0    0    0  501 -0.00000000000E+00 -0.00000000000E+00 -0.44134576349E+02  0.44134576349E+02  0.00000000000E+00 0.  1.
         23    2    1    2    0    0 -0.35081657541E+01 -0.54430657267E+01  0.60713682292E+02  0.10996003448E+03  0.91450116320E+02 0.  0.
         24    2    1    2    0    0 -0.11378052349E+02  0.72891455370E+02  0.35781371768E+03  0.37720681439E+03  0.93870655273E+02 0.  0.
        -11    1    4    4    0    0  0.12776756866E+02  0.22115639676E+02  0.14603748136E+02  0.29421361184E+02  0.00000000000E+00 0.  1.
         12    1    4    4    0    0 -0.24154809216E+02  0.50775815694E+02  0.34320996954E+03  0.34778545321E+03  0.00000000000E+00 0. -1.
        -13    1    3    3    0    0  0.39393816201E+02  0.13312013248E+02  0.14144711068E+02  0.43922150480E+02  0.00000000000E+00 0.  1.
         13    1    3    3    0    0 -0.42901981955E+02 -0.18755078975E+02  0.46568971224E+02  0.66037884005E+02  0.00000000000E+00 0. -1.
         -2    1    1    2    0  502  0.14886218103E+02 -0.67448389643E+02  0.11170722518E+03  0.13133692897E+03  0.00000000000E+00 0.  1.
<scales pt_clust_5="13000.00000" pt_clust_6="13000.00000" pt_clust_7="13000.00000" pt_clust_8="13000.00000" pt_clust_9="69.07163"></scales>
<clustering>
<clus scale="   69.072">  1  9  2 -1</clus>
<clus scale="   91.450">  7  8 -1 -1</clus>
<clus scale="   93.237">  2  7  1 -1</clus>
<clus scale="   93.871">  5  6 -1 -1</clus>
<clus scale="   69.072">  1  5  2 -1</clus>
</clustering>
</event>
<event>
 9    2  0.4653788E-005  0.8384790E+02  0.7546771E-02  0.1320249E+00
         -1   -1    0    0    0  501 -0.00000000000E+00  0.00000000000E+00  0.53140983134E+02  0.53140983134E+02  0.00000000000E+00 0.  1.
         21   -1    0    0  501  502  0.00000000000E+00 -0.00000000000E+00 -0.23480524391E+03  0.23480524391E+03  0.00000000000E+00 0. -1.
         23    2    1    2    0    0  0.25149178607E+02  0.15739105272E+02 -0.44156534621E+02  0.96624007575E+02  0.80661010846E+02 0.  0.
         24    2    1    2    0    0  0.42345607866E+00 -0.13924796207E+02 -0.14448470796E+03  0.16475288306E+03  0.77933320078E+02 0.  0.
        -13    1    4    4    0    0 -0.29219819294E+02  0.18299948842E+02 -0.51505229544E+02  0.61979630827E+02  0.00000000000E+00 0.  1.
         14    1    4    4    0    0  0.29643275372E+02 -0.32224745049E+02 -0.92979478413E+02  0.10277325223E+03  0.00000000000E+00 0. -1.
        -11    1    3    3    0    0  0.20553329547E+02 -0.47697668411E+01  0.20024656905E+02  0.29089120223E+02  0.00000000000E+00 0.  1.
         11    1    3    3    0    0  0.45958490604E+01  0.20508872113E+02 -0.64181191526E+02  0.67534887352E+02  0.00000000000E+00 0. -1.
         -2    1    1    2    0  502 -0.25572634686E+02 -0.18143090655E+01  0.69769818019E+01  0.26569336409E+02  0.00000000000E+00 0.  1.
<scales pt_clust_5="13000.00000" pt_clust_6="13000.00000" pt_clust_7="13000.00000" pt_clust_8="13000.00000" pt_clust_9="25.63693"></scales>
<clustering>
<clus scale="   25.637">  2  9  1 -1</clus>
<clus scale="   77.933">  5  6 -1 -1</clus>
<clus scale="   80.661">  7  8 -1 -1</clus>
<clus scale="   81.227">  2  5  1 -1</clus>
<clus scale="   25.637">  2  5  1 -1</clus>
</clustering>
</event>
<event>
 9    2  0.4653788E-005  0.1038636E+03  0.7546771E-02  0.1278603E+00
          4   -1    0    0  502    0 -0.00000000000E+00  0.00000000000E+00  0.32041681710E+03  0.32041681710E+03  0.00000000000E+00 0. -1.
         21   -1    0    0  501  502  0.00000000000E+00 -0.00000000000E+00 -0.16951505981E+03  0.16951505981E+03  0.00000000000E+00 0.  1.
         24    2    1    2    0    0  0.33576967921E+02 -0.22330510668E+02  0.15208866284E+03  0.17649098270E+03  0.79950241574E+02 0.  0.
         23    2    1    2    0    0 -0.95013012935E+02  0.60214570846E+02 -0.11000625076E+03  0.18286049930E+03  0.93184332532E+02 0.  0.
        -11    1    3    3    0    0 -0.24294817439E+02 -0.13651360681E+01  0.68435008151E+02  0.72632307491E+02  0.00000000000E+00 0.  1.
         12    1    3    3    0    0  0.57871785360E+02 -0.20965374600E+02  0.83653654686E+02  0.10385867520E+03  0.00000000000E+00 0. -1.
        -13    1    4    4    0    0 -0.56959389277E+02 -0.12050438276E+02 -0.20577216001E+02  0.61749549860E+02  0.00000000000E+00 0. -1.
         13    1    4    4    0    0 -0.38053623658E+02  0.72265009122E+02 -0.89429034759E+02  0.12111094944E+03  0.00000000000E+00 0.  1.
          3    1    1    2  501    0  0.61436045015E+02 -0.37884060178E+02  0.10881934522E+03  0.13058039491E+03  0.00000000000E+00 0. -1.
<scales pt_clust_5="13000.00000" pt_clust_6="13000.00000" pt_clust_7="13000.00000" pt_clust_8="13000.00000" pt_clust_9="72.17752"></scales>
<clustering>
<clus scale="   72.178">  2  9  1 -1</clus>
<clus scale="   79.950">  5  6 -1 -1</clus>
<clus scale="   92.176">  1  5  2 -1</clus>
<clus scale="   93.184">  7  8 -1 -1</clus>
<clus scale="   72.178">  2  5  1 -1</clus>
</clustering>
</event>
<event>
 9    2  0.4653788E-005  0.1011825E+03  0.7546771E-02  0.1282051E+00
          2   -1    0    0  502    0 -0.00000000000E+00  0.00000000000E+00  0.46134618315E+03  0.46134618315E+03  0.00000000000E+00 0. -1.
         21   -1    0    0  501  502  0.00000000000E+00 -0.00000000000E+00 -0.52680634455E+02  0.52680634455E+02  0.00000000000E+00 0.  1.
         24    2    1    2    0    0 -0.15155426361E+02 -0.41089487879E+02  0.27589351514E+03  0.29078039877E+03  0.80733980773E+02 0.  0.
         23    2    1    2    0    0  0.20607925229E+02  0.62043976229E+02  0.25554017111E+02  0.11386395508E+03  0.89654062418E+02 0.  0.
        -13    1    3    3    0    0 -0.20472731298E+01  0.23194340375E+02  0.10890477689E+03  0.11136614917E+03  0.00000000000E+00 0.  1.
         14    1    3    3    0    0 -0.13108153231E+02 -0.64283828254E+02  0.16698873825E+03  0.17941424959E+03  0.00000000000E+00 0. -1.
        -13    1    4    4    0    0 -0.34614498658E+02  0.20836146352E+02  0.19010950801E+02  0.44651145143E+02  0.00000000000E+00 0. -1.
         13    1    4    4    0    0  0.55222423887E+02  0.41207829877E+02  0.65430663097E+01  0.69212809940E+02  0.00000000000E+00 0.  1.
          1    1    1    2  501    0 -0.54524988678E+01 -0.20954488349E+02  0.10721801645E+03  0.10938246376E+03  0.00000000000E+00 0. -1.
<scales pt_clust_5="13000.00000" pt_clust_6="13000.00000" pt_clust_7="13000.00000" pt_clust_8="13000.00000" pt_clust_9="21.65227"></scales>
<clustering>
<clus scale="   21.652">  2  9  1 -1</clus>
<clus scale="   80.734">  5  6 -1 -1</clus>
<clus scale="   89.654">  7  8 -1 -1</clus>
<clus scale="   93.370">  1  5  2 -1</clus>
<clus scale="   21.652">  2  5  1 -1</clus>
</clustering>
</event>
<event>
 9    2  0.4653788E-005  0.1076617E+03  0.7546771E-02  0.1268546E+00
         21   -1    0    0  501  502  0.00000000000E+00  0.00000000000E+00  0.41895314117E+03  0.41895314117E+03  0.00000000000E+00 0. -1.
         -1   -1    0    0    0  501 -0.00000000000E+00 -0.00000000000E+00 -0.66146071596E+02  0.66146071596E+02  0.00000000000E+00 0.  1.
         23    2    1    2    0    0  0.31038351166E+02  0.42507984658E+02  0.14481089977E+02  0.10531413563E+03  0.90061407901E+02 0.  0.
         24    2    1    2    0    0 -0.62524257109E+02 -0.68076738883E+02  0.29878524091E+03  0.32314062920E+03  0.81262051133E+02 0.  0.
        -11    1    4    4    0    0 -0.44918298806E+01 -0.23658483624E+02  0.11463349914E+02  0.26670372594E+02  0.00000000000E+00 0.  1.
         12    1    4    4    0    0 -0.58032427228E+02 -0.44418255258E+02  0.28732189099E+03  0.29647025661E+03  0.00000000000E+00 0. -1.
        -13    1    3    3    0    0  0.38381962174E+02 -0.18462004232E+02  0.19365610969E+01  0.42635324432E+02  0.00000000000E+00 0. -1.
         13    1    3    3    0    0 -0.73436110082E+01  0.60969988890E+02  0.12544528880E+02  0.62678811194E+02  0.00000000000E+00 0.  1.
         -2    1    1    2    0  502  0.31485905943E+02  0.25568754224E+02  0.39540738689E+02  0.56644447934E+02  0.00000000000E+00 0.  1.
<scales pt_clust_5="13000.00000" pt_clust_6="13000.00000" pt_clust_7="13000.00000" pt_clust_8="13000.00000" pt_clust_9="40.56014"></scales>
<clustering>
<clus scale="   40.560">  1  9  2 -1</clus>
<clus scale="   81.262">  5  6 -1 -1</clus>
<clus scale="   90.061">  7  8 -1 -1</clus>
<clus scale="  100.417">  1  5  2 -1</clus>
<clus scale="   40.560">  1  5  2 -1</clus>
</clustering>
</event>
<event>
 9    2  0.4653788E-005  0.1238748E+03  0.7546771E-02  0.1240486E+00
          2   -1    0    0  502    0 -0.00000000000E+00  0.00000000000E+00  0.10705055835E+03  0.10705055835E+03  0.00000000000E+00 0. -1.
         21   -1    0    0  501  502  0.00000000000E+00 -0.00000000000E+00 -0.25811030165E+03  0.25811030165E+03  0.00000000000E+00 0. -1.
         23    2    1    2    0    0  0.43349744384E+02  0.83458143329E+02  0.19632396484E+02  0.13270820447E+03  0.91550939458E+02 0.  0.
         24    2    1    2    0    0 -0.29188372406E+02 -0.41826251464E+02 -0.16237426210E+03  0.18769837120E+03  0.79144685000E+02 0.  0.
        -13    1    4    4    0    0  0.14251713816E+02  0.14937887482E+02 -0.21981866434E+02  0.30157159697E+02  0.00000000000E+00 0.  1.
         14    1    4    4    0    0 -0.43440086221E+02 -0.56764138946E+02 -0.14039239567E+03  0.15754121150E+03  0.00000000000E+00 0. -1.
        -13    1    3    3    0    0 -0.19622608153E+02  0.60610957030E+02  0.35005314400E+01  0.63804299097E+02  0.00000000000E+00 0. -1.
         13    1    3    3    0    0  0.62972352536E+02  0.22847186298E+02  0.16131865044E+02  0.68903905372E+02  0.00000000000E+00 0.  1.
          1    1    1    2  501    0 -0.14161371978E+02 -0.41631891865E+02 -0.83178776850E+01  0.44754284328E+02  0.00000000000E+00 0. -1.
<scales pt_clust_5="13000.00000" pt_clust_6="13000.00000" pt_clust_7="13000.00000" pt_clust_8="13000.00000" pt_clust_9="43.97455"></scales>
<clustering>
<clus scale="   43.975">  2  9  1 -1</clus>
<clus scale="   79.145">  5  6 -1 -1</clus>
<clus scale="   91.551">  7  8 -1 -1</clus>
<clus scale="  115.010">  2  5  1 -1</clus>
<clus scale="   43.975">  2  5  1 -1</clus>
</clustering>
</event>
<event>
 9    2  0.4653788E-005  0.1109985E+03  0.7546771E-02  0.1259800E+00
         21   -1    0    0  501  502  0.00000000000E+00  0.00000000000E+00  0.77758232123E+02  0.77758232123E+02  0.00000000000E+00 0.  1.
          2   -1    0    0  502    0 -0.00000000000E+00 -0.00000000000E+00 -0.27314766172E+03  0.27314766172E+03  0.00000000000E+00 0. -1.
         23    2    1    2    0    0  0.51989853600E+02  0.63777968813E+02 -0.14615752610E+03  0.18981147565E+03  0.88858312336E+02 0.  0.
         24    2    1    2    0    0 -0.38426940917E+02 -0.29795019597E+02 -0.68066173351E+02  0.11994198013E+03  0.85957557329E+02 0.  0.
        -11    1    4    4    0    0 -0.74254321378E+01 -0.49231816582E+02 -0.92017976208E+01  0.50631826807E+02  0.00000000000E+00 0.  1.
         12    1    4    4    0    0 -0.31001508779E+02  0.19436796985E+02 -0.58864375730E+02  0.69310153323E+02  0.00000000000E+00 0. -1.
        -11    1    3    3    0    0  0.76268672255E+02  0.36977954272E+02 -0.97589488215E+02  0.12925938140E+03  0.00000000000E+00 0. -1.
         11    1    3    3    0    0 -0.24278818655E+02  0.26800014541E+02 -0.48568037883E+02  0.60552094254E+02  0.00000000000E+00 0.  1.
          1    1    1    2  501    0 -0.13562912682E+02 -0.33982949217E+02  0.18834269848E+02  0.41152438064E+02  0.00000000000E+00 0. -1.
<scales pt_clust_5="13000.00000" pt_clust_6="13000.00000" pt_clust_7="13000.00000" pt_clust_8="13000.00000" pt_clust_9="36.58953"></scales>
<clustering>
<clus scale="   36.590">  1  9  2 -1</clus>
<clus scale="   85.958">  5  6 -1 -1</clus>
<clus scale="   88.858">  7  8 -1 -1</clus>
<clus scale="  108.690">  1  5  2 -1</clus>
<clus scale="   36.590">  1  5  2 -1</clus>
</clustering>
</event>
<event>
 9    2  0.4653788E-005  0.1446155E+03  0.7546771E-02  0.1207339E+00
         21   -1    0    0  501  502  0.00000000000E+00  0.00000000000E+00  0.88939440798E+02  0.88939440798E+02  0.00000000000E+00 0.  1.
          4   -1    0    0  502    0 -0.00000000000E+00 -0.00000000000E+00 -0.45368511095E+03  0.45368511095E+03  0.00000000000E+00 0. -1.
         24    2    1    2    0    0 -0.83151035879E+02  0.91614625653E+02 -0.32493719768E+03  0.35926433502E+03  0.90439734525E+02 0.  0.
         23    2    1    2    0    0  0.72309635804E+02 -0.48807487351E+02 -0.53879844620E+02  0.13701379766E+03  0.90878428915E+02 0.  0.
        -13    1    3    3    0    0  0.16670036226E+02  0.23490011111E+02 -0.98113235470E+02  0.10225398625E+03  0.00000000000E+00 0.  1.
         14    1    3    3    0    0 -0.99821072105E+02  0.68124614542E+02 -0.22682396221E+03  0.25701034877E+03  0.00000000000E+00 0. -1.
        -11    1    4    4    0    0  0.37845865019E+01 -0.43537024933E+02  0.81248573538E+01  0.44450072463E+02  0.00000000000E+00 0.  1.
         11    1    4    4    0    0  0.68525049302E+02 -0.52704624186E+01 -0.62004701974E+02  0.92563725200E+02  0.00000000000E+00 0. -1.
          3    1    1    2  501    0  0.10841400075E+02 -0.42807138302E+02  0.14071372155E+02  0.46346419058E+02  0.00000000000E+00 0. -1.
<scales pt_clust_5="13000.00000" pt_clust_6="13000.00000" pt_clust_7="13000.00000" pt_clust_8="13000.00000" pt_clust_9="44.15866"></scales>
<clustering>
<clus scale="   44.159">  1  9  2 -1</clus>
<clus scale="   90.440">  5  6 -1 -1</clus>
<clus scale="   90.878">  7  8 -1 -1</clus>
<clus scale="  144.340">  2  5  1 -1</clus>
<clus scale="   44.159">  1  5  2 -1</clus>
</clustering>
</event>
<event>
 9    2  0.4653788E-005  0.1040681E+03  0.7546771E-02  0.1276812E+00
          2   -1    0    0  502    0 -0.00000000000E+00  0.00000000000E+00  0.81867782460E+02  0.81867782460E+02  0.00000000000E+00 0. -1.
         21   -1    0    0  501  502  0.00000000000E+00 -0.00000000000E+00 -0.24891654303E+03  0.24891654303E+03  0.00000000000E+00 0.  1.
         23    2    1    2    0    0 -0.33172463670E+02 -0.40872475390E+02 -0.75169340048E+02  0.12959708142E+03  0.91509574571E+02 0.  0.
         24    2    1    2    0    0 -0.10493220081E+02  0.56069906576E+02 -0.11314002271E+03  0.15029847264E+03  0.80839495598E+02 0.  0.
        -13    1    4    4    0    0  0.20971323985E+02  0.56108220116E+02 -0.99205504196E+02  0.11588641360E+03  0.00000000000E+00 0.  1.
         14    1    4    4    0    0 -0.31464544067E+02 -0.38313539964E-01 -0.13934518513E+02  0.34412059041E+02  0.00000000000E+00 0. -1.
        -13    1    3    3    0    0 -0.51707714229E+02 -0.59813173031E+02 -0.56757065904E+02  0.97327631785E+02  0.00000000000E+00 0.  1.
         13    1    3    3    0    0  0.18535250559E+02  0.18940697641E+02 -0.18412274144E+02  0.32269449632E+02  0.00000000000E+00 0. -1.
          1    1    1    2  501    0  0.43665683752E+02 -0.15197431186E+02  0.21260602189E+02  0.50888771429E+02  0.00000000000E+00 0. -1.
<scales pt_clust_5="13000.00000" pt_clust_6="13000.00000" pt_clust_7="13000.00000" pt_clust_8="13000.00000" pt_clust_9="46.23479"></scales>
<clustering>
<clus scale="   46.235">  2  9  1 -1</clus>
<clus scale="   80.839">  5  6 -1 -1</clus>
<clus scale="   91.510">  7  8 -1 -1</clus>
<clus scale="   94.822">  2  5  1 -1</clus>
<clus scale="   46.235">  2  5  1 -1</clus>
</clustering>
</event>
<event>
 9    2  0.4653788E-005  0.1111640E+03  0.7546771E-02  0.1269128E+00
         21   -1    0    0  501  502  0.00000000000E+00  0.00000000000E+00  0.10529599885E+03  0.10529599885E+03  0.00000000000E+00 0. -1.
          2   -1    0    0  502    0 -0.00000000000E+00 -0.00000000000E+00 -0.25042904083E+03  0.25042904083E+03  0.00000000000E+00 0. -1.
         24    2    1    2    0    0 -0.54043134678E+02 -0.29651783551E+02 -0.15590441152E+03  0.18043937123E+03  0.66725501009E+02 0.  0.
         23    2    1    2    0    0  0.66372786025E+02 -0.12029162526E+02  0.41280462298E+02  0.12218080701E+03  0.93134448825E+02 0.  0.
        -11    1    3    3    0    0 -0.43072449840E+02  0.11707945375E+02 -0.54972290012E+02  0.70811472159E+02  0.00000000000E+00 0.  1.
         12    1    3    3    0    0 -0.10970684838E+02 -0.41359728926E+02 -0.10093212151E+03  0.10962789907E+03  0.00000000000E+00 0. -1.
        -11    1    4    4    0    0  0.15780491854E+02 -0.46457741374E+02  0.12986664175E+01  0.49081892702E+02  0.00000000000E+00 0.  1.
         11    1    4    4    0    0  0.50592294170E+02  0.34428578848E+02  0.39981795881E+02  0.73098914306E+02  0.00000000000E+00 0. -1.
          1    1    1    2  501    0 -0.12329651347E+02  0.41680946077E+02 -0.30509092751E+02  0.53104861441E+02  0.00000000000E+00 0. -1.
<scales pt_clust_5="13000.00000" pt_clust_6="13000.00000" pt_clust_7="13000.00000" pt_clust_8="13000.00000" pt_clust_9="43.46635"></scales>
<clustering>
<clus scale="   43.466">  1  9  2 -1</clus>
<clus scale="   66.726">  5  6 -1 -1</clus>
<clus scale="   90.198">  2  5  1 -1</clus>
<clus scale="   93.134">  7  8 -1 -1</clus>
<clus scale="   43.466">  1  5  2 -1</clus>
</clustering>
</event>
<event>
 9    2  0.4653788E-005  0.2529694E+03  0.7546771E-02  0.1124524E+00
          2   -1    0    0  502    0 -0.00000000000E+00  0.00000000000E+00  0.45270096584E+03  0.45270096584E+03  0.00000000000E+00 0. -1.
         21   -1    0    0  501  502  0.00000000000E+00 -0.00000000000E+00 -0.62840666225E+03  0.62840666225E+03  0.00000000000E+00 0. -1.
         23    2    1    2    0    0 -0.14323916622E+03  0.64900681368E+02 -0.17628731655E+03  0.25349437287E+03  0.91938141782E+02 0.  0.
         24    2    1    2    0    0  0.33885798230E+03 -0.17517981302E+03  0.27199289822E+03  0.47534589945E+03  0.80379651594E+02 0.  0.
        -13    1    4    4    0    0  0.25455966543E+03 -0.99832081860E+02  0.16317494018E+03  0.31842287753E+03  0.00000000000E+00 0.  1.
         14    1    4    4    0    0  0.84298316864E+02 -0.75347731160E+02  0.10881795804E+03  0.15692302192E+03  0.00000000000E+00 0. -1.
        -13    1    3    3    0    0 -0.59955216474E+02  0.63099494956E+02 -0.13472976151E+03  0.16040038305E+03  0.00000000000E+00 0.  1.
         13    1    3    3    0    0 -0.83283949750E+02  0.18011864119E+01 -0.41557555042E+02  0.93093989814E+02  0.00000000000E+00 0. -1.
          1    1    1    2  501    0 -0.19561881607E+03  0.11027913165E+03 -0.27141127807E+03  0.35226735577E+03  0.00000000000E+00 0. -1.
<scales pt_clust_5="13000.00000" pt_clust_6="13000.00000" pt_clust_7="13000.00000" pt_clust_8="13000.00000" pt_clust_9="239.85958"></scales>
<clustering>
<clus scale="   80.380">  5  6 -1 -1</clus>
<clus scale="   91.938">  7  8 -1 -1</clus>
<clus scale="  182.160">  1  7  2 -1</clus>
<clus scale="  239.860">  2  9  1 -1</clus>
<clus scale="  239.860">  2  5  1 -1</clus>
</clustering>
</event>
<event>
 9    2  0.4653788E-005  0.9798076E+02  0.7546771E-02  0.1290045E+00
         -1   -1    0    0    0  501 -0.00000000000E+00  0.00000000000E+00  0.13627780126E+03  0.13627780126E+03  0.00000000000E+00 0.  1.
         21   -1    0    0  501  502  0.00000000000E+00 -0.00000000000E+00 -0.16062509242E+03  0.16062509242E+03  0.00000000000E+00 0.  1.
         23    2    1    2    0    0 -0.90267791775E+01 -0.17027791212E+02  0.38874290264E+02  0.10053656203E+03  0.90691573178E+02 0.  0.
         24    2    1    2    0    0  0.27455241446E+02  0.82138397688E+02 -0.43892683321E+02  0.12599158051E+03  0.80291992451E+02 0.  0.
        -13    1    4    4    0    0  0.35505272515E+02  0.91796752003E+02 -0.22165948795E+02  0.10088903479E+03  0.00000000000E+00 0.  1.
         14    1    4    4    0    0 -0.80500310693E+01 -0.96583543155E+01 -0.21726734526E+02  0.25102545717E+02  0.00000000000E+00 0. -1.
        -13    1    3    3    0    0  0.36323211273E+02 -0.26634611891E+02  0.27611670205E+02  0.52831643542E+02  0.00000000000E+00 0. -1.
         13    1    3    3    0    0 -0.45349990451E+02  0.96068206791E+01  0.11262620059E+02  0.47704918489E+02  0.00000000000E+00 0.  1.
         -2    1    1    2    0  502 -0.18428462268E+02 -0.65110606476E+02 -0.19328898095E+02  0.70374751146E+02  0.00000000000E+00 0.  1.
<scales pt_clust_5="13000.00000" pt_clust_6="13000.00000" pt_clust_7="13000.00000" pt_clust_8="13000.00000" pt_clust_9="67.66830"></scales>
<clustering>
<clus scale="   67.668">  2  9  1 -1</clus>
<clus scale="   80.292">  5  6 -1 -1</clus>
<clus scale="   88.442">  2  5  1 -1</clus>
<clus scale="   90.692">  7  8 -1 -1</clus>
<clus scale="   67.668">  2  5  1 -1</clus>
</clustering>
</event>
<event>
 9    2  0.4653788E-005  0.1691806E+03  0.7546771E-02  0.1207467E+00
         21   -1    0    0  501  502  0.00000000000E+00  0.00000000000E+00  0.78734191116E+02  0.78734191116E+02  0.00000000000E+00 0. -1.
          2   -1    0    0  502    0 -0.00000000000E+00 -0.00000000000E+00 -0.51438057674E+03  0.51438057674E+03  0.00000000000E+00 0. -1.
         24    2    1    2    0    0  0.13639088130E+02 -0.19899830058E+02 -0.80206782099E+02  0.12048292196E+03  0.86608190301E+02 0.  0.
         23    2    1    2    0    0  0.22293356295E+02 -0.12757971785E+03 -0.18685811817E+03  0.24578151018E+03  0.93375672843E+02 0.  0.
        -13    1    3    3    0    0  0.38614912929E+02  0.10629202789E+02 -0.12204811608E+02  0.41869426540E+02  0.00000000000E+00 0.  1.
         14    1    3    3    0    0 -0.24975824798E+02 -0.30529032847E+02 -0.68001970491E+02  0.78613495416E+02  0.00000000000E+00 0. -1.
        -11    1    4    4    0    0 -0.27333448674E+02 -0.95002852195E+02 -0.10035545832E+03  0.14086829791E+03  0.00000000000E+00 0.  1.
         11    1    4    4    0    0  0.49626804969E+02 -0.32576865651E+02 -0.86502659856E+02  0.10491321227E+03  0.00000000000E+00 0. -1.
          1    1    1    2  501    0 -0.35932444425E+02  0.14747954790E+03 -0.16858148535E+03  0.22685033572E+03  0.00000000000E+00 0. -1.
<scales pt_clust_5="13000.00000" pt_clust_6="13000.00000" pt_clust_7="13000.00000" pt_clust_8="13000.00000" pt_clust_9="141.07831"></scales>
<clustering>
<clus scale="   86.608">  5  6 -1 -1</clus>
<clus scale="   89.906">  2  5  1 -1</clus>
<clus scale="   93.376">  7  8 -1 -1</clus>
<clus scale="  141.078">  1  9  2 -1</clus>
<clus scale="  141.078">  1  5  2 -1</clus>
</clustering>
</event>
<event>
 9    2  0.4653788E-005  0.1566962E+03  0.7546771E-02  0.1211865E+00
         -1   -1    0    0    0  501 -0.00000000000E+00  0.00000000000E+00  0.96553094875E+02  0.96553094875E+02  0.00000000000E+00 0.  1.
         21   -1    0    0  501  502  0.00000000000E+00 -0.00000000000E+00 -0.94504375277E+03  0.94504375277E+03  0.00000000000E+00 0. -1.
         23    2    1    2    0    0  0.41127110265E+02 -0.30935638151E+01  0.20322760029E+02  0.10498964996E+03  0.94386453943E+02 0.  0.
         24    2    1    2    0    0  0.10684423125E+01  0.13505409613E+03 -0.70407517067E+03  0.72135679268E+03  0.79956400226E+02 0.  0.
        -13    1    4    4    0    0 -0.23757393617E+02  0.71979398983E+01 -0.77147921148E+02  0.81043357702E+02  0.00000000000E+00 0.  1.
         14    1    4    4    0    0  0.24825835929E+02  0.12785615623E+03 -0.62692724952E+03  0.64031343498E+03  0.00000000000E+00 0. -1.
        -13    1    3    3    0    0  0.56284224851E+02 -0.23340543958E+02  0.40048617626E+02  0.72914928054E+02  0.00000000000E+00 0.  1.
         13    1    3    3    0    0 -0.15157114586E+02  0.20246980143E+02 -0.19725857597E+02  0.32074721907E+02  0.00000000000E+00 0. -1.
         -2    1    1    2    0  502 -0.42195552577E+02 -0.13196053232E+03 -0.16473824725E+03  0.21525040501E+03  0.00000000000E+00 0.  1.
<scales pt_clust_5="13000.00000" pt_clust_6="13000.00000" pt_clust_7="13000.00000" pt_clust_8="13000.00000" pt_clust_9="134.76164"></scales>
<clustering>
<clus scale="   79.956">  5  6 -1 -1</clus>
<clus scale="   94.386">  7  8 -1 -1</clus>
<clus scale="  103.004">  1  7  2 -1</clus>
<clus scale="  134.762">  2  9  1 -1</clus>
<clus scale="  134.762">  2  5  1 -1</clus>
</clustering>
</event>
<event>
 9    2  0.4653788E-005  0.1012981E+03  0.7546771E-02  0.1280050E+00
         21   -1    0    0  501  502  0.00000000000E+00  0.00000000000E+00  0.18416922751E+02  0.18416922751E+02  0.00000000000E+00 0.  1.
         -1   -1    0    0    0  501 -0.00000000000E+00 -0.00000000000E+00 -0.72811160459E+03  0.72811160459E+03  0.00000000000E+00 0.  1.
         24    2    1    2    0    0  0.41824623082E+02 -0.18776590303E+02 -0.37138598274E+03  0.38424959184E+03  0.87283109581E+02 0.  0.
         23    2    1    2    0    0 -0.21309481541E+02  0.33905563661E+02 -0.29830547450E+03  0.31484461410E+03  0.92397476512E+02 0.  0.
        -11    1    3    3    0    0  0.35267988687E+02 -0.40750148055E+02 -0.11680886334E+03  0.12864181338E+03  0.00000000000E+00 0.  1.
         12    1    3    3    0    0  0.65566343948E+01  0.21973557752E+02 -0.25457711939E+03  0.25560777847E+03  0.00000000000E+00 0. -1.
        -11    1    4    4    0    0 -0.54334875986E+02  0.38744342187E+02 -0.21433032858E+03  0.22447915838E+03  0.00000000000E+00 0.  1.
         11    1    4    4    0    0  0.33025394445E+02 -0.48387785260E+01 -0.83975145918E+02  0.90365455722E+02  0.00000000000E+00 0. -1.
         -2    1    1    2    0  502 -0.20515141541E+02 -0.15128973358E+02 -0.40003224606E+02  0.47434321395E+02  0.00000000000E+00 0.  1.
<scales pt_clust_5="13000.00000" pt_clust_6="13000.00000" pt_clust_7="13000.00000" pt_clust_8="13000.00000" pt_clust_9="25.49033"></scales>
<clustering>
<clus scale="   25.490">  1  9  2 -1</clus>
<clus scale="   87.283">  5  6 -1 -1</clus>
<clus scale="   92.397">  7  8 -1 -1</clus>
<clus scale="   96.656">  2  5  1 -1</clus>
<clus scale="   25.490">  1  5  2 -1</clus>
</clustering>
</event>
<event>
 9    2  0.4653788E-005  0.1315537E+03  0.7546771E-02  0.1228833E+00
         21   -1    0    0  501  502  0.00000000000E+00  0.00000000000E+00  0.20111531703E+03  0.20111531703E+03  0.00000000000E+00 0.  1.
          2   -1    0    0  502    0 -0.00000000000E+00 -0.00000000000E+00 -0.15597180727E+03  0.15597180727E+03  0.00000000000E+00 0. -1.
         23    2    1    2    0    0 -0.10324405431E+03 -0.52855387340E+01 -0.81607564887E+02  0.16087539515E+03  0.92378712088E+02 0.  0.
         24    2    1    2    0    0  0.64270786128E+02  0.27611843753E+02  0.86355822552E+02  0.13580348534E+03  0.78051974206E+02 0.  0.
        -11    1    4    4    0    0  0.79012810049E+02  0.23365763839E+02  0.87784706030E+02  0.12039575443E+03  0.00000000000E+00 0.  1.
         12    1    4    4    0    0 -0.14742023921E+02  0.42460799132E+01 -0.14288834778E+01  0.15407730914E+02  0.00000000000E+00 0. -1.
        -11    1    3    3    0    0 -0.80965766086E+02  0.84756192844E+01 -0.99947362666E+02  0.12890603828E+03  0.00000000000E+00 0. -1.
         11    1    3    3    0    0 -0.22278288224E+02 -0.13761158018E+02  0.18339797779E+02  0.31969356871E+02  0.00000000000E+00 0.  1.
          1    1    1    2  501    0  0.38973268181E+02 -0.22326305019E+02  0.40395252093E+02  0.60408243809E+02  0.00000000000E+00 0. -1.
<scales pt_clust_5="13000.00000" pt_clust_6="13000.00000" pt_clust_7="13000.00000" pt_clust_8="13000.00000" pt_clust_9="44.91525"></scales>
<clustering>
<clus scale="   44.915">  1  9  2 -1</clus>
<clus scale="   78.052">  5  6 -1 -1</clus>
<clus scale="   92.379">  7  8 -1 -1</clus>
<clus scale="  121.921">  1  5  2 -1</clus>
<clus scale="   44.915">  1  5  2 -1</clus>
</clustering>
</event>
<event>
 9    2  0.5491532E-005  0.8703188E+02  0.7546771E-02  0.1313491E+00
         21   -1    0    0  501  502  0.00000000000E+00  0.00000000000E+00  0.56207891405E+03  0.56207891405E+03  0.00000000000E+00 0. -1.
         -1   -1    0    0    0  501 -0.00000000000E+00 -0.00000000000E+00 -0.93448696164E+02  0.93448696164E+02  0.00000000000E+00 0.  1.
         24    2    1    2    0    0 -0.59359835146E+01 -0.11569434337E+02 -0.61569222725E+02  0.10259076332E+03  0.81024735860E+02 0.  0.
         23    2    1    2    0    0  0.46992883006E+02 -0.23966653584E+02  0.30496882808E+03  0.32125320188E+03  0.86109825720E+02 0.  0.
        -11    1    3    3    0    0 -0.41807812620E+02 -0.71431008482E+01 -0.18250302443E+02  0.46173484003E+02  0.00000000000E+00 0.  1.
         12    1    3    3    0    0  0.35871829105E+02 -0.44263334892E+01 -0.43318920282E+02  0.56417279320E+02  0.00000000000E+00 0. -1.
        -11    1    4    4    0    0  0.20050916717E+02  0.31267475512E+02  0.82963808810E+02  0.90899328151E+02  0.00000000000E+00 0.  1.
         11    1    4    4    0    0  0.26941966289E+02 -0.55234129096E+02  0.22200501927E+03  0.23035387373E+03  0.00000000000E+00 0. -1.
         -2    1    1    2    0  502 -0.41056899491E+02  0.35536087921E+02  0.22523061254E+03  0.23168364501E+03  0.00000000000E+00 0.  1.
<scales pt_clust_5="13000.00000" pt_clust_6="13000.00000" pt_clust_7="13000.00000" pt_clust_8="13000.00000" pt_clust_9="54.29993"></scales>
<clustering>
<clus scale="   54.300">  1  9  2 -1</clus>
<clus scale="   81.025">  5  6 -1 -1</clus>
<clus scale="   82.004">  2  5  1 -1</clus>
<clus scale="   86.110">  7  8 -1 -1</clus>
<clus scale="   54.300">  1  5  2 -1</clus>
</clustering>
</event>
<event>
 9    2  0.4653788E-005  0.9214099E+02  0.7546771E-02  0.1303440E+00
         21   -1    0    0  501  502  0.00000000000E+00  0.00000000000E+00  0.15132009797E+03  0.15132009797E+03  0.00000000000E+00 0. -1.
          4   -1    0    0  502    0 -0.00000000000E+00 -0.00000000000E+00 -0.48879996014E+03  0.48879996014E+03  0.00000000000E+00 0. -1.
         23    2    1    2    0    0 -0.14597427755E+02 -0.42517341632E+02 -0.35652839495E+03  0.37027189818E+03  0.89263502840E+02 0.  0.
         24    2    1    2    0    0 -0.20774306229E+02 -0.24878891981E+02 -0.97861633931E+02  0.13034404189E+03  0.79763016459E+02 0.  0.
        -13    1    4    4    0    0  0.29812511399E+02 -0.17137151309E+02 -0.32340007919E+02  0.47205337655E+02  0.00000000000E+00 0.  1.
         14    1    4    4    0    0 -0.50586817628E+02 -0.77417406716E+01 -0.65521626012E+02  0.83138704233E+02  0.00000000000E+00 0. -1.
        -13    1    3    3    0    0 -0.39212711867E+02  0.52164875734E+01 -0.88842129779E+02  0.97251079882E+02  0.00000000000E+00 0.  1.
         13    1    3    3    0    0  0.24615284112E+02 -0.47733829206E+02 -0.26768626517E+03  0.27302081830E+03  0.00000000000E+00 0. -1.
          3    1    1    2  501    0  0.35371733983E+02  0.67396233613E+02  0.11691016671E+03  0.13950411804E+03  0.00000000000E+00 0. -1.
<scales pt_clust_5="13000.00000" pt_clust_6="13000.00000" pt_clust_7="13000.00000" pt_clust_8="13000.00000" pt_clust_9="76.11447"></scales>
<clustering>
<clus scale="   76.114">  1  9  2 -1</clus>
<clus scale="   79.763">  5  6 -1 -1</clus>
<clus scale="   82.971">  1  5  2 -1</clus>
<clus scale="   89.264">  7  8 -1 -1</clus>
<clus scale="   76.114">  1  5  2 -1</clus>
</clustering>
</event>
<event>
 9    2  0.4653788E-005  0.9831723E+02  0.7546771E-02  0.1290889E+00
          2   -1    0    0  502    0 -0.00000000000E+00  0.00000000000E+00  0.30454431205E+03  0.30454431205E+03  0.00000000000E+00 0. -1.
         21   -1    0    0  501  502  0.00000000000E+00 -0.00000000000E+00 -0.59051951688E+03  0.59051951688E+03  0.00000000000E+00 0. -1.
         23    2    1    2    0    0  0.31260225614E+02  0.73565233521E+01  0.27250416795E+03  0.28942154813E+03  0.92059713406E+02 0.  0.
         24    2    1    2    0    0 -0.10148870909E+03  0.19479220364E+02 -0.19444983146E+03  0.23393042467E+03  0.78951304824E+02 0.  0.
        -13    1    4    4    0    0 -0.27787936071E+02  0.20056026102E+02 -0.13487527849E+03  0.13916089365E+03  0.00000000000E+00 0.  1.
         14    1    4    4    0    0 -0.73700773019E+02 -0.57680573839E+00 -0.59574552973E+02  0.94769531024E+02  0.00000000000E+00 0. -1.
        -11    1    3    3    0    0  0.41332708535E+02 -0.34480171602E+02  0.13476186915E+03  0.14511387393E+03  0.00000000000E+00 0.  1.
         11    1    3    3    0    0 -0.10072482921E+02  0.41836694954E+02  0.13774229880E+03  0.14430767421E+03  0.00000000000E+00 0. -1.
          1    1    1    2  501    0  0.70228483477E+02 -0.26835743716E+02 -0.36402954132E+03  0.37171185612E+03  0.00000000000E+00 0. -1.
<scales pt_clust_5="13000.00000" pt_clust_6="13000.00000" pt_clust_7="13000.00000" pt_clust_8="13000.00000" pt_clust_9="75.18109"></scales>
<clustering>
<clus scale="   75.181">  2  9  1 -1</clus>
<clus scale="   78.951">  5  6 -1 -1</clus>
<clus scale="   86.166">  2  5  1 -1</clus>
<clus scale="   92.060">  7  8 -1 -1</clus>
<clus scale="   75.181">  2  5  1 -1</clus>
</clustering>
</event>
<event>
 9    2  0.4653788E-005  0.2188424E+03  0.7546771E-02  0.1135441E+00
          2   -1    0    0  502    0 -0.00000000000E+00  0.00000000000E+00  0.11691142787E+04  0.11691142787E+04  0.00000000000E+00 0. -1.
         21   -1    0    0  501  502  0.00000000000E+00 -0.00000000000E+00 -0.11259674367E+03  0.11259674367E+03  0.00000000000E+00 0.  1.
         24    2    1    2    0    0  0.15593000528E+03  0.17514848480E+03  0.68491528312E+03  0.72844289118E+03  0.80801871111E+02 0.  0.
         23    2    1    2    0    0 -0.16565584093E+03 -0.56471863001E+02  0.38603384147E+03  0.43332229672E+03  0.90084166888E+02 0.  0.
        -11    1    3    3    0    0  0.12245503880E+03  0.15316728359E+03  0.46101326696E+03  0.50098771003E+03  0.00000000000E+00 0.  1.
         12    1    3    3    0    0  0.33474966479E+02  0.21981201212E+02  0.22390201617E+03  0.22745518115E+03  0.00000000000E+00 0. -1.
        -11    1    4    4    0    0 -0.11559443295E+03 -0.73763760729E+02  0.32357025221E+03  0.35142691053E+03  0.00000000000E+00 0. -1.
         11    1    4    4    0    0 -0.50061407975E+02  0.17291897727E+02  0.62463589263E+02  0.81895386190E+02  0.00000000000E+00 0.  1.
          1    1    1    2  501    0  0.97258356467E+01 -0.11867662180E+03 -0.14431589529E+02  0.11994583452E+03  0.00000000000E+00 0. -1.
<scales pt_clust_5="13000.00000" pt_clust_6="13000.00000" pt_clust_7="13000.00000" pt_clust_8="13000.00000" pt_clust_9="119.07448"></scales>
<clustering>
<clus scale="   80.802">  5  6 -1 -1</clus>
<clus scale="   90.084">  7  8 -1 -1</clus>
<clus scale="  119.074">  2  9  1 -1</clus>
<clus scale="  215.188">  1  5  2 -1</clus>
<clus scale="  119.074">  2  5  1 -1</clus>
</clustering>
</event>
<event>
 9    2  0.4653788E-005  0.1500693E+03  0.7546771E-02  0.1201767E+00
         -3   -1    0    0    0  501 -0.00000000000E+00  0.00000000000E+00  0.81918561593E+02  0.81918561593E+02  0.00000000000E+00 0.  1.
         21   -1    0    0  501  502  0.00000000000E+00 -0.00000000000E+00 -0.35332870339E+03  0.35332870339E+03  0.00000000000E+00 0.  1.
         23    2    1    2    0    0  0.78119066434E+02 -0.10908884036E+03 -0.90690599778E+02  0.18532717597E+03  0.90102239894E+02 0.  0.
         24    2    1    2    0    0 -0.63279487610E+02  0.78012415847E+02 -0.16967337743E+03  0.21375415183E+03  0.82532126085E+02 0.  0.
        -13    1    4    4    0    0 -0.61704088998E+02  0.80698814962E+02 -0.95219655359E+02  0.13923532634E+03  0.00000000000E+00 0.  1.
         14    1    4    4    0    0 -0.15753986119E+01 -0.26863991149E+01 -0.74453722075E+02  0.74518825486E+02  0.00000000000E+00 0. -1.
        -13    1    3    3    0    0  0.40896016415E+02 -0.97769405301E+02 -0.99576241739E+02  0.14541928583E+03  0.00000000000E+00 0. -1.
         13    1    3    3    0    0  0.37223050019E+02 -0.11319435060E+02  0.88856419605E+01  0.39907890145E+02  0.00000000000E+00 0.  1.
         -4    1    1    2    0  502 -0.14839578824E+02  0.31076424514E+02 -0.11046164587E+02  0.36165937183E+02  0.00000000000E+00 0.  1.
<scales pt_clust_5="13000.00000" pt_clust_6="13000.00000" pt_clust_7="13000.00000" pt_clust_8="13000.00000" pt_clust_9="34.43775"></scales>
<clustering>
<clus scale="   34.438">  2  9  1 -1</clus>
<clus scale="   82.532">  5  6 -1 -1</clus>
<clus scale="   90.102">  7  8 -1 -1</clus>
<clus scale="  145.650">  2  5  1 -1</clus>
<clus scale="   34.438">  2  5  1 -1</clus>
</clustering>
</event>
<event>
 9    2  0.4653788E-005  0.9481106E+02  0.7546771E-02  0.1297235E+00
         -1   -1    0    0    0  501 -0.00000000000E+00  0.00000000000E+00  0.42418015770E+02  0.42418015770E+02  0.00000000000E+00 0.  1.
         21   -1    0    0  501  502  0.00000000000E+00 -0.00000000000E+00 -0.75861885278E+03  0.75861885278E+03  0.00000000000E+00 0.  1.
         23    2    1    2    0    0  0.33815887969E+02 -0.11052649692E+02 -0.63038208104E+02  0.11560806010E+03  0.90142845162E+02 0.  0.
         24    2    1    2    0    0 -0.21956789335E+01 -0.58359440062E+02 -0.53952782877E+03  0.54856850148E+03  0.80165313865E+02 0.  0.
        -13    1    4    4    0    0  0.20129903233E+02 -0.58097806668E+02 -0.22502439147E+03  0.23327354094E+03  0.00000000000E+00 0.  1.
         14    1    4    4    0    0 -0.22325582167E+02 -0.26163339484E+00 -0.31450343730E+03  0.31529496054E+03  0.00000000000E+00 0. -1.
        -13    1    3    3    0    0  0.24974044440E+02 -0.45260206662E+02 -0.11229959376E+02  0.52898971543E+02  0.00000000000E+00 0.  1.
         13    1    3    3    0    0  0.88418435296E+01  0.34207556970E+02 -0.51808248729E+02  0.62709088553E+02  0.00000000000E+00 0. -1.
         -2    1    1    2    0  502 -0.31620209036E+02  0.69412089754E+02 -0.11363480014E+03  0.13686030698E+03  0.00000000000E+00 0.  1.
<scales pt_clust_5="13000.00000" pt_clust_6="13000.00000" pt_clust_7="13000.00000" pt_clust_8="13000.00000" pt_clust_9="76.27504"></scales>
<clustering>
<clus scale="   76.275">  2  9  1 -1</clus>
<clus scale="   80.165">  5  6 -1 -1</clus>
<clus scale="   85.381">  2  5  1 -1</clus>
<clus scale="   90.143">  7  8 -1 -1</clus>
<clus scale="   76.275">  2  5  1 -1</clus>
</clustering>
</event>
<event>
 9    2  0.4653788E-005  0.1131177E+03  0.7546771E-02  0.1258975E+00
         -1   -1    0    0    0  501 -0.00000000000E+00  0.00000000000E+00  0.20119078326E+03  0.20119078326E+03  0.00000000000E+00 0.  1.
         21   -1    0    0  501  502  0.00000000000E+00 -0.00000000000E+00 -0.31211293912E+03  0.31211293912E+03  0.00000000000E+00 0.  1.
         23    2    1    2    0    0 -0.66914381728E+02 -0.15149466307E+02  0.10267610834E+03  0.15330148673E+03  0.90840089161E+02 0.  0.
         24    2    1    2    0    0  0.38052159903E+02  0.76045756997E+02  0.18785392912E+02  0.11804449108E+03  0.79691196854E+02 0.  0.
        -11    1    4    4    0    0  0.36830781913E+02  0.37837536670E+02 -0.26253239048E+02  0.58969638274E+02  0.00000000000E+00 0.  1.
         12    1    4    4    0    0  0.12213779896E+01  0.38208220327E+02  0.45038631960E+02  0.59074852802E+02  0.00000000000E+00 0. -1.
        -11    1    3    3    0    0 -0.49563192858E+02  0.27003810930E+02  0.89569882634E+02  0.10587010799E+03  0.00000000000E+00 0.  1.
         11    1    3    3    0    0 -0.17351188870E+02 -0.42153277237E+02  0.13106225709E+02  0.47431378742E+02  0.00000000000E+00 0. -1.
         -2    1    1    2    0  502  0.28862221825E+02 -0.60896290690E+02 -0.23238365711E+03  0.24195774458E+03  0.00000000000E+00 0.  1.
<scales pt_clust_5="13000.00000" pt_clust_6="13000.00000" pt_clust_7="13000.00000" pt_clust_8="13000.00000" pt_clust_9="67.38981"></scales>
<clustering>
<clus scale="   67.390">  2  9  1 -1</clus>
<clus scale="   79.691">  5  6 -1 -1</clus>
<clus scale="   90.840">  7  8 -1 -1</clus>
<clus scale="  104.376">  2  5  1 -1</clus>
<clus scale="   67.390">  2  5  1 -1</clus>
</clustering>
</event>
<event>
 9    2  0.4653788E-005  0.9953328E+02  0.7546771E-02  0.1281497E+00
         21   -1    0    0  501  502  0.00000000000E+00  0.00000000000E+00  0.20903370815E+03  0.20903370815E+03  0.00000000000E+00 0. -1.
          4   -1    0    0  502    0 -0.00000000000E+00 -0.00000000000E+00 -0.77798386741E+02  0.77798386741E+02  0.00000000000E+00 0. -1.
         24    2    1    2    0    0  0.30573033728E+00  0.35495872776E+02  0.49387978402E+02  0.10906159869E+03  0.90527396088E+02 0.  0.
         23    2    1    2    0    0  0.36544309003E+02 -0.40657991454E+02  0.90598087031E+02  0.13954552545E+03  0.90974620138E+02 0.  0.
        -13    1    3    3    0    0  0.22162837196E+02  0.58303764378E+02  0.45557944371E+02  0.77240187652E+02  0.00000000000E+00 0.  1.
         14    1    3    3    0    0 -0.21857106859E+02 -0.22807891602E+02  0.38300340309E+01  0.31821411035E+02  0.00000000000E+00 0. -1.
        -13    1    4    4    0    0  0.59332733923E+02 -0.98845054756E+01  0.28430555806E+02  0.66530994783E+02  0.00000000000E+00 0.  1.
         13    1    4    4    0    0 -0.22788424920E+02 -0.30773485978E+02  0.62167531225E+02  0.73014530665E+02  0.00000000000E+00 0. -1.
          3    1    1    2  501    0 -0.36850039340E+02  0.51621186778E+01 -0.87507440209E+01  0.38224970759E+02  0.00000000000E+00 0. -1.
<scales pt_clust_5="13000.00000" pt_clust_6="13000.00000" pt_clust_7="13000.00000" pt_clust_8="13000.00000" pt_clust_9="37.20987"></scales>
<clustering>
<clus scale="   37.210">  1  9  2 -1</clus>
<clus scale="   90.527">  5  6 -1 -1</clus>
<clus scale="   90.975">  7  8 -1 -1</clus>
<clus scale="   99.125">  2  5  1 -1</clus>
<clus scale="   37.210">  1  5  2 -1</clus>
</clustering>
</event>
<event>
 9    2  0.4653788E-005  0.2213339E+03  0.7546771E-02  0.1174441E+00
         21   -1    0    0  501  502  0.00000000000E+00  0.00000000000E+00  0.67311584130E+02  0.67311584130E+02  0.00000000000E+00 0. -1.
          2   -1    0    0  502    0 -0.00000000000E+00 -0.00000000000E+00 -0.13130239311E+04  0.13130239311E+04  0.00000000000E+00 0. -1.
         24    2    1    2    0    0  0.16066246880E+02  0.10875395445E+02 -0.37058750244E+03  0.37981277735E+03  0.80908901607E+02 0.  0.
         23    2    1    2    0    0 -0.19521529858E+03 -0.62093503422E+02 -0.20528318671E+03  0.30524903360E+03  0.95242688973E+02 0.  0.
        -13    1    3    3    0    0  0.39662720788E+02 -0.14114460126E+02 -0.12659824707E+03  0.13341463775E+03  0.00000000000E+00 0.  1.
         14    1    3    3    0    0 -0.23596473907E+02  0.24989855571E+02 -0.24398925537E+03  0.24639813960E+03  0.00000000000E+00 0. -1.
        -13    1    4    4    0    0 -0.16859388654E+03 -0.67337608411E+02 -0.21012408687E+03  0.27768756538E+03  0.00000000000E+00 0. -1.
         13    1    4    4    0    0 -0.26621412042E+02  0.52441049887E+01  0.48409001589E+01  0.27561468223E+02  0.00000000000E+00 0.  1.
          1    1    1    2  501    0  0.17914905170E+03  0.51218107977E+02 -0.66984165787E+03  0.69527370433E+03  0.00000000000E+00 0. -1.
<scales pt_clust_5="13000.00000" pt_clust_6="13000.00000" pt_clust_7="13000.00000" pt_clust_8="13000.00000" pt_clust_9="199.79376"></scales>
<clustering>
<clus scale="   80.909">  5  6 -1 -1</clus>
<clus scale="   83.202">  2  5  1 -1</clus>
<clus scale="   95.243">  7  8 -1 -1</clus>
<clus scale="  199.794">  1  9  2 -1</clus>
<clus scale="  199.794">  1  5  2 -1</clus>
</clustering>
</event>
<event>
 9    2  0.4653788E-005  0.2840614E+03  0.7546771E-02  0.1128669E+00
         21   -1    0    0  501  502  0.00000000000E+00  0.00000000000E+00  0.12578750452E+04  0.12578750452E+04  0.00000000000E+00 0. -1.
          2   -1    0    0  502    0 -0.00000000000E+00 -0.00000000000E+00 -0.35077274323E+03  0.35077274323E+03  0.00000000000E+00 0. -1.
         23    2    1    2    0    0  0.69596757376E+02  0.78344209217E+01  0.39642402292E+03  0.41308337466E+03  0.92632508769E+02 0.  0.
         24    2    1    2    0    0 -0.30357241528E+03  0.12276098738E+03 -0.22958310909E+03  0.40829908880E+03  0.82299882096E+02 0.  0.
        -13    1    4    4    0    0 -0.12221108789E+03  0.89415448378E+01 -0.68769988648E+02  0.14051623595E+03  0.00000000000E+00 0.  1.
         14    1    4    4    0    0 -0.18136132739E+03  0.11381944254E+03 -0.16081312044E+03  0.26778285285E+03  0.00000000000E+00 0. -1.
        -11    1    3    3    0    0  0.63444480477E+02  0.41619621678E+02  0.32624870454E+03  0.33495613478E+03  0.00000000000E+00 0. -1.
         11    1    3    3    0    0  0.61522768989E+01 -0.33785200756E+02  0.70175318378E+02  0.78127239876E+02  0.00000000000E+00 0.  1.
          1    1    1    2  501    0  0.23397565791E+03 -0.13059540830E+03  0.74026138817E+03  0.78726532501E+03  0.00000000000E+00 0. -1.
<scales pt_clust_5="13000.00000" pt_clust_6="13000.00000" pt_clust_7="13000.00000" pt_clust_8="13000.00000" pt_clust_9="271.87788"></scales>
<clustering>
<clus scale="   82.300">  5  6 -1 -1</clus>
<clus scale="   92.633">  7  8 -1 -1</clus>
<clus scale="  116.129">  2  7  1 -1</clus>
<clus scale="  271.878">  1  9  2 -1</clus>
<clus scale="  271.878">  1  5  2 -1</clus>
</clustering>
</event>
<event>
 9    2  0.4653788E-005  0.1189682E+03  0.7546771E-02  0.1251419E+00
          2   -1    0    0  502    0 -0.00000000000E+00  0.00000000000E+00  0.14479222656E+04  0.14479222656E+04  0.00000000000E+00 0. -1.
         21   -1    0    0  501  502  0.00000000000E+00 -0.00000000000E+00 -0.17681503288E+02  0.17681503288E+02  0.00000000000E+00 0. -1.
         24    2    1    2    0    0  0.41701699243E+02  0.76556996009E+02  0.68868692488E+03  0.69886614669E+03  0.80772551868E+02 0.  0.
         23    2    1    2    0    0 -0.35688366056E+02 -0.57352354210E+01  0.27023062831E+03  0.29008528620E+03  0.99087478514E+02 0.  0.
        -13    1    3    3    0    0  0.22937871181E+02  0.11808100339E+02  0.46723251066E+02  0.53372646159E+02  0.00000000000E+00 0.  1.
         14    1    3    3    0    0  0.18763828063E+02  0.64748895670E+02  0.64196367381E+03  0.64549350053E+03  0.00000000000E+00 0. -1.
        -11    1    4    4    0    0 -0.65735186250E+02  0.16559397385E+02  0.18387519397E+03  0.19597299638E+03  0.00000000000E+00 0. -1.
         11    1    4    4    0    0  0.30046820194E+02 -0.22294632806E+02  0.86355434336E+02  0.94112289819E+02  0.00000000000E+00 0.  1.
          1    1    1    2  501    0 -0.60133331869E+01 -0.70821760588E+02  0.47132320915E+03  0.47665233602E+03  0.00000000000E+00 0. -1.
<scales pt_clust_5="13000.00000" pt_clust_6="13000.00000" pt_clust_7="13000.00000" pt_clust_8="13000.00000" pt_clust_9="71.07663"></scales>
<clustering>
<clus scale="   71.077">  2  9  1 -1</clus>
<clus scale="   80.773">  5  6 -1 -1</clus>
<clus scale="   99.087">  7  8 -1 -1</clus>
<clus scale="  104.208">  1  5  2 -1</clus>
<clus scale="   71.077">  2  5  1 -1</clus>
</clustering>
</event>
<event>
 9    2  0.4653788E-005  0.1152087E+03  0.7546771E-02  0.1260123E+00
         21   -1    0    0  501  502  0.00000000000E+00  0.00000000000E+00  0.50403749410E+03  0.50403749410E+03  0.00000000000E+00 0.  1.
         -1   -1    0    0    0  501 -0.00000000000E+00 -0.00000000000E+00 -0.63961311432E+02  0.63961311432E+02  0.00000000000E+00 0.  1.
         23    2    1    2    0    0  0.22630371365E+02  0.12925635039E+02  0.38397384752E+02  0.10394191845E+03  0.93007298136E+02 0.  0.
         24    2    1    2    0    0  0.74371997436E+02  0.65048467268E+01  0.31070420383E+03  0.32965681289E+03  0.81012375409E+02 0.  0.
        -13    1    4    4    0    0  0.28474543018E+02 -0.36691066694E+02  0.15038186690E+03  0.15739040590E+03  0.00000000000E+00 0.  1.
         14    1    4    4    0    0  0.45897454417E+02  0.43195913421E+02  0.16032233693E+03  0.17226640699E+03  0.00000000000E+00 0. -1.
        -13    1    3    3    0    0 -0.32862721922E+02  0.22074589375E+02  0.95094869946E+01  0.40714571483E+02  0.00000000000E+00 0. -1.
         13    1    3    3    0    0  0.55493093287E+02 -0.91489543354E+01  0.28887897758E+02  0.63227346970E+02  0.00000000000E+00 0.  1.
         -2    1    1    2    0  502 -0.97002368801E+02 -0.19430481766E+02  0.90974594082E+02  0.13440007419E+03  0.00000000000E+00 0.  1.
<scales pt_clust_5="13000.00000" pt_clust_6="13000.00000" pt_clust_7="13000.00000" pt_clust_8="13000.00000" pt_clust_9="81.91492"></scales>
<clustering>
<clus scale="   81.012">  5  6 -1 -1</clus>
<clus scale="   93.007">  7  8 -1 -1</clus>
<clus scale="   96.590">  2  7  1 -1</clus>
<clus scale="   81.915">  1  9  2 -1</clus>
<clus scale="   81.915">  1  5  2 -1</clus>
</clustering>
</event>
<event>
 9    2  0.4653788E-005  0.1202340E+03  0.7546771E-02  0.1246672E+00
          2   -1    0    0  502    0 -0.00000000000E+00  0.00000000000E+00  0.24436499049E+03  0.24436499049E+03  0.00000000000E+00 0. -1.
         21   -1    0    0  501  502  0.00000000000E+00 -0.00000000000E+00 -0.12269600784E+03  0.12269600784E+03  0.00000000000E+00 0.  1.
         23    2    1    2    0    0 -0.13603889296E+02  0.82894168484E+02  0.17799276197E+03  0.21735931815E+03  0.92234163407E+02 0.  0.
         24    2    1    2    0    0  0.31644474332E+02 -0.48293758991E+02 -0.31445078769E+02  0.10342424738E+03  0.79838099014E+02 0.  0.
        -13    1    4    4    0    0  0.14830929669E+02 -0.33226117142E+02 -0.58062419986E+02  0.68521353969E+02  0.00000000000E+00 0.  1.
         14    1    4    4    0    0  0.16813544663E+02 -0.15067641849E+02  0.26617341217E+02  0.34902893411E+02  0.00000000000E+00 0. -1.
        -13    1    3    3    0    0  0.24084723770E+02  0.14967927589E+02  0.64988742539E+01  0.29092063212E+02  0.00000000000E+00 0.  1.
         13    1    3    3    0    0 -0.37688613066E+02  0.67926240895E+02  0.17149388772E+03  0.18826725494E+03  0.00000000000E+00 0. -1.
          1    1    1    2  501    0 -0.18040585036E+02 -0.34600409493E+02 -0.24878700553E+02  0.46277432802E+02  0.00000000000E+00 0. -1.
<scales pt_clust_5="13000.00000" pt_clust_6="13000.00000" pt_clust_7="13000.00000" pt_clust_8="13000.00000" pt_clust_9="39.02116"></scales>
<clustering>
<clus scale="   39.021">  2  9  1 -1</clus>
<clus scale="   79.838">  5  6 -1 -1</clus>
<clus scale="   92.234">  7  8 -1 -1</clus>
<clus scale="  111.010">  2  5  1 -1</clus>
<clus scale="   39.021">  2  5  1 -1</clus>
</clustering>
</event>
<event>
 9    2  0.4653788E-005  0.1481816E+03  0.7546771E-02  0.1226018E+00
          4   -1    0    0  502    0 -0.00000000000E+00  0.00000000000E+00  0.63327308936E+02  0.63327308936E+02  0.00000000000E+00 0. -1.
         21   -1    0    0  501  502  0.00000000000E+00 -0.00000000000E+00 -0.11328633665E+04  0.11328633665E+04  0.00000000000E+00 0. -1.
         24    2    1    2    0    0  0.48360715968E+02 -0.28960047036E+02 -0.20757238967E+02  0.92790349589E+02  0.70723000743E+02 0.  0.
         23    2    1    2    0    0  0.62751389042E+02 -0.27376869294E+02 -0.11917821930E+03  0.16548933741E+03  0.92173982453E+02 0.  0.
        -11    1    3    3    0    0  0.43765428371E+01 -0.39068040684E+02  0.68220197959E+01  0.39899948423E+02  0.00000000000E+00 0.  1.
         12    1    3    3    0    0  0.43984173131E+02  0.10107993648E+02 -0.27579258763E+02  0.52890401166E+02  0.00000000000E+00 0. -1.
        -11    1    4    4    0    0  0.83116805081E+02 -0.32168362485E+02 -0.74523039128E+02  0.11617611714E+03  0.00000000000E+00 0. -1.
         11    1    4    4    0    0 -0.20365416039E+02  0.47914931909E+01 -0.44655180175E+02  0.49313220275E+02  0.00000000000E+00 0.  1.
          3    1    1    2  501    0 -0.11111210501E+03  0.56336916331E+02 -0.92960059933E+03  0.93791098847E+03  0.00000000000E+00 0. -1.
<scales pt_clust_5="13000.00000" pt_clust_6="13000.00000" pt_clust_7="13000.00000" pt_clust_8="13000.00000" pt_clust_9="116.02480"></scales>
<clustering>
<clus scale="   70.723">  5  6 -1 -1</clus>
<clus scale="   90.439">  1  5  2 -1</clus>
<clus scale="   92.174">  7  8 -1 -1</clus>
<clus scale="  116.025">  2  9  1 -1</clus>
<clus scale="  116.025">  2  5  1 -1</clus>
</clustering>
</event>
<event>
 9    2  0.4653788E-005  0.1359279E+03  0.7546771E-02  0.1221169E+00
         21   -1    0    0  501  502  0.00000000000E+00  0.00000000000E+00  0.93119685742E+02  0.93119685742E+02  0.00000000000E+00 0. -1.
          2   -1    0    0  502    0 -0.00000000000E+00 -0.00000000000E+00 -0.46475929919E+03  0.46475929919E+03  0.00000000000E+00 0. -1.
         24    2    1    2    0    0  0.95004319360E+02 -0.57106434274E+02 -0.36425339832E+03  0.38911873899E+03  0.80286295916E+02 0.  0.
         23    2    1    2    0    0 -0.42105364392E+02  0.55971650622E+02 -0.15768706000E+02  0.11518923397E+03  0.90078966188E+02 0.  0.
        -13    1    3    3    0    0  0.10176115226E+03 -0.66790875276E+02 -0.35026488775E+03  0.37081241177E+03  0.00000000000E+00 0.  1.
         14    1    3    3    0    0 -0.67568329020E+01  0.96844410025E+01 -0.13988510572E+02  0.18306327224E+02  0.00000000000E+00 0. -1.
        -11    1    4    4    0    0 -0.23060391066E+02 -0.10490433791E+02 -0.35204181569E+02  0.43372401791E+02  0.00000000000E+00 0.  1.
         11    1    4    4    0    0 -0.19044973325E+02  0.66462084412E+02  0.19435475569E+02  0.71816832177E+02  0.00000000000E+00 0. -1.
          1    1    1    2  501    0 -0.52898954968E+02  0.11347836522E+01  0.83824908725E+01  0.53571011974E+02  0.00000000000E+00 0. -1.
<scales pt_clust_5="13000.00000" pt_clust_6="13000.00000" pt_clust_7="13000.00000" pt_clust_8="13000.00000" pt_clust_9="52.91113"></scales>
<clustering>
<clus scale="   52.911">  1  9  2 -1</clus>
<clus scale="   80.286">  5  6 -1 -1</clus>
<clus scale="   90.079">  7  8 -1 -1</clus>
<clus scale="  129.646">  2  5  1 -1</clus>
<clus scale="   52.911">  1  5  2 -1</clus>
</clustering>
</event>
<event>
 9    2  0.4653788E-005  0.1706853E+03  0.7546771E-02  0.1195315E+00
         21   -1    0    0  501  502  0.00000000000E+00  0.00000000000E+00  0.72067987240E+03  0.72067987240E+03  0.00000000000E+00 0.  1.
         -3   -1    0    0    0  501 -0.00000000000E+00 -0.00000000000E+00 -0.76700589888E+02  0.76700589888E+02  0.00000000000E+00 0.  1.
         23    2    1    2    0    0  0.64786496027E+02  0.16756952018E+02  0.10636208958E+03  0.15585638197E+03  0.92196703802E+02 0.  0.
         24    2    1    2    0    0 -0.15133630566E+03  0.73378616661E+02  0.45542074214E+03  0.49195287049E+03  0.79513996328E+02 0.  0.
        -13    1    4    4    0    0 -0.95920072940E+02  0.80689006167E+01  0.29183426509E+03  0.30729953764E+03  0.00000000000E+00 0.  1.
         14    1    4    4    0    0 -0.55416232719E+02  0.65309716044E+02  0.16358647705E+03  0.18465333285E+03  0.00000000000E+00 0. -1.
        -13    1    3    3    0    0  0.33917284110E+02 -0.19608120863E+02  0.10041465083E+03  0.10778665347E+03  0.00000000000E+00 0. -1.
         13    1    3    3    0    0  0.30869211917E+02  0.36365072881E+02  0.59474387491E+01  0.48069728496E+02  0.00000000000E+00 0.  1.
         -4    1    1    2    0  502  0.86549809632E+02 -0.90135568678E+02  0.82196450782E+02  0.14957120983E+03  0.00000000000E+00 0.  1.
<scales pt_clust_5="13000.00000" pt_clust_6="13000.00000" pt_clust_7="13000.00000" pt_clust_8="13000.00000" pt_clust_9="151.03317"></scales>
<clustering>
<clus scale="   79.514">  5  6 -1 -1</clus>
<clus scale="   92.197">  7  8 -1 -1</clus>
<clus scale="  113.922">  2  7  1 -1</clus>
<clus scale="  151.033">  1  9  2 -1</clus>
<clus scale="  151.033">  1  5  2 -1</clus>
</clustering>
</event>
<event>
 9    2  0.4653788E-005  0.1316583E+03  0.7546771E-02  0.1239685E+00
          2   -1    0    0  502    0 -0.00000000000E+00  0.00000000000E+00  0.22662545928E+03  0.22662545928E+03  0.00000000000E+00 0. -1.
         21   -1    0    0  501  502  0.00000000000E+00 -0.00000000000E+00 -0.12824482643E+03  0.12824482643E+03  0.00000000000E+00 0.  1.
         24    2    1    2    0    0 -0.84275332199E+01  0.53715947494E+02  0.14045316008E+03  0.17198415816E+03  0.83036342341E+02 0.  0.
         23    2    1    2    0    0  0.22269698357E+02 -0.33662281746E+02  0.69260451194E+01  0.12816305072E+03  0.12144426208E+03 0.  0.
        -13    1    3    3    0    0 -0.43057071172E+01  0.75655608298E+02  0.11862039453E+03  0.14075904297E+03  0.00000000000E+00 0.  1.
         14    1    3    3    0    0 -0.41218261027E+01 -0.21939660804E+02  0.21832765550E+02  0.31225115183E+02  0.00000000000E+00 0. -1.
        -11    1    4    4    0    0  0.54448639520E+02 -0.45015215157E+02 -0.30996904112E+02  0.77148117318E+02  0.00000000000E+00 0. -1.
         11    1    4    4    0    0 -0.32178941163E+02  0.11352933411E+02  0.37922949231E+02  0.51014933400E+02  0.00000000000E+00 0.  1.
          1    1    1    2  501    0 -0.13842165137E+02 -0.20053665748E+02 -0.48998572348E+02  0.54723076830E+02  0.00000000000E+00 0. -1.
<scales pt_clust_5="13000.00000" pt_clust_6="13000.00000" pt_clust_7="13000.00000" pt_clust_8="13000.00000" pt_clust_9="24.36709"></scales>
<clustering>
<clus scale="   24.367">  2  9  1 -1</clus>
<clus scale="   83.036">  5  6 -1 -1</clus>
<clus scale="   97.367">  1  5  2 -1</clus>
<clus scale="  121.444">  7  8 -1 -1</clus>
<clus scale="   24.367">  2  5  1 -1</clus>
</clustering>
</event>
<event>
 9    2  0.4653788E-005  0.9761955E+02  0.7546771E-02  0.1290044E+00
         21   -1    0    0  501  502  0.00000000000E+00  0.00000000000E+00  0.26219822717E+03  0.26219822717E+03  0.00000000000E+00 0.  1.
         -3   -1    0    0    0  501 -0.00000000000E+00 -0.00000000000E+00 -0.15127203410E+03  0.15127203410E+03  0.00000000000E+00 0.  1.
         23    2    1    2    0    0 -0.85972779288E+01 -0.40625714709E+02 -0.11465456192E+03  0.15130007856E+03  0.89563850521E+02 0.  0.
         24    2    1    2    0    0  0.23798583606E+02  0.17531726299E+02  0.92198293848E+02  0.12595236839E+03  0.80558920718E+02 0.  0.
        -13    1    4    4    0    0  0.53173621042E+02  0.42330530088E+01  0.52998100831E+02  0.75194091551E+02  0.00000000000E+00 0.  1.
         14    1    4    4    0    0 -0.29375037436E+02  0.13298673290E+02  0.39200193017E+02  0.50758276844E+02  0.00000000000E+00 0. -1.
        -13    1    3    3    0    0  0.18712631825E+02  0.19948758263E+02 -0.57422700510E+02  0.63604104269E+02  0.00000000000E+00 0.  1.
         13    1    3    3    0    0 -0.27309909754E+02 -0.60574472972E+02 -0.57231861411E+02  0.87695974293E+02  0.00000000000E+00 0. -1.
         -4    1    1    2    0  502 -0.15201305677E+02  0.23093988410E+02  0.13338246115E+03  0.13621781432E+03  0.00000000000E+00 0.  1.
<scales pt_clust_5="13000.00000" pt_clust_6="13000.00000" pt_clust_7="13000.00000" pt_clust_8="13000.00000" pt_clust_9="27.64800"></scales>
<clustering>
<clus scale="   27.648">  1  9  2 -1</clus>
<clus scale="   80.559">  5  6 -1 -1</clus>
<clus scale="   89.429">  1  5  2 -1</clus>
<clus scale="   89.564">  7  8 -1 -1</clus>
<clus scale="   27.648">  1  5  2 -1</clus>
</clustering>
</event>
<event>
 9    2  0.4653788E-005  0.4135749E+03  0.7546771E-02  0.1061646E+00
         21   -1    0    0  501  502  0.00000000000E+00  0.00000000000E+00  0.80700332348E+03  0.80700332348E+03  0.00000000000E+00 0. -1.
          2   -1    0    0  502    0 -0.00000000000E+00 -0.00000000000E+00 -0.47705922983E+03  0.47705922983E+03  0.00000000000E+00 0. -1.
         23    2    1    2    0    0 -0.17557657721E+03  0.89967027377E+02 -0.15952339877E+03  0.27008388475E+03  0.92608798540E+02 0.  0.
         24    2    1    2    0    0 -0.34322983156E+03  0.11094932983E+02  0.25698351327E+03  0.43655126172E+03  0.81281382922E+02 0.  0.
        -11    1    4    4    0    0 -0.16876928213E+03  0.17955021933E+02  0.78925201890E+02  0.18717542814E+03  0.00000000000E+00 0.  1.
         12    1    4    4    0    0 -0.17446054942E+03 -0.68600889492E+01  0.17805831138E+03  0.24937583358E+03  0.00000000000E+00 0. -1.
        -13    1    3    3    0    0 -0.15167500435E+03  0.97488342708E+02 -0.16503299850E+03  0.24442826044E+03  0.00000000000E+00 0. -1.
         13    1    3    3    0    0 -0.23901572858E+02 -0.75213153306E+01  0.55095997315E+01  0.25655624308E+02  0.00000000000E+00 0.  1.
          1    1    1    2  501    0  0.51880640877E+03 -0.10106196036E+03  0.23248397915E+03  0.57742740684E+03  0.00000000000E+00 0. -1.
<scales pt_clust_5="13000.00000" pt_clust_6="13000.00000" pt_clust_7="13000.00000" pt_clust_8="13000.00000" pt_clust_9="405.50915"></scales>
<clustering>
<clus scale="   81.281">  5  6 -1 -1</clus>
<clus scale="   92.609">  7  8 -1 -1</clus>
<clus scale="  217.939">  2  7  1 -1</clus>
<clus scale="  405.509">  1  9  2 -1</clus>
<clus scale="  405.509">  1  5  2 -1</clus>
</clustering>
</event>
<event>
 9    2  0.4653788E-005  0.9836954E+02  0.7546771E-02  0.1291101E+00
         21   -1    0    0  501  502  0.00000000000E+00  0.00000000000E+00  0.21976121750E+02  0.21976121750E+02  0.00000000000E+00 0. -1.
         -1   -1    0    0    0  501 -0.00000000000E+00 -0.00000000000E+00 -0.75539812872E+03  0.75539812872E+03  0.00000000000E+00 0.  1.
         23    2    1    2    0    0  0.19897147901E+02  0.27898922109E+01 -0.29086169520E+03  0.30668783415E+03  0.95148420319E+02 0.  0.
         24    2    1    2    0    0  0.13503080087E+02 -0.51815279987E+02 -0.22929072878E+03  0.24932025155E+03  0.81970684487E+02 0.  0.
        -11    1    4    4    0    0  0.36803896761E+02 -0.21666624620E+02 -0.18940065571E+03  0.19415606563E+03  0.00000000000E+00 0.  1.
         12    1    4    4    0    0 -0.23300816674E+02 -0.30148655367E+02 -0.39890073077E+02  0.55164185919E+02  0.00000000000E+00 0. -1.
        -13    1    3    3    0    0  0.17896690610E+02 -0.40183389647E+02 -0.78242676163E+02  0.89760306993E+02  0.00000000000E+00 0. -1.
         13    1    3    3    0    0  0.20004572907E+01  0.42973281858E+02 -0.21261901904E+03  0.21692752716E+03  0.00000000000E+00 0.  1.
         -2    1    1    2    0  502 -0.33400227988E+02  0.49025387776E+02 -0.21326958299E+03  0.22136616477E+03  0.00000000000E+00 0.  1.
<scales pt_clust_5="13000.00000" pt_clust_6="13000.00000" pt_clust_7="13000.00000" pt_clust_8="13000.00000" pt_clust_9="59.32173"></scales>
<clustering>
<clus scale="   59.322">  1  9  2 -1</clus>
<clus scale="   81.971">  5  6 -1 -1</clus>
<clus scale="   85.689">  1  5  2 -1</clus>
<clus scale="   95.148">  7  8 -1 -1</clus>
<clus scale="   59.322">  1  5  2 -1</clus>
</clustering>
</event>
<event>
 9    2  0.4653788E-005  0.2034232E+03  0.7546771E-02  0.1168619E+00
         21   -1    0    0  501  502  0.00000000000E+00  0.00000000000E+00  0.45820783126E+02  0.45820783126E+02  0.00000000000E+00 0.  1.
         -1   -1    0    0    0  501 -0.00000000000E+00 -0.00000000000E+00 -0.18132013448E+04  0.18132013448E+04  0.00000000000E+00 0.  1.
         23    2    1    2    0    0  0.47584048907E+02  0.56308505374E+02 -0.26216209375E+03  0.28932545316E+03  0.97700383609E+02 0.  0.
         24    2    1    2    0    0 -0.99780812572E+02 -0.21677902781E+03 -0.11365977214E+04  0.11642875660E+04  0.82230156175E+02 0.  0.
        -13    1    4    4    0    0 -0.25701123941E+02 -0.11559440877E+03 -0.40258596759E+03  0.41964041323E+03  0.00000000000E+00 0.  1.
         14    1    4    4    0    0 -0.74079688631E+02 -0.10118461904E+03 -0.73401175384E+03  0.74464715280E+03  0.00000000000E+00 0. -1.
        -11    1    3    3    0    0  0.68620208063E+02  0.12942630988E+02 -0.11573506475E+03  0.13516970764E+03  0.00000000000E+00 0. -1.
         11    1    3    3    0    0 -0.21036159156E+02  0.43365874386E+02 -0.14642702900E+03  0.15415574551E+03  0.00000000000E+00 0.  1.
         -2    1    1    2    0  502  0.52196763664E+02  0.16047052244E+03 -0.36862074652E+03  0.40540910877E+03  0.00000000000E+00 0.  1.
<scales pt_clust_5="13000.00000" pt_clust_6="13000.00000" pt_clust_7="13000.00000" pt_clust_8="13000.00000" pt_clust_9="186.06232"></scales>
<clustering>
<clus scale="   82.230">  5  6 -1 -1</clus>
<clus scale="   97.700">  7  8 -1 -1</clus>
<clus scale="  122.394">  2  7  1 -1</clus>
<clus scale="  186.062">  1  9  2 -1</clus>
<clus scale="  186.062">  1  5  2 -1</clus>
</clustering>
</event>
<event>
 9    2  0.4699559E-005  0.9993317E+02  0.7546771E-02  0.1290907E+00
         -3   -1    0    0    0  501 -0.00000000000E+00  0.00000000000E+00  0.24035445033E+03  0.24035445033E+03  0.00000000000E+00 0.  1.
         21   -1    0    0  501  502  0.00000000000E+00 -0.00000000000E+00 -0.10143125848E+03  0.10143125848E+03  0.00000000000E+00 0.  1.
         23    2    1    2    0    0 -0.30102919148E+02 -0.64618466599E+01  0.17162366978E+03  0.19918470026E+03  0.96290807378E+02 0.  0.
         24    2    1    2    0    0  0.43857069020E+01  0.32273025231E+02  0.11968211337E+02  0.84956548748E+02  0.77547369458E+02 0.  0.
        -13    1    4    4    0    0 -0.11090449487E+02  0.27369855827E+02  0.41690195585E+02  0.51089915695E+02  0.00000000000E+00 0.  1.
         14    1    4    4    0    0  0.15476156389E+02  0.49031694034E+01 -0.29721984247E+02  0.33866633053E+02  0.00000000000E+00 0. -1.
        -11    1    3    3    0    0 -0.55016878752E+02 -0.21102740013E+02  0.15505535703E+03  0.16587448969E+03  0.00000000000E+00 0.  1.
         11    1    3    3    0    0  0.24913959605E+02  0.14640893353E+02  0.16568312750E+02  0.33310210577E+02  0.00000000000E+00 0. -1.
         -4    1    1    2    0  502  0.25717212246E+02 -0.25811178571E+02 -0.44668689263E+02  0.57644459798E+02  0.00000000000E+00 0.  1.
<scales pt_clust_5="13000.00000" pt_clust_6="13000.00000" pt_clust_7="13000.00000" pt_clust_8="13000.00000" pt_clust_9="36.43614"></scales>
<clustering>
<clus scale="   36.436">  2  9  1 -1</clus>
<clus scale="   77.547">  5  6 -1 -1</clus>
<clus scale="   82.026">  2  5  1 -1</clus>
<clus scale="   96.291">  7  8 -1 -1</clus>
<clus scale="   36.436">  2  5  1 -1</clus>
</clustering>
</event>
<event>
 9    2  0.4653788E-005  0.1043900E+03  0.7546771E-02  0.1273000E+00
         -1   -1    0    0    0  501 -0.00000000000E+00  0.00000000000E+00  0.12572589848E+03  0.12572589848E+03  0.00000000000E+00 0.  1.
         21   -1    0    0  501  502  0.00000000000E+00 -0.00000000000E+00 -0.16740055441E+03  0.16740055441E+03  0.00000000000E+00 0.  1.
         23    2    1    2    0    0  0.66394992614E+02 -0.44620413085E+02  0.20621223794E+02  0.11762000915E+03  0.83725476249E+02 0.  0.
         24    2    1    2    0    0 -0.31178233934E+01  0.43092782723E+02 -0.66105076095E+02  0.11209632013E+03  0.79554981971E+02 0.  0.
        -11    1    4    4    0    0  0.23843721548E+02 -0.12419248937E+02 -0.31241042066E+02  0.41216058894E+02  0.00000000000E+00 0.  1.
         12    1    4    4    0    0 -0.26961544941E+02  0.55512031659E+02 -0.34864034029E+02  0.70880261239E+02  0.00000000000E+00 0. -1.
        -13    1    3    3    0    0  0.50923104415E+02 -0.69489291376E+02  0.19387357822E+02  0.88305117760E+02  0.00000000000E+00 0.  1.
         13    1    3    3    0    0  0.15471888199E+02  0.24868878291E+02  0.12338659723E+01  0.29314891389E+02  0.00000000000E+00 0. -1.
         -2    1    1    2    0  502 -0.63277169221E+02  0.15276303625E+01  0.38091963635E+01  0.63410123609E+02  0.00000000000E+00 0.  1.
<scales pt_clust_5="13000.00000" pt_clust_6="13000.00000" pt_clust_7="13000.00000" pt_clust_8="13000.00000" pt_clust_9="63.29564"></scales>
<clustering>
<clus scale="   63.296">  2  9  1 -1</clus>
<clus scale="   79.555">  5  6 -1 -1</clus>
<clus scale="   83.725">  7  8 -1 -1</clus>
<clus scale="  101.076">  2  5  1 -1</clus>
<clus scale="   63.296">  2  5  1 -1</clus>
</clustering>
</event>
<event>
 9    2  0.4653788E-005  0.9521536E+02  0.7546771E-02  0.1296347E+00
         21   -1    0    0  501  502  0.00000000000E+00  0.00000000000E+00  0.30940088722E+02  0.30940088722E+02  0.00000000000E+00 0.  1.
         -1   -1    0    0    0  501 -0.00000000000E+00 -0.00000000000E+00 -0.38942249561E+03  0.38942249561E+03  0.00000000000E+00 0.  1.
         23    2    1    2    0    0 -0.25171152967E+02  0.16654495182E+02 -0.19330071747E+03  0.21585348636E+03  0.91195400362E+02 0.  0.
         24    2    1    2    0    0  0.29679788956E+02  0.14093038775E+02 -0.13667004576E+03  0.16233502458E+03  0.81206250879E+02 0.  0.
        -11    1    4    4    0    0  0.40027351516E+02  0.99088352470E+01 -0.21273112104E+02  0.46399560169E+02  0.00000000000E+00 0.  1.
         12    1    4    4    0    0 -0.10347562559E+02  0.41842035284E+01 -0.11539693366E+03  0.11593546441E+03  0.00000000000E+00 0. -1.
        -11    1    3    3    0    0 -0.44161640454E+02  0.44279298376E+02 -0.12558897785E+03  0.14029789061E+03  0.00000000000E+00 0.  1.
         11    1    3    3    0    0  0.18990487487E+02 -0.27624803194E+02 -0.67711739613E+02  0.75555595742E+02  0.00000000000E+00 0. -1.
         -2    1    1    2    0  502 -0.45086359895E+01 -0.30747533958E+02 -0.28511643662E+02  0.42174073401E+02  0.00000000000E+00 0.  1.
<scales pt_clust_5="13000.00000" pt_clust_6="13000.00000" pt_clust_7="13000.00000" pt_clust_8="13000.00000" pt_clust_9="31.07634"></scales>
<clustering>
<clus scale="   31.076">  1  9  2 -1</clus>
<clus scale="   81.206">  5  6 -1 -1</clus>
<clus scale="   85.696">  1  5  2 -1</clus>
<clus scale="   91.195">  7  8 -1 -1</clus>
<clus scale="   31.076">  1  5  2 -1</clus>
</clustering>
</event>
<event>
 9    2  0.4653788E-005  0.1353085E+03  0.7546771E-02  0.1240169E+00
         21   -1    0    0  501  502  0.00000000000E+00  0.00000000000E+00  0.78085828482E+02  0.78085828482E+02  0.00000000000E+00 0. -1.
          2   -1    0    0  502    0 -0.00000000000E+00 -0.00000000000E+00 -0.60495335891E+03  0.60495335891E+03  0.00000000000E+00 0. -1.
         24    2    1    2    0    0 -0.78432561904E+01 -0.41210475700E+02 -0.38558326175E+03  0.39568065060E+03  0.78287326821E+02 0.  0.
         23    2    1    2    0    0  0.66003671109E+02 -0.49640109468E+02 -0.12957595774E+03  0.17885255892E+03  0.91529688835E+02 0.  0.
        -11    1    3    3    0    0  0.31614956742E+02 -0.20179050004E+02 -0.10372141670E+03  0.11029429646E+03  0.00000000000E+00 0.  1.
         12    1    3    3    0    0 -0.39458212932E+02 -0.21031425696E+02 -0.28186184505E+03  0.28538635414E+03  0.00000000000E+00 0. -1.
        -11    1    4    4    0    0  0.71295224761E+02 -0.71291254258E+02 -0.10961386796E+03  0.14893170266E+03  0.00000000000E+00 0. -1.
         11    1    4    4    0    0 -0.52915536520E+01  0.21651144790E+02 -0.19962089779E+02  0.29920856256E+02  0.00000000000E+00 0.  1.
          1    1    1    2  501    0 -0.58160414919E+02  0.90850585168E+02 -0.11708310928E+02  0.10850597787E+03  0.00000000000E+00 0. -1.
<scales pt_clust_5="13000.00000" pt_clust_6="13000.00000" pt_clust_7="13000.00000" pt_clust_8="13000.00000" pt_clust_9="99.65297"></scales>
<clustering>
<clus scale="   78.287">  5  6 -1 -1</clus>
<clus scale="   88.818">  2  5  1 -1</clus>
<clus scale="   91.530">  7  8 -1 -1</clus>
<clus scale="   99.653">  1  9  2 -1</clus>
<clus scale="   99.653">  1  5  2 -1</clus>
</clustering>
</event>
<event>
 9    2  0.4653788E-005  0.9909252E+02  0.7546771E-02  0.1287036E+00
         21   -1    0    0  501  502  0.00000000000E+00  0.00000000000E+00  0.15848733576E+03  0.15848733576E+03  0.00000000000E+00 0. -1.
          4   -1    0    0  502    0 -0.00000000000E+00 -0.00000000000E+00 -0.30466066022E+03  0.30466066022E+03  0.00000000000E+00 0. -1.
         23    2    1    2    0    0  0.42999194686E+02  0.28279796779E+02 -0.23756651500E+03  0.25929320082E+03  0.90257616260E+02 0.  0.
         24    2    1    2    0    0 -0.54929886591E+01  0.46623967325E+02  0.24136196218E+02  0.96426713857E+02  0.80694410735E+02 0.  0.
        -13    1    4    4    0    0 -0.29976367079E+02  0.18782476847E+02 -0.18504128384E+02  0.39922008805E+02  0.00000000000E+00 0.  1.
         14    1    4    4    0    0  0.24483378420E+02  0.27841490478E+02  0.42640324602E+02  0.56504705052E+02  0.00000000000E+00 0. -1.
        -13    1    3    3    0    0 -0.23647165168E+02 -0.11445097787E+02 -0.56976685814E+02  0.62741703916E+02  0.00000000000E+00 0.  1.
         13    1    3    3    0    0  0.66646359855E+02  0.39724894566E+02 -0.18058982919E+03  0.19655149691E+03  0.00000000000E+00 0. -1.
          3    1    1    2  501    0 -0.37506206027E+02 -0.74903764104E+02  0.67256994322E+02  0.10742808130E+03  0.00000000000E+00 0. -1.
<scales pt_clust_5="13000.00000" pt_clust_6="13000.00000" pt_clust_7="13000.00000" pt_clust_8="13000.00000" pt_clust_9="83.76926"></scales>
<clustering>
<clus scale="   80.694">  5  6 -1 -1</clus>
<clus scale="   83.769">  1  9  2 -1</clus>
<clus scale="   90.258">  7  8 -1 -1</clus>
<clus scale="   90.468">  1  5  2 -1</clus>
<clus scale="   83.769">  1  5  2 -1</clus>
</clustering>
</event>
<event>
 9    2  0.4653788E-005  0.8579078E+02  0.7546771E-02  0.1315509E+00
         21   -1    0    0  501  502  0.00000000000E+00  0.00000000000E+00  0.28983599160E+03  0.28983599160E+03  0.00000000000E+00 0.  1.
          2   -1    0    0  502    0 -0.00000000000E+00 -0.00000000000E+00 -0.75971907866E+02  0.75971907866E+02  0.00000000000E+00 0. -1.
         24    2    1    2    0    0 -0.47243867728E+01 -0.32266768810E+02 -0.22349715263E+02  0.87081152896E+02  0.77589646329E+02 0.  0.
         23    2    1    2    0    0  0.42530499966E+02  0.42419101170E+02  0.10503660882E+03  0.14183325779E+03  0.73998380062E+02 0.  0.
        -13    1    3    3    0    0  0.34185030856E+02 -0.94744374430E+00 -0.99604329322E+01  0.35619155078E+02  0.00000000000E+00 0.  1.
         14    1    3    3    0    0 -0.38909417628E+02 -0.31319325066E+02 -0.12389282330E+02  0.51461997818E+02  0.00000000000E+00 0. -1.
        -11    1    4    4    0    0 -0.19774671192E+02  0.13305899798E+02  0.13668303347E+02  0.27475572907E+02  0.00000000000E+00 0. -1.
         11    1    4    4    0    0  0.62305171158E+02  0.29113201373E+02  0.91368305470E+02  0.11435768488E+03  0.00000000000E+00 0.  1.
          1    1    1    2  501    0 -0.37806113193E+02 -0.10152332360E+02  0.13117719018E+03  0.13689348878E+03  0.00000000000E+00 0. -1.
<scales pt_clust_5="13000.00000" pt_clust_6="13000.00000" pt_clust_7="13000.00000" pt_clust_8="13000.00000" pt_clust_9="39.14552"></scales>
<clustering>
<clus scale="   39.146">  1  9  2 -1</clus>
<clus scale="   73.998">  7  8 -1 -1</clus>
<clus scale="   77.590">  5  6 -1 -1</clus>
<clus scale="   82.557">  1  7  2 -1</clus>
<clus scale="   39.146">  1  5  2 -1</clus>
</clustering>
</event>
<event>
 9    2  0.4653788E-005  0.1562698E+03  0.7546771E-02  0.1213808E+00
         21   -1    0    0  501  502  0.00000000000E+00  0.00000000000E+00  0.77064048715E+02  0.77064048715E+02  0.00000000000E+00 0. -1.
          2   -1    0    0  502    0 -0.00000000000E+00 -0.00000000000E+00 -0.53870170737E+03  0.53870170737E+03  0.00000000000E+00 0. -1.
         24    2    1    2    0    0 -0.58628041179E+02 -0.53172896172E+01 -0.11567541089E+03  0.15267828134E+03  0.80401095300E+02 0.  0.
         23    2    1    2    0    0  0.16800391810E+03 -0.48936227816E+02 -0.19774502128E+03  0.27105916217E+03  0.61236468411E+02 0.  0.
        -13    1    3    3    0    0 -0.49207801342E+02  0.27556023139E+02 -0.38557531521E+02  0.68318557956E+02  0.00000000000E+00 0.  1.
         14    1    3    3    0    0 -0.94202398363E+01 -0.32873312756E+02 -0.77117879372E+02  0.84359723381E+02  0.00000000000E+00 0. -1.
        -13    1    4    4    0    0  0.78979026217E+02 -0.21334951921E+02 -0.13775563995E+03  0.16021698753E+03  0.00000000000E+00 0. -1.
         13    1    4    4    0    0  0.89024891884E+02 -0.27601275894E+02 -0.59989381338E+02  0.11084217464E+03  0.00000000000E+00 0.  1.
          1    1    1    2  501    0 -0.10937587692E+03  0.54253517433E+02 -0.14821722648E+03  0.19202831258E+03  0.00000000000E+00 0. -1.
<scales pt_clust_5="13000.00000" pt_clust_6="13000.00000" pt_clust_7="13000.00000" pt_clust_8="13000.00000" pt_clust_9="143.77186"></scales>
<clustering>
<clus scale="   61.236">  7  8 -1 -1</clus>
<clus scale="   80.401">  5  6 -1 -1</clus>
<clus scale="   99.649">  2  5  1 -1</clus>
<clus scale="  143.772">  1  9  2 -1</clus>
<clus scale="  143.772">  1  5  2 -1</clus>
</clustering>
</event>
<event>
 9    2  0.4653788E-005  0.1131636E+03  0.7546771E-02  0.1271855E+00
         -1   -1    0    0    0  501 -0.00000000000E+00  0.00000000000E+00  0.11813971956E+03  0.11813971956E+03  0.00000000000E+00 0.  1.
         21   -1    0    0  501  502  0.00000000000E+00 -0.00000000000E+00 -0.18754955051E+03  0.18754955051E+03  0.00000000000E+00 0.  1.
         23    2    1    2    0    0 -0.19085866974E+02  0.15476211993E+02  0.24862740997E+02  0.11754362507E+03  0.11222550712E+03 0.  0.
         24    2    1    2    0    0  0.10592158039E+02  0.16109020758E+02  0.63519234095E+01  0.82338938773E+02  0.79797616165E+02 0.  0.
        -11    1    4    4    0    0  0.26154375660E+02  0.33873184115E+02 -0.19755010997E+02  0.47134959720E+02  0.00000000000E+00 0.  1.
         12    1    4    4    0    0 -0.15562217621E+02 -0.17764163358E+02  0.26106934406E+02  0.35203979053E+02  0.00000000000E+00 0. -1.
        -13    1    3    3    0    0 -0.16525217149E+02  0.36066514269E+02  0.62812567334E+02  0.74291956956E+02  0.00000000000E+00 0.  1.
         13    1    3    3    0    0 -0.25606498251E+01 -0.20590302275E+02 -0.37949826337E+02  0.43251668110E+02  0.00000000000E+00 0. -1.
         -2    1    1    2    0  502  0.84937089356E+01 -0.31585232751E+02 -0.10062449535E+03  0.10580670623E+03  0.00000000000E+00 0.  1.
<scales pt_clust_5="13000.00000" pt_clust_6="13000.00000" pt_clust_7="13000.00000" pt_clust_8="13000.00000" pt_clust_9="32.70734"></scales>
<clustering>
<clus scale="   32.707">  2  9  1 -1</clus>
<clus scale="   79.798">  5  6 -1 -1</clus>
<clus scale="   81.112">  2  5  1 -1</clus>
<clus scale="  112.226">  7  8 -1 -1</clus>
<clus scale="   32.707">  2  5  1 -1</clus>
</clustering>
</event>
<event>
 9    2  0.4653788E-005  0.1815028E+03  0.7546771E-02  0.1189313E+00
         21   -1    0    0  501  502  0.00000000000E+00  0.00000000000E+00  0.58719967704E+02  0.58719967704E+02  0.00000000000E+00 0. -1.
          2   -1    0    0  502    0 -0.00000000000E+00 -0.00000000000E+00 -0.14037557893E+04  0.14037557893E+04  0.00000000000E+00 0. -1.
         23    2    1    2    0    0  0.58328169768E+02  0.14086060722E+02 -0.11825114264E+03  0.16022816791E+03  0.89939649546E+02 0.  0.
         24    2    1    2    0    0 -0.52870819322E+02  0.15539148247E+03 -0.24141802842E+03  0.30239767220E+03  0.78866034175E+02 0.  0.
        -13    1    4    4    0    0 -0.13563912713E+02  0.71182996585E+02 -0.45520243522E+02  0.85575062379E+02  0.00000000000E+00 0.  1.
         14    1    4    4    0    0 -0.39306906608E+02  0.84208485887E+02 -0.19589778490E+03  0.21682260982E+03  0.00000000000E+00 0. -1.
        -13    1    3    3    0    0  0.39013930605E+02  0.24284194014E+02 -0.12822961462E+03  0.13621542837E+03  0.00000000000E+00 0.  1.
         13    1    3    3    0    0  0.19314239163E+02 -0.10198133292E+02  0.99784719807E+01  0.24012739539E+02  0.00000000000E+00 0. -1.
          1    1    1    2  501    0 -0.54573504467E+01 -0.16947754319E+03 -0.98536665053E+03  0.99984991689E+03  0.00000000000E+00 0. -1.
<scales pt_clust_5="13000.00000" pt_clust_6="13000.00000" pt_clust_7="13000.00000" pt_clust_8="13000.00000" pt_clust_9="163.47306"></scales>
<clustering>
<clus scale="   78.866">  5  6 -1 -1</clus>
<clus scale="   89.940">  7  8 -1 -1</clus>
<clus scale="  108.119">  2  7  1 -1</clus>
<clus scale="  163.473">  1  9  2 -1</clus>
<clus scale="  163.473">  1  5  2 -1</clus>
</clustering>
</event>
<event>
 9    2  0.4653788E-005  0.1347022E+03  0.7546771E-02  0.1228604E+00
         21   -1    0    0  501  502  0.00000000000E+00  0.00000000000E+00  0.19317542842E+03  0.19317542842E+03  0.00000000000E+00 0.  1.
         -3   -1    0    0    0  501 -0.00000000000E+00 -0.00000000000E+00 -0.19248028650E+03  0.19248028650E+03  0.00000000000E+00 0.  1.
         24    2    1    2    0    0  0.54247684247E+02 -0.63660550661E+02 -0.13579745945E+03  0.17824494036E+03  0.79591656696E+02 0.  0.
         23    2    1    2    0    0 -0.28188617358E+02  0.66990035068E+02  0.10685464860E+03  0.16780561483E+03  0.10704459582E+03 0.  0.
        -13    1    3    3    0    0  0.38951160029E+02 -0.74410578844E+02 -0.68445686863E+02  0.10834638509E+03  0.00000000000E+00 0.  1.
         14    1    3    3    0    0  0.15296524217E+02  0.10750028183E+02 -0.67351772585E+02  0.69898555274E+02  0.00000000000E+00 0. -1.
        -13    1    4    4    0    0  0.30344543955E+02  0.62791882076E+02  0.68139814741E+02  0.97502031545E+02  0.00000000000E+00 0.  1.
         13    1    4    4    0    0 -0.58533161313E+02  0.41981529920E+01  0.38714833861E+02  0.70303583285E+02  0.00000000000E+00 0. -1.
         -4    1    1    2    0  502 -0.26059066888E+02 -0.33294844075E+01  0.29637952763E+02  0.39605159733E+02  0.00000000000E+00 0.  1.
<scales pt_clust_5="13000.00000" pt_clust_6="13000.00000" pt_clust_7="13000.00000" pt_clust_8="13000.00000" pt_clust_9="26.27090"></scales>
<clustering>
<clus scale="   26.271">  1  9  2 -1</clus>
<clus scale="   79.592">  5  6 -1 -1</clus>
<clus scale="  107.045">  7  8 -1 -1</clus>
<clus scale="  114.109">  2  5  1 -1</clus>
<clus scale="   26.271">  1  5  2 -1</clus>
</clustering>
</event>
<event>
 9    2  0.6570056E-005  0.1063734E+03  0.7546771E-02  0.1281045E+00
         21   -1    0    0  501  502  0.00000000000E+00  0.00000000000E+00  0.15774835238E+03  0.15774835238E+03  0.00000000000E+00 0.  1.
         -1   -1    0    0    0  501 -0.00000000000E+00 -0.00000000000E+00 -0.32479269191E+03  0.32479269191E+03  0.00000000000E+00 0.  1.
         23    2    1    2    0    0  0.12632116067E+02 -0.29459860429E+02 -0.25732056026E+03  0.27961369872E+03  0.10460638626E+03 0.  0.
         24    2    1    2    0    0  0.40672714674E+02 -0.32726953226E+02  0.16849354772E+02  0.92926848211E+02  0.75007834096E+02 0.  0.
        -11    1    4    4    0    0  0.49220728366E+02 -0.30439546217E+02 -0.15070867173E+02  0.59802818597E+02  0.00000000000E+00 0.  1.
         12    1    4    4    0    0 -0.85480136923E+01 -0.22874070093E+01  0.31920221944E+02  0.33124029614E+02  0.00000000000E+00 0. -1.
        -11    1    3    3    0    0  0.29839443934E+02 -0.60102913244E+02 -0.21136168004E+03  0.22175777863E+03  0.00000000000E+00 0.  1.
         11    1    3    3    0    0 -0.17207327867E+02  0.30643052815E+02 -0.45958880220E+02  0.57855920088E+02  0.00000000000E+00 0. -1.
         -2    1    1    2    0  502 -0.53304830740E+02  0.62186813655E+02  0.73426865969E+02  0.11000049736E+03  0.00000000000E+00 0.  1.
<scales pt_clust_5="13000.00000" pt_clust_6="13000.00000" pt_clust_7="13000.00000" pt_clust_8="13000.00000" pt_clust_9="81.90607"></scales>
<clustering>
<clus scale="   75.008">  5  6 -1 -1</clus>
<clus scale="   81.906">  1  9  2 -1</clus>
<clus scale="   81.906">  1  5  2 -1</clus>
<clus scale="  104.606">  7  8 -1 -1</clus>
<clus scale="   81.906">  1  5  2 -1</clus>
</clustering>
</event>
<event>
 9    2  0.4653788E-005  0.9143012E+02  0.7546771E-02  0.1303289E+00
         21   -1    0    0  501  502  0.00000000000E+00  0.00000000000E+00  0.66430984204E+02  0.66430984204E+02  0.00000000000E+00 0. -1.
         -3   -1    0    0    0  501 -0.00000000000E+00 -0.00000000000E+00 -0.25882939109E+03  0.25882939109E+03  0.00000000000E+00 0.  1.
         23    2    1    2    0    0 -0.38447506195E+02 -0.71627888157E+01 -0.11294247761E+03  0.14810031085E+03  0.87453888128E+02 0.  0.
         24    2    1    2    0    0 -0.18475020217E+01 -0.17190711663E+02  0.23936550049E+01  0.82734775885E+02  0.80872614186E+02 0.  0.
        -13    1    4    4    0    0 -0.26509651607E+02 -0.32871264886E+02 -0.19208759211E+02  0.46392435956E+02  0.00000000000E+00 0.  1.
         14    1    4    4    0    0  0.24662149585E+02  0.15680553223E+02  0.21602414216E+02  0.36342339929E+02  0.00000000000E+00 0. -1.
        -13    1    3    3    0    0  0.69288190013E+01 -0.37875413603E+02 -0.63692776054E+02  0.74426643145E+02  0.00000000000E+00 0.  1.
         13    1    3    3    0    0 -0.45376325196E+02  0.30712624788E+02 -0.49249701556E+02  0.73673667704E+02  0.00000000000E+00 0. -1.
         -4    1    1    2    0  502  0.40295008216E+02  0.24353500479E+02 -0.81849584280E+02  0.94425288560E+02  0.00000000000E+00 0.  1.
<scales pt_clust_5="13000.00000" pt_clust_6="13000.00000" pt_clust_7="13000.00000" pt_clust_8="13000.00000" pt_clust_9="47.08272"></scales>
<clustering>
<clus scale="   47.083">  1  9  2 -1</clus>
<clus scale="   80.873">  5  6 -1 -1</clus>
<clus scale="   85.157">  1  5  2 -1</clus>
<clus scale="   87.454">  7  8 -1 -1</clus>
<clus scale="   47.083">  1  5  2 -1</clus>
</clustering>
</event>
<event>
 9    2  0.4653788E-005  0.1026623E+03  0.7546771E-02  0.1280170E+00
         21   -1    0    0  501  502  0.00000000000E+00  0.00000000000E+00  0.23874434612E+03  0.23874434612E+03  0.00000000000E+00 0.  1.
         -1   -1    0    0    0  501 -0.00000000000E+00 -0.00000000000E+00 -0.61536329255E+02  0.61536329255E+02  0.00000000000E+00 0.  1.
         23    2    1    2    0    0  0.24662294222E+02  0.29122166119E+02  0.43197718862E+02  0.10607682631E+03  0.89050103033E+02 0.  0.
         24    2    1    2    0    0 -0.48955304638E+02 -0.53631478801E+02  0.10158788693E+03  0.14685335273E+03  0.77284222622E+02 0.  0.
        -11    1    4    4    0    0 -0.66206658926E+02 -0.27425239889E+02  0.85609121461E+02  0.11164401975E+03  0.00000000000E+00 0.  1.
         12    1    4    4    0    0  0.17251354288E+02 -0.26206238913E+02  0.15978765465E+02  0.35209332974E+02  0.00000000000E+00 0. -1.
        -13    1    3    3    0    0  0.44243036906E+02  0.37860900413E+02  0.56259621995E+02  0.80969371751E+02  0.00000000000E+00 0.  1.
         13    1    3    3    0    0 -0.19580742685E+02 -0.87387342937E+01 -0.13061903133E+02  0.25107454562E+02  0.00000000000E+00 0. -1.
         -2    1    1    2    0  502  0.24293010416E+02  0.24509312682E+02  0.32422411081E+02  0.47350496339E+02  0.00000000000E+00 0.  1.
<scales pt_clust_5="13000.00000" pt_clust_6="13000.00000" pt_clust_7="13000.00000" pt_clust_8="13000.00000" pt_clust_9="34.50879"></scales>
<clustering>
<clus scale="   34.509">  1  9  2 -1</clus>
<clus scale="   77.284">  5  6 -1 -1</clus>
<clus scale="   89.050">  7  8 -1 -1</clus>
<clus scale="   92.642">  1  5  2 -1</clus>
<clus scale="   34.509">  1  5  2 -1</clus>
</clustering>
</event>
<event>
 9    2  0.4653788E-005  0.1038780E+03  0.7546771E-02  0.1276978E+00
         21   -1    0    0  501  502  0.00000000000E+00  0.00000000000E+00  0.24448390161E+03  0.24448390161E+03  0.00000000000E+00 0. -1.
          2   -1    0    0  502    0 -0.00000000000E+00 -0.00000000000E+00 -0.21955932197E+03  0.21955932197E+03  0.00000000000E+00 0. -1.
         23    2    1    2    0    0 -0.54840361877E+02 -0.19518498552E+02 -0.16201239673E+03  0.19510964526E+03  0.91822219001E+02 0.  0.
         24    2    1    2    0    0  0.22439146622E+02  0.18584631321E+01  0.67498457343E+01  0.85006642684E+02  0.81692103025E+02 0.  0.
        -13    1    4    4    0    0  0.44735102472E+02 -0.23735941634E+02  0.65359214119E+01  0.51062144365E+02  0.00000000000E+00 0.  1.
         14    1    4    4    0    0 -0.22295955849E+02  0.25594404766E+02  0.21392432233E+00  0.33944498320E+02  0.00000000000E+00 0. -1.
        -13    1    3    3    0    0  0.16866034763E+02  0.20428184719E+02 -0.35309682581E+02  0.44142355436E+02  0.00000000000E+00 0.  1.
         13    1    3    3    0    0 -0.71706396641E+02 -0.39946683271E+02 -0.12670271415E+03  0.15096728983E+03  0.00000000000E+00 0. -1.
          1    1    1    2  501    0  0.32401215255E+02  0.17660035420E+02  0.18018713065E+03  0.18392693563E+03  0.00000000000E+00 0. -1.
<scales pt_clust_5="13000.00000" pt_clust_6="13000.00000" pt_clust_7="13000.00000" pt_clust_8="13000.00000" pt_clust_9="36.90143"></scales>
<clustering>
<clus scale="   36.901">  1  9  2 -1</clus>
<clus scale="   81.692">  5  6 -1 -1</clus>
<clus scale="   91.822">  7  8 -1 -1</clus>
<clus scale="   95.042">  1  5  2 -1</clus>
<clus scale="   36.901">  1  5  2 -1</clus>
</clustering>
</event>
<event>
 9    2  0.4653788E-005  0.2184070E+03  0.7546771E-02  0.1164825E+00
          2   -1    0    0  502    0 -0.00000000000E+00  0.00000000000E+00  0.12193040360E+04  0.12193040360E+04  0.00000000000E+00 0. -1.
         21   -1    0    0  501  502  0.00000000000E+00 -0.00000000000E+00 -0.58912210251E+02  0.58912210251E+02  0.00000000000E+00 0.  1.
         23    2    1    2    0    0 -0.11819911632E+02  0.55425726423E+02  0.22424620037E+03  0.24885943219E+03  0.91831024966E+02 0.  0.
         24    2    1    2    0    0  0.20810168645E+03 -0.60635593018E+02  0.53724178848E+03  0.58474693009E+03  0.79481104132E+02 0.  0.
        -11    1    4    4    0    0  0.21410790187E+03 -0.62534316187E+02  0.53068008786E+03  0.57565101407E+03  0.00000000000E+00 0.  1.
         12    1    4    4    0    0 -0.60062154150E+01  0.18987231687E+01  0.65617006196E+01  0.90959160234E+01  0.00000000000E+00 0. -1.
        -13    1    3    3    0    0  0.27979598715E+02  0.18326622369E+02  0.23517948398E+02  0.40887857960E+02  0.00000000000E+00 0.  1.
         13    1    3    3    0    0 -0.39799510347E+02  0.37099104054E+02  0.20072825198E+03  0.20797157423E+03  0.00000000000E+00 0. -1.
          1    1    1    2  501    0 -0.19628177482E+03  0.52098665948E+01  0.39890383685E+03  0.44460988393E+03  0.00000000000E+00 0. -1.
<scales pt_clust_5="13000.00000" pt_clust_6="13000.00000" pt_clust_7="13000.00000" pt_clust_8="13000.00000" pt_clust_9="203.43152"></scales>
<clustering>
<clus scale="   79.481">  5  6 -1 -1</clus>
<clus scale="   91.831">  7  8 -1 -1</clus>
<clus scale="  107.910">  1  7  2 -1</clus>
<clus scale="  203.432">  2  9  1 -1</clus>
<clus scale="  203.432">  2  5  1 -1</clus>
</clustering>
</event>
<event>
 9    2  0.4653788E-005  0.1340971E+03  0.7546771E-02  0.1236882E+00
         21   -1    0    0  501  502  0.00000000000E+00  0.00000000000E+00  0.47124514145E+02  0.47124514145E+02  0.00000000000E+00 0. -1.
          2   -1    0    0  502    0 -0.00000000000E+00 -0.00000000000E+00 -0.75493770749E+03  0.75493770749E+03  0.00000000000E+00 0. -1.
         24    2    1    2    0    0 -0.42077685958E+02 -0.81433656124E+01 -0.34586540784E+03  0.35936265336E+03  0.87645822659E+02 0.  0.
         23    2    1    2    0    0 -0.31797966418E+02  0.81023786886E+02 -0.29050484233E+03  0.31671043403E+03  0.91304276436E+02 0.  0.
        -13    1    3    3    0    0  0.27214920293E+02  0.25411475007E+01 -0.10516301969E+03  0.10865712139E+03  0.00000000000E+00 0.  1.
         14    1    3    3    0    0 -0.69292606251E+02 -0.10684513113E+02 -0.24070238815E+03  0.25070553197E+03  0.00000000000E+00 0. -1.
        -11    1    4    4    0    0  0.23862549343E+02  0.61927132568E+02 -0.17304357773E+03  0.18533340444E+03  0.00000000000E+00 0.  1.
         11    1    4    4    0    0 -0.55660515761E+02  0.19096654318E+02 -0.11746126460E+03  0.13137702958E+03  0.00000000000E+00 0. -1.
          1    1    1    2  501    0  0.73875652376E+02 -0.72880421274E+02 -0.71442943174E+02  0.12598913425E+03  0.00000000000E+00 0. -1.
<scales pt_clust_5="13000.00000" pt_clust_6="13000.00000" pt_clust_7="13000.00000" pt_clust_8="13000.00000" pt_clust_9="98.21179"></scales>
<clustering>
<clus scale="   87.646">  5  6 -1 -1</clus>
<clus scale="   91.304">  7  8 -1 -1</clus>
<clus scale="   97.563">  2  5  1 -1</clus>
<clus scale="   98.212">  1  9  2 -1</clus>
<clus scale="   98.212">  1  5  2 -1</clus>
</clustering>
</event>
<event>
 9    2  0.4653788E-005  0.1712329E+03  0.7546771E-02  0.1180609E+00
         21   -1    0    0  501  502  0.00000000000E+00  0.00000000000E+00  0.31288979290E+03  0.31288979290E+03  0.00000000000E+00 0. -1.
          2   -1    0    0  502    0 -0.00000000000E+00 -0.00000000000E+00 -0.22463080276E+03  0.22463080276E+03  0.00000000000E+00 0. -1.
         24    2    1    2    0    0 -0.23776727423E+02 -0.13175096769E+03  0.84633518854E+02  0.17776886376E+03  0.80717322525E+02 0.  0.
         23    2    1    2    0    0 -0.12682982624E+03  0.73626468504E+02 -0.64447315835E+02  0.18455271433E+03  0.91649256179E+02 0.  0.
        -13    1    3    3    0    0  0.15343149131E+02 -0.34369021052E+02 -0.71947716197E+01  0.38319793475E+02  0.00000000000E+00 0.  1.
         14    1    3    3    0    0 -0.39119876554E+02 -0.97381946634E+02  0.91828290474E+02  0.13944907028E+03  0.00000000000E+00 0. -1.
        -13    1    4    4    0    0 -0.77088215494E+02  0.21366343104E+02  0.10312825410E+02  0.80656481163E+02  0.00000000000E+00 0.  1.
         13    1    4    4    0    0 -0.49741610745E+02  0.52260125399E+02 -0.74760141245E+02  0.10389623316E+03  0.00000000000E+00 0. -1.
          1    1    1    2  501    0  0.15060655366E+03  0.58124499183E+02  0.68072787119E+02  0.17519901757E+03  0.00000000000E+00 0. -1.
<scales pt_clust_5="13000.00000" pt_clust_6="13000.00000" pt_clust_7="13000.00000" pt_clust_8="13000.00000" pt_clust_9="144.64130"></scales>
<clustering>
<clus scale="   80.717">  5  6 -1 -1</clus>
<clus scale="   91.649">  7  8 -1 -1</clus>
<clus scale="  156.330">  2  5  1 -1</clus>
<clus scale="  144.641">  1  9  2 -1</clus>
<clus scale="  144.641">  1  5  2 -1</clus>
</clustering>
</event>
<event>
 9    2  0.4653788E-005  0.1367559E+03  0.7546771E-02  0.1220412E+00
         21   -1    0    0  501  502  0.00000000000E+00  0.00000000000E+00  0.10623327267E+03  0.10623327267E+03  0.00000000000E+00 0.  1.
         -3   -1    0    0    0  501 -0.00000000000E+00 -0.00000000000E+00 -0.27427503116E+03  0.27427503116E+03  0.00000000000E+00 0.  1.
         24    2    1    2    0    0 -0.91877818516E+02  0.59430204259E+02 -0.11285824472E+03  0.17617278088E+03  0.79538560513E+02 0.  0.
         23    2    1    2    0    0  0.69133680344E+02 -0.49536342164E+02  0.19043668545E+02  0.12607404505E+03  0.91097138109E+02 0.  0.
        -11    1    3    3    0    0 -0.71202276008E+02  0.79101812968E+02 -0.83966636490E+02  0.13556274181E+03  0.00000000000E+00 0.  1.
         12    1    3    3    0    0 -0.20675542508E+02 -0.19671608709E+02 -0.28891608234E+02  0.40610039074E+02  0.00000000000E+00 0. -1.
        -11    1    4    4    0    0  0.38219407638E+02 -0.53833628500E+02  0.49460055843E+02  0.82492907584E+02  0.00000000000E+00 0.  1.
         11    1    4    4    0    0  0.30914272706E+02  0.42972863364E+01 -0.30416387299E+02  0.43581137469E+02  0.00000000000E+00 0. -1.
         -4    1    1    2    0  502  0.22744138172E+02 -0.98938620952E+01 -0.74227182313E+02  0.78261477896E+02  0.00000000000E+00 0.  1.
<scales pt_clust_5="13000.00000" pt_clust_6="13000.00000" pt_clust_7="13000.00000" pt_clust_8="13000.00000" pt_clust_9="24.80292"></scales>
<clustering>
<clus scale="   24.803">  1  9  2 -1</clus>
<clus scale="   79.539">  5  6 -1 -1</clus>
<clus scale="   91.097">  7  8 -1 -1</clus>
<clus scale="  129.344">  2  5  1 -1</clus>
<clus scale="   24.803">  1  5  2 -1</clus>
</clustering>
</event>
<event>
 9    2  0.4653788E-005  0.1567031E+03  0.7546771E-02  0.1194006E+00
          4   -1    0    0  502    0 -0.00000000000E+00  0.00000000000E+00  0.14907377082E+03  0.14907377082E+03  0.00000000000E+00 0. -1.
         21   -1    0    0  501  502  0.00000000000E+00 -0.00000000000E+00 -0.39294023986E+03  0.39294023986E+03  0.00000000000E+00 0.  1.
         23    2    1    2    0    0 -0.12531551812E+03 -0.39594429275E+01 -0.22490881344E+02  0.15617920711E+03  0.90368405553E+02 0.  0.
         24    2    1    2    0    0  0.13584684924E+03  0.24799769149E+02 -0.28010514057E+03  0.32263362863E+03  0.81019587443E+02 0.  0.
        -11    1    4    4    0    0  0.13521808338E+03  0.41165306433E+02 -0.26507204859E+03  0.30040256901E+03  0.00000000000E+00 0.  1.
         12    1    4    4    0    0  0.62876586070E+00 -0.16365537284E+02 -0.15033091985E+02  0.22231059618E+02  0.00000000000E+00 0. -1.
        -13    1    3    3    0    0 -0.11001406973E+03  0.17800798734E+02 -0.46108155003E+02  0.12060649208E+03  0.00000000000E+00 0. -1.
         13    1    3    3    0    0 -0.15301448388E+02 -0.21760241661E+02  0.23617273659E+02  0.35572715036E+02  0.00000000000E+00 0.  1.
          3    1    1    2  501    0 -0.10531331128E+02 -0.20840326222E+02  0.58729552870E+02  0.63201174931E+02  0.00000000000E+00 0. -1.
<scales pt_clust_5="13000.00000" pt_clust_6="13000.00000" pt_clust_7="13000.00000" pt_clust_8="13000.00000" pt_clust_9="23.35013"></scales>
<clustering>
<clus scale="   23.350">  2  9  1 -1</clus>
<clus scale="   81.020">  5  6 -1 -1</clus>
<clus scale="   90.368">  7  8 -1 -1</clus>
<clus scale="  151.504">  2  5  1 -1</clus>
<clus scale="   23.350">  2  5  1 -1</clus>
</clustering>
</event>
<event>
 9    2  0.4653788E-005  0.1033665E+03  0.7546771E-02  0.1276781E+00
         21   -1    0    0  501  502  0.00000000000E+00  0.00000000000E+00  0.17674946377E+02  0.17674946377E+02  0.00000000000E+00 0.  1.
          4   -1    0    0  502    0 -0.00000000000E+00 -0.00000000000E+00 -0.82012692100E+03  0.82012692100E+03  0.00000000000E+00 0. -1.
         24    2    1    2    0    0  0.21807465813E+02  0.54537581410E+02 -0.55002509241E+03  0.55900870957E+03  0.80704533592E+02 0.  0.
         23    2    1    2    0    0 -0.22315975235E+02 -0.34220469444E+02 -0.19741322188E+03  0.22014551127E+03  0.88447852896E+02 0.  0.
        -13    1    3    3    0    0 -0.23715991820E+02  0.14749874232E+02 -0.72875552430E+02  0.78043918404E+02  0.00000000000E+00 0.  1.
         14    1    3    3    0    0  0.45523457633E+02  0.39787707179E+02 -0.47714953998E+03  0.48096479117E+03  0.00000000000E+00 0. -1.
        -11    1    4    4    0    0 -0.55844548445E+02 -0.26364863481E+02 -0.10926099006E+03  0.12550571129E+03  0.00000000000E+00 0.  1.
         11    1    4    4    0    0  0.33528573210E+02 -0.78556059628E+01 -0.88152231815E+02  0.94639799981E+02  0.00000000000E+00 0. -1.
          3    1    1    2  501    0  0.50850942278E+00 -0.20317111966E+02 -0.55013660331E+02  0.58647646530E+02  0.00000000000E+00 0. -1.
<scales pt_clust_5="13000.00000" pt_clust_6="13000.00000" pt_clust_7="13000.00000" pt_clust_8="13000.00000" pt_clust_9="20.32347"></scales>
<clustering>
<clus scale="   20.323">  1  9  2 -1</clus>
<clus scale="   80.705">  5  6 -1 -1</clus>
<clus scale="   88.448">  7  8 -1 -1</clus>
<clus scale="   96.824">  2  5  1 -1</clus>
<clus scale="   20.323">  1  5  2 -1</clus>
</clustering>
</event>
<event>
 9    2  0.4653788E-005  0.9643950E+02  0.7546771E-02  0.1289537E+00
         21   -1    0    0  501  502  0.00000000000E+00  0.00000000000E+00  0.26106537914E+03  0.26106537914E+03  0.00000000000E+00 0. -1.
         -3   -1    0    0    0  501 -0.00000000000E+00 -0.00000000000E+00 -0.92263261643E+02  0.92263261643E+02  0.00000000000E+00 0.  1.
         23    2    1    2    0    0 -0.11642457944E+02  0.49517583887E+02  0.13539683342E+02  0.93989883088E+02  0.77866791105E+02 0.  0.
         24    2    1    2    0    0  0.56514460907E+02 -0.39778695750E+02  0.17846089739E+03  0.20789450351E+03  0.81213322587E+02 0.  0.
        -11    1    4    4    0    0  0.12363377646E+02 -0.48857613451E+02  0.46968507067E+02  0.68890929411E+02  0.00000000000E+00 0.  1.
         12    1    4    4    0    0  0.44151083261E+02  0.90789177012E+01  0.13149239033E+03  0.13900357410E+03  0.00000000000E+00 0. -1.
        -11    1    3    3    0    0 -0.18057716313E+02  0.68718722891E+02  0.17920568250E+02  0.73276809159E+02  0.00000000000E+00 0.  1.
         11    1    3    3    0    0  0.64152583687E+01 -0.19201139004E+02 -0.43808849077E+01  0.20713073929E+02  0.00000000000E+00 0. -1.
         -4    1    1    2    0  502 -0.44872002963E+02 -0.97388881367E+01 -0.23198463235E+02  0.51444254184E+02  0.00000000000E+00 0.  1.
<scales pt_clust_5="13000.00000" pt_clust_6="13000.00000" pt_clust_7="13000.00000" pt_clust_8="13000.00000" pt_clust_9="45.91671"></scales>
<clustering>
<clus scale="   45.917">  1  9  2 -1</clus>
<clus scale="   77.867">  7  8 -1 -1</clus>
<clus scale="   81.213">  5  6 -1 -1</clus>
<clus scale="   93.639">  2  7  1 -1</clus>
<clus scale="   45.917">  1  5  2 -1</clus>
</clustering>
</event>
<event>
 9    2  0.4653788E-005  0.1135632E+03  0.7546771E-02  0.1259646E+00
         -1   -1    0    0    0  501 -0.00000000000E+00  0.00000000000E+00  0.46887182596E+02  0.46887182596E+02  0.00000000000E+00 0.  1.
         21   -1    0    0  501  502  0.00000000000E+00 -0.00000000000E+00 -0.34439601308E+03  0.34439601308E+03  0.00000000000E+00 0. -1.
         23    2    1    2    0    0 -0.30809617974E+02  0.62405632800E+02 -0.81587919077E+02  0.14218136077E+03  0.93355531424E+02 0.  0.
         24    2    1    2    0    0  0.62815953837E+01 -0.59058462489E+02 -0.15938617921E+03  0.18738471098E+03  0.78623885376E+02 0.  0.
        -11    1    4    4    0    0 -0.29872429182E+02 -0.29773103761E+02 -0.35767624710E+02  0.55300295751E+02  0.00000000000E+00 0.  1.
         12    1    4    4    0    0  0.36154024565E+02 -0.29285358728E+02 -0.12361855450E+03  0.13208441523E+03  0.00000000000E+00 0. -1.
        -13    1    3    3    0    0 -0.12395972765E+02 -0.21103862335E+02 -0.40467077995E+02  0.47292891091E+02  0.00000000000E+00 0. -1.
         13    1    3    3    0    0 -0.18413645208E+02  0.83509495135E+02 -0.41120841082E+02  0.94888469683E+02  0.00000000000E+00 0.  1.
         -2    1    1    2    0  502  0.24528022590E+02 -0.33471703105E+01 -0.56534732191E+02  0.61717123921E+02  0.00000000000E+00 0.  1.
<scales pt_clust_5="13000.00000" pt_clust_6="13000.00000" pt_clust_7="13000.00000" pt_clust_8="13000.00000" pt_clust_9="24.75535"></scales>
<clustering>
<clus scale="   24.755">  2  9  1 -1</clus>
<clus scale="   78.624">  5  6 -1 -1</clus>
<clus scale="   93.356">  7  8 -1 -1</clus>
<clus scale="  101.799">  2  5  1 -1</clus>
<clus scale="   24.755">  2  5  1 -1</clus>
</clustering>
</event>
<event>
 9    2  0.4653788E-005  0.1549398E+03  0.7546771E-02  0.1201722E+00
         21   -1    0    0  501  502  0.00000000000E+00  0.00000000000E+00  0.51323873389E+02  0.51323873389E+02  0.00000000000E+00 0. -1.
          2   -1    0    0  502    0 -0.00000000000E+00 -0.00000000000E+00 -0.72423445652E+03  0.72423445652E+03  0.00000000000E+00 0. -1.
         24    2    1    2    0    0  0.77214046700E+02  0.96323421946E+02 -0.43197685184E+03  0.45622571999E+03  0.79358026900E+02 0.  0.
         23    2    1    2    0    0 -0.44345141713E+02 -0.40697262769E+02 -0.93908182902E+02  0.15873638836E+03  0.11294129175E+03 0.  0.
        -13    1    3    3    0    0  0.31942771496E+02  0.11196331699E+02 -0.39214791695E+02  0.51802493975E+02  0.00000000000E+00 0.  1.
         14    1    3    3    0    0  0.45271275204E+02  0.85127090247E+02 -0.39276206014E+03  0.40442322602E+03  0.00000000000E+00 0. -1.
        -13    1    4    4    0    0  0.37929261734E+02 -0.85752311405E+01 -0.20910948082E+02  0.44152363861E+02  0.00000000000E+00 0.  1.
         13    1    4    4    0    0 -0.82274403447E+02 -0.32122031628E+02 -0.72997234819E+02  0.11458402450E+03  0.00000000000E+00 0. -1.
          1    1    1    2  501    0 -0.32868904988E+02 -0.55626159178E+02 -0.14702554839E+03  0.16059622156E+03  0.00000000000E+00 0. -1.
<scales pt_clust_5="13000.00000" pt_clust_6="13000.00000" pt_clust_7="13000.00000" pt_clust_8="13000.00000" pt_clust_9="64.61144"></scales>
<clustering>
<clus scale="   64.611">  1  9  2 -1</clus>
<clus scale="   79.358">  5  6 -1 -1</clus>
<clus scale="  112.941">  7  8 -1 -1</clus>
<clus scale="  132.470">  2  5  1 -1</clus>
<clus scale="   64.611">  1  5  2 -1</clus>
</clustering>
</event>
<event>
 9    2  0.4653788E-005  0.1239111E+03  0.7546771E-02  0.1238623E+00
         21   -1    0    0  501  502  0.00000000000E+00  0.00000000000E+00  0.54825353456E+02  0.54825353456E+02  0.00000000000E+00 0.  1.
          2   -1    0    0  502    0 -0.00000000000E+00 -0.00000000000E+00 -0.72521980833E+03  0.72521980833E+03  0.00000000000E+00 0. -1.
         23    2    1    2    0    0 -0.21748233602E+02 -0.75907993321E+02 -0.51931399646E+03  0.53293408182E+03  0.89981662209E+02 0.  0.
         24    2    1    2    0    0  0.11030389797E+02  0.10950744872E+03 -0.15930534818E+03  0.21089720983E+03  0.83581626745E+02 0.  0.
        -13    1    4    4    0    0  0.10004497942E+02  0.38476863613E+02 -0.38038298700E+01  0.39937803323E+02  0.00000000000E+00 0.  1.
         14    1    4    4    0    0  0.10258918547E+01  0.71030585104E+02 -0.15550151831E+03  0.17095940650E+03  0.00000000000E+00 0. -1.
        -11    1    3    3    0    0 -0.33854489932E+02 -0.92830323001E+02 -0.42055810220E+03  0.43201008401E+03  0.00000000000E+00 0. -1.
         11    1    3    3    0    0  0.12106256329E+02  0.16922329680E+02 -0.98755894257E+02  0.10092399781E+03  0.00000000000E+00 0.  1.
          1    1    1    2  501    0  0.10717843805E+02 -0.33599455396E+02  0.82248897678E+01  0.36213870139E+02  0.00000000000E+00 0. -1.
<scales pt_clust_5="13000.00000" pt_clust_6="13000.00000" pt_clust_7="13000.00000" pt_clust_8="13000.00000" pt_clust_9="35.26749"></scales>
<clustering>
<clus scale="   35.267">  1  9  2 -1</clus>
<clus scale="   83.582">  5  6 -1 -1</clus>
<clus scale="   89.982">  7  8 -1 -1</clus>
<clus scale="  119.345">  1  5  2 -1</clus>
<clus scale="   35.267">  1  5  2 -1</clus>
</clustering>
</event>
<event>
 9    2  0.4653788E-005  0.1072701E+03  0.7546771E-02  0.1271153E+00
         -3   -1    0    0    0  501 -0.00000000000E+00  0.00000000000E+00  0.16957243105E+03  0.16957243105E+03  0.00000000000E+00 0.  1.
         21   -1    0    0  501  502  0.00000000000E+00 -0.00000000000E+00 -0.16463708273E+03  0.16463708273E+03  0.00000000000E+00 0. -1.
         23    2    1    2    0    0  0.40344515950E+02  0.71122006096E+01  0.76089429308E+02  0.12650117316E+03  0.92383343702E+02 0.  0.
         24    2    1    2    0    0 -0.94213322572E+02 -0.41694839707E+02 -0.38239529475E+02  0.13572796166E+03  0.79656814853E+02 0.  0.
        -13    1    4    4    0    0 -0.15853731692E+02  0.22449281660E+02  0.43140326282E-03  0.27482922985E+02  0.00000000000E+00 0.  1.
         14    1    4    4    0    0 -0.78359590880E+02 -0.64144121367E+02 -0.38239960879E+02  0.10824503867E+03  0.00000000000E+00 0. -1.
        -13    1    3    3    0    0  0.35864592226E+02  0.42214656129E+02  0.72053144596E+02  0.90884552119E+02  0.00000000000E+00 0.  1.
         13    1    3    3    0    0  0.44799237235E+01 -0.35102455520E+02  0.40362847123E+01  0.35616621041E+02  0.00000000000E+00 0. -1.
         -4    1    1    2    0  502  0.53868806622E+02  0.34582639098E+02 -0.32914551510E+02  0.71980378958E+02  0.00000000000E+00 0.  1.
<scales pt_clust_5="13000.00000" pt_clust_6="13000.00000" pt_clust_7="13000.00000" pt_clust_8="13000.00000" pt_clust_9="64.01412"></scales>
<clustering>
<clus scale="   64.014">  2  9  1 -1</clus>
<clus scale="   79.657">  5  6 -1 -1</clus>
<clus scale="   92.383">  7  8 -1 -1</clus>
<clus scale="   96.527">  2  5  1 -1</clus>
<clus scale="   64.014">  2  5  1 -1</clus>
</clustering>
</event>
<event>
 9    2  0.4653788E-005  0.2238235E+03  0.7546771E-02  0.1146893E+00
          2   -1    0    0  502    0 -0.00000000000E+00  0.00000000000E+00  0.81025599508E+03  0.81025599508E+03  0.00000000000E+00 0. -1.
         21   -1    0    0  501  502  0.00000000000E+00 -0.00000000000E+00 -0.24706206747E+03  0.24706206747E+03  0.00000000000E+00 0. -1.
         24    2    1    2    0    0  0.36854593403E+01  0.13159153618E+03 -0.13062117265E+03  0.20092811885E+03  0.77332420092E+02 0.  0.
         23    2    1    2    0    0 -0.13123264382E+02  0.16633368420E+03  0.17861990608E+03  0.26118023510E+03  0.92037654211E+02 0.  0.
        -11    1    3    3    0    0  0.12636408543E+02  0.82907963018E+02 -0.30500604242E+02  0.89239542871E+02  0.00000000000E+00 0.  1.
         12    1    3    3    0    0 -0.89509492027E+01  0.48683573166E+02 -0.10012056840E+03  0.11168857598E+03  0.00000000000E+00 0. -1.
        -13    1    4    4    0    0  0.38426638801E+02  0.87024349430E+02  0.77380958850E+02  0.12262812384E+03  0.00000000000E+00 0.  1.
         13    1    4    4    0    0 -0.51549903183E+02  0.79309334769E+02  0.10123894723E+03  0.13855211126E+03  0.00000000000E+00 0. -1.
          1    1    1    2  501    0  0.94378050419E+01 -0.29792522038E+03  0.51519519417E+03  0.59520970859E+03  0.00000000000E+00 0. -1.
<scales pt_clust_5="13000.00000" pt_clust_6="13000.00000" pt_clust_7="13000.00000" pt_clust_8="13000.00000" pt_clust_9="204.02469"></scales>
<clustering>
<clus scale="   77.332">  5  6 -1 -1</clus>
<clus scale="   92.038">  7  8 -1 -1</clus>
<clus scale="  152.677">  1  5  2 -1</clus>
<clus scale="  204.025">  2  9  1 -1</clus>
<clus scale="  204.025">  2  5  1 -1</clus>
</clustering>
</event>
<event>
 9    2  0.4653788E-005  0.1046985E+03  0.7546771E-02  0.1278177E+00
         21   -1    0    0  501  502  0.00000000000E+00  0.00000000000E+00  0.13751669389E+03  0.13751669389E+03  0.00000000000E+00 0. -1.
          2   -1    0    0  502    0 -0.00000000000E+00 -0.00000000000E+00 -0.10284842047E+03  0.10284842047E+03  0.00000000000E+00 0. -1.
         23    2    1    2    0    0 -0.70878771968E+01 -0.51308538446E+02 -0.31741692245E+02  0.11212263214E+03  0.94239829636E+02 0.  0.
         24    2    1    2    0    0  0.15279103269E+02  0.30538840326E+02  0.61591774610E+02  0.10540191504E+03  0.78421586500E+02 0.  0.
        -13    1    4    4    0    0  0.10546351738E+02  0.57013334468E+02  0.47984772397E+02  0.75261439158E+02  0.00000000000E+00 0.  1.
         14    1    4    4    0    0  0.47327515312E+01 -0.26474494142E+02  0.13607002213E+02  0.30140475881E+02  0.00000000000E+00 0. -1.
        -13    1    3    3    0    0 -0.34224087564E+02 -0.67212952071E+02 -0.16671094091E+02  0.77245028797E+02  0.00000000000E+00 0.  1.
         13    1    3    3    0    0  0.27136210367E+02  0.15904413625E+02 -0.15070598154E+02  0.34877603338E+02  0.00000000000E+00 0. -1.
          1    1    1    2  501    0 -0.81912260727E+01  0.20769698120E+02  0.48181910591E+01  0.22840567192E+02  0.00000000000E+00 0. -1.
<scales pt_clust_5="13000.00000" pt_clust_6="13000.00000" pt_clust_7="13000.00000" pt_clust_8="13000.00000" pt_clust_9="22.32659"></scales>
<clustering>
<clus scale="   22.327">  1  9  2 -1</clus>
<clus scale="   78.422">  5  6 -1 -1</clus>
<clus scale="   90.722">  1  5  2 -1</clus>
<clus scale="   94.240">  7  8 -1 -1</clus>
<clus scale="   22.327">  1  5  2 -1</clus>
</clustering>
</event>
<event>
 9    2  0.4653788E-005  0.2231878E+03  0.7546771E-02  0.1131529E+00
         21   -1    0    0  501  502  0.00000000000E+00  0.00000000000E+00  0.49880747036E+02  0.49880747036E+02  0.00000000000E+00 0.  1.
         -3   -1    0    0    0  501 -0.00000000000E+00 -0.00000000000E+00 -0.84334178983E+03  0.84334178983E+03  0.00000000000E+00 0.  1.
         24    2    1    2    0    0  0.61172331794E+02  0.71138328565E+02 -0.45086981998E+03  0.46812886424E+03  0.84013826207E+02 0.  0.
         23    2    1    2    0    0  0.25293318339E+02  0.64908328225E+01 -0.27363298238E+03  0.28997211893E+03  0.92341420002E+02 0.  0.
        -11    1    3    3    0    0  0.57542253605E+02  0.20199076007E+02 -0.34774385063E+03  0.35305084516E+03  0.00000000000E+00 0.  1.
         12    1    3    3    0    0  0.36300781891E+01  0.50939252558E+02 -0.10312596936E+03  0.11507801908E+03  0.00000000000E+00 0. -1.
        -11    1    4    4    0    0  0.19725010081E+02 -0.42395682831E+02 -0.13298356848E+03  0.14096488722E+03  0.00000000000E+00 0. -1.
         11    1    4    4    0    0  0.55683082578E+01  0.48886515653E+02 -0.14064941390E+03  0.14900723170E+03  0.00000000000E+00 0.  1.
         -4    1    1    2    0  502 -0.86465650133E+02 -0.77629161388E+02 -0.68958240436E+02  0.13512155370E+03  0.00000000000E+00 0.  1.
<scales pt_clust_5="13000.00000" pt_clust_6="13000.00000" pt_clust_7="13000.00000" pt_clust_8="13000.00000" pt_clust_9="116.20067"></scales>
<clustering>
<clus scale="   84.014">  5  6 -1 -1</clus>
<clus scale="   92.341">  7  8 -1 -1</clus>
<clus scale="   94.134">  5  7 -1 -1</clus>
<clus scale="  116.201">  1  9  2 -1</clus>
<clus scale="  116.201">  1  5  2 -1</clus>
</clustering>
</event>
<event>
 9    2  0.4653788E-005  0.9594724E+02  0.7546771E-02  0.1295398E+00
         21   -1    0    0  501  502  0.00000000000E+00  0.00000000000E+00  0.39059164736E+02  0.39059164736E+02  0.00000000000E+00 0.  1.
         -1   -1    0    0    0  501 -0.00000000000E+00 -0.00000000000E+00 -0.50561727744E+03  0.50561727744E+03  0.00000000000E+00 0.  1.
         23    2    1    2    0    0  0.16715484738E+02 -0.19574822219E+02 -0.26007336242E+03  0.27725208424E+03  0.92563401420E+02 0.  0.
         24    2    1    2    0    0  0.45204053673E+02  0.31432803597E+02 -0.16468489659E+03  0.19178132304E+03  0.81409662151E+02 0.  0.
        -11    1    4    4    0    0  0.15496813548E+02  0.14359180344E+02  0.23603838992E+01  0.21258144380E+02  0.00000000000E+00 0.  1.
         12    1    4    4    0    0  0.29707240124E+02  0.17073623253E+02 -0.16704528048E+03  0.17052317866E+03  0.00000000000E+00 0. -1.
        -13    1    3    3    0    0 -0.37852041530E+02 -0.10274489286E+02 -0.84490633083E+02  0.93150465683E+02  0.00000000000E+00 0. -1.
         13    1    3    3    0    0  0.54567526268E+02 -0.93003329326E+01 -0.17558272934E+03  0.18410161856E+03  0.00000000000E+00 0.  1.
         -2    1    1    2    0  502 -0.61919538410E+02 -0.11857981378E+02 -0.41799853702E+02  0.75643034900E+02  0.00000000000E+00 0.  1.
<scales pt_clust_5="13000.00000" pt_clust_6="13000.00000" pt_clust_7="13000.00000" pt_clust_8="13000.00000" pt_clust_9="63.04475"></scales>
<clustering>
<clus scale="   63.045">  1  9  2 -1</clus>
<clus scale="   81.410">  5  6 -1 -1</clus>
<clus scale="   85.237">  1  5  2 -1</clus>
<clus scale="   92.563">  7  8 -1 -1</clus>
<clus scale="   63.045">  1  5  2 -1</clus>
</clustering>
</event>
<event>
 9    2  0.4653788E-005  0.9636120E+02  0.7546771E-02  0.1293529E+00
         21   -1    0    0  501  502  0.00000000000E+00  0.00000000000E+00  0.33126621365E+02  0.33126621365E+02  0.00000000000E+00 0.  1.
          4   -1    0    0  502    0 -0.00000000000E+00 -0.00000000000E+00 -0.53956077238E+03  0.53956077238E+03  0.00000000000E+00 0. -1.
         23    2    1    2    0    0 -0.12072554197E+02 -0.14043337428E+02 -0.18042828474E+03  0.20276014006E+03  0.90633032470E+02 0.  0.
         24    2    1    2    0    0  0.64065461555E+02 -0.17885691928E+02 -0.14414352771E+03  0.17810276223E+03  0.80740051974E+02 0.  0.
        -13    1    4    4    0    0  0.78153372198E+02  0.41840917441E+01 -0.11219162084E+03  0.13679333316E+03  0.00000000000E+00 0.  1.
         14    1    4    4    0    0 -0.14087910642E+02 -0.22069783672E+02 -0.31951906872E+02  0.41309429073E+02  0.00000000000E+00 0. -1.
        -11    1    3    3    0    0 -0.47801580984E+02  0.95071041142E+01 -0.81297208634E+02  0.94787194836E+02  0.00000000000E+00 0.  1.
         11    1    3    3    0    0  0.35729026786E+02 -0.23550441542E+02 -0.99131076103E+02  0.10797294523E+03  0.00000000000E+00 0. -1.
          3    1    1    2  501    0 -0.51992907358E+02  0.31929029356E+02 -0.18186233857E+03  0.19182449145E+03  0.00000000000E+00 0. -1.
<scales pt_clust_5="13000.00000" pt_clust_6="13000.00000" pt_clust_7="13000.00000" pt_clust_8="13000.00000" pt_clust_9="61.01417"></scales>
<clustering>
<clus scale="   61.014">  1  9  2 -1</clus>
<clus scale="   80.740">  5  6 -1 -1</clus>
<clus scale="   87.121">  1  5  2 -1</clus>
<clus scale="   90.633">  7  8 -1 -1</clus>
<clus scale="   61.014">  1  5  2 -1</clus>
</clustering>
</event>
<event>
 9    2  0.4653788E-005  0.9452617E+02  0.7546771E-02  0.1298624E+00
         21   -1    0    0  501  502  0.00000000000E+00  0.00000000000E+00  0.82302073863E+02  0.82302073863E+02  0.00000000000E+00 0. -1.
          4   -1    0    0  502    0 -0.00000000000E+00 -0.00000000000E+00 -0.34503793732E+03  0.34503793732E+03  0.00000000000E+00 0. -1.
         24    2    1    2    0    0 -0.95552889819E+01 -0.30396555626E+02 -0.20188959758E+03  0.21906673600E+03  0.78838893114E+02 0.  0.
         23    2    1    2    0    0  0.51562552328E+02 -0.83043519144E+01 -0.95691495274E+02  0.14136617220E+03  0.89999296168E+02 0.  0.
        -13    1    3    3    0    0  0.29078636360E+02 -0.73466898051E+01 -0.34391790592E+02  0.45632622145E+02  0.00000000000E+00 0.  1.
         14    1    3    3    0    0 -0.38633925342E+02 -0.23049865821E+02 -0.16749780699E+03  0.17343411385E+03  0.00000000000E+00 0. -1.
        -11    1    4    4    0    0  0.30212897336E+02 -0.48967511782E+02 -0.60624882693E+02  0.83582371210E+02  0.00000000000E+00 0. -1.
         11    1    4    4    0    0  0.21349654992E+02  0.40663159867E+02 -0.35066612582E+02  0.57783800988E+02  0.00000000000E+00 0.  1.
          3    1    1    2  501    0 -0.42007263346E+02  0.38700907540E+02  0.34845229399E+02  0.66907102987E+02  0.00000000000E+00 0. -1.
<scales pt_clust_5="13000.00000" pt_clust_6="13000.00000" pt_clust_7="13000.00000" pt_clust_8="13000.00000" pt_clust_9="57.11716"></scales>
<clustering>
<clus scale="   57.117">  1  9  2 -1</clus>
<clus scale="   78.839">  5  6 -1 -1</clus>
<clus scale="   83.970">  2  5  1 -1</clus>
<clus scale="   89.999">  7  8 -1 -1</clus>
<clus scale="   57.117">  1  5  2 -1</clus>
</clustering>
</event>
<event>
 9    2  0.4653788E-005  0.1531157E+03  0.7546771E-02  0.1219377E+00
          4   -1    0    0  502    0 -0.00000000000E+00  0.00000000000E+00  0.51605934570E+03  0.51605934570E+03  0.00000000000E+00 0. -1.
         21   -1    0    0  501  502  0.00000000000E+00 -0.00000000000E+00 -0.10960708392E+03  0.10960708392E+03  0.00000000000E+00 0.  1.
         23    2    1    2    0    0  0.34873627911E+02  0.68952554029E+01  0.11121504119E+03  0.14573600957E+03  0.87215162840E+02 0.  0.
         24    2    1    2    0    0  0.11496239513E+02 -0.12959643467E+03 -0.35436959551E+01  0.15362415273E+03  0.81611415365E+02 0.  0.
        -11    1    4    4    0    0  0.72448998056E+01 -0.42491655634E+02 -0.40278259902E+02  0.58994640371E+02  0.00000000000E+00 0.  1.
         12    1    4    4    0    0  0.42513397072E+01 -0.87104779040E+02  0.36734563947E+02  0.94629512359E+02  0.00000000000E+00 0. -1.
        -11    1    3    3    0    0  0.24093381352E+02  0.45195737873E+02  0.43501287922E+02  0.67197528211E+02  0.00000000000E+00 0.  1.
         11    1    3    3    0    0  0.10780246560E+02 -0.38300482470E+02  0.67713753266E+02  0.78538481363E+02  0.00000000000E+00 0. -1.
          3    1    1    2  501    0 -0.46369867424E+02  0.12270117927E+03  0.29878091655E+03  0.32630626732E+03  0.00000000000E+00 0. -1.
<scales pt_clust_5="13000.00000" pt_clust_6="13000.00000" pt_clust_7="13000.00000" pt_clust_8="13000.00000" pt_clust_9="129.55311"></scales>
<clustering>
<clus scale="   81.611">  5  6 -1 -1</clus>
<clus scale="   87.215">  7  8 -1 -1</clus>
<clus scale="   94.182">  1  7  2 -1</clus>
<clus scale="  129.553">  2  9  1 -1</clus>
<clus scale="  129.553">  2  5  1 -1</clus>
</clustering>
</event>
<event>
 9    2  0.4653788E-005  0.1822032E+03  0.7546771E-02  0.1167039E+00
          2   -1    0    0  502    0 -0.00000000000E+00  0.00000000000E+00  0.50498094867E+03  0.50498094867E+03  0.00000000000E+00 0. -1.
         21   -1    0    0  501  502  0.00000000000E+00 -0.00000000000E+00 -0.73951761353E+02  0.73951761353E+02  0.00000000000E+00 0.  1.
         23    2    1    2    0    0 -0.71335035063E+02 -0.12833184484E+03  0.19267904088E+03  0.25871074116E+03  0.90820070289E+02 0.  0.
         24    2    1    2    0    0  0.79198565170E+02  0.14944846086E+03  0.22990911579E+03  0.29615960040E+03  0.79025642719E+02 0.  0.
        -13    1    4    4    0    0  0.39999877996E+01  0.91905458982E+02  0.11449862288E+03  0.14687596105E+03  0.00000000000E+00 0.  1.
         14    1    4    4    0    0  0.75198577371E+02  0.57543001879E+02  0.11541049291E+03  0.14928363935E+03  0.00000000000E+00 0. -1.
        -13    1    3    3    0    0  0.10194632108E+02 -0.35398045763E+02  0.92581030245E+02  0.99640349904E+02  0.00000000000E+00 0. -1.
         13    1    3    3    0    0 -0.81529667171E+02 -0.92933799082E+02  0.10009801063E+03  0.15907039125E+03  0.00000000000E+00 0.  1.
          1    1    1    2  501    0 -0.78635301074E+01 -0.21116616017E+02  0.84410306482E+01  0.24062368465E+02  0.00000000000E+00 0. -1.
<scales pt_clust_5="13000.00000" pt_clust_6="13000.00000" pt_clust_7="13000.00000" pt_clust_8="13000.00000" pt_clust_9="22.53323"></scales>
<clustering>
<clus scale="   22.533">  2  9  1 -1</clus>
<clus scale="   79.026">  5  6 -1 -1</clus>
<clus scale="   90.820">  7  8 -1 -1</clus>
<clus scale="  176.620">  2  5  1 -1</clus>
<clus scale="   22.533">  2  5  1 -1</clus>
</clustering>
</event>
<event>
 9    2  0.4653788E-005  0.2467671E+03  0.7546771E-02  0.1116157E+00
         21   -1    0    0  501  502  0.00000000000E+00  0.00000000000E+00  0.22278008040E+03  0.22278008040E+03  0.00000000000E+00 0.  1.
          2   -1    0    0  502    0 -0.00000000000E+00 -0.00000000000E+00 -0.10351760742E+04  0.10351760742E+04  0.00000000000E+00 0. -1.
         23    2    1    2    0    0 -0.20657346921E+03 -0.10745683427E+03 -0.92693432317E+03  0.96013250489E+03  0.91802059233E+02 0.  0.
         24    2    1    2    0    0  0.18687235786E+03  0.70293225430E+02  0.48745773695E+02  0.21973441867E+03  0.77747338353E+02 0.  0.
        -11    1    4    4    0    0  0.17497626245E+03  0.38379791146E+02  0.48844414716E+02  0.18567573249E+03  0.00000000000E+00 0.  1.
         12    1    4    4    0    0  0.11896095413E+02  0.31913434284E+02 -0.98641021045E-01  0.34058686174E+02  0.00000000000E+00 0. -1.
        -13    1    3    3    0    0 -0.18502729542E+03 -0.10356962238E+03 -0.90355561691E+03  0.92810264496E+03  0.00000000000E+00 0. -1.
         13    1    3    3    0    0 -0.21546173793E+02 -0.38872118836E+01 -0.23378706259E+02  0.32029859938E+02  0.00000000000E+00 0.  1.
          1    1    1    2  501    0  0.19701111350E+02  0.37163608838E+02  0.65792555717E+02  0.78089230999E+02  0.00000000000E+00 0. -1.
<scales pt_clust_5="13000.00000" pt_clust_6="13000.00000" pt_clust_7="13000.00000" pt_clust_8="13000.00000" pt_clust_9="42.06266"></scales>
<clustering>
<clus scale="   42.063">  1  9  2 -1</clus>
<clus scale="   77.747">  5  6 -1 -1</clus>
<clus scale="   91.802">  7  8 -1 -1</clus>
<clus scale="  241.890">  1  5  2 -1</clus>
<clus scale="   42.063">  1  5  2 -1</clus>
</clustering>
</event>
<event>
 9    2  0.4653788E-005  0.1495371E+03  0.7546771E-02  0.1220936E+00
          2   -1    0    0  502    0 -0.00000000000E+00  0.00000000000E+00  0.69936164299E+03  0.69936164299E+03  0.00000000000E+00 0. -1.
         21   -1    0    0  501  502  0.00000000000E+00 -0.00000000000E+00 -0.51819710866E+02  0.51819710866E+02  0.00000000000E+00 0. -1.
         23    2    1    2    0    0 -0.38947996347E+02  0.17877480567E+02  0.20999429784E+03  0.23167279710E+03  0.87966636067E+02 0.  0.
         24    2    1    2    0    0  0.16768464137E+01 -0.13535287828E+03  0.23259783140E+03  0.28035582441E+03  0.78577500811E+02 0.  0.
        -11    1    4    4    0    0  0.33497893388E+02 -0.26785535364E+02  0.74196351531E+02  0.85701063859E+02  0.00000000000E+00 0.  1.
         12    1    4    4    0    0 -0.31821046974E+02 -0.10856734292E+03  0.15840147987E+03  0.19465476055E+03  0.00000000000E+00 0. -1.
        -13    1    3    3    0    0  0.26049479591E+02  0.16835668865E+02  0.48307841569E+02  0.57407862616E+02  0.00000000000E+00 0. -1.
         13    1    3    3    0    0 -0.64997475938E+02  0.10418117016E+01  0.16168645627E+03  0.17426493448E+03  0.00000000000E+00 0.  1.
          1    1    1    2  501    0  0.37271149933E+02  0.11747539772E+03  0.20494980289E+03  0.23915273235E+03  0.00000000000E+00 0. -1.
<scales pt_clust_5="13000.00000" pt_clust_6="13000.00000" pt_clust_7="13000.00000" pt_clust_8="13000.00000" pt_clust_9="127.22794"></scales>
<clustering>
<clus scale="   78.578">  5  6 -1 -1</clus>
<clus scale="   87.967">  7  8 -1 -1</clus>
<clus scale="   97.850">  1  7  2 -1</clus>
<clus scale="  127.228">  2  9  1 -1</clus>
<clus scale="  127.228">  2  5  1 -1</clus>
</clustering>
</event>
<event>
 9    2  0.4653788E-005  0.1310102E+03  0.7546771E-02  0.1230528E+00
          4   -1    0    0  502    0 -0.00000000000E+00  0.00000000000E+00  0.12462175403E+03  0.12462175403E+03  0.00000000000E+00 0. -1.
         21   -1    0    0  501  502  0.00000000000E+00 -0.00000000000E+00 -0.36957983572E+03  0.36957983572E+03  0.00000000000E+00 0.  1.
         23    2    1    2    0    0  0.80662165379E+02 -0.40214628313E+02 -0.14007026011E+03  0.19024054756E+03  0.91914019142E+02 0.  0.
         24    2    1    2    0    0 -0.62464180786E+02  0.81424479012E+02 -0.17779752851E+03  0.21825664439E+03  0.74109931932E+02 0.  0.
        -13    1    4    4    0    0 -0.19379725251E+02  0.80147393164E+02 -0.12948754122E+03  0.15351287149E+03  0.00000000000E+00 0.  1.
         14    1    4    4    0    0 -0.43084455535E+02  0.12770858474E+01 -0.48309987298E+02  0.64743772903E+02  0.00000000000E+00 0. -1.
        -13    1    3    3    0    0  0.60712915080E+02 -0.15022580213E+02 -0.14482817750E+03  0.15775594116E+03  0.00000000000E+00 0.  1.
         13    1    3    3    0    0  0.19949250299E+02 -0.25192048099E+02  0.47579173911E+01  0.32484606398E+02  0.00000000000E+00 0. -1.
          3    1    1    2  501    0 -0.18197984593E+02 -0.41209850699E+02  0.72909706935E+02  0.85704397806E+02  0.00000000000E+00 0. -1.
<scales pt_clust_5="13000.00000" pt_clust_6="13000.00000" pt_clust_7="13000.00000" pt_clust_8="13000.00000" pt_clust_9="45.04909"></scales>
<clustering>
<clus scale="   45.049">  2  9  1 -1</clus>
<clus scale="   74.110">  5  6 -1 -1</clus>
<clus scale="   91.914">  7  8 -1 -1</clus>
<clus scale="  119.196">  2  5  1 -1</clus>
<clus scale="   45.049">  2  5  1 -1</clus>
</clustering>
</event>
<event>
 9    2  0.4653788E-005  0.1056693E+03  0.7546771E-02  0.1269796E+00
         21   -1    0    0  501  502  0.00000000000E+00  0.00000000000E+00  0.92631628049E+02  0.92631628049E+02  0.00000000000E+00 0. -1.
         -3   -1    0    0    0  501 -0.00000000000E+00 -0.00000000000E+00 -0.41927851941E+03  0.41927851941E+03  0.00000000000E+00 0.  1.
         23    2    1    2    0    0  0.72250798024E+02 -0.11032778880E+02 -0.35442793290E+02  0.11939941914E+03  0.87510740307E+02 0.  0.
         24    2    1    2    0    0 -0.30585759212E+02  0.44757498248E+02 -0.46534147133E+01  0.10098950047E+03  0.85079390104E+02 0.  0.
        -11    1    4    4    0    0 -0.27047956320E+02  0.15814040196E+02 -0.42757725890E+02  0.53008479809E+02  0.00000000000E+00 0.  1.
         12    1    4    4    0    0 -0.35378028922E+01  0.28943458052E+02  0.38104311177E+02  0.47981020660E+02  0.00000000000E+00 0. -1.
        -13    1    3    3    0    0  0.47300652388E+02 -0.38430725796E+02 -0.50747749193E+02  0.79307039093E+02  0.00000000000E+00 0.  1.
         13    1    3    3    0    0  0.24950145637E+02  0.27397946915E+02  0.15304955903E+02  0.40092380045E+02  0.00000000000E+00 0. -1.
         -4    1    1    2    0  502 -0.41665038813E+02 -0.33724719368E+02 -0.28655068336E+03  0.29152122785E+03  0.00000000000E+00 0.  1.
<scales pt_clust_5="13000.00000" pt_clust_6="13000.00000" pt_clust_7="13000.00000" pt_clust_8="13000.00000" pt_clust_9="53.60350"></scales>
<clustering>
<clus scale="   53.603">  1  9  2 -1</clus>
<clus scale="   85.079">  5  6 -1 -1</clus>
<clus scale="   87.511">  7  8 -1 -1</clus>
<clus scale="  103.665">  1  5  2 -1</clus>
<clus scale="   53.603">  1  5  2 -1</clus>
</clustering>
</event>
<event>
 9    2  0.4653788E-005  0.1282869E+03  0.7546771E-02  0.1237918E+00
          2   -1    0    0  502    0 -0.00000000000E+00  0.00000000000E+00  0.30585194071E+03  0.30585194071E+03  0.00000000000E+00 0. -1.
         21   -1    0    0  501  502  0.00000000000E+00 -0.00000000000E+00 -0.15368416276E+03  0.15368416276E+03  0.00000000000E+00 0.  1.
         24    2    1    2    0    0 -0.27686791177E+01  0.66917897187E+02  0.26090616059E+03  0.29137179667E+03  0.11108478164E+03 0.  0.
         23    2    1    2    0    0 -0.11529973615E+02 -0.43106805991E+02 -0.95243482813E+02  0.13728499569E+03  0.88231014999E+02 0.  0.
        -11    1    3    3    0    0 -0.31710844227E+02  0.44311090012E+02  0.40409971151E+02  0.67838161149E+02  0.00000000000E+00 0.  1.
         12    1    3    3    0    0  0.28942165110E+02  0.22606807174E+02  0.22049618944E+03  0.22353363552E+03  0.00000000000E+00 0. -1.
        -13    1    4    4    0    0 -0.48402498155E+02 -0.37435363741E+02 -0.64891261588E+02  0.89191278254E+02  0.00000000000E+00 0.  1.
         13    1    4    4    0    0  0.36872524540E+02 -0.56714422492E+01 -0.30352221225E+02  0.48093717432E+02  0.00000000000E+00 0. -1.
          1    1    1    2  501    0  0.14298652733E+02 -0.23811091196E+02 -0.13494899825E+02  0.30879311119E+02  0.00000000000E+00 0. -1.
<scales pt_clust_5="13000.00000" pt_clust_6="13000.00000" pt_clust_7="13000.00000" pt_clust_8="13000.00000" pt_clust_9="27.77444"></scales>
<clustering>
<clus scale="   27.774">  2  9  1 -1</clus>
<clus scale="   88.231">  7  8 -1 -1</clus>
<clus scale="  109.098">  2  7  1 -1</clus>
<clus scale="  111.085">  5  6 -1 -1</clus>
<clus scale="   27.774">  2  5  1 -1</clus>
</clustering>
</event>
<event>
 9    2  0.4653788E-005  0.1184189E+03  0.7546771E-02  0.1249378E+00
          4   -1    0    0  502    0 -0.00000000000E+00  0.00000000000E+00  0.15375116981E+03  0.15375116981E+03  0.00000000000E+00 0. -1.
         21   -1    0    0  501  502  0.00000000000E+00 -0.00000000000E+00 -0.13817583951E+03  0.13817583951E+03  0.00000000000E+00 0.  1.
         23    2    1    2    0    0  0.58418769050E+02 -0.74812360545E+02  0.54066281570E+02  0.14240583296E+03  0.91359819349E+02 0.  0.
         24    2    1    2    0    0 -0.29042624361E+02  0.34278566325E+02 -0.37906352173E+02  0.99458334775E+02  0.80228266104E+02 0.  0.
        -13    1    4    4    0    0 -0.14865004117E+02 -0.19652728928E+02 -0.36045990004E+02  0.43663617545E+02  0.00000000000E+00 0.  1.
         14    1    4    4    0    0 -0.14177620244E+02  0.53931295253E+02 -0.18603621697E+01  0.55794717231E+02  0.00000000000E+00 0. -1.
        -11    1    3    3    0    0  0.80660653828E+02 -0.49513458321E+02  0.53490592212E+02  0.10871507295E+03  0.00000000000E+00 0.  1.
         11    1    3    3    0    0 -0.22241884778E+02 -0.25298902224E+02  0.57568935801E+00  0.33690760016E+02  0.00000000000E+00 0. -1.
          3    1    1    2  501    0 -0.29376144689E+02  0.40533794220E+02 -0.58459910132E+00  0.50062841577E+02  0.00000000000E+00 0. -1.
<scales pt_clust_5="13000.00000" pt_clust_6="13000.00000" pt_clust_7="13000.00000" pt_clust_8="13000.00000" pt_clust_9="50.05943"></scales>
<clustering>
<clus scale="   50.059">  2  9  1 -1</clus>
<clus scale="   80.228">  5  6 -1 -1</clus>
<clus scale="   91.360">  7  8 -1 -1</clus>
<clus scale="  110.059">  2  5  1 -1</clus>
<clus scale="   50.059">  2  5  1 -1</clus>
</clustering>
</event>
<event>
 9    2  0.5668689E-005  0.1065583E+03  0.7546771E-02  0.1270489E+00
         -3   -1    0    0    0  501 -0.00000000000E+00  0.00000000000E+00  0.46736716111E+03  0.46736716111E+03  0.00000000000E+00 0.  1.
         21   -1    0    0  501  502  0.00000000000E+00 -0.00000000000E+00 -0.79121467752E+02  0.79121467752E+02  0.00000000000E+00 0.  1.
         23    2    1    2    0    0 -0.74428328841E+02  0.41941964612E+02  0.33215601707E+03  0.35423814675E+03  0.88647280895E+02 0.  0.
         24    2    1    2    0    0  0.14587490969E+02 -0.13608198888E+02  0.86210098758E+02  0.11951144166E+03  0.80329481443E+02 0.  0.
        -13    1    4    4    0    0 -0.25672865504E+02  0.18068471835E+02  0.36260323735E+02  0.47962243223E+02  0.00000000000E+00 0.  1.
         14    1    4    4    0    0  0.40260356473E+02 -0.31676670723E+02  0.49949775023E+02  0.71549198432E+02  0.00000000000E+00 0. -1.
        -11    1    3    3    0    0 -0.19414942490E+02  0.50807918867E+02  0.24368243575E+03  0.24967882190E+03  0.00000000000E+00 0.  1.
         11    1    3    3    0    0 -0.55013386351E+02 -0.88659542549E+01  0.88473581319E+02  0.10455932485E+03  0.00000000000E+00 0. -1.
         -4    1    1    2    0  502  0.59840837872E+02 -0.28333765724E+02 -0.30120422465E+02  0.72739040458E+02  0.00000000000E+00 0.  1.
<scales pt_clust_5="13000.00000" pt_clust_6="13000.00000" pt_clust_7="13000.00000" pt_clust_8="13000.00000" pt_clust_9="66.20973"></scales>
<clustering>
<clus scale="   66.210">  2  9  1 -1</clus>
<clus scale="   80.329">  5  6 -1 -1</clus>
<clus scale="   88.647">  7  8 -1 -1</clus>
<clus scale="   99.745">  2  5  1 -1</clus>
<clus scale="   66.210">  2  5  1 -1</clus>
</clustering>
</event>
<event>
 9    2  0.4653788E-005  0.9420031E+02  0.7546771E-02  0.1300233E+00
          2   -1    0    0  502    0 -0.00000000000E+00  0.00000000000E+00  0.17069338263E+03  0.17069338263E+03  0.00000000000E+00 0. -1.
         21   -1    0    0  501  502  0.00000000000E+00 -0.00000000000E+00 -0.78473545617E+02  0.78473545617E+02  0.00000000000E+00 0.  1.
         24    2    1    2    0    0  0.30903949312E+01  0.21567120898E+01  0.63549282839E+02  0.10318987980E+03  0.81212301994E+02 0.  0.
         23    2    1    2    0    0 -0.30086534637E+02  0.28481500781E+02  0.16115854440E+02  0.10325571733E+03  0.93196711018E+02 0.  0.
        -11    1    3    3    0    0  0.20467260493E+02  0.37044582894E+02  0.33354191931E+02  0.53886102042E+02  0.00000000000E+00 0.  1.
         12    1    3    3    0    0 -0.17376865562E+02 -0.34887870804E+02  0.30195090907E+02  0.49303777755E+02  0.00000000000E+00 0. -1.
        -11    1    4    4    0    0 -0.16717074316E+02 -0.31159870885E+02  0.22326509988E+02  0.41819507117E+02  0.00000000000E+00 0. -1.
         11    1    4    4    0    0 -0.13369460321E+02  0.59641371666E+02 -0.62106555480E+01  0.61436210217E+02  0.00000000000E+00 0.  1.
          1    1    1    2  501    0  0.26996139706E+02 -0.30638212870E+02  0.12554699732E+02  0.42721331115E+02  0.00000000000E+00 0. -1.
<scales pt_clust_5="13000.00000" pt_clust_6="13000.00000" pt_clust_7="13000.00000" pt_clust_8="13000.00000" pt_clust_9="40.83493"></scales>
<clustering>
<clus scale="   40.835">  2  9  1 -1</clus>
<clus scale="   81.212">  5  6 -1 -1</clus>
<clus scale="   82.362">  1  5  2 -1</clus>
<clus scale="   93.197">  7  8 -1 -1</clus>
<clus scale="   40.835">  2  5  1 -1</clus>
</clustering>
</event>
<event>
 9    2  0.4653788E-005  0.1188340E+03  0.7546771E-02  0.1249547E+00
          2   -1    0    0  502    0 -0.00000000000E+00  0.00000000000E+00  0.10506628218E+04  0.10506628218E+04  0.00000000000E+00 0. -1.
         21   -1    0    0  501  502  0.00000000000E+00 -0.00000000000E+00 -0.52885802678E+02  0.52885802678E+02  0.00000000000E+00 0. -1.
         24    2    1    2    0    0 -0.37646945420E+02  0.73071458606E+02  0.74981023356E+03  0.75850327966E+03  0.79718933389E+02 0.  0.
         23    2    1    2    0    0 -0.56543130986E+02 -0.30046465995E+02  0.54387820598E+02  0.12551007166E+03  0.93246057711E+02 0.  0.
        -11    1    3    3    0    0 -0.45675257877E+02  0.50795746348E+02  0.28431899591E+03  0.29241020581E+03  0.00000000000E+00 0.  1.
         12    1    3    3    0    0  0.80283124563E+01  0.22275712259E+02  0.46549123765E+03  0.46609307384E+03  0.00000000000E+00 0. -1.
        -13    1    4    4    0    0 -0.24349186217E+02 -0.22409426827E+02  0.78087932372E+02  0.84810320494E+02  0.00000000000E+00 0.  1.
         13    1    4    4    0    0 -0.32193944769E+02 -0.76370391673E+01 -0.23700111774E+02  0.40699751168E+02  0.00000000000E+00 0. -1.
          1    1    1    2  501    0  0.94190076406E+02 -0.43024992611E+02  0.19357896495E+03  0.21953527314E+03  0.00000000000E+00 0. -1.
<scales pt_clust_5="13000.00000" pt_clust_6="13000.00000" pt_clust_7="13000.00000" pt_clust_8="13000.00000" pt_clust_9="103.55154"></scales>
<clustering>
<clus scale="   79.719">  5  6 -1 -1</clus>
<clus scale="   93.246">  7  8 -1 -1</clus>
<clus scale="  103.552">  2  9  1 -1</clus>
<clus scale="  108.544">  1  5  2 -1</clus>
<clus scale="  103.552">  2  5  1 -1</clus>
</clustering>
</event>
<event>
 9    2  0.4653788E-005  0.3002164E+03  0.7546771E-02  0.1085132E+00
          2   -1    0    0  502    0 -0.00000000000E+00  0.00000000000E+00  0.46891603888E+03  0.46891603888E+03  0.00000000000E+00 0. -1.
         21   -1    0    0  501  502  0.00000000000E+00 -0.00000000000E+00 -0.19016091054E+03  0.19016091054E+03  0.00000000000E+00 0. -1.
         24    2    1    2    0    0 -0.94229056904E+02 -0.10372290298E+03  0.15458579452E+03  0.22363639014E+03  0.80491685052E+02 0.  0.
         23    2    1    2    0    0 -0.58925595144E+02 -0.83026758356E+02  0.13526174699E+03  0.19366623251E+03  0.94048929021E+02 0.  0.
        -11    1    3    3    0    0 -0.29274096265E+02 -0.64978362451E+02  0.28808631194E+02  0.76870654545E+02  0.00000000000E+00 0.  1.
         12    1    3    3    0    0 -0.64954960639E+02 -0.38744540531E+02  0.12577716332E+03  0.14676573560E+03  0.00000000000E+00 0. -1.
        -13    1    4    4    0    0 -0.54944238524E+02 -0.37858905029E+01  0.79406765719E+02  0.96636622229E+02  0.00000000000E+00 0.  1.
         13    1    4    4    0    0 -0.39813566202E+01 -0.79240867853E+02  0.55854981273E+02  0.97029610283E+02  0.00000000000E+00 0. -1.
          1    1    1    2  501    0  0.15315465205E+03  0.18674966134E+03 -0.11092413172E+02  0.24177432677E+03  0.00000000000E+00 0. -1.
<scales pt_clust_5="13000.00000" pt_clust_6="13000.00000" pt_clust_7="13000.00000" pt_clust_8="13000.00000" pt_clust_9="241.51974"></scales>
<clustering>
<clus scale="   80.492">  5  6 -1 -1</clus>
<clus scale="   94.049">  7  8 -1 -1</clus>
<clus scale="   95.320">  5  7 -1 -1</clus>
<clus scale="  241.520">  2  9  1 -1</clus>
<clus scale="  241.520">  2  5  1 -1</clus>
</clustering>
</event>
<event>
 9    2  0.4653788E-005  0.1553204E+03  0.7546771E-02  0.1196427E+00
         21   -1    0    0  501  502  0.00000000000E+00  0.00000000000E+00  0.38101663457E+02  0.38101663457E+02  0.00000000000E+00 0.  1.
         -1   -1    0    0    0  501 -0.00000000000E+00 -0.00000000000E+00 -0.10613947591E+04  0.10613947591E+04  0.00000000000E+00 0.  1.
         23    2    1    2    0    0 -0.44925581262E+02 -0.15122893200E+03 -0.48647493630E+03  0.51963508989E+03  0.92055772617E+02 0.  0.
         24    2    1    2    0    0  0.48625524997E+01  0.91406097286E+02 -0.18489526596E+03  0.22064894324E+03  0.78236677730E+02 0.  0.
        -13    1    4    4    0    0 -0.26278512967E+02  0.84386478193E+02 -0.13161477152E+03  0.15853733323E+03  0.00000000000E+00 0.  1.
         14    1    4    4    0    0  0.31141065467E+02  0.70196190928E+01 -0.53280494438E+02  0.62111610011E+02  0.00000000000E+00 0. -1.
        -13    1    3    3    0    0 -0.92082097802E+01 -0.14565068453E+03 -0.37270361601E+03  0.40025853947E+03  0.00000000000E+00 0.  1.
         13    1    3    3    0    0 -0.35717371482E+02 -0.55782474769E+01 -0.11377132029E+03  0.11937655042E+03  0.00000000000E+00 0. -1.
         -2    1    1    2    0  502  0.40063028763E+02  0.59822834717E+02 -0.35192289343E+03  0.35921238947E+03  0.00000000000E+00 0.  1.
<scales pt_clust_5="13000.00000" pt_clust_6="13000.00000" pt_clust_7="13000.00000" pt_clust_8="13000.00000" pt_clust_9="71.99877"></scales>
<clustering>
<clus scale="   71.999">  1  9  2 -1</clus>
<clus scale="   78.237">  5  6 -1 -1</clus>
<clus scale="   92.056">  7  8 -1 -1</clus>
<clus scale="  147.550">  1  5  2 -1</clus>
<clus scale="   71.999">  1  5  2 -1</clus>
</clustering>
</event>
<event>
 9    2  0.4653788E-005  0.1238453E+03  0.7546771E-02  0.1241764E+00
         21   -1    0    0  501  502  0.00000000000E+00  0.00000000000E+00  0.40002757669E+02  0.40002757669E+02  0.00000000000E+00 0.  1.
         -1   -1    0    0    0  501 -0.00000000000E+00 -0.00000000000E+00 -0.11431902653E+04  0.11431902653E+04  0.00000000000E+00 0.  1.
         24    2    1    2    0    0  0.25000091947E+02  0.90848162554E+02 -0.82178397892E+03  0.83107857977E+03  0.80525179273E+02 0.  0.
         23    2    1    2    0    0 -0.58673167537E+02  0.75222501697E+00 -0.17094828057E+03  0.20472085831E+03  0.96146808402E+02 0.  0.
        -11    1    3    3    0    0 -0.26398604441E+02  0.42770948012E+02 -0.25191885284E+03  0.25688392073E+03  0.00000000000E+00 0.  1.
         12    1    3    3    0    0  0.51398696388E+02  0.48077214542E+02 -0.56986512608E+03  0.57419465904E+03  0.00000000000E+00 0. -1.
        -11    1    4    4    0    0 -0.86196058305E+01 -0.41040858760E+02 -0.37778883447E+02  0.56443721767E+02  0.00000000000E+00 0. -1.
         11    1    4    4    0    0 -0.50053561706E+02  0.41793083777E+02 -0.13316939712E+03  0.14827713654E+03  0.00000000000E+00 0.  1.
         -2    1    1    2    0  502  0.33673075590E+02 -0.91600387571E+02 -0.11045524809E+03  0.14739358485E+03  0.00000000000E+00 0.  1.
<scales pt_clust_5="13000.00000" pt_clust_6="13000.00000" pt_clust_7="13000.00000" pt_clust_8="13000.00000" pt_clust_9="97.59358"></scales>
<clustering>
<clus scale="   80.525">  5  6 -1 -1</clus>
<clus scale="   96.147">  7  8 -1 -1</clus>
<clus scale="   97.594">  1  9  2 -1</clus>
<clus scale="  112.151">  2  5  1 -1</clus>
<clus scale="   97.594">  1  5  2 -1</clus>
</clustering>
</event>
<event>
 9    2  0.4653788E-005  0.1547089E+03  0.7546771E-02  0.1196973E+00
         -3   -1    0    0    0  501 -0.00000000000E+00  0.00000000000E+00  0.12276550676E+04  0.12276550676E+04  0.00000000000E+00 0.  1.
         21   -1    0    0  501  502  0.00000000000E+00 -0.00000000000E+00 -0.85505156890E+02  0.85505156890E+02  0.00000000000E+00 0.  1.
         24    2    1    2    0    0  0.12565066408E+03 -0.52499493030E+02  0.10992194140E+04  0.11103663836E+04  0.78012176128E+02 0.  0.
         23    2    1    2    0    0 -0.40892628416E+02  0.42491852365E+02  0.45330125659E+02  0.11741330626E+03  0.90847672611E+02 0.  0.
        -11    1    3    3    0    0  0.90889172069E+02 -0.31568250516E+02  0.46497897727E+03  0.47482928020E+03  0.00000000000E+00 0.  1.
         12    1    3    3    0    0  0.34761492013E+02 -0.20931242514E+02  0.63424043669E+03  0.63553710338E+03  0.00000000000E+00 0. -1.
        -13    1    4    4    0    0 -0.25745318258E+02 -0.25172389698E+02  0.28860028204E+02  0.46145117220E+02  0.00000000000E+00 0. -1.
         13    1    4    4    0    0 -0.15147310158E+02  0.67664242064E+02  0.16470097455E+02  0.71268189041E+02  0.00000000000E+00 0.  1.
         -4    1    1    2    0  502 -0.84758035666E+02  0.10007640664E+02 -0.23996288785E+01  0.85380534669E+02  0.00000000000E+00 0.  1.
<scales pt_clust_5="13000.00000" pt_clust_6="13000.00000" pt_clust_7="13000.00000" pt_clust_8="13000.00000" pt_clust_9="85.34681"></scales>
<clustering>
<clus scale="   78.012">  5  6 -1 -1</clus>
<clus scale="   85.347">  2  9  1 -1</clus>
<clus scale="   90.848">  7  8 -1 -1</clus>
<clus scale="  147.538">  1  5  2 -1</clus>
<clus scale="   85.347">  2  5  1 -1</clus>
</clustering>
</event>
<event>
 9    2  0.4653788E-005  0.1587555E+03  0.7546771E-02  0.1192167E+00
          2   -1    0    0  502    0 -0.00000000000E+00  0.00000000000E+00  0.22894555596E+04  0.22894555596E+04  0.00000000000E+00 0. -1.
         21   -1    0    0  501  502  0.00000000000E+00 -0.00000000000E+00 -0.23353633436E+02  0.23353633436E+02  0.00000000000E+00 0.  1.
         24    2    1    2    0    0  0.12986026215E+03 -0.53650339155E+02  0.16276310819E+04  0.16356716965E+04  0.80603433348E+02 0.  0.
         23    2    1    2    0    0 -0.66647598475E+02  0.87837271208E+02  0.50879433453E+03  0.52887899136E+03  0.93188111147E+02 0.  0.
        -11    1    3    3    0    0  0.85902654816E+01 -0.20147456472E+02  0.80277211310E+02  0.83211437429E+02  0.00000000000E+00 0.  1.
         12    1    3    3    0    0  0.12126999667E+03 -0.33502882683E+02  0.15473538706E+04  0.15524602591E+04  0.00000000000E+00 0. -1.
        -11    1    4    4    0    0 -0.49776628694E+02  0.51167809489E+01  0.10447933592E+03  0.11584397199E+03  0.00000000000E+00 0.  1.
         11    1    4    4    0    0 -0.16870969781E+02  0.82720490260E+02  0.40431499860E+03  0.41303501937E+03  0.00000000000E+00 0. -1.
          1    1    1    2  501    0 -0.63212663677E+02 -0.34186932054E+02  0.12967650974E+03  0.14825850515E+03  0.00000000000E+00 0. -1.
<scales pt_clust_5="13000.00000" pt_clust_6="13000.00000" pt_clust_7="13000.00000" pt_clust_8="13000.00000" pt_clust_9="71.86506"></scales>
<clustering>
<clus scale="   71.865">  2  9  1 -1</clus>
<clus scale="   80.603">  5  6 -1 -1</clus>
<clus scale="   93.188">  7  8 -1 -1</clus>
<clus scale="  151.711">  1  5  2 -1</clus>
<clus scale="   71.865">  2  5  1 -1</clus>
</clustering>
</event>
<event>
 9    2  0.4653788E-005  0.9134061E+02  0.7546771E-02  0.1304035E+00
          2   -1    0    0  502    0 -0.00000000000E+00  0.00000000000E+00  0.21171339919E+03  0.21171339919E+03  0.00000000000E+00 0. -1.
         21   -1    0    0  501  502  0.00000000000E+00 -0.00000000000E+00 -0.17950607140E+03  0.17950607140E+03  0.00000000000E+00 0.  1.
         24    2    1    2    0    0 -0.74388505222E+01 -0.17989281461E+02  0.15596908769E+03  0.17731166671E+03  0.82061684671E+02 0.  0.
         23    2    1    2    0    0 -0.53158405600E+02  0.29288256142E+02 -0.10196371730E+03  0.14852547493E+03  0.89328601379E+02 0.  0.
        -11    1    3    3    0    0  0.35273597214E+02  0.24669970022E+01  0.84225119039E+02  0.91346501914E+02  0.00000000000E+00 0.  1.
         12    1    3    3    0    0 -0.42712447737E+02 -0.20456278463E+02  0.71743968654E+02  0.85965164796E+02  0.00000000000E+00 0. -1.
        -11    1    4    4    0    0 -0.59739382519E+02 -0.14904182229E+01 -0.10061398802E+03  0.11702217634E+03  0.00000000000E+00 0.  1.
         11    1    4    4    0    0  0.65809769193E+01  0.30778674365E+02 -0.13497292769E+01  0.31503298589E+02  0.00000000000E+00 0. -1.
          1    1    1    2  501    0  0.60597256122E+02 -0.11298974681E+02 -0.21798042604E+02  0.65382328956E+02  0.00000000000E+00 0. -1.
<scales pt_clust_5="13000.00000" pt_clust_6="13000.00000" pt_clust_7="13000.00000" pt_clust_8="13000.00000" pt_clust_9="61.64166"></scales>
<clustering>
<clus scale="   61.642">  2  9  1 -1</clus>
<clus scale="   82.062">  5  6 -1 -1</clus>
<clus scale="   84.247">  1  5  2 -1</clus>
<clus scale="   89.329">  7  8 -1 -1</clus>
<clus scale="   61.642">  2  5  1 -1</clus>
</clustering>
</event>
<event>
 9    2  0.4653788E-005  0.1111178E+03  0.7546771E-02  0.1263095E+00
         -1   -1    0    0    0  501 -0.00000000000E+00  0.00000000000E+00  0.16898267796E+03  0.16898267796E+03  0.00000000000E+00 0.  1.
         21   -1    0    0  501  502  0.00000000000E+00 -0.00000000000E+00 -0.13723764097E+03  0.13723764097E+03  0.00000000000E+00 0. -1.
         24    2    1    2    0    0  0.72225003627E+02 -0.42190896493E+01  0.47368825994E+02  0.11727429429E+03  0.79216176123E+02 0.  0.
         23    2    1    2    0    0 -0.33614398407E+02  0.52562220739E+02 -0.46447077738E+02  0.11982358048E+03  0.91146281210E+02 0.  0.
        -11    1    3    3    0    0  0.76977179466E+02 -0.22573928778E+02  0.17833887667E+02  0.82177344617E+02  0.00000000000E+00 0.  1.
         12    1    3    3    0    0 -0.47521758385E+01  0.18354839128E+02  0.29534938327E+02  0.35096949677E+02  0.00000000000E+00 0. -1.
        -11    1    4    4    0    0 -0.14264133285E+02  0.71440234948E+02 -0.86617687752E+01  0.73363471197E+02  0.00000000000E+00 0.  1.
         11    1    4    4    0    0 -0.19350265122E+02 -0.18878014209E+02 -0.37785308963E+02  0.46460109279E+02  0.00000000000E+00 0. -1.
         -2    1    1    2    0  502 -0.38610605220E+02 -0.48343131089E+02  0.30823288726E+02  0.69122444162E+02  0.00000000000E+00 0.  1.
<scales pt_clust_5="13000.00000" pt_clust_6="13000.00000" pt_clust_7="13000.00000" pt_clust_8="13000.00000" pt_clust_9="61.86955"></scales>
<clustering>
<clus scale="   61.870">  2  9  1 -1</clus>
<clus scale="   79.216">  5  6 -1 -1</clus>
<clus scale="   91.146">  7  8 -1 -1</clus>
<clus scale="  101.561">  1  5  2 -1</clus>
<clus scale="   61.870">  2  5  1 -1</clus>
</clustering>
</event>
<event>
 9    2  0.4653788E-005  0.1135117E+03  0.7546771E-02  0.1255387E+00
          2   -1    0    0  502    0 -0.00000000000E+00  0.00000000000E+00  0.18958239582E+03  0.18958239582E+03  0.00000000000E+00 0. -1.
         21   -1    0    0  501  502  0.00000000000E+00 -0.00000000000E+00 -0.30578634774E+03  0.30578634774E+03  0.00000000000E+00 0. -1.
         24    2    1    2    0    0  0.86371381367E+02 -0.28472518417E+02  0.12166078091E+03  0.17099193424E+03  0.78525130626E+02 0.  0.
         23    2    1    2    0    0 -0.52940181493E+02  0.33858039379E+02 -0.14739563853E+02  0.98696748177E+02  0.74664340290E+02 0.  0.
        -13    1    3    3    0    0  0.52107674310E+02 -0.55302818680E+02  0.68622135313E+02  0.10238461276E+03  0.00000000000E+00 0.  1.
         14    1    3    3    0    0  0.34263707057E+02  0.26830300263E+02  0.53038645600E+02  0.68607321480E+02  0.00000000000E+00 0. -1.
        -13    1    4    4    0    0 -0.46589633759E+02  0.56053678190E+02 -0.18759610882E+02  0.75263083998E+02  0.00000000000E+00 0. -1.
         13    1    4    4    0    0 -0.63505477336E+01 -0.22195638811E+02  0.40200470287E+01  0.23433664179E+02  0.00000000000E+00 0.  1.
          1    1    1    2  501    0 -0.33431199874E+02 -0.53855209621E+01 -0.22312516898E+03  0.22568006114E+03  0.00000000000E+00 0. -1.
<scales pt_clust_5="13000.00000" pt_clust_6="13000.00000" pt_clust_7="13000.00000" pt_clust_8="13000.00000" pt_clust_9="33.86221"></scales>
<clustering>
<clus scale="   33.862">  2  9  1 -1</clus>
<clus scale="   74.664">  7  8 -1 -1</clus>
<clus scale="   78.525">  5  6 -1 -1</clus>
<clus scale="  110.876">  2  7  1 -1</clus>
<clus scale="   33.862">  2  5  1 -1</clus>
</clustering>
</event>
<event>
 9    2  0.4653788E-005  0.1696710E+03  0.7546771E-02  0.1209654E+00
         -3   -1    0    0    0  501 -0.00000000000E+00  0.00000000000E+00  0.14623465957E+03  0.14623465957E+03  0.00000000000E+00 0.  1.
         21   -1    0    0  501  502  0.00000000000E+00 -0.00000000000E+00 -0.45582482178E+03  0.45582482178E+03  0.00000000000E+00 0.  1.
         23    2    1    2    0    0 -0.17177509320E+02 -0.69486614316E+01 -0.86089270529E+02  0.12101695129E+03  0.83008368720E+02 0.  0.
         24    2    1    2    0    0 -0.24559223679E+02 -0.14051323277E+03  0.48423857006E+02  0.16890468540E+03  0.76398944826E+02 0.  0.
        -11    1    4    4    0    0  0.18264062318E+01 -0.63884398053E+02 -0.15407633866E+02  0.65741518507E+02  0.00000000000E+00 0.  1.
         12    1    4    4    0    0 -0.26385629910E+02 -0.76628834720E+02  0.63831490871E+02  0.10316316689E+03  0.00000000000E+00 0. -1.
        -13    1    3    3    0    0  0.27511061973E+02  0.33582448853E+01 -0.64752959903E+02  0.70434949818E+02  0.00000000000E+00 0.  1.
         13    1    3    3    0    0 -0.44688571293E+02 -0.10306906317E+02 -0.21336310626E+02  0.50582001474E+02  0.00000000000E+00 0. -1.
         -4    1    1    2    0  502  0.41736732998E+02  0.14746189420E+03 -0.27192474869E+03  0.31213784466E+03  0.00000000000E+00 0.  1.
<scales pt_clust_5="13000.00000" pt_clust_6="13000.00000" pt_clust_7="13000.00000" pt_clust_8="13000.00000" pt_clust_9="151.49740"></scales>
<clustering>
<clus scale="   76.399">  5  6 -1 -1</clus>
<clus scale="   83.008">  7  8 -1 -1</clus>
<clus scale="   85.051">  1  7  2 -1</clus>
<clus scale="  151.497">  2  9  1 -1</clus>
<clus scale="  151.497">  2  5  1 -1</clus>
</clustering>
</event>
<event>
 9    2  0.4653788E-005  0.1053848E+03  0.7546771E-02  0.1277090E+00
         21   -1    0    0  501  502  0.00000000000E+00  0.00000000000E+00  0.62608411351E+02  0.62608411351E+02  0.00000000000E+00 0.  1.
         -3   -1    0    0    0  501 -0.00000000000E+00 -0.00000000000E+00 -0.37440056661E+03  0.37440056661E+03  0.00000000000E+00 0.  1.
         24    2    1    2    0    0  0.75595812193E+02  0.73157338628E+01 -0.13629432204E+03  0.17493796112E+03  0.79113217828E+02 0.  0.
         23    2    1    2    0    0  0.85562028460E+01 -0.21183263094E+02 -0.49552481600E+02  0.10996545615E+03  0.95472581773E+02 0.  0.
        -13    1    3    3    0    0  0.53817628451E+01 -0.29022156430E+02 -0.48650787311E+02  0.56904727757E+02  0.00000000000E+00 0.  1.
         14    1    3    3    0    0  0.70214049348E+02  0.36337890293E+02 -0.87643534731E+02  0.11803323336E+03  0.00000000000E+00 0. -1.
        -11    1    4    4    0    0  0.87540901850E+01  0.37836224370E+02 -0.15408731924E+02  0.41780892631E+02  0.00000000000E+00 0.  1.
         11    1    4    4    0    0 -0.19788733898E+00 -0.59019487464E+02 -0.34143749676E+02  0.68184563516E+02  0.00000000000E+00 0. -1.
         -4    1    1    2    0  502 -0.84152015039E+02  0.13867529231E+02 -0.12594535162E+03  0.15210556070E+03  0.00000000000E+00 0.  1.
<scales pt_clust_5="13000.00000" pt_clust_6="13000.00000" pt_clust_7="13000.00000" pt_clust_8="13000.00000" pt_clust_9="85.28703"></scales>
<clustering>
<clus scale="   79.113">  5  6 -1 -1</clus>
<clus scale="   85.287">  1  9  2 -1</clus>
<clus scale="   90.829">  2  5  1 -1</clus>
<clus scale="   95.473">  7  8 -1 -1</clus>
<clus scale="   85.287">  1  5  2 -1</clus>
</clustering>
</event>
<event>
 9    2  0.4653788E-005  0.1128968E+03  0.7546771E-02  0.1262671E+00
         21   -1    0    0  501  502  0.00000000000E+00  0.00000000000E+00  0.18882564942E+03  0.18882564942E+03  0.00000000000E+00 0.  1.
         -1   -1    0    0    0  501 -0.00000000000E+00 -0.00000000000E+00 -0.13285209129E+03  0.13285209129E+03  0.00000000000E+00 0.  1.
         23    2    1    2    0    0 -0.26212475798E+02  0.64729995455E+02 -0.71612679303E+02  0.13551709335E+03  0.91429976231E+02 0.  0.
         24    2    1    2    0    0  0.47174609479E+02 -0.39823227385E+02  0.62611090766E+02  0.11348652659E+03  0.71747542205E+02 0.  0.
        -13    1    4    4    0    0  0.47972382181E+02  0.52833218661E+01  0.41614294847E+02  0.63726073767E+02  0.00000000000E+00 0.  1.
         14    1    4    4    0    0 -0.79777270223E+00 -0.45106549251E+02  0.20996795918E+02  0.49760452826E+02  0.00000000000E+00 0. -1.
        -11    1    3    3    0    0 -0.25908719467E+02 -0.66654169489E+01 -0.56536679995E+02  0.62546668275E+02  0.00000000000E+00 0. -1.
         11    1    3    3    0    0 -0.30375633090E+00  0.71395412403E+02 -0.15075999309E+02  0.72970425073E+02  0.00000000000E+00 0.  1.
         -2    1    1    2    0  502 -0.20962133681E+02 -0.24906768069E+02  0.64975146673E+02  0.72674120768E+02  0.00000000000E+00 0.  1.
<scales pt_clust_5="13000.00000" pt_clust_6="13000.00000" pt_clust_7="13000.00000" pt_clust_8="13000.00000" pt_clust_9="32.55393"></scales>
<clustering>
<clus scale="   32.554">  1  9  2 -1</clus>
<clus scale="   71.748">  5  6 -1 -1</clus>
<clus scale="   91.430">  7  8 -1 -1</clus>
<clus scale="   97.642">  1  5  2 -1</clus>
<clus scale="   32.554">  1  5  2 -1</clus>
</clustering>
</event>
<event>
 9    2  0.4653788E-005  0.1049141E+03  0.7546771E-02  0.1275986E+00
         21   -1    0    0  501  502  0.00000000000E+00  0.00000000000E+00  0.37469941976E+03  0.37469941976E+03  0.00000000000E+00 0. -1.
          2   -1    0    0  502    0 -0.00000000000E+00 -0.00000000000E+00 -0.14005109480E+03  0.14005109480E+03  0.00000000000E+00 0. -1.
         23    2    1    2    0    0 -0.12207914940E+02  0.50371580520E+02 -0.10419347588E+03  0.14878415057E+03  0.92704442899E+02 0.  0.
         24    2    1    2    0    0 -0.21626186211E+02 -0.33163964596E+02  0.16141921121E+03  0.18452870595E+03  0.80169452377E+02 0.  0.
        -11    1    4    4    0    0  0.25686657867E+02 -0.12992199723E+02  0.10179045663E+03  0.10578231756E+03  0.00000000000E+00 0.  1.
         12    1    4    4    0    0 -0.47312844078E+02 -0.20171764873E+02  0.59628754579E+02  0.78746388396E+02  0.00000000000E+00 0. -1.
        -13    1    3    3    0    0  0.30194506723E+02  0.45041991078E+02 -0.27060543455E+02  0.60603318462E+02  0.00000000000E+00 0.  1.
         13    1    3    3    0    0 -0.42402421662E+02  0.53295894419E+01 -0.77132932427E+02  0.88180832108E+02  0.00000000000E+00 0. -1.
          1    1    1    2  501    0  0.33834101151E+02 -0.17207615924E+02  0.17742258963E+03  0.18143765804E+03  0.00000000000E+00 0. -1.
<scales pt_clust_5="13000.00000" pt_clust_6="13000.00000" pt_clust_7="13000.00000" pt_clust_8="13000.00000" pt_clust_9="37.95851"></scales>
<clustering>
<clus scale="   37.959">  1  9  2 -1</clus>
<clus scale="   80.169">  5  6 -1 -1</clus>
<clus scale="   92.704">  7  8 -1 -1</clus>
<clus scale="   94.021">  1  5  2 -1</clus>
<clus scale="   37.959">  1  5  2 -1</clus>
</clustering>
</event>
<event>
 9    2  0.4653788E-005  0.1271172E+03  0.7546771E-02  0.1234835E+00
         21   -1    0    0  501  502  0.00000000000E+00  0.00000000000E+00  0.47080261221E+03  0.47080261221E+03  0.00000000000E+00 0.  1.
         -1   -1    0    0    0  501 -0.00000000000E+00 -0.00000000000E+00 -0.11988725270E+03  0.11988725270E+03  0.00000000000E+00 0.  1.
         23    2    1    2    0    0 -0.58766759847E+02  0.46228966960E+02 -0.26467309767E+02  0.12031531008E+03  0.90468811776E+02 0.  0.
         24    2    1    2    0    0  0.93910919950E+02 -0.92640247195E+02  0.92435175913E+02  0.17954093763E+03  0.79304541184E+02 0.  0.
        -11    1    4    4    0    0  0.68084342242E+02 -0.85549447990E+02  0.32770126128E+02  0.11414055754E+03  0.00000000000E+00 0.  1.
         12    1    4    4    0    0  0.25826577708E+02 -0.70907992049E+01  0.59665049785E+02  0.65400380085E+02  0.00000000000E+00 0. -1.
        -11    1    3    3    0    0 -0.31547044949E+02  0.48593815016E+00 -0.52353416896E+02  0.61125546555E+02  0.00000000000E+00 0.  1.
         11    1    3    3    0    0 -0.27219714898E+02  0.45743028810E+02  0.25886107130E+02  0.59189763525E+02  0.00000000000E+00 0. -1.
         -2    1    1    2    0  502 -0.35144160103E+02  0.46411280235E+02  0.28494749336E+03  0.29083361720E+03  0.00000000000E+00 0.  1.
<scales pt_clust_5="13000.00000" pt_clust_6="13000.00000" pt_clust_7="13000.00000" pt_clust_8="13000.00000" pt_clust_9="58.21614"></scales>
<clustering>
<clus scale="   58.216">  1  9  2 -1</clus>
<clus scale="   79.305">  5  6 -1 -1</clus>
<clus scale="   90.469">  7  8 -1 -1</clus>
<clus scale="  119.429">  1  5  2 -1</clus>
<clus scale="   58.216">  1  5  2 -1</clus>
</clustering>
</event>
<event>
 9    2  0.4653788E-005  0.1010663E+03  0.7546771E-02  0.1284092E+00
         21   -1    0    0  501  502  0.00000000000E+00  0.00000000000E+00  0.73722431034E+02  0.73722431034E+02  0.00000000000E+00 0.  1.
         -3   -1    0    0    0  501 -0.00000000000E+00 -0.00000000000E+00 -0.18469243569E+03  0.18469243569E+03  0.00000000000E+00 0.  1.
         24    2    1    2    0    0  0.13580186712E+02 -0.51464953603E+02 -0.86290535634E+02  0.12873100743E+03  0.79325612597E+02 0.  0.
         23    2    1    2    0    0 -0.28581166056E+00  0.26589126531E+02 -0.31966330917E+02  0.10055233793E+03  0.91552515054E+02 0.  0.
        -11    1    3    3    0    0  0.33360422726E+00 -0.67902231854E+02 -0.83205253794E+02  0.10739617610E+03  0.00000000000E+00 0.  1.
         12    1    3    3    0    0  0.13246582485E+02  0.16437278251E+02 -0.30852818405E+01  0.21334831329E+02  0.00000000000E+00 0. -1.
        -11    1    4    4    0    0 -0.41867852034E+02 -0.62729076933E+01 -0.13979622029E+02  0.44583587080E+02  0.00000000000E+00 0. -1.
         11    1    4    4    0    0  0.41582040374E+02  0.32862034224E+02 -0.17986708888E+02  0.55968750849E+02  0.00000000000E+00 0.  1.
         -4    1    1    2    0  502 -0.13294375052E+02  0.24875827073E+02  0.72868618966E+01  0.29131521362E+02  0.00000000000E+00 0.  1.
<scales pt_clust_5="13000.00000" pt_clust_6="13000.00000" pt_clust_7="13000.00000" pt_clust_8="13000.00000" pt_clust_9="28.20545"></scales>
<clustering>
<clus scale="   28.205">  1  9  2 -1</clus>
<clus scale="   79.326">  5  6 -1 -1</clus>
<clus scale="   90.139">  2  5  1 -1</clus>
<clus scale="   91.553">  7  8 -1 -1</clus>
<clus scale="   28.205">  1  5  2 -1</clus>
</clustering>
</event>
<event>
 9    2  0.4653788E-005  0.1909418E+03  0.7546771E-02  0.1171897E+00
         -1   -1    0    0    0  501 -0.00000000000E+00  0.00000000000E+00  0.25751049842E+03  0.25751049842E+03  0.00000000000E+00 0.  1.
         21   -1    0    0  501  502  0.00000000000E+00 -0.00000000000E+00 -0.30116488539E+03  0.30116488539E+03  0.00000000000E+00 0.  1.
         23    2    1    2    0    0 -0.42149481848E+02  0.99394894804E+02  0.79435679768E+02  0.15863454808E+03  0.84846736480E+02 0.  0.
         24    2    1    2    0    0  0.15255248463E+03  0.63529570059E+02 -0.56837816383E+02  0.19238110215E+03  0.80446779019E+02 0.  0.
        -13    1    4    4    0    0  0.68000900245E+02  0.41388217433E+02 -0.67447024176E+02  0.10433699270E+03  0.00000000000E+00 0.  1.
         14    1    4    4    0    0  0.84551584383E+02  0.22141352626E+02  0.10609207793E+02  0.88044109444E+02  0.00000000000E+00 0. -1.
        -13    1    3    3    0    0 -0.35619728465E+02 -0.20267670641E+01  0.21180742405E+02  0.41490922976E+02  0.00000000000E+00 0. -1.
         13    1    3    3    0    0 -0.65297533839E+01  0.10142166187E+03  0.58254937363E+02  0.11714362510E+03  0.00000000000E+00 0.  1.
         -2    1    1    2    0  502 -0.11040300278E+03 -0.16292446486E+03 -0.66252250364E+02  0.20765973358E+03  0.00000000000E+00 0.  1.
<scales pt_clust_5="13000.00000" pt_clust_6="13000.00000" pt_clust_7="13000.00000" pt_clust_8="13000.00000" pt_clust_9="173.16794"></scales>
<clustering>
<clus scale="   80.447">  5  6 -1 -1</clus>
<clus scale="   84.847">  7  8 -1 -1</clus>
<clus scale="  137.313">  1  7  2 -1</clus>
<clus scale="  173.168">  2  9  1 -1</clus>
<clus scale="  173.168">  2  5  1 -1</clus>
</clustering>
</event>
<event>
 9    2  0.4653788E-005  0.1068474E+03  0.7546771E-02  0.1275352E+00
          2   -1    0    0  502    0 -0.00000000000E+00  0.00000000000E+00  0.77837712638E+03  0.77837712638E+03  0.00000000000E+00 0. -1.
         21   -1    0    0  501  502  0.00000000000E+00 -0.00000000000E+00 -0.51200496648E+02  0.51200496648E+02  0.00000000000E+00 0.  1.
         23    2    1    2    0    0 -0.27073384776E+02  0.13017494577E+02  0.54085358673E+03  0.55064070074E+03  0.98894669763E+02 0.  0.
         24    2    1    2    0    0  0.91704121491E+02 -0.51259100947E+02  0.11417448783E+03  0.17479775290E+03  0.80506517875E+02 0.  0.
        -13    1    4    4    0    0  0.18124145569E+02 -0.39351992675E+02  0.64535250586E+01  0.43803104522E+02  0.00000000000E+00 0.  1.
         14    1    4    4    0    0  0.73579975923E+02 -0.11907108272E+02  0.10772096277E+03  0.13099464838E+03  0.00000000000E+00 0. -1.
        -11    1    3    3    0    0  0.35972898170E+02 -0.74637634011E+01  0.17235632038E+03  0.17622842660E+03  0.00000000000E+00 0.  1.
         11    1    3    3    0    0 -0.63046282946E+02  0.20481257979E+02  0.36849726635E+03  0.37441227414E+03  0.00000000000E+00 0. -1.
          1    1    1    2  501    0 -0.64630736715E+02  0.38241606370E+02  0.72148555173E+02  0.10413916938E+03  0.00000000000E+00 0. -1.
<scales pt_clust_5="13000.00000" pt_clust_6="13000.00000" pt_clust_7="13000.00000" pt_clust_8="13000.00000" pt_clust_9="75.09695"></scales>
<clustering>
<clus scale="   75.097">  2  9  1 -1</clus>
<clus scale="   80.507">  5  6 -1 -1</clus>
<clus scale="   90.097">  2  5  1 -1</clus>
<clus scale="   98.895">  7  8 -1 -1</clus>
<clus scale="   75.097">  2  5  1 -1</clus>
</clustering>
</event>
<event>
 9    2  0.4653788E-005  0.1054461E+03  0.7546771E-02  0.1271007E+00
         -1   -1    0    0    0  501 -0.00000000000E+00  0.00000000000E+00  0.13682082101E+03  0.13682082101E+03  0.00000000000E+00 0.  1.
         21   -1    0    0  501  502  0.00000000000E+00 -0.00000000000E+00 -0.15029907800E+03  0.15029907800E+03  0.00000000000E+00 0. -1.
         24    2    1    2    0    0 -0.30304957488E+01 -0.49676370590E+02  0.68619038950E+02  0.12180865558E+03  0.87474855637E+02 0.  0.
         23    2    1    2    0    0  0.21416876907E+02  0.57592172198E+02 -0.37584714552E+02  0.11650459605E+03  0.91570569607E+02 0.  0.
        -13    1    3    3    0    0  0.31510834878E+02 -0.15452908518E+02  0.63966643539E+02  0.72962021504E+02  0.00000000000E+00 0.  1.
         14    1    3    3    0    0 -0.34541330626E+02 -0.34223462073E+02  0.46523954116E+01  0.48846634078E+02  0.00000000000E+00 0. -1.
        -11    1    4    4    0    0 -0.34019653674E+02  0.89668736459E+01 -0.37768615061E+01  0.35383701642E+02  0.00000000000E+00 0. -1.
         11    1    4    4    0    0  0.55436530581E+02  0.48625298552E+02 -0.33807853046E+02  0.81120894409E+02  0.00000000000E+00 0.  1.
         -2    1    1    2    0  502 -0.18386381158E+02 -0.79158016080E+01 -0.44512581380E+02  0.48806647378E+02  0.00000000000E+00 0.  1.
<scales pt_clust_5="13000.00000" pt_clust_6="13000.00000" pt_clust_7="13000.00000" pt_clust_8="13000.00000" pt_clust_9="20.01797"></scales>
<clustering>
<clus scale="   20.018">  2  9  1 -1</clus>
<clus scale="   87.475">  5  6 -1 -1</clus>
<clus scale="   91.571">  7  8 -1 -1</clus>
<clus scale="  101.910">  1  5  2 -1</clus>
<clus scale="   20.018">  2  5  1 -1</clus>
</clustering>
</event>
<event>
 9    2  0.4653788E-005  0.3454532E+03  0.7546771E-02  0.1064717E+00
         21   -1    0    0  501  502  0.00000000000E+00  0.00000000000E+00  0.33298112941E+03  0.33298112941E+03  0.00000000000E+00 0.  1.
          2   -1    0    0  502    0 -0.00000000000E+00 -0.00000000000E+00 -0.63339980601E+03  0.63339980601E+03  0.00000000000E+00 0. -1.
         23    2    1    2    0    0  0.86947679207E+02  0.37414717231E+03 -0.19545235642E+03  0.44015864724E+03  0.89398018116E+02 0.  0.
         24    2    1    2    0    0 -0.12741562492E+03 -0.23162609831E+03  0.81350422453E+02  0.28818061168E+03  0.80899832056E+02 0.  0.
        -11    1    4    4    0    0 -0.12406551182E+03 -0.17216658128E+03  0.40708339504E+02  0.21608042909E+03  0.00000000000E+00 0.  1.
         12    1    4    4    0    0 -0.33501130999E+01 -0.59459517031E+02  0.40642082949E+02  0.72100182592E+02  0.00000000000E+00 0. -1.
        -13    1    3    3    0    0  0.50747583330E+02  0.90275718469E+02 -0.23140598778E+02  0.10611554962E+03  0.00000000000E+00 0.  1.
         13    1    3    3    0    0  0.36200095877E+02  0.28387145384E+03 -0.17231175764E+03  0.33404309762E+03  0.00000000000E+00 0. -1.
          1    1    1    2  501    0  0.40467945713E+02 -0.14252107400E+03 -0.18631674263E+03  0.23804167650E+03  0.00000000000E+00 0. -1.
<scales pt_clust_5="13000.00000" pt_clust_6="13000.00000" pt_clust_7="13000.00000" pt_clust_8="13000.00000" pt_clust_9="148.15510"></scales>
<clustering>
<clus scale="   80.900">  5  6 -1 -1</clus>
<clus scale="   89.398">  7  8 -1 -1</clus>
<clus scale="  148.155">  1  9  2 -1</clus>
<clus scale="  343.352">  1  5  2 -1</clus>
<clus scale="  148.155">  1  5  2 -1</clus>
</clustering>
</event>
<event>
 9    2  0.4653788E-005  0.1264361E+03  0.7546771E-02  0.1235423E+00
         21   -1    0    0  501  502  0.00000000000E+00  0.00000000000E+00  0.10192933423E+03  0.10192933423E+03  0.00000000000E+00 0.  1.
          2   -1    0    0  502    0 -0.00000000000E+00 -0.00000000000E+00 -0.36141359642E+03  0.36141359642E+03  0.00000000000E+00 0. -1.
         23    2    1    2    0    0 -0.46342330284E+02 -0.91557422391E+02 -0.55133737911E+02  0.14780088251E+03  0.90967019534E+02 0.  0.
         24    2    1    2    0    0  0.79929861671E+01  0.73253374792E+02 -0.32940053047E+01  0.11004403312E+03  0.81663296581E+02 0.  0.
        -13    1    4    4    0    0  0.36292251198E+02  0.44185389634E+02 -0.26810084242E+02  0.63152646589E+02  0.00000000000E+00 0.  1.
         14    1    4    4    0    0 -0.28299265031E+02  0.29067985158E+02  0.23516078937E+02  0.46891386534E+02  0.00000000000E+00 0. -1.
        -11    1    3    3    0    0  0.21872600146E+02 -0.14019937755E+02  0.74719420859E+01  0.27033298177E+02  0.00000000000E+00 0. -1.
         11    1    3    3    0    0 -0.68214930430E+02 -0.77537484636E+02 -0.62605679997E+02  0.12076758433E+03  0.00000000000E+00 0.  1.
          1    1    1    2  501    0  0.38349344117E+02  0.18304047598E+02 -0.20105651898E+03  0.20549801502E+03  0.00000000000E+00 0. -1.
<scales pt_clust_5="13000.00000" pt_clust_6="13000.00000" pt_clust_7="13000.00000" pt_clust_8="13000.00000" pt_clust_9="42.49367"></scales>
<clustering>
<clus scale="   42.494">  1  9  2 -1</clus>
<clus scale="   81.663">  5  6 -1 -1</clus>
<clus scale="   90.967">  7  8 -1 -1</clus>
<clus scale="  119.917">  1  5  2 -1</clus>
<clus scale="   42.494">  1  5  2 -1</clus>
</clustering>
</event>
<event>
 9    2  0.4653788E-005  0.1067049E+03  0.7546771E-02  0.1273959E+00
         21   -1    0    0  501  502  0.00000000000E+00  0.00000000000E+00  0.45142194037E+03  0.45142194037E+03  0.00000000000E+00 0. -1.
          2   -1    0    0  502    0 -0.00000000000E+00 -0.00000000000E+00 -0.66504468550E+02  0.66504468550E+02  0.00000000000E+00 0. -1.
         23    2    1    2    0    0  0.20899966246E+02  0.59822375538E+02  0.13252484463E+02  0.11606468908E+03  0.96332022210E+02 0.  0.
         24    2    1    2    0    0  0.13874848812E+02  0.97380862237E+00  0.17952650151E+03  0.19735582380E+03  0.80784260287E+02 0.  0.
        -13    1    4    4    0    0  0.24681420256E+02 -0.22908371854E+02  0.28631919232E+02  0.44201276065E+02  0.00000000000E+00 0.  1.
         14    1    4    4    0    0 -0.10806571444E+02  0.23882180476E+02  0.15089458228E+03  0.15315454774E+03  0.00000000000E+00 0. -1.
        -13    1    3    3    0    0  0.39586240269E+02 -0.57844114667E+01  0.24522112470E+02  0.46924021936E+02  0.00000000000E+00 0.  1.
         13    1    3    3    0    0 -0.18686274023E+02  0.65606787005E+02 -0.11269628007E+02  0.69140667146E+02  0.00000000000E+00 0. -1.
          1    1    1    2  501    0 -0.34774815058E+02 -0.60796184161E+02  0.19213848584E+03  0.20450589603E+03  0.00000000000E+00 0. -1.
<scales pt_clust_5="13000.00000" pt_clust_6="13000.00000" pt_clust_7="13000.00000" pt_clust_8="13000.00000" pt_clust_9="70.03902"></scales>
<clustering>
<clus scale="   70.039">  1  9  2 -1</clus>
<clus scale="   80.784">  5  6 -1 -1</clus>
<clus scale="   92.909">  1  5  2 -1</clus>
<clus scale="   96.332">  7  8 -1 -1</clus>
<clus scale="   70.039">  1  5  2 -1</clus>
</clustering>
</event>
<event>
 9    2  0.4653788E-005  0.9444846E+02  0.7546771E-02  0.1298356E+00
         21   -1    0    0  501  502  0.00000000000E+00  0.00000000000E+00  0.23680795893E+03  0.23680795893E+03  0.00000000000E+00 0.  1.
         -1   -1    0    0    0  501 -0.00000000000E+00 -0.00000000000E+00 -0.17626714770E+03  0.17626714770E+03  0.00000000000E+00 0.  1.
         23    2    1    2    0    0 -0.27933112540E+02  0.76446535301E+01 -0.91224070200E+02  0.13159813914E+03  0.90319099515E+02 0.  0.
         24    2    1    2    0    0  0.86820453850E+01 -0.35581588743E+02 -0.32766024320E+02  0.93853058801E+02  0.79958470014E+02 0.  0.
        -11    1    4    4    0    0 -0.88595226405E+01 -0.40448586684E+02  0.13966984344E+02  0.43699610499E+02  0.00000000000E+00 0.  1.
         12    1    4    4    0    0  0.17541568025E+02  0.48669979407E+01 -0.46733008664E+02  0.50153448302E+02  0.00000000000E+00 0. -1.
        -11    1    3    3    0    0 -0.23505837010E+02 -0.19061804016E+02 -0.98927057321E+02  0.10345259502E+03  0.00000000000E+00 0.  1.
         11    1    3    3    0    0 -0.44272755303E+01  0.26706457546E+02  0.77029871206E+01  0.28145544121E+02  0.00000000000E+00 0. -1.
         -2    1    1    2    0  502  0.19251067155E+02  0.27936935213E+02  0.18453090575E+03  0.18762390869E+03  0.00000000000E+00 0.  1.
<scales pt_clust_5="13000.00000" pt_clust_6="13000.00000" pt_clust_7="13000.00000" pt_clust_8="13000.00000" pt_clust_9="33.92751"></scales>
<clustering>
<clus scale="   33.928">  1  9  2 -1</clus>
<clus scale="   79.958">  5  6 -1 -1</clus>
<clus scale="   84.595">  1  5  2 -1</clus>
<clus scale="   90.319">  7  8 -1 -1</clus>
<clus scale="   33.928">  1  5  2 -1</clus>
</clustering>
</event>
<event>
 9    2  0.4653788E-005  0.9240487E+02  0.7546771E-02  0.1298701E+00
         21   -1    0    0  501  502  0.00000000000E+00  0.00000000000E+00  0.75375174861E+02  0.75375174861E+02  0.00000000000E+00 0. -1.
          2   -1    0    0  502    0 -0.00000000000E+00 -0.00000000000E+00 -0.22980484765E+03  0.22980484765E+03  0.00000000000E+00 0. -1.
         24    2    1    2    0    0  0.44829000017E+01  0.53339470465E+02 -0.31215215339E+02  0.10022674064E+03  0.78776991372E+02 0.  0.
         23    2    1    2    0    0  0.13203612873E+02 -0.42159067152E+02 -0.81353969764E+01  0.87987456451E+02  0.75656364390E+02 0.  0.
        -13    1    3    3    0    0 -0.22738955548E+01 -0.20180329393E+02 -0.13232214612E+02  0.24238560166E+02  0.00000000000E+00 0.  1.
         14    1    3    3    0    0  0.67567955565E+01  0.73519799857E+02 -0.17983000727E+02  0.75988180478E+02  0.00000000000E+00 0. -1.
        -13    1    4    4    0    0 -0.22033428294E+02  0.65230586248E+01  0.10221781904E+02  0.25149693467E+02  0.00000000000E+00 0. -1.
         13    1    4    4    0    0  0.35237041167E+02 -0.48682125777E+02 -0.18357178881E+02  0.62837762984E+02  0.00000000000E+00 0.  1.
          1    1    1    2  501    0 -0.17686512875E+02 -0.11180403312E+02 -0.11507906048E+03  0.11696582542E+03  0.00000000000E+00 0. -1.
<scales pt_clust_5="13000.00000" pt_clust_6="13000.00000" pt_clust_7="13000.00000" pt_clust_8="13000.00000" pt_clust_9="20.92402"></scales>
<clustering>
<clus scale="   20.924">  1  9  2 -1</clus>
<clus scale="   75.656">  7  8 -1 -1</clus>
<clus scale="   78.777">  5  6 -1 -1</clus>
<clus scale="   89.759">  1  7  2 -1</clus>
<clus scale="   20.924">  1  5  2 -1</clus>
</clustering>
</event>
<event>
 9    2  0.4653788E-005  0.9375930E+02  0.7546771E-02  0.1303118E+00
         21   -1    0    0  501  502  0.00000000000E+00  0.00000000000E+00  0.58306648494E+03  0.58306648494E+03  0.00000000000E+00 0.  1.
          2   -1    0    0  502    0 -0.00000000000E+00 -0.00000000000E+00 -0.26225578147E+02  0.26225578147E+02  0.00000000000E+00 0. -1.
         24    2    1    2    0    0 -0.32791030257E+01 -0.33515633827E+02  0.16349441587E+03  0.18407073034E+03  0.77572930320E+02 0.  0.
         23    2    1    2    0    0  0.26250163686E+02 -0.24511970020E+02  0.24338633298E+03  0.26279312890E+03  0.92376478322E+02 0.  0.
        -11    1    3    3    0    0  0.10276628182E+01  0.25384320874E+02  0.53461389340E+02  0.59190708623E+02  0.00000000000E+00 0.  1.
         12    1    3    3    0    0 -0.43067658439E+01 -0.58899954701E+02  0.11003302653E+03  0.12488002171E+03  0.00000000000E+00 0. -1.
        -13    1    4    4    0    0 -0.69421581397E+01 -0.47672991414E+02  0.71569017720E+02  0.86273008337E+02  0.00000000000E+00 0. -1.
         13    1    4    4    0    0  0.33192321825E+02  0.23161021394E+02  0.17181731526E+03  0.17652012056E+03  0.00000000000E+00 0.  1.
          1    1    1    2  501    0 -0.22971060660E+02  0.58027603847E+02  0.14996015794E+03  0.16242820385E+03  0.00000000000E+00 0. -1.
<scales pt_clust_5="13000.00000" pt_clust_6="13000.00000" pt_clust_7="13000.00000" pt_clust_8="13000.00000" pt_clust_9="62.40891"></scales>
<clustering>
<clus scale="   62.409">  1  9  2 -1</clus>
<clus scale="   77.573">  5  6 -1 -1</clus>
<clus scale="   79.215">  2  5  1 -1</clus>
<clus scale="   92.376">  7  8 -1 -1</clus>
<clus scale="   62.409">  1  5  2 -1</clus>
</clustering>
</event>
<event>
 9    2  0.4653788E-005  0.1677557E+03  0.7546771E-02  0.1183599E+00
          2   -1    0    0  502    0 -0.00000000000E+00  0.00000000000E+00  0.61044923280E+03  0.61044923280E+03  0.00000000000E+00 0. -1.
         21   -1    0    0  501  502  0.00000000000E+00 -0.00000000000E+00 -0.14131890126E+03  0.14131890126E+03  0.00000000000E+00 0. -1.
         24    2    1    2    0    0 -0.13518715896E+03 -0.17044394809E+02  0.52265251411E+03  0.55109922580E+03  0.10944691328E+03 0.  0.
         23    2    1    2    0    0  0.64264874463E+02  0.33234829937E+02 -0.55752724749E+02  0.12788789462E+03  0.89512117968E+02 0.  0.
        -11    1    3    3    0    0 -0.99999488900E+02  0.21278284254E+01  0.17843230335E+03  0.20455442384E+03  0.00000000000E+00 0.  1.
         12    1    3    3    0    0 -0.35187670062E+02 -0.19172223235E+02  0.34422021076E+03  0.34654480196E+03  0.00000000000E+00 0. -1.
        -11    1    4    4    0    0  0.79200834669E+02  0.15130340262E+02 -0.16729450094E+02  0.82350312138E+02  0.00000000000E+00 0.  1.
         11    1    4    4    0    0 -0.14935960206E+02  0.18104489675E+02 -0.39023274655E+02  0.45537582484E+02  0.00000000000E+00 0. -1.
          1    1    1    2  501    0  0.70922284499E+02 -0.16190435128E+02  0.22305421730E+01  0.72781013641E+02  0.00000000000E+00 0. -1.
<scales pt_clust_5="13000.00000" pt_clust_6="13000.00000" pt_clust_7="13000.00000" pt_clust_8="13000.00000" pt_clust_9="72.74683"></scales>
<clustering>
<clus scale="   72.747">  2  9  1 -1</clus>
<clus scale="   89.512">  7  8 -1 -1</clus>
<clus scale="  109.447">  5  6 -1 -1</clus>
<clus scale="  155.486">  2  7  1 -1</clus>
<clus scale="   72.747">  2  5  1 -1</clus>
</clustering>
</event>
<event>
 9    2  0.4653788E-005  0.9876116E+02  0.7546771E-02  0.1290469E+00
         21   -1    0    0  501  502  0.00000000000E+00  0.00000000000E+00  0.20720050695E+02  0.20720050695E+02  0.00000000000E+00 0. -1.
         -1   -1    0    0    0  501 -0.00000000000E+00 -0.00000000000E+00 -0.63873918854E+03  0.63873918854E+03  0.00000000000E+00 0.  1.
         23    2    1    2    0    0  0.68484065279E+01  0.18552011531E+02 -0.36635201619E+03  0.37876066482E+03  0.94099753691E+02 0.  0.
         24    2    1    2    0    0 -0.12551914650E+01 -0.46926965379E+02 -0.21301477912E+03  0.23242409209E+03  0.80261739786E+02 0.  0.
        -11    1    4    4    0    0  0.20248533759E+02 -0.58834997212E+02 -0.18485082317E+03  0.19504201302E+03  0.00000000000E+00 0.  1.
         12    1    4    4    0    0 -0.21503725224E+02  0.11908031833E+02 -0.28163955953E+02  0.37382079069E+02  0.00000000000E+00 0. -1.
        -13    1    3    3    0    0  0.45997375529E+02  0.28812410055E+02 -0.17713598415E+03  0.18526486556E+03  0.00000000000E+00 0.  1.
         13    1    3    3    0    0 -0.39148969002E+02 -0.10260398525E+02 -0.18921603204E+03  0.19349579926E+03  0.00000000000E+00 0. -1.
         -2    1    1    2    0  502 -0.55932150629E+01  0.28374953848E+02 -0.38652342536E+02  0.48274482329E+02  0.00000000000E+00 0.  1.
<scales pt_clust_5="13000.00000" pt_clust_6="13000.00000" pt_clust_7="13000.00000" pt_clust_8="13000.00000" pt_clust_9="28.92096"></scales>
<clustering>
<clus scale="   28.921">  1  9  2 -1</clus>
<clus scale="   80.262">  5  6 -1 -1</clus>
<clus scale="   85.679">  1  5  2 -1</clus>
<clus scale="   94.100">  7  8 -1 -1</clus>
<clus scale="   28.921">  1  5  2 -1</clus>
</clustering>
</event>
<event>
 9    2  0.4653788E-005  0.2900323E+03  0.7546771E-02  0.1090661E+00
         -1   -1    0    0    0  501 -0.00000000000E+00  0.00000000000E+00  0.25818388275E+03  0.25818388275E+03  0.00000000000E+00 0.  1.
         21   -1    0    0  501  502  0.00000000000E+00 -0.00000000000E+00 -0.69996106490E+03  0.69996106490E+03  0.00000000000E+00 0.  1.
         23    2    1    2    0    0  0.22144030617E+03 -0.79380121166E+02 -0.40442047430E+02  0.25470502290E+03  0.88893625502E+02 0.  0.
         24    2    1    2    0    0 -0.29894905574E+03  0.24264822650E+03 -0.27556783325E+03  0.48325478766E+03  0.96689499549E+02 0.  0.
        -11    1    4    4    0    0 -0.26302430008E+03  0.24448624105E+03 -0.23564146606E+03  0.42951391715E+03  0.00000000000E+00 0.  1.
         12    1    4    4    0    0 -0.35924755656E+02 -0.18380145511E+01 -0.39926367185E+02  0.53740870508E+02  0.00000000000E+00 0. -1.
        -13    1    3    3    0    0  0.81642187419E+02 -0.41087275988E+02  0.26332636642E+02  0.95115817649E+02  0.00000000000E+00 0. -1.
         13    1    3    3    0    0  0.13979811875E+03 -0.38292845178E+02 -0.66774684072E+02  0.15958920525E+03  0.00000000000E+00 0.  1.
         -2    1    1    2    0  502  0.77508749566E+02 -0.16326810533E+03 -0.12576730148E+03  0.22018513710E+03  0.00000000000E+00 0.  1.
<scales pt_clust_5="13000.00000" pt_clust_6="13000.00000" pt_clust_7="13000.00000" pt_clust_8="13000.00000" pt_clust_9="180.73207"></scales>
<clustering>
<clus scale="   88.894">  7  8 -1 -1</clus>
<clus scale="   96.689">  5  6 -1 -1</clus>
<clus scale="  180.732">  2  9  1 -1</clus>
<clus scale="  287.527">  1  7  2 -1</clus>
<clus scale="  180.732">  2  5  1 -1</clus>
</clustering>
</event>
<event>
 9    2  0.4653788E-005  0.9568978E+02  0.7546771E-02  0.1297897E+00
          2   -1    0    0  502    0 -0.00000000000E+00  0.00000000000E+00  0.27610014065E+03  0.27610014065E+03  0.00000000000E+00 0. -1.
         21   -1    0    0  501  502  0.00000000000E+00 -0.00000000000E+00 -0.19692509025E+03  0.19692509025E+03  0.00000000000E+00 0. -1.
         23    2    1    2    0    0  0.25269380371E+01  0.14514987918E+02  0.21166799302E+03  0.23170073670E+03  0.93085024726E+02 0.  0.
         24    2    1    2    0    0 -0.44784091747E+02 -0.55655738522E+02 -0.11999053393E+02  0.10717157498E+03  0.78984764965E+02 0.  0.
        -11    1    4    4    0    0  0.20627066310E+02 -0.32229754685E+01 -0.10399897142E+02  0.23324264104E+02  0.00000000000E+00 0.  1.
         12    1    4    4    0    0 -0.65411158057E+02 -0.52432763053E+02 -0.15991562513E+01  0.83847310872E+02  0.00000000000E+00 0. -1.
        -13    1    3    3    0    0 -0.31560629202E+02 -0.26273056964E+02  0.94741710742E+02  0.10325860057E+03  0.00000000000E+00 0.  1.
         13    1    3    3    0    0  0.34087567239E+02  0.40788044883E+02  0.11692628227E+03  0.12844213612E+03  0.00000000000E+00 0. -1.
          1    1    1    2  501    0  0.42257153710E+02  0.41140750603E+02 -0.12049388922E+03  0.13415291923E+03  0.00000000000E+00 0. -1.
<scales pt_clust_5="13000.00000" pt_clust_6="13000.00000" pt_clust_7="13000.00000" pt_clust_8="13000.00000" pt_clust_9="58.97651"></scales>
<clustering>
<clus scale="   58.977">  2  9  1 -1</clus>
<clus scale="   78.985">  5  6 -1 -1</clus>
<clus scale="   82.038">  2  5  1 -1</clus>
<clus scale="   93.085">  7  8 -1 -1</clus>
<clus scale="   58.977">  2  5  1 -1</clus>
</clustering>
</event>
<event>
 9    2  0.4653788E-005  0.1132062E+03  0.7546771E-02  0.1277086E+00
         21   -1    0    0  501  502  0.00000000000E+00  0.00000000000E+00  0.21127396852E+03  0.21127396852E+03  0.00000000000E+00 0.  1.
         -3   -1    0    0    0  501 -0.00000000000E+00 -0.00000000000E+00 -0.14974897328E+03  0.14974897328E+03  0.00000000000E+00 0.  1.
         23    2    1    2    0    0 -0.15084284871E+02  0.27455228619E+02 -0.99763933786E+02  0.15273317206E+03  0.11132499331E+03 0.  0.
         24    2    1    2    0    0  0.35437211997E+01  0.27438727447E+02  0.88159673465E+02  0.11612459714E+03  0.70337417578E+02 0.  0.
        -13    1    4    4    0    0  0.54300681076E+01  0.30191391845E+02  0.99595098870E+02  0.10421223297E+03  0.00000000000E+00 0.  1.
         14    1    4    4    0    0 -0.18863469080E+01 -0.27526643987E+01 -0.11435425406E+02  0.11912364172E+02  0.00000000000E+00 0. -1.
        -13    1    3    3    0    0  0.28133390511E+02  0.54804141819E+02 -0.37352752524E+02  0.72043110311E+02  0.00000000000E+00 0.  1.
         13    1    3    3    0    0 -0.43217675382E+02 -0.27348913201E+02 -0.62411181263E+02  0.80690061751E+02  0.00000000000E+00 0. -1.
         -4    1    1    2    0  502  0.11540563672E+02 -0.54893956065E+02  0.73129255562E+02  0.92165172606E+02  0.00000000000E+00 0.  1.
<scales pt_clust_5="13000.00000" pt_clust_6="13000.00000" pt_clust_7="13000.00000" pt_clust_8="13000.00000" pt_clust_9="56.09395"></scales>
<clustering>
<clus scale="   56.094">  1  9  2 -1</clus>
<clus scale="   70.337">  5  6 -1 -1</clus>
<clus scale="   73.279">  1  5  2 -1</clus>
<clus scale="  111.325">  7  8 -1 -1</clus>
<clus scale="   56.094">  1  5  2 -1</clus>
</clustering>
</event>
<event>
 9    2  0.4653788E-005  0.1151192E+03  0.7546771E-02  0.1252552E+00
          2   -1    0    0  502    0 -0.00000000000E+00  0.00000000000E+00  0.24675143559E+03  0.24675143559E+03  0.00000000000E+00 0. -1.
         21   -1    0    0  501  502  0.00000000000E+00 -0.00000000000E+00 -0.10144145945E+03  0.10144145945E+03  0.00000000000E+00 0. -1.
         24    2    1    2    0    0 -0.13678726161E+02 -0.65473884781E+02  0.97504829702E+02  0.15244428646E+03  0.96219184792E+02 0.  0.
         23    2    1    2    0    0  0.52752223463E+02  0.42076269398E+02  0.79967045137E+02  0.13999401841E+03  0.93007458596E+02 0.  0.
        -13    1    3    3    0    0  0.20567788482E+02  0.59396519309E+01  0.62107348962E+02  0.65693501834E+02  0.00000000000E+00 0.  1.
         14    1    3    3    0    0 -0.34246514642E+02 -0.71413536712E+02  0.35397480740E+02  0.86750784628E+02  0.00000000000E+00 0. -1.
        -11    1    4    4    0    0  0.59393415913E+02  0.18043379605E+02  0.65022062584E+01  0.62413300566E+02  0.00000000000E+00 0. -1.
         11    1    4    4    0    0 -0.66411924494E+01  0.24032889794E+02  0.73464838879E+02  0.77580717839E+02  0.00000000000E+00 0.  1.
          1    1    1    2  501    0 -0.39073497303E+02  0.23397615383E+02 -0.32161898703E+02  0.55754590172E+02  0.00000000000E+00 0. -1.
<scales pt_clust_5="13000.00000" pt_clust_6="13000.00000" pt_clust_7="13000.00000" pt_clust_8="13000.00000" pt_clust_9="45.54324"></scales>
<clustering>
<clus scale="   45.543">  2  9  1 -1</clus>
<clus scale="   93.007">  7  8 -1 -1</clus>
<clus scale="   96.219">  5  6 -1 -1</clus>
<clus scale="  112.449">  2  7  1 -1</clus>
<clus scale="   45.543">  2  5  1 -1</clus>
</clustering>
</event>
<event>
 9    2  0.4653788E-005  0.9484610E+02  0.7546771E-02  0.1298023E+00
         -1   -1    0    0    0  501 -0.00000000000E+00  0.00000000000E+00  0.75280293708E+03  0.75280293708E+03  0.00000000000E+00 0.  1.
         21   -1    0    0  501  502  0.00000000000E+00 -0.00000000000E+00 -0.18719090056E+02  0.18719090056E+02  0.00000000000E+00 0. -1.
         23    2    1    2    0    0  0.82514300773E+01 -0.25722782917E+02  0.41904025353E+03  0.42960297593E+03  0.90742686663E+02 0.  0.
         24    2    1    2    0    0  0.26516158292E+02  0.31217146004E+02  0.16322295964E+03  0.18607143946E+03  0.79392878603E+02 0.  0.
        -13    1    4    4    0    0 -0.10051030150E+02  0.31061190535E+02  0.13760119634E+03  0.14142103804E+03  0.00000000000E+00 0.  1.
         14    1    4    4    0    0  0.36567188442E+02  0.15595546900E+00  0.25621763302E+02  0.44650401424E+02  0.00000000000E+00 0. -1.
        -13    1    3    3    0    0  0.85004194947E+01  0.33560774867E+02  0.12892841099E+03  0.13349575987E+03  0.00000000000E+00 0.  1.
         13    1    3    3    0    0 -0.24898941734E+00 -0.59283557785E+02  0.29011184254E+03  0.29610721606E+03  0.00000000000E+00 0. -1.
         -2    1    1    2    0  502 -0.34767588369E+02 -0.54943630865E+01  0.15182063384E+03  0.15584761175E+03  0.00000000000E+00 0.  1.
<scales pt_clust_5="13000.00000" pt_clust_6="13000.00000" pt_clust_7="13000.00000" pt_clust_8="13000.00000" pt_clust_9="35.19907"></scales>
<clustering>
<clus scale="   35.199">  2  9  1 -1</clus>
<clus scale="   79.393">  5  6 -1 -1</clus>
<clus scale="   84.052">  2  5  1 -1</clus>
<clus scale="   90.743">  7  8 -1 -1</clus>
<clus scale="   35.199">  2  5  1 -1</clus>
</clustering>
</event>
<event>
 9    2  0.4653788E-005  0.1365603E+03  0.7546771E-02  0.1225213E+00
          4   -1    0    0  502    0 -0.00000000000E+00  0.00000000000E+00  0.24602013378E+03  0.24602013378E+03  0.00000000000E+00 0. -1.
         21   -1    0    0  501  502  0.00000000000E+00 -0.00000000000E+00 -0.56117844329E+03  0.56117844329E+03  0.00000000000E+00 0.  1.
         24    2    1    2    0    0  0.89898868125E+01  0.89618880932E+02 -0.53326519549E+02  0.14532698589E+03  0.10081593751E+03 0.  0.
         23    2    1    2    0    0  0.66982147453E+02 -0.10286020686E+03 -0.44274899724E+03  0.46520405803E+03  0.72947315379E+02 0.  0.
        -11    1    3    3    0    0 -0.42719384783E+02  0.65316940052E+02 -0.30012014098E+02  0.83617997370E+02  0.00000000000E+00 0.  1.
         12    1    3    3    0    0  0.51709271595E+02  0.24301940879E+02 -0.23314505451E+02  0.61708988518E+02  0.00000000000E+00 0. -1.
        -13    1    4    4    0    0  0.92166865246E+01 -0.68370229698E+02 -0.29338399743E+03  0.30138614030E+03  0.00000000000E+00 0.  1.
         13    1    4    4    0    0  0.57765460929E+02 -0.34489977160E+02 -0.14936499981E+03  0.16381791773E+03  0.00000000000E+00 0. -1.
          3    1    1    2  501    0 -0.75972034266E+02  0.13241325926E+02  0.18091720728E+03  0.19666753314E+03  0.00000000000E+00 0. -1.
<scales pt_clust_5="13000.00000" pt_clust_6="13000.00000" pt_clust_7="13000.00000" pt_clust_8="13000.00000" pt_clust_9="77.11737"></scales>
<clustering>
<clus scale="   72.947">  7  8 -1 -1</clus>
<clus scale="   77.117">  2  9  1 -1</clus>
<clus scale="  100.816">  5  6 -1 -1</clus>
<clus scale="  117.500">  2  7  1 -1</clus>
<clus scale="   77.117">  2  5  1 -1</clus>
</clustering>
</event>
<event>
 9    2  0.4653788E-005  0.1257078E+03  0.7546771E-02  0.1236647E+00
          2   -1    0    0  502    0 -0.00000000000E+00  0.00000000000E+00  0.26444793823E+03  0.26444793823E+03  0.00000000000E+00 0. -1.
         21   -1    0    0  501  502  0.00000000000E+00 -0.00000000000E+00 -0.14779447776E+03  0.14779447776E+03  0.00000000000E+00 0.  1.
         23    2    1    2    0    0 -0.36331006023E+02 -0.90139840278E+02  0.13370887303E+03  0.18790658466E+03  0.89362682516E+02 0.  0.
         24    2    1    2    0    0  0.77169652254E+02  0.24314369200E+02 -0.67319578333E+02  0.13199259103E+03  0.79647816544E+02 0.  0.
        -11    1    4    4    0    0  0.45794116061E+02 -0.34954332985E+01 -0.76355432955E+02  0.89103710705E+02  0.00000000000E+00 0.  1.
         12    1    4    4    0    0  0.31375536193E+02  0.27809802498E+02  0.90358546222E+01  0.42888880321E+02  0.00000000000E+00 0. -1.
        -13    1    3    3    0    0  0.21320572457E+02 -0.31640190591E+02  0.10046851405E+02  0.39453867917E+02  0.00000000000E+00 0.  1.
         13    1    3    3    0    0 -0.57651578480E+02 -0.58499649687E+02  0.12366202163E+03  0.14845271674E+03  0.00000000000E+00 0. -1.
          1    1    1    2  501    0 -0.40838646231E+02  0.65825471078E+02  0.50264165777E+02  0.92343240304E+02  0.00000000000E+00 0. -1.
<scales pt_clust_5="13000.00000" pt_clust_6="13000.00000" pt_clust_7="13000.00000" pt_clust_8="13000.00000" pt_clust_9="77.46479"></scales>
<clustering>
<clus scale="   77.465">  2  9  1 -1</clus>
<clus scale="   79.648">  5  6 -1 -1</clus>
<clus scale="   89.363">  7  8 -1 -1</clus>
<clus scale="  118.998">  2  5  1 -1</clus>
<clus scale="   77.465">  2  5  1 -1</clus>
</clustering>
</event>
<event>
 9    2  0.4653788E-005  0.9960554E+02  0.7546771E-02  0.1284988E+00
         21   -1    0    0  501  502  0.00000000000E+00  0.00000000000E+00  0.82087522152E+02  0.82087522152E+02  0.00000000000E+00 0. -1.
          2   -1    0    0  502    0 -0.00000000000E+00 -0.00000000000E+00 -0.31063574811E+03  0.31063574811E+03  0.00000000000E+00 0. -1.
         23    2    1    2    0    0 -0.36708984264E+01  0.30226927242E+02 -0.17303659586E+03  0.19813452053E+03  0.91588657005E+02 0.  0.
         24    2    1    2    0    0  0.14625128770E+02 -0.51479186707E+02 -0.10188181890E+03  0.14241741562E+03  0.83897641173E+02 0.  0.
        -11    1    4    4    0    0 -0.31455696664E+02 -0.19562747030E+02 -0.17144980240E+02  0.40818038554E+02  0.00000000000E+00 0.  1.
         12    1    4    4    0    0  0.46080825434E+02 -0.31916439676E+02 -0.84736838658E+02  0.10159937707E+03  0.00000000000E+00 0. -1.
        -11    1    3    3    0    0 -0.54918387611E+01 -0.30812510188E+02 -0.33636590134E+02  0.45945525058E+02  0.00000000000E+00 0.  1.
         11    1    3    3    0    0  0.18209403347E+01  0.61039437430E+02 -0.13940000573E+03  0.15218899547E+03  0.00000000000E+00 0. -1.
          1    1    1    2  501    0 -0.10954230344E+02  0.21252259465E+02  0.46370188795E+02  0.52171334119E+02  0.00000000000E+00 0. -1.
<scales pt_clust_5="13000.00000" pt_clust_6="13000.00000" pt_clust_7="13000.00000" pt_clust_8="13000.00000" pt_clust_9="23.90928"></scales>
<clustering>
<clus scale="   23.909">  1  9  2 -1</clus>
<clus scale="   83.898">  5  6 -1 -1</clus>
<clus scale="   91.589">  7  8 -1 -1</clus>
<clus scale="   92.583">  1  5  2 -1</clus>
<clus scale="   23.909">  1  5  2 -1</clus>
</clustering>
</event>
<event>
 9    2  0.4653788E-005  0.1139389E+03  0.7546771E-02  0.1257685E+00
          2   -1    0    0  502    0 -0.00000000000E+00  0.00000000000E+00  0.35502208506E+03  0.35502208506E+03  0.00000000000E+00 0. -1.
         21   -1    0    0  501  502  0.00000000000E+00 -0.00000000000E+00 -0.93994410410E+02  0.93994410410E+02  0.00000000000E+00 0.  1.
         23    2    1    2    0    0  0.81416124209E+02 -0.69356257434E+01  0.27216358085E+03  0.29875010605E+03  0.92205872582E+02 0.  0.
         24    2    1    2    0    0 -0.29768315695E+02 -0.33194969543E+01  0.21092143275E+02  0.88530574533E+02  0.80595362397E+02 0.  0.
        -13    1    4    4    0    0  0.17466089918E+02 -0.25880653835E+02 -0.20650424813E+01  0.31291163935E+02  0.00000000000E+00 0.  1.
         14    1    4    4    0    0 -0.47234405613E+02  0.22561156881E+02  0.23157185757E+02  0.57239410598E+02  0.00000000000E+00 0. -1.
        -11    1    3    3    0    0  0.42235972385E+02 -0.45931656008E+02  0.99440861797E+02  0.11739710125E+03  0.00000000000E+00 0. -1.
         11    1    3    3    0    0  0.39180151824E+02  0.38996030264E+02  0.17272271905E+03  0.18135300480E+03  0.00000000000E+00 0.  1.
          1    1    1    2  501    0 -0.51647808514E+02  0.10255122698E+02 -0.32228049480E+02  0.61735814882E+02  0.00000000000E+00 0. -1.
<scales pt_clust_5="13000.00000" pt_clust_6="13000.00000" pt_clust_7="13000.00000" pt_clust_8="13000.00000" pt_clust_9="52.65609"></scales>
<clustering>
<clus scale="   52.656">  2  9  1 -1</clus>
<clus scale="   80.595">  5  6 -1 -1</clus>
<clus scale="   92.206">  7  8 -1 -1</clus>
<clus scale="  104.765">  2  5  1 -1</clus>
<clus scale="   52.656">  2  5  1 -1</clus>
</clustering>
</event>
<event>
 9    2  0.4653788E-005  0.1086359E+03  0.7546771E-02  0.1266998E+00
         21   -1    0    0  501  502  0.00000000000E+00  0.00000000000E+00  0.67416317119E+02  0.67416317119E+02  0.00000000000E+00 0.  1.
          2   -1    0    0  502    0 -0.00000000000E+00 -0.00000000000E+00 -0.53692058883E+03  0.53692058883E+03  0.00000000000E+00 0. -1.
         24    2    1    2    0    0 -0.13167155118E+02  0.51836849196E+02 -0.44208118129E+03  0.45317962570E+03  0.84116403796E+02 0.  0.
         23    2    1    2    0    0  0.13822288960E+02 -0.73994298177E+02 -0.57164863458E+01  0.12013215485E+03  0.93449690089E+02 0.  0.
        -13    1    3    3    0    0  0.35631881296E+02  0.28277059453E+02 -0.20322638471E+03  0.20825509958E+03  0.00000000000E+00 0.  1.
         14    1    3    3    0    0 -0.48799036414E+02  0.23559789743E+02 -0.23885479657E+03  0.24492452612E+03  0.00000000000E+00 0. -1.
        -13    1    4    4    0    0 -0.33939725250E+02 -0.58288206553E+02  0.82452760355E+01  0.67951486740E+02  0.00000000000E+00 0.  1.
         13    1    4    4    0    0  0.47762014211E+02 -0.15706091624E+02 -0.13961762381E+02  0.52180668109E+02  0.00000000000E+00 0. -1.
          1    1    1    2  501    0 -0.65513384234E+00  0.22157448981E+02 -0.21706604075E+02  0.31025125401E+02  0.00000000000E+00 0. -1.
<scales pt_clust_5="13000.00000" pt_clust_6="13000.00000" pt_clust_7="13000.00000" pt_clust_8="13000.00000" pt_clust_9="22.16713"></scales>
<clustering>
<clus scale="   22.167">  1  9  2 -1</clus>
<clus scale="   84.116">  5  6 -1 -1</clus>
<clus scale="   93.450">  7  8 -1 -1</clus>
<clus scale="  100.720">  2  5  1 -1</clus>
<clus scale="   22.167">  1  5  2 -1</clus>
</clustering>
</event>
<event>
 9    2  0.4653788E-005  0.9723975E+02  0.7546771E-02  0.1292973E+00
          2   -1    0    0  502    0 -0.00000000000E+00  0.00000000000E+00  0.54552939037E+03  0.54552939037E+03  0.00000000000E+00 0. -1.
         21   -1    0    0  501  502  0.00000000000E+00 -0.00000000000E+00 -0.27579438980E+02  0.27579438980E+02  0.00000000000E+00 0.  1.
         24    2    1    2    0    0  0.15081602111E+01  0.33066157025E+02  0.39098160529E+03  0.40043298227E+03  0.79901891883E+02 0.  0.
         23    2    1    2    0    0  0.15813136178E+02 -0.21666644914E+02  0.99765837981E+02  0.13847127673E+03  0.92203976449E+02 0.  0.
        -13    1    3    3    0    0 -0.35878651288E+02  0.12262076590E+02  0.11333819104E+03  0.11951226586E+03  0.00000000000E+00 0.  1.
         14    1    3    3    0    0  0.37386811500E+02  0.20804080435E+02  0.27764341424E+03  0.28092071641E+03  0.00000000000E+00 0. -1.
        -13    1    4    4    0    0  0.15148421320E+02  0.33756292734E+02  0.22238470141E+02  0.43168408841E+02  0.00000000000E+00 0. -1.
         13    1    4    4    0    0  0.66471485725E+00 -0.55422937647E+02  0.77527367840E+02  0.95302867887E+02  0.00000000000E+00 0.  1.
          1    1    1    2  501    0 -0.17321296389E+02 -0.11399512112E+02  0.27202508116E+02  0.34204570349E+02  0.00000000000E+00 0. -1.
<scales pt_clust_5="13000.00000" pt_clust_6="13000.00000" pt_clust_7="13000.00000" pt_clust_8="13000.00000" pt_clust_9="20.73587"></scales>
<clustering>
<clus scale="   20.736">  2  9  1 -1</clus>
<clus scale="   79.902">  5  6 -1 -1</clus>
<clus scale="   85.664">  1  5  2 -1</clus>
<clus scale="   92.204">  7  8 -1 -1</clus>
<clus scale="   20.736">  2  5  1 -1</clus>
</clustering>
</event>
<event>
 9    2  0.4653788E-005  0.1282556E+03  0.7546771E-02  0.1235243E+00
         -1   -1    0    0    0  501 -0.00000000000E+00  0.00000000000E+00  0.18179521494E+03  0.18179521494E+03  0.00000000000E+00 0.  1.
         21   -1    0    0  501  502  0.00000000000E+00 -0.00000000000E+00 -0.18440297760E+03  0.18440297760E+03  0.00000000000E+00 0. -1.
         23    2    1    2    0    0  0.80182576279E+02  0.72616230094E+01  0.11873802173E+03  0.17394363602E+03  0.98365105610E+02 0.  0.
         24    2    1    2    0    0 -0.87111376393E+02 -0.31139145977E+02 -0.90028591994E+02  0.15226817241E+03  0.80761442799E+02 0.  0.
        -11    1    4    4    0    0 -0.76592706077E+01  0.24589044090E+02 -0.19036690081E+02  0.32026256177E+02  0.00000000000E+00 0.  1.
         12    1    4    4    0    0 -0.79452105785E+02 -0.55728190066E+02 -0.70991901913E+02  0.12024191623E+03  0.00000000000E+00 0. -1.
        -11    1    3    3    0    0  0.12753245433E+02  0.31960800432E+02  0.90427986869E+02  0.96754115377E+02  0.00000000000E+00 0.  1.
         11    1    3    3    0    0  0.67429330846E+02 -0.24699177423E+02  0.28310034858E+02  0.77189520645E+02  0.00000000000E+00 0. -1.
         -2    1    1    2    0  502  0.69288001138E+01  0.23877522967E+02 -0.31317192394E+02  0.39986384101E+02  0.00000000000E+00 0.  1.
<scales pt_clust_5="13000.00000" pt_clust_6="13000.00000" pt_clust_7="13000.00000" pt_clust_8="13000.00000" pt_clust_9="24.86251"></scales>
<clustering>
<clus scale="   24.863">  2  9  1 -1</clus>
<clus scale="   80.761">  5  6 -1 -1</clus>
<clus scale="   98.365">  7  8 -1 -1</clus>
<clus scale="  115.309">  2  5  1 -1</clus>
<clus scale="   24.863">  2  5  1 -1</clus>
</clustering>
</event>
<event>
 9    2  0.4653788E-005  0.1516273E+03  0.7546771E-02  0.1199719E+00
         21   -1    0    0  501  502  0.00000000000E+00  0.00000000000E+00  0.34843950622E+03  0.34843950622E+03  0.00000000000E+00 0. -1.
          4   -1    0    0  502    0 -0.00000000000E+00 -0.00000000000E+00 -0.96286469892E+02  0.96286469892E+02  0.00000000000E+00 0. -1.
         24    2    1    2    0    0  0.10291833623E+03 -0.10050846524E+03  0.11121002090E+03  0.19981557604E+03  0.82852037775E+02 0.  0.
         23    2    1    2    0    0 -0.50515696638E+02  0.88504971038E+02  0.13383043516E+03  0.19068209282E+03  0.89800387754E+02 0.  0.
        -13    1    3    3    0    0 -0.35483686514E+01 -0.43091645279E+02  0.42848492244E+02  0.60872605501E+02  0.00000000000E+00 0.  1.
         14    1    3    3    0    0  0.10646670488E+03 -0.57416819965E+02  0.68361528654E+02  0.13894297054E+03  0.00000000000E+00 0. -1.
        -13    1    4    4    0    0 -0.67226822272E+02  0.77124578024E+02  0.70621362831E+02  0.12431823300E+03  0.00000000000E+00 0.  1.
         13    1    4    4    0    0  0.16711125634E+02  0.11380393013E+02  0.63209072329E+02  0.66363859817E+02  0.00000000000E+00 0. -1.
          3    1    1    2  501    0 -0.52402639592E+02  0.12003494207E+02  0.71125802723E+01  0.54228307253E+02  0.00000000000E+00 0. -1.
<scales pt_clust_5="13000.00000" pt_clust_6="13000.00000" pt_clust_7="13000.00000" pt_clust_8="13000.00000" pt_clust_9="53.75987"></scales>
<clustering>
<clus scale="   53.760">  1  9  2 -1</clus>
<clus scale="   82.852">  5  6 -1 -1</clus>
<clus scale="   89.800">  7  8 -1 -1</clus>
<clus scale="  147.618">  2  5  1 -1</clus>
<clus scale="   53.760">  1  5  2 -1</clus>
</clustering>
</event>
<event>
 9    2  0.4653788E-005  0.1816208E+03  0.7546771E-02  0.1167058E+00
         21   -1    0    0  501  502  0.00000000000E+00  0.00000000000E+00  0.52482047979E+03  0.52482047979E+03  0.00000000000E+00 0.  1.
          2   -1    0    0  502    0 -0.00000000000E+00 -0.00000000000E+00 -0.36625788325E+03  0.36625788325E+03  0.00000000000E+00 0. -1.
         24    2    1    2    0    0 -0.15710906063E+03 -0.18666623225E+02 -0.31460408941E+03  0.36112690311E+03  0.80032539125E+02 0.  0.
         23    2    1    2    0    0  0.17515961157E+03  0.91971707552E+01  0.31839420507E+03  0.37384247955E+03  0.87280308298E+02 0.  0.
        -13    1    3    3    0    0 -0.37537174829E+02  0.43372290802E+01 -0.20898450066E+02  0.43180971103E+02  0.00000000000E+00 0.  1.
         14    1    3    3    0    0 -0.11957188580E+03 -0.23003852305E+02 -0.29370563935E+03  0.31794593201E+03  0.00000000000E+00 0. -1.
        -13    1    4    4    0    0  0.15407690816E+03  0.39412640700E+02  0.25570596690E+03  0.30112886176E+03  0.00000000000E+00 0.  1.
         13    1    4    4    0    0  0.21082703407E+02 -0.30215469945E+02  0.62688238177E+02  0.72713617794E+02  0.00000000000E+00 0. -1.
          1    1    1    2  501    0 -0.18050550940E+02  0.94694524696E+01  0.15477248087E+03  0.15610898038E+03  0.00000000000E+00 0. -1.
<scales pt_clust_5="13000.00000" pt_clust_6="13000.00000" pt_clust_7="13000.00000" pt_clust_8="13000.00000" pt_clust_9="20.38364"></scales>
<clustering>
<clus scale="   20.384">  1  9  2 -1</clus>
<clus scale="   80.033">  5  6 -1 -1</clus>
<clus scale="   87.280">  7  8 -1 -1</clus>
<clus scale="  178.251">  2  5  1 -1</clus>
<clus scale="   20.384">  1  5  2 -1</clus>
</clustering>
</event>
<event>
 9    2  0.4653788E-005  0.2566701E+03  0.7546771E-02  0.1118550E+00
         21   -1    0    0  501  502  0.00000000000E+00  0.00000000000E+00  0.22860235333E+03  0.22860235333E+03  0.00000000000E+00 0. -1.
          2   -1    0    0  502    0 -0.00000000000E+00 -0.00000000000E+00 -0.64728615953E+03  0.64728615953E+03  0.00000000000E+00 0. -1.
         23    2    1    2    0    0  0.15692608684E+03  0.90292881794E+02 -0.51009845398E+02  0.20874365824E+03  0.90516900589E+02 0.  0.
         24    2    1    2    0    0 -0.27145014251E+03  0.11745326401E+03 -0.27706454029E+03  0.41320728847E+03  0.80591901923E+02 0.  0.
        -11    1    4    4    0    0 -0.38035555368E+02  0.39798972012E+02 -0.23289573469E+02  0.59775127585E+02  0.00000000000E+00 0.  1.
         12    1    4    4    0    0 -0.23341458715E+03  0.77654291998E+02 -0.25377496683E+03  0.35343216088E+03  0.00000000000E+00 0. -1.
        -13    1    3    3    0    0  0.12701433881E+03  0.59250637942E+02  0.23148114811E+01  0.14017360205E+03  0.00000000000E+00 0. -1.
         13    1    3    3    0    0  0.29911748029E+02  0.31042243852E+02 -0.53324656880E+02  0.68570056182E+02  0.00000000000E+00 0.  1.
          1    1    1    2  501    0  0.11452405567E+03 -0.20774614580E+03 -0.90609420501E+02  0.25393756616E+03  0.00000000000E+00 0. -1.
<scales pt_clust_5="13000.00000" pt_clust_6="13000.00000" pt_clust_7="13000.00000" pt_clust_8="13000.00000" pt_clust_9="243.68930"></scales>
<clustering>
<clus scale="   80.592">  5  6 -1 -1</clus>
<clus scale="   90.517">  7  8 -1 -1</clus>
<clus scale="  202.415">  2  7  1 -1</clus>
<clus scale="  243.689">  1  9  2 -1</clus>
<clus scale="  243.689">  1  5  2 -1</clus>
</clustering>
</event>
<event>
 9    2  0.4653788E-005  0.4239306E+03  0.7546771E-02  0.1035942E+00
         21   -1    0    0  501  502  0.00000000000E+00  0.00000000000E+00  0.83250035924E+03  0.83250035924E+03  0.00000000000E+00 0.  1.
         -1   -1    0    0    0  501 -0.00000000000E+00 -0.00000000000E+00 -0.54476808965E+03  0.54476808965E+03  0.00000000000E+00 0.  1.
         23    2    1    2    0    0 -0.41763215499E+03  0.31589169824E+02 -0.29310691182E+03  0.51900605532E+03  0.89672354578E+02 0.  0.
         24    2    1    2    0    0  0.37309722004E+03 -0.21358284090E+03  0.34515701854E+03  0.55717911831E+03  0.80597995661E+02 0.  0.
        -11    1    4    4    0    0  0.35673747624E+03 -0.19995258683E+03  0.34626514601E+03  0.53585652489E+03  0.00000000000E+00 0.  1.
         12    1    4    4    0    0  0.16359743805E+02 -0.13630254077E+02 -0.11081274706E+01  0.21322593417E+02  0.00000000000E+00 0. -1.
        -13    1    3    3    0    0 -0.32812422261E+03  0.29242998517E+02 -0.27152435068E+03  0.42690295318E+03  0.00000000000E+00 0.  1.
         13    1    3    3    0    0 -0.89507932376E+02  0.23461713069E+01 -0.21582561142E+02  0.92103102138E+02  0.00000000000E+00 0. -1.
         -2    1    1    2    0  502  0.44534934944E+02  0.18199367108E+03  0.23568216288E+03  0.30108327526E+03  0.00000000000E+00 0.  1.
<scales pt_clust_5="13000.00000" pt_clust_6="13000.00000" pt_clust_7="13000.00000" pt_clust_8="13000.00000" pt_clust_9="187.36343"></scales>
<clustering>
<clus scale="   80.598">  5  6 -1 -1</clus>
<clus scale="   89.672">  7  8 -1 -1</clus>
<clus scale="  187.363">  1  9  2 -1</clus>
<clus scale="  422.104">  1  5  2 -1</clus>
<clus scale="  187.363">  1  5  2 -1</clus>
</clustering>
</event>
<event>
 9    2  0.4653788E-005  0.1078952E+03  0.7546771E-02  0.1268335E+00
         21   -1    0    0  501  502  0.00000000000E+00  0.00000000000E+00  0.14824321643E+03  0.14824321643E+03  0.00000000000E+00 0. -1.
          2   -1    0    0  502    0 -0.00000000000E+00 -0.00000000000E+00 -0.16320970662E+03  0.16320970662E+03  0.00000000000E+00 0. -1.
         23    2    1    2    0    0  0.33936382635E+02  0.23799039552E+02  0.12157930436E+02  0.99905044216E+02  0.90084017658E+02 0.  0.
         24    2    1    2    0    0 -0.80698453435E+02  0.48202217926E+02 -0.18809993676E+02  0.12529243241E+03  0.80676412644E+02 0.  0.
        -13    1    4    4    0    0 -0.35053276451E+02  0.66086499904E+02 -0.12941954494E+02  0.75918718677E+02  0.00000000000E+00 0.  1.
         14    1    4    4    0    0 -0.45645176984E+02 -0.17884281978E+02 -0.58680391820E+01  0.49373713731E+02  0.00000000000E+00 0. -1.
        -13    1    3    3    0    0 -0.22425232965E+01  0.50696519410E+02 -0.64092674520E+01  0.51149239489E+02  0.00000000000E+00 0. -1.
         13    1    3    3    0    0  0.36178905932E+02 -0.26897479859E+02  0.18567197888E+02  0.48755804727E+02  0.00000000000E+00 0.  1.
          1    1    1    2  501    0  0.46762070799E+02 -0.72001257478E+02 -0.83144269497E+01  0.86255446433E+02  0.00000000000E+00 0. -1.
<scales pt_clust_5="13000.00000" pt_clust_6="13000.00000" pt_clust_7="13000.00000" pt_clust_8="13000.00000" pt_clust_9="85.85383"></scales>
<clustering>
<clus scale="   80.676">  5  6 -1 -1</clus>
<clus scale="   85.854">  1  9  2 -1</clus>
<clus scale="   90.084">  7  8 -1 -1</clus>
<clus scale="  100.174">  1  5  2 -1</clus>
<clus scale="   85.854">  1  5  2 -1</clus>
</clustering>
</event>
<event>
 9    2  0.4653788E-005  0.1019330E+03  0.7546771E-02  0.1280692E+00
         21   -1    0    0  501  502  0.00000000000E+00  0.00000000000E+00  0.99718449220E+02  0.99718449220E+02  0.00000000000E+00 0.  1.
          2   -1    0    0  502    0 -0.00000000000E+00 -0.00000000000E+00 -0.25538176941E+03  0.25538176941E+03  0.00000000000E+00 0. -1.
         23    2    1    2    0    0  0.64645729881E+01  0.53571680100E+02 -0.19709383325E+03  0.22321277272E+03  0.89812288637E+02 0.  0.
         24    2    1    2    0    0  0.59399386049E+00 -0.17286533303E+02  0.46716064577E+02  0.94546151089E+02  0.80357992346E+02 0.  0.
        -13    1    4    4    0    0 -0.37287550608E+02  0.38891885718E+01  0.13320774252E+02  0.39786055909E+02  0.00000000000E+00 0.  1.
         14    1    4    4    0    0  0.37881544469E+02 -0.21175721875E+02  0.33395290325E+02  0.54760095180E+02  0.00000000000E+00 0. -1.
        -13    1    3    3    0    0  0.36146858158E+02  0.42305444883E+02 -0.17723516323E+03  0.18576503736E+03  0.00000000000E+00 0. -1.
         13    1    3    3    0    0 -0.29682285169E+02  0.11266235217E+02 -0.19858670019E+02  0.37447735362E+02  0.00000000000E+00 0.  1.
          1    1    1    2  501    0 -0.70585668486E+01 -0.36285146797E+02 -0.52855515235E+01  0.37341294821E+02  0.00000000000E+00 0. -1.
<scales pt_clust_5="13000.00000" pt_clust_6="13000.00000" pt_clust_7="13000.00000" pt_clust_8="13000.00000" pt_clust_9="36.96532"></scales>
<clustering>
<clus scale="   36.965">  1  9  2 -1</clus>
<clus scale="   80.358">  5  6 -1 -1</clus>
<clus scale="   89.812">  7  8 -1 -1</clus>
<clus scale="   93.710">  1  5  2 -1</clus>
<clus scale="   36.965">  1  5  2 -1</clus>
</clustering>
</event>
<event>
 9    2  0.4653788E-005  0.1567138E+03  0.7546771E-02  0.1209477E+00
         21   -1    0    0  501  502  0.00000000000E+00  0.00000000000E+00  0.34470357340E+03  0.34470357340E+03  0.00000000000E+00 0.  1.
         -1   -1    0    0    0  501 -0.00000000000E+00 -0.00000000000E+00 -0.20853598250E+03  0.20853598250E+03  0.00000000000E+00 0.  1.
         23    2    1    2    0    0 -0.27519906801E+02  0.48075267930E+02  0.86163213258E+02  0.13843313014E+03  0.93118502690E+02 0.  0.
         24    2    1    2    0    0  0.13800908462E+03 -0.28400943377E+02  0.18062813701E+03  0.24259288398E+03  0.79822693850E+02 0.  0.
        -11    1    4    4    0    0  0.44199717404E+02  0.98248873394E+01  0.11041968909E+03  0.11934257902E+03  0.00000000000E+00 0.  1.
         12    1    4    4    0    0  0.93809367214E+02 -0.38225830716E+02  0.70208447929E+02  0.12325030496E+03  0.00000000000E+00 0. -1.
        -13    1    3    3    0    0  0.31584741028E+02  0.31020070687E+02  0.51162510369E+02  0.67656803933E+02  0.00000000000E+00 0. -1.
         13    1    3    3    0    0 -0.59104647828E+02  0.17055197244E+02  0.35000702889E+02  0.70776326202E+02  0.00000000000E+00 0.  1.
         -2    1    1    2    0  502 -0.11048917782E+03 -0.19674324553E+02 -0.13062375938E+03  0.17221354179E+03  0.00000000000E+00 0.  1.
<scales pt_clust_5="13000.00000" pt_clust_6="13000.00000" pt_clust_7="13000.00000" pt_clust_8="13000.00000" pt_clust_9="134.86135"></scales>
<clustering>
<clus scale="   79.823">  5  6 -1 -1</clus>
<clus scale="   93.119">  7  8 -1 -1</clus>
<clus scale="  108.350">  2  7  1 -1</clus>
<clus scale="  134.861">  1  9  2 -1</clus>
<clus scale="  134.861">  1  5  2 -1</clus>
</clustering>
</event>
<event>
 9    2  0.4653788E-005  0.1959707E+03  0.7546771E-02  0.1154752E+00
         21   -1    0    0  501  502  0.00000000000E+00  0.00000000000E+00  0.40925043997E+02  0.40925043997E+02  0.00000000000E+00 0.  1.
         -1   -1    0    0    0  501 -0.00000000000E+00 -0.00000000000E+00 -0.11541353244E+04  0.11541353244E+04  0.00000000000E+00 0.  1.
         24    2    1    2    0    0 -0.18115653524E+03 -0.72433112586E+00 -0.53626371952E+03  0.57191130168E+03  0.81765183264E+02 0.  0.
         23    2    1    2    0    0  0.15617872454E+03  0.40163770786E+02 -0.44393496052E+03  0.48218294930E+03  0.97042387351E+02 0.  0.
        -11    1    3    3    0    0 -0.10203526849E+03 -0.82174835195E+01 -0.41105243560E+03  0.42360692613E+03  0.00000000000E+00 0.  1.
         12    1    3    3    0    0 -0.79121266755E+02  0.74931523936E+01 -0.12521128392E+03  0.14830437555E+03  0.00000000000E+00 0. -1.
        -13    1    4    4    0    0  0.12925722315E+03 -0.67248645373E+01 -0.25952318490E+03  0.29000851202E+03  0.00000000000E+00 0.  1.
         13    1    4    4    0    0  0.26921501387E+02  0.46888635323E+02 -0.18441177562E+03  0.19217443728E+03  0.00000000000E+00 0. -1.
         -2    1    1    2    0  502  0.24977810703E+02 -0.39439439660E+02 -0.13301160032E+03  0.14096611737E+03  0.00000000000E+00 0.  1.
<scales pt_clust_5="13000.00000" pt_clust_6="13000.00000" pt_clust_7="13000.00000" pt_clust_8="13000.00000" pt_clust_9="46.68364"></scales>
<clustering>
<clus scale="   46.684">  1  9  2 -1</clus>
<clus scale="   81.765">  5  6 -1 -1</clus>
<clus scale="   97.042">  7  8 -1 -1</clus>
<clus scale="  188.873">  2  5  1 -1</clus>
<clus scale="   46.684">  1  5  2 -1</clus>
</clustering>
</event>
<event>
 9    2  0.4653788E-005  0.1367165E+03  0.7546771E-02  0.1221204E+00
         21   -1    0    0  501  502  0.00000000000E+00  0.00000000000E+00  0.26579675022E+03  0.26579675022E+03  0.00000000000E+00 0.  1.
         -3   -1    0    0    0  501 -0.00000000000E+00 -0.00000000000E+00 -0.17576448478E+03  0.17576448478E+03  0.00000000000E+00 0.  1.
         23    2    1    2    0    0  0.74997829898E+02 -0.81712446305E+02 -0.11732080560E+03  0.18566680686E+03  0.91686385977E+02 0.  0.
         24    2    1    2    0    0 -0.36655679608E+02  0.44739485574E+02  0.14233383434E+03  0.17184312563E+03  0.76979731162E+02 0.  0.
        -13    1    4    4    0    0 -0.53668440415E+02  0.85560778381E+01  0.64524003711E+02  0.84361454583E+02  0.00000000000E+00 0.  1.
         14    1    4    4    0    0  0.17012760807E+02  0.36183407736E+02  0.77809830632E+02  0.87481671044E+02  0.00000000000E+00 0. -1.
        -13    1    3    3    0    0  0.51611432672E+02 -0.82867953310E+02 -0.12712172807E+03  0.16028340967E+03  0.00000000000E+00 0.  1.
         13    1    3    3    0    0  0.23386397225E+02  0.11555070057E+01  0.98009224721E+01  0.25383397191E+02  0.00000000000E+00 0. -1.
         -4    1    1    2    0  502 -0.38342150290E+02  0.36972960730E+02  0.65019236687E+02  0.84051302509E+02  0.00000000000E+00 0.  1.
<scales pt_clust_5="13000.00000" pt_clust_6="13000.00000" pt_clust_7="13000.00000" pt_clust_8="13000.00000" pt_clust_9="53.26463"></scales>
<clustering>
<clus scale="   53.265">  1  9  2 -1</clus>
<clus scale="   76.980">  5  6 -1 -1</clus>
<clus scale="   91.686">  7  8 -1 -1</clus>
<clus scale="  127.322">  1  5  2 -1</clus>
<clus scale="   53.265">  1  5  2 -1</clus>
</clustering>
</event>
<event>
 9    2  0.4653788E-005  0.1269736E+03  0.7546771E-02  0.1233167E+00
         -3   -1    0    0    0  501 -0.00000000000E+00  0.00000000000E+00  0.10691129716E+03  0.10691129716E+03  0.00000000000E+00 0.  1.
         21   -1    0    0  501  502  0.00000000000E+00 -0.00000000000E+00 -0.84758741749E+03  0.84758741749E+03  0.00000000000E+00 0.  1.
         23    2    1    2    0    0  0.26501770910E+01 -0.64730619615E+02 -0.53162479425E+01  0.11185138942E+03  0.91024141136E+02 0.  0.
         24    2    1    2    0    0 -0.16152030045E+02  0.14494773649E+03 -0.89890778964E+02  0.19207262817E+03  0.86837825639E+02 0.  0.
        -11    1    4    4    0    0  0.92630405891E+01  0.28743582069E+02  0.14783629667E+02  0.33623699042E+02  0.00000000000E+00 0.  1.
         12    1    4    4    0    0 -0.25415070634E+02  0.11620415442E+03 -0.10467440863E+03  0.15844892913E+03  0.00000000000E+00 0. -1.
        -13    1    3    3    0    0  0.39977784233E+02 -0.56142535892E+01  0.66672093366E+01  0.40916925054E+02  0.00000000000E+00 0.  1.
         13    1    3    3    0    0 -0.37327607142E+02 -0.59116366026E+02 -0.11983457279E+02  0.70934464370E+02  0.00000000000E+00 0. -1.
         -4    1    1    2    0  502  0.13501852954E+02 -0.80217116875E+02 -0.64546909343E+03  0.65057469705E+03  0.00000000000E+00 0.  1.
<scales pt_clust_5="13000.00000" pt_clust_6="13000.00000" pt_clust_7="13000.00000" pt_clust_8="13000.00000" pt_clust_9="81.34547"></scales>
<clustering>
<clus scale="   81.345">  2  9  1 -1</clus>
<clus scale="   86.838">  5  6 -1 -1</clus>
<clus scale="   91.024">  7  8 -1 -1</clus>
<clus scale="  124.007">  2  5  1 -1</clus>
<clus scale="   81.345">  2  5  1 -1</clus>
</clustering>
</event>
<event>
 9    2  0.4653788E-005  0.1034061E+03  0.7546771E-02  0.1278990E+00
         21   -1    0    0  501  502  0.00000000000E+00  0.00000000000E+00  0.36462342636E+03  0.36462342636E+03  0.00000000000E+00 0. -1.
         -3   -1    0    0    0  501 -0.00000000000E+00 -0.00000000000E+00 -0.63191632033E+02  0.63191632033E+02  0.00000000000E+00 0.  1.
         24    2    1    2    0    0 -0.34836059656E+02 -0.58256546456E+02  0.80456203355E+02  0.13272765115E+03  0.80845856195E+02 0.  0.
         23    2    1    2    0    0  0.44210506907E+02 -0.27971061789E+02  0.14357055108E+03  0.17883500561E+03  0.92911284978E+02 0.  0.
        -13    1    3    3    0    0 -0.45286083802E+02 -0.35775255119E+02  0.10698342124E+02  0.58695423921E+02  0.00000000000E+00 0.  1.
         14    1    3    3    0    0  0.10450024146E+02 -0.22481291337E+02  0.69757861232E+02  0.74032227229E+02  0.00000000000E+00 0. -1.
        -13    1    4    4    0    0 -0.29034629593E+02 -0.11533555749E+02  0.36066026436E+02  0.47715729971E+02  0.00000000000E+00 0. -1.
         13    1    4    4    0    0  0.73245136499E+02 -0.16437506040E+02  0.10750452464E+03  0.13111927564E+03  0.00000000000E+00 0.  1.
         -4    1    1    2    0  502 -0.93744472504E+01  0.86227608245E+02  0.77405039897E+02  0.11625240164E+03  0.00000000000E+00 0.  1.
<scales pt_clust_5="13000.00000" pt_clust_6="13000.00000" pt_clust_7="13000.00000" pt_clust_8="13000.00000" pt_clust_9="86.73574"></scales>
<clustering>
<clus scale="   80.846">  5  6 -1 -1</clus>
<clus scale="   86.736">  1  9  2 -1</clus>
<clus scale="   92.717">  2  5  1 -1</clus>
<clus scale="   92.911">  7  8 -1 -1</clus>
<clus scale="   86.736">  1  5  2 -1</clus>
</clustering>
</event>
<event>
 9    2  0.4653788E-005  0.1530371E+03  0.7546771E-02  0.1197876E+00
         -1   -1    0    0    0  501 -0.00000000000E+00  0.00000000000E+00  0.58760131142E+03  0.58760131142E+03  0.00000000000E+00 0.  1.
         21   -1    0    0  501  502  0.00000000000E+00 -0.00000000000E+00 -0.52002885552E+02  0.52002885552E+02  0.00000000000E+00 0.  1.
         23    2    1    2    0    0 -0.12853412668E+03  0.24622166727E+02  0.23661223620E+03  0.28273034098E+03  0.82606431821E+02 0.  0.
         24    2    1    2    0    0  0.11414863474E+03 -0.61776939232E+02  0.20001983932E+03  0.25018853366E+03  0.75763218124E+02 0.  0.
        -13    1    4    4    0    0  0.12037591783E+03 -0.63776840502E+02  0.20173836110E+03  0.24342599146E+03  0.00000000000E+00 0.  1.
         14    1    4    4    0    0 -0.62272830954E+01  0.19999012693E+01 -0.17185217860E+01  0.67625421970E+01  0.00000000000E+00 0. -1.
        -13    1    3    3    0    0 -0.10129253065E+03 -0.16922296162E+02  0.13498025297E+03  0.16960604225E+03  0.00000000000E+00 0.  1.
         13    1    3    3    0    0 -0.27241596030E+02  0.41544462890E+02  0.10163198322E+03  0.11312429874E+03  0.00000000000E+00 0. -1.
         -2    1    1    2    0  502  0.14385491945E+02  0.37154772505E+02  0.98966350352E+02  0.10668532233E+03  0.00000000000E+00 0.  1.
<scales pt_clust_5="13000.00000" pt_clust_6="13000.00000" pt_clust_7="13000.00000" pt_clust_8="13000.00000" pt_clust_9="39.84245"></scales>
<clustering>
<clus scale="   39.842">  2  9  1 -1</clus>
<clus scale="   75.763">  5  6 -1 -1</clus>
<clus scale="   82.606">  7  8 -1 -1</clus>
<clus scale="  149.454">  2  5  1 -1</clus>
<clus scale="   39.842">  2  5  1 -1</clus>
</clustering>
</event>
<event>
 9    2  0.4653788E-005  0.9670705E+02  0.7546771E-02  0.1296947E+00
          2   -1    0    0  502    0 -0.00000000000E+00  0.00000000000E+00  0.32182484159E+03  0.32182484159E+03  0.00000000000E+00 0. -1.
         21   -1    0    0  501  502  0.00000000000E+00 -0.00000000000E+00 -0.83255943532E+02  0.83255943532E+02  0.00000000000E+00 0. -1.
         23    2    1    2    0    0  0.21802633901E+02 -0.33046064846E+02  0.26683305233E+03  0.28449540893E+03  0.90390058284E+02 0.  0.
         24    2    1    2    0    0  0.15562938436E+00  0.54293557157E+00 -0.34374237911E+02  0.80887116015E+02  0.73217609260E+02 0.  0.
        -13    1    4    4    0    0  0.35778254713E+02  0.46594652424E+01 -0.24766351227E+02  0.43762612808E+02  0.00000000000E+00 0.  1.
         14    1    4    4    0    0 -0.35622625329E+02 -0.41165296708E+01 -0.96078866843E+01  0.37124503207E+02  0.00000000000E+00 0. -1.
        -13    1    3    3    0    0 -0.23786718431E+02 -0.39754260787E+01  0.18638461283E+02  0.30479570621E+02  0.00000000000E+00 0.  1.
         13    1    3    3    0    0  0.45589352332E+02 -0.29070638767E+02  0.24819459105E+03  0.25401583831E+03  0.00000000000E+00 0. -1.
          1    1    1    2  501    0 -0.21958263286E+02  0.32503129274E+02  0.61100836348E+01  0.39698260178E+02  0.00000000000E+00 0. -1.
<scales pt_clust_5="13000.00000" pt_clust_6="13000.00000" pt_clust_7="13000.00000" pt_clust_8="13000.00000" pt_clust_9="39.22523"></scales>
<clustering>
<clus scale="   39.225">  2  9  1 -1</clus>
<clus scale="   73.218">  5  6 -1 -1</clus>
<clus scale="   80.887">  2  5  1 -1</clus>
<clus scale="   90.390">  7  8 -1 -1</clus>
<clus scale="   39.225">  2  5  1 -1</clus>
</clustering>
</event>
<event>
 9    2  0.4653788E-005  0.1118567E+03  0.7546771E-02  0.1265979E+00
         21   -1    0    0  501  502  0.00000000000E+00  0.00000000000E+00  0.57607676620E+03  0.57607676620E+03  0.00000000000E+00 0. -1.
         -3   -1    0    0    0  501 -0.00000000000E+00 -0.00000000000E+00 -0.63892634716E+02  0.63892634716E+02  0.00000000000E+00 0.  1.
         23    2    1    2    0    0  0.20463763027E+01 -0.26590681346E+02  0.14839701077E+01  0.94620956285E+02  0.90772634701E+02 0.  0.
         24    2    1    2    0    0 -0.37329265285E+02  0.90461775383E+01  0.19131346178E+03  0.22354018534E+03  0.10905992127E+03 0.  0.
        -11    1    4    4    0    0  0.18474839380E+02  0.36297887861E+02  0.29707065814E+02  0.50411963982E+02  0.00000000000E+00 0.  1.
         12    1    4    4    0    0 -0.55804104665E+02 -0.27251710323E+02  0.16160639596E+03  0.17312822135E+03  0.00000000000E+00 0. -1.
        -13    1    3    3    0    0  0.33725345795E+02 -0.68031670832E+01 -0.30094697561E+02  0.45709658199E+02  0.00000000000E+00 0. -1.
         13    1    3    3    0    0 -0.31678969492E+02 -0.19787514262E+02  0.31578667669E+02  0.48911298086E+02  0.00000000000E+00 0.  1.
         -4    1    1    2    0  502  0.35282888983E+02  0.17544503807E+02  0.31938669960E+03  0.32180825929E+03  0.00000000000E+00 0.  1.
<scales pt_clust_5="13000.00000" pt_clust_6="13000.00000" pt_clust_7="13000.00000" pt_clust_8="13000.00000" pt_clust_9="39.40421"></scales>
<clustering>
<clus scale="   39.404">  1  9  2 -1</clus>
<clus scale="   90.773">  7  8 -1 -1</clus>
<clus scale="   94.114">  2  7  1 -1</clus>
<clus scale="  109.060">  5  6 -1 -1</clus>
<clus scale="   39.404">  1  5  2 -1</clus>
</clustering>
</event>
<event>
 9    2  0.4653788E-005  0.1029612E+03  0.7546771E-02  0.1281129E+00
         -1   -1    0    0    0  501 -0.00000000000E+00  0.00000000000E+00  0.25069743992E+02  0.25069743992E+02  0.00000000000E+00 0.  1.
         21   -1    0    0  501  502  0.00000000000E+00 -0.00000000000E+00 -0.69117566100E+03  0.69117566100E+03  0.00000000000E+00 0.  1.
         23    2    1    2    0    0 -0.27084218481E+01 -0.44774493304E+02 -0.15637977901E+03  0.18830863717E+03  0.94833626691E+02 0.  0.
         24    2    1    2    0    0  0.40355523282E+02  0.21885784459E+02 -0.32417149926E+03  0.33722305253E+03  0.80775431968E+02 0.  0.
        -11    1    4    4    0    0  0.46244489473E+02 -0.17739396955E+02 -0.13358295962E+03  0.14246980772E+03  0.00000000000E+00 0.  1.
         12    1    4    4    0    0 -0.58889661908E+01  0.39625181414E+02 -0.19058853964E+03  0.19475324481E+03  0.00000000000E+00 0. -1.
        -13    1    3    3    0    0  0.37574061760E+02 -0.45017319539E+02 -0.60222142828E+02  0.84054004441E+02  0.00000000000E+00 0.  1.
         13    1    3    3    0    0 -0.40282483608E+02  0.24282623580E+00 -0.96157636181E+02  0.10425463273E+03  0.00000000000E+00 0. -1.
         -2    1    1    2    0  502 -0.37647101434E+02  0.22888708845E+02 -0.18555463874E+03  0.19071371528E+03  0.00000000000E+00 0.  1.
<scales pt_clust_5="13000.00000" pt_clust_6="13000.00000" pt_clust_7="13000.00000" pt_clust_8="13000.00000" pt_clust_9="44.05902"></scales>
<clustering>
<clus scale="   44.059">  2  9  1 -1</clus>
<clus scale="   80.775">  5  6 -1 -1</clus>
<clus scale="   90.179">  2  5  1 -1</clus>
<clus scale="   94.834">  7  8 -1 -1</clus>
<clus scale="   44.059">  2  5  1 -1</clus>
</clustering>
</event>
<event>
 9    2  0.4653788E-005  0.2571015E+03  0.7546771E-02  0.1132962E+00
         21   -1    0    0  501  502  0.00000000000E+00  0.00000000000E+00  0.36645219183E+03  0.36645219183E+03  0.00000000000E+00 0. -1.
          2   -1    0    0  502    0 -0.00000000000E+00 -0.00000000000E+00 -0.42144054501E+03  0.42144054501E+03  0.00000000000E+00 0. -1.
         23    2    1    2    0    0 -0.53776032960E+02 -0.93290536963E+02 -0.20897119491E+03  0.25207746094E+03  0.90989559861E+02 0.  0.
         24    2    1    2    0    0  0.18913159198E+03 -0.13529457068E+03  0.51160242869E+02  0.25095607272E+03  0.79285560103E+02 0.  0.
        -11    1    4    4    0    0  0.35205319126E+02  0.59632412293E+01  0.15882312500E+02  0.39079695381E+02  0.00000000000E+00 0.  1.
         12    1    4    4    0    0  0.15392627286E+03 -0.14125781191E+03  0.35277930368E+02  0.21187637734E+03  0.00000000000E+00 0. -1.
        -13    1    3    3    0    0 -0.49115455374E+00 -0.86264506347E+02 -0.14273695178E+03  0.16678022572E+03  0.00000000000E+00 0.  1.
         13    1    3    3    0    0 -0.53284878406E+02 -0.70260306163E+01 -0.66234243137E+02  0.85297235225E+02  0.00000000000E+00 0. -1.
          1    1    1    2  501    0 -0.13535555902E+03  0.22858510765E+03  0.10282259887E+03  0.28485920318E+03  0.00000000000E+00 0. -1.
<scales pt_clust_5="13000.00000" pt_clust_6="13000.00000" pt_clust_7="13000.00000" pt_clust_8="13000.00000" pt_clust_9="244.57104"></scales>
<clustering>
<clus scale="   79.286">  5  6 -1 -1</clus>
<clus scale="   90.990">  7  8 -1 -1</clus>
<clus scale="  140.975">  2  7  1 -1</clus>
<clus scale="  244.571">  1  9  2 -1</clus>
<clus scale="  244.571">  1  5  2 -1</clus>
</clustering>
</event>
<event>
 9    2  0.4653788E-005  0.1014523E+03  0.7546771E-02  0.1282488E+00
         -1   -1    0    0    0  501 -0.00000000000E+00  0.00000000000E+00  0.14879632191E+03  0.14879632191E+03  0.00000000000E+00 0.  1.
         21   -1    0    0  501  502  0.00000000000E+00 -0.00000000000E+00 -0.16956368028E+03  0.16956368028E+03  0.00000000000E+00 0.  1.
         24    2    1    2    0    0  0.30533587852E+02 -0.28115614889E+02  0.69785837584E+02  0.11376439124E+03  0.79683660803E+02 0.  0.
         23    2    1    2    0    0 -0.48250010316E+02  0.54412409797E+02 -0.11583468798E+03  0.16404259766E+03  0.90573313245E+02 0.  0.
        -13    1    3    3    0    0  0.24953562600E+02  0.14405963032E+02  0.64386639772E+02  0.70539715327E+02  0.00000000000E+00 0.  1.
         14    1    3    3    0    0  0.55800252520E+01 -0.42521577921E+02  0.53991978121E+01  0.43224675912E+02  0.00000000000E+00 0. -1.
        -11    1    4    4    0    0 -0.11017668488E+02  0.70440600888E+02 -0.94062636538E+02  0.11802985582E+03  0.00000000000E+00 0.  1.
         11    1    4    4    0    0 -0.37232341828E+02 -0.16028191091E+02 -0.21772051442E+02  0.46012741840E+02  0.00000000000E+00 0. -1.
         -2    1    1    2    0  502  0.17716422464E+02 -0.26296794908E+02  0.25281492034E+02  0.40553013289E+02  0.00000000000E+00 0.  1.
<scales pt_clust_5="13000.00000" pt_clust_6="13000.00000" pt_clust_7="13000.00000" pt_clust_8="13000.00000" pt_clust_9="31.70795"></scales>
<clustering>
<clus scale="   31.708">  2  9  1 -1</clus>
<clus scale="   79.684">  5  6 -1 -1</clus>
<clus scale="   90.573">  7  8 -1 -1</clus>
<clus scale="   91.861">  1  5  2 -1</clus>
<clus scale="   31.708">  2  5  1 -1</clus>
</clustering>
</event>
<event>
 9    2  0.4653788E-005  0.3300256E+03  0.7546771E-02  0.1071513E+00
         21   -1    0    0  501  502  0.00000000000E+00  0.00000000000E+00  0.37473468275E+03  0.37473468275E+03  0.00000000000E+00 0.  1.
         -3   -1    0    0    0  501 -0.00000000000E+00 -0.00000000000E+00 -0.38207094064E+03  0.38207094064E+03  0.00000000000E+00 0.  1.
         24    2    1    2    0    0 -0.37786121888E+02  0.29689324264E+03 -0.68615735568E+01  0.30946790636E+03  0.78421395973E+02 0.  0.
         23    2    1    2    0    0 -0.35167319400E+02 -0.34236121377E+03  0.26633673082E+02  0.35720224101E+03  0.91848502393E+02 0.  0.
        -11    1    3    3    0    0  0.10310711611E+02  0.17049787208E+03  0.18721242324E+02  0.17183224398E+03  0.00000000000E+00 0.  1.
         12    1    3    3    0    0 -0.48096833499E+02  0.12639537056E+03 -0.25582815881E+02  0.13763566238E+03  0.00000000000E+00 0. -1.
        -13    1    4    4    0    0  0.59039357501E+01 -0.72716465489E+02  0.41698915305E+02  0.84031781774E+02  0.00000000000E+00 0. -1.
         13    1    4    4    0    0 -0.41071255150E+02 -0.26964474828E+03 -0.15065242223E+02  0.27317045923E+03  0.00000000000E+00 0.  1.
         -4    1    1    2    0  502  0.72953441288E+02  0.45467971133E+02 -0.27108357410E+02  0.90135476013E+02  0.00000000000E+00 0.  1.
<scales pt_clust_5="13000.00000" pt_clust_6="13000.00000" pt_clust_7="13000.00000" pt_clust_8="13000.00000" pt_clust_9="85.96248"></scales>
<clustering>
<clus scale="   78.421">  5  6 -1 -1</clus>
<clus scale="   85.962">  1  9  2 -1</clus>
<clus scale="   91.849">  7  8 -1 -1</clus>
<clus scale="  326.543">  2  5  1 -1</clus>
<clus scale="   85.962">  1  5  2 -1</clus>
</clustering>
</event>
<event>
 9    2  0.4653788E-005  0.1212221E+03  0.7546771E-02  0.1245212E+00
         21   -1    0    0  501  502  0.00000000000E+00  0.00000000000E+00  0.70993762531E+03  0.70993762531E+03  0.00000000000E+00 0.  1.
         -3   -1    0    0    0  501 -0.00000000000E+00 -0.00000000000E+00 -0.41242376581E+02  0.41242376581E+02  0.00000000000E+00 0.  1.
         23    2    1    2    0    0 -0.48849316013E+02 -0.68060871189E+01  0.17425019366E+03  0.20317896199E+03  0.92119390515E+02 0.  0.
         24    2    1    2    0    0  0.10078590545E+03  0.49460356929E+02  0.17947269152E+03  0.22593833505E+03  0.78952888478E+02 0.  0.
        -11    1    4    4    0    0  0.80125160231E+02  0.70664222923E+02  0.15007041823E+03  0.18421347434E+03  0.00000000000E+00 0.  1.
         12    1    4    4    0    0  0.20660745217E+02 -0.21203865995E+02  0.29402273297E+02  0.41724860708E+02  0.00000000000E+00 0. -1.
        -13    1    3    3    0    0  0.23461512960E+02  0.10392168593E+02  0.74403960876E+02  0.78704441758E+02  0.00000000000E+00 0. -1.
         13    1    3    3    0    0 -0.72310828973E+02 -0.17198255712E+02  0.99846232781E+02  0.12447452023E+03  0.00000000000E+00 0.  1.
         -4    1    1    2    0  502 -0.51936589435E+02 -0.42654269810E+02  0.31497236355E+03  0.32206270485E+03  0.00000000000E+00 0.  1.
<scales pt_clust_5="13000.00000" pt_clust_6="13000.00000" pt_clust_7="13000.00000" pt_clust_8="13000.00000" pt_clust_9="67.20711"></scales>
<clustering>
<clus scale="   67.207">  1  9  2 -1</clus>
<clus scale="   78.953">  5  6 -1 -1</clus>
<clus scale="   92.119">  7  8 -1 -1</clus>
<clus scale="  111.545">  1  5  2 -1</clus>
<clus scale="   67.207">  1  5  2 -1</clus>
</clustering>
</event>
<event>
 9    2  0.4653788E-005  0.1027005E+03  0.7546771E-02  0.1281974E+00
         -1   -1    0    0    0  501 -0.00000000000E+00  0.00000000000E+00  0.86420970753E+02  0.86420970753E+02  0.00000000000E+00 0.  1.
         21   -1    0    0  501  502  0.00000000000E+00 -0.00000000000E+00 -0.18788355679E+03  0.18788355679E+03  0.00000000000E+00 0. -1.
         24    2    1    2    0    0  0.41994818170E+02  0.81927482868E+01 -0.34741582179E+02  0.98702221565E+02  0.81880798310E+02 0.  0.
         23    2    1    2    0    0 -0.25458397254E+02  0.13484696217E+02 -0.93623664916E+02  0.13729932974E+03  0.96206799607E+02 0.  0.
        -11    1    3    3    0    0 -0.23917662171E+02  0.10296435175E+02 -0.57623569245E+01  0.26669756248E+02  0.00000000000E+00 0.  1.
         12    1    3    3    0    0  0.65912480341E+02 -0.21036868885E+01 -0.28979225254E+02  0.72032465316E+02  0.00000000000E+00 0. -1.
        -11    1    4    4    0    0 -0.34253529425E+02 -0.23890106757E+02 -0.89398503240E+02  0.98671849382E+02  0.00000000000E+00 0. -1.
         11    1    4    4    0    0  0.87951321714E+01  0.37374802974E+02 -0.42251616763E+01  0.38627480353E+02  0.00000000000E+00 0.  1.
         -2    1    1    2    0  502 -0.16536420916E+02 -0.21677444504E+02  0.26902661059E+02  0.38302976242E+02  0.00000000000E+00 0.  1.
<scales pt_clust_5="13000.00000" pt_clust_6="13000.00000" pt_clust_7="13000.00000" pt_clust_8="13000.00000" pt_clust_9="27.26473"></scales>
<clustering>
<clus scale="   27.265">  2  9  1 -1</clus>
<clus scale="   81.881">  5  6 -1 -1</clus>
<clus scale="   89.421">  1  5  2 -1</clus>
<clus scale="   96.207">  7  8 -1 -1</clus>
<clus scale="   27.265">  2  5  1 -1</clus>
</clustering>
</event>
<event>
 9    2  0.4653788E-005  0.1753378E+03  0.7546771E-02  0.1176754E+00
         -3   -1    0    0    0  501 -0.00000000000E+00  0.00000000000E+00  0.40801307854E+03  0.40801307854E+03  0.00000000000E+00 0.  1.
         21   -1    0    0  501  502  0.00000000000E+00 -0.00000000000E+00 -0.15403073196E+03  0.15403073196E+03  0.00000000000E+00 0.  1.
         23    2    1    2    0    0  0.10158206795E+03 -0.24936494216E+01  0.72279811490E+02  0.16568210286E+03  0.10909194857E+03 0.  0.
         24    2    1    2    0    0 -0.20474420413E+03  0.20667493081E+02  0.46948472106E+02  0.22568255711E+03  0.79881932608E+02 0.  0.
        -13    1    4    4    0    0 -0.14216521090E+03  0.23264891883E+02  0.68410268956E+02  0.15947466031E+03  0.00000000000E+00 0.  1.
         14    1    4    4    0    0 -0.62578993229E+02 -0.25973988021E+01 -0.21461796850E+02  0.66207896796E+02  0.00000000000E+00 0. -1.
        -13    1    3    3    0    0 -0.18484130921E+02 -0.10277767689E+02 -0.61901464273E+01  0.22036640338E+02  0.00000000000E+00 0. -1.
         13    1    3    3    0    0  0.12006619887E+03  0.77841182672E+01  0.78469957917E+02  0.14364546252E+03  0.00000000000E+00 0.  1.
         -4    1    1    2    0  502  0.10316213618E+03 -0.18173843659E+02  0.13475406298E+03  0.17067915053E+03  0.00000000000E+00 0.  1.
<scales pt_clust_5="13000.00000" pt_clust_6="13000.00000" pt_clust_7="13000.00000" pt_clust_8="13000.00000" pt_clust_9="104.75078"></scales>
<clustering>
<clus scale="   79.882">  5  6 -1 -1</clus>
<clus scale="  104.751">  2  9  1 -1</clus>
<clus scale="  109.092">  7  8 -1 -1</clus>
<clus scale="  158.819">  2  5  1 -1</clus>
<clus scale="  104.751">  2  5  1 -1</clus>
</clustering>
</event>
<event>
 9    2  0.4653788E-005  0.1114201E+03  0.7546771E-02  0.1261557E+00
          2   -1    0    0  502    0 -0.00000000000E+00  0.00000000000E+00  0.15923677504E+03  0.15923677504E+03  0.00000000000E+00 0. -1.
         21   -1    0    0  501  502  0.00000000000E+00 -0.00000000000E+00 -0.14809997108E+03  0.14809997108E+03  0.00000000000E+00 0.  1.
         23    2    1    2    0    0  0.17410517216E+02 -0.69299944152E+02  0.95606152024E+02  0.14904717348E+03  0.89268780923E+02 0.  0.
         24    2    1    2    0    0 -0.39367984139E+02  0.41867062896E+02 -0.55596571904E+02  0.11281067060E+03  0.79577506017E+02 0.  0.
        -11    1    4    4    0    0  0.74365098629E+01  0.30338782911E+02 -0.56543455474E+02  0.64598032357E+02  0.00000000000E+00 0.  1.
         12    1    4    4    0    0 -0.46804494001E+02  0.11528279985E+02  0.94688357028E+00  0.48212638246E+02  0.00000000000E+00 0. -1.
        -13    1    3    3    0    0  0.29811961648E+02  0.10155295864E+02  0.41604909213E+02  0.52180950183E+02  0.00000000000E+00 0.  1.
         13    1    3    3    0    0 -0.12401444432E+02 -0.79455240016E+02  0.54001242811E+02  0.96866223294E+02  0.00000000000E+00 0. -1.
          1    1    1    2  501    0  0.21957466922E+02  0.27432881257E+02 -0.28872776156E+02  0.45478902038E+02  0.00000000000E+00 0. -1.
<scales pt_clust_5="13000.00000" pt_clust_6="13000.00000" pt_clust_7="13000.00000" pt_clust_8="13000.00000" pt_clust_9="35.13820"></scales>
<clustering>
<clus scale="   35.138">  2  9  1 -1</clus>
<clus scale="   79.578">  5  6 -1 -1</clus>
<clus scale="   89.269">  7  8 -1 -1</clus>
<clus scale="  103.818">  2  5  1 -1</clus>
<clus scale="   35.138">  2  5  1 -1</clus>
</clustering>
</event>
<event>
 9    2  0.4653788E-005  0.9241407E+02  0.7546771E-02  0.1302336E+00
          2   -1    0    0  502    0 -0.00000000000E+00  0.00000000000E+00  0.43366044935E+03  0.43366044935E+03  0.00000000000E+00 0. -1.
         21   -1    0    0  501  502  0.00000000000E+00 -0.00000000000E+00 -0.36311111245E+02  0.36311111245E+02  0.00000000000E+00 0.  1.
         24    2    1    2    0    0 -0.88965797432E+01  0.19888381206E+02  0.30006994841E+03  0.31167447924E+03  0.81389865672E+02 0.  0.
         23    2    1    2    0    0  0.23400710379E+02 -0.29952333925E+01  0.49292126976E+02  0.10539598844E+03  0.90122338670E+02 0.  0.
        -13    1    3    3    0    0  0.13115198524E+02 -0.28315631571E+02  0.10567367254E+03  0.11018488323E+03  0.00000000000E+00 0.  1.
         14    1    3    3    0    0 -0.22011778268E+02  0.48204012777E+02  0.19439627587E+03  0.20148959601E+03  0.00000000000E+00 0. -1.
        -13    1    4    4    0    0  0.13480301140E+02 -0.37026523964E+02 -0.58570903383E+01  0.39837011722E+02  0.00000000000E+00 0.  1.
         13    1    4    4    0    0  0.99204092387E+01  0.34031290572E+02  0.55149217314E+02  0.65558976714E+02  0.00000000000E+00 0. -1.
          1    1    1    2  501    0 -0.14504130636E+02 -0.16893147813E+02  0.47987262722E+02  0.52901092920E+02  0.00000000000E+00 0. -1.
<scales pt_clust_5="13000.00000" pt_clust_6="13000.00000" pt_clust_7="13000.00000" pt_clust_8="13000.00000" pt_clust_9="22.26542"></scales>
<clustering>
<clus scale="   22.265">  2  9  1 -1</clus>
<clus scale="   81.390">  5  6 -1 -1</clus>
<clus scale="   83.920">  1  5  2 -1</clus>
<clus scale="   90.122">  7  8 -1 -1</clus>
<clus scale="   22.265">  2  5  1 -1</clus>
</clustering>
</event>
<event>
 9    2  0.4653788E-005  0.9765705E+02  0.7546771E-02  0.1291603E+00
         -3   -1    0    0    0  501 -0.00000000000E+00  0.00000000000E+00  0.41482053886E+02  0.41482053886E+02  0.00000000000E+00 0.  1.
         21   -1    0    0  501  502  0.00000000000E+00 -0.00000000000E+00 -0.34598833461E+03  0.34598833461E+03  0.00000000000E+00 0. -1.
         23    2    1    2    0    0 -0.13956705494E+02  0.12833365356E+02 -0.76877299437E+02  0.12269789552E+03  0.93729235043E+02 0.  0.
         24    2    1    2    0    0  0.69747007364E+01 -0.40729867852E+02 -0.10897875909E+03  0.14268711928E+03  0.82314491381E+02 0.  0.
        -11    1    4    4    0    0 -0.22509510919E+02 -0.52114104968E+02 -0.49436022699E+02  0.75276014498E+02  0.00000000000E+00 0.  1.
         12    1    4    4    0    0  0.29484211655E+02  0.11384237116E+02 -0.59542736390E+02  0.67411104786E+02  0.00000000000E+00 0. -1.
        -11    1    3    3    0    0  0.38162048193E+02  0.18661040357E+02 -0.27074161838E+02  0.50374463657E+02  0.00000000000E+00 0.  1.
         11    1    3    3    0    0 -0.52118753687E+02 -0.58276750017E+01 -0.49803137598E+02  0.72323431863E+02  0.00000000000E+00 0. -1.
         -4    1    1    2    0  502  0.69820047575E+01  0.27896502496E+02 -0.11865022220E+03  0.12208537370E+03  0.00000000000E+00 0.  1.
<scales pt_clust_5="13000.00000" pt_clust_6="13000.00000" pt_clust_7="13000.00000" pt_clust_8="13000.00000" pt_clust_9="28.75697"></scales>
<clustering>
<clus scale="   28.757">  2  9  1 -1</clus>
<clus scale="   82.314">  5  6 -1 -1</clus>
<clus scale="   86.761">  2  5  1 -1</clus>
<clus scale="   93.729">  7  8 -1 -1</clus>
<clus scale="   28.757">  2  5  1 -1</clus>
</clustering>
</event>
<event>
 9    2  0.4653788E-005  0.1117256E+03  0.7546771E-02  0.1261436E+00
          2   -1    0    0  502    0 -0.00000000000E+00  0.00000000000E+00  0.28487529814E+02  0.28487529814E+02  0.00000000000E+00 0. -1.
         21   -1    0    0  501  502  0.00000000000E+00 -0.00000000000E+00 -0.83222140875E+03  0.83222140875E+03  0.00000000000E+00 0.  1.
         23    2    1    2    0    0 -0.39480765281E+02  0.82784520545E+01 -0.25859396469E+03  0.27714585500E+03  0.91168650155E+02 0.  0.
         24    2    1    2    0    0  0.10009779692E+03 -0.33556382841E+02 -0.44001217404E+03  0.45960647797E+03  0.80509636174E+02 0.  0.
        -13    1    4    4    0    0  0.67290346340E+02 -0.47529143459E+02 -0.19038277067E+03  0.20744302725E+03  0.00000000000E+00 0.  1.
         14    1    4    4    0    0  0.32807450578E+02  0.13972760619E+02 -0.24962940337E+03  0.25216345072E+03  0.00000000000E+00 0. -1.
        -11    1    3    3    0    0 -0.45018763539E+01 -0.39902088756E+02 -0.10384342901E+03  0.11133688215E+03  0.00000000000E+00 0. -1.
         11    1    3    3    0    0 -0.34978888927E+02  0.48180540811E+02 -0.15475053568E+03  0.16580897285E+03  0.00000000000E+00 0.  1.
          1    1    1    2  501    0 -0.60617031637E+02  0.25277930786E+02 -0.10512774020E+03  0.12395660559E+03  0.00000000000E+00 0. -1.
<scales pt_clust_5="13000.00000" pt_clust_6="13000.00000" pt_clust_7="13000.00000" pt_clust_8="13000.00000" pt_clust_9="65.67650"></scales>
<clustering>
<clus scale="   65.676">  2  9  1 -1</clus>
<clus scale="   80.510">  5  6 -1 -1</clus>
<clus scale="   91.169">  7  8 -1 -1</clus>
<clus scale="  103.212">  2  5  1 -1</clus>
<clus scale="   65.676">  2  5  1 -1</clus>
</clustering>
</event>
<event>
 9    2  0.4653788E-005  0.9197575E+02  0.7546771E-02  0.1305102E+00
          2   -1    0    0  502    0 -0.00000000000E+00  0.00000000000E+00  0.26249534396E+02  0.26249534396E+02  0.00000000000E+00 0. -1.
         21   -1    0    0  501  502  0.00000000000E+00 -0.00000000000E+00 -0.78806269205E+03  0.78806269205E+03  0.00000000000E+00 0. -1.
         23    2    1    2    0    0  0.92457922085E+01  0.17449333482E+01 -0.93763327389E+02  0.13150169027E+03  0.91720245944E+02 0.  0.
         24    2    1    2    0    0  0.22271783999E+02  0.33649909479E+02 -0.35905968925E+03  0.37020685777E+03  0.80628210462E+02 0.  0.
        -13    1    4    4    0    0  0.15031750122E+01  0.56388637200E+02 -0.18377034290E+03  0.19223287146E+03  0.00000000000E+00 0.  1.
         14    1    4    4    0    0  0.20768608987E+02 -0.22738727721E+02 -0.17528934635E+03  0.17797398631E+03  0.00000000000E+00 0. -1.
        -11    1    3    3    0    0  0.27482951456E+02 -0.29081345708E+02 -0.11272252508E+02  0.41570433790E+02  0.00000000000E+00 0.  1.
         11    1    3    3    0    0 -0.18237159247E+02  0.30826279056E+02 -0.82491074881E+02  0.89931256484E+02  0.00000000000E+00 0. -1.
          1    1    1    2  501    0 -0.31517576208E+02 -0.35394842827E+02 -0.30899014101E+03  0.31260367840E+03  0.00000000000E+00 0. -1.
<scales pt_clust_5="13000.00000" pt_clust_6="13000.00000" pt_clust_7="13000.00000" pt_clust_8="13000.00000" pt_clust_9="47.39359"></scales>
<clustering>
<clus scale="   47.394">  2  9  1 -1</clus>
<clus scale="   80.628">  5  6 -1 -1</clus>
<clus scale="   80.919">  2  5  1 -1</clus>
<clus scale="   91.720">  7  8 -1 -1</clus>
<clus scale="   47.394">  2  5  1 -1</clus>
</clustering>
</event>
<event>
 9    2  0.4653788E-005  0.1118023E+03  0.7546771E-02  0.1259333E+00
         -1   -1    0    0    0  501 -0.00000000000E+00  0.00000000000E+00  0.13342448468E+03  0.13342448468E+03  0.00000000000E+00 0.  1.
         21   -1    0    0  501  502  0.00000000000E+00 -0.00000000000E+00 -0.16205957348E+03  0.16205957348E+03  0.00000000000E+00 0. -1.
         24    2    1    2    0    0 -0.32863669993E+02  0.84667623641E+02 -0.38384433006E+01  0.12597896890E+03  0.87220064550E+02 0.  0.
         23    2    1    2    0    0 -0.86936373266E+01 -0.36329507995E+02 -0.33055592110E+02  0.10522606146E+03  0.92652249623E+02 0.  0.
        -11    1    3    3    0    0 -0.50383834856E+02  0.47944795866E+02  0.27327432452E+02  0.74726319525E+02  0.00000000000E+00 0.  1.
         12    1    3    3    0    0  0.17520164863E+02  0.36722827775E+02 -0.31165875753E+02  0.51252649376E+02  0.00000000000E+00 0. -1.
        -13    1    4    4    0    0 -0.14995874700E+02  0.20598220316E+02 -0.40109581920E+02  0.47517801927E+02  0.00000000000E+00 0. -1.
         13    1    4    4    0    0  0.63022373730E+01 -0.56927728310E+02  0.70539898103E+01  0.57708259536E+02  0.00000000000E+00 0.  1.
         -2    1    1    2    0  502  0.41557307320E+02 -0.48338115646E+02  0.82589466092E+01  0.64279027801E+02  0.00000000000E+00 0.  1.
<scales pt_clust_5="13000.00000" pt_clust_6="13000.00000" pt_clust_7="13000.00000" pt_clust_8="13000.00000" pt_clust_9="63.74627"></scales>
<clustering>
<clus scale="   63.746">  2  9  1 -1</clus>
<clus scale="   87.220">  5  6 -1 -1</clus>
<clus scale="   92.652">  7  8 -1 -1</clus>
<clus scale="  107.344">  1  5  2 -1</clus>
<clus scale="   63.746">  2  5  1 -1</clus>
</clustering>
</event>
<event>
 9    2  0.4653788E-005  0.9622692E+02  0.7546771E-02  0.1295043E+00
         -1   -1    0    0    0  501 -0.00000000000E+00  0.00000000000E+00  0.26205649796E+03  0.26205649796E+03  0.00000000000E+00 0.  1.
         21   -1    0    0  501  502  0.00000000000E+00 -0.00000000000E+00 -0.98841427676E+02  0.98841427676E+02  0.00000000000E+00 0.  1.
         23    2    1    2    0    0  0.11798099616E+02  0.26925467113E+02  0.21395361424E+03  0.23479135814E+03  0.92123052919E+02 0.  0.
         24    2    1    2    0    0 -0.27753977891E+02 -0.44639062016E+01 -0.49560755486E+02  0.98529421956E+02  0.80383883705E+02 0.  0.
        -11    1    4    4    0    0 -0.45506492503E+02  0.14457256732E+02 -0.54135493445E+02  0.72183826324E+02  0.00000000000E+00 0.  1.
         12    1    4    4    0    0  0.17752514613E+02 -0.18921162934E+02  0.45747379597E+01  0.26345595633E+02  0.00000000000E+00 0. -1.
        -13    1    3    3    0    0 -0.33209605479E+02  0.22059791750E+02  0.15729225504E+03  0.16226634217E+03  0.00000000000E+00 0. -1.
         13    1    3    3    0    0  0.45007705095E+02  0.48656753630E+01  0.56661359201E+02  0.72525015968E+02  0.00000000000E+00 0.  1.
         -2    1    1    2    0  502  0.15955878275E+02 -0.22461560911E+02 -0.11777884719E+01  0.27577145533E+02  0.00000000000E+00 0.  1.
<scales pt_clust_5="13000.00000" pt_clust_6="13000.00000" pt_clust_7="13000.00000" pt_clust_8="13000.00000" pt_clust_9="27.55198"></scales>
<clustering>
<clus scale="   27.552">  2  9  1 -1</clus>
<clus scale="   80.384">  5  6 -1 -1</clus>
<clus scale="   85.056">  2  5  1 -1</clus>
<clus scale="   92.123">  7  8 -1 -1</clus>
<clus scale="   27.552">  2  5  1 -1</clus>
</clustering>
</event>
<event>
 9    2  0.4653788E-005  0.2464516E+03  0.7546771E-02  0.1152800E+00
         -1   -1    0    0    0  501 -0.00000000000E+00  0.00000000000E+00  0.29204476706E+03  0.29204476706E+03  0.00000000000E+00 0.  1.
         21   -1    0    0  501  502  0.00000000000E+00 -0.00000000000E+00 -0.37589118304E+03  0.37589118304E+03  0.00000000000E+00 0.  1.
         23    2    1    2    0    0  0.58496316257E+00 -0.44003293591E+02  0.73368383610E+02  0.12356446002E+03  0.89155056158E+02 0.  0.
         24    2    1    2    0    0 -0.21226551584E+03 -0.67028268915E+02  0.33463514579E+02  0.23860215913E+03  0.79131191624E+02 0.  0.
        -11    1    4    4    0    0 -0.18008807917E+03 -0.77403420474E+02  0.47986504581E+02  0.20180612078E+03  0.00000000000E+00 0.  1.
         12    1    4    4    0    0 -0.32177436665E+02  0.10375151558E+02 -0.14522990002E+02  0.36796038357E+02  0.00000000000E+00 0. -1.
        -13    1    3    3    0    0  0.15355026304E+02  0.24430009233E+02  0.15620886051E+02  0.32811800696E+02  0.00000000000E+00 0. -1.
         13    1    3    3    0    0 -0.14770063142E+02 -0.68433302824E+02  0.57747497558E+02  0.90752659327E+02  0.00000000000E+00 0.  1.
         -2    1    1    2    0  502  0.21168055268E+03  0.11103156251E+03 -0.19067831417E+03  0.30576933095E+03  0.00000000000E+00 0.  1.
<scales pt_clust_5="13000.00000" pt_clust_6="13000.00000" pt_clust_7="13000.00000" pt_clust_8="13000.00000" pt_clust_9="233.40228"></scales>
<clustering>
<clus scale="   79.131">  5  6 -1 -1</clus>
<clus scale="   89.155">  7  8 -1 -1</clus>
<clus scale="   99.425">  1  7  2 -1</clus>
<clus scale="  233.402">  2  9  1 -1</clus>
<clus scale="  233.402">  2  5  1 -1</clus>
</clustering>
</event>
<event>
 9    2  0.4653788E-005  0.1544802E+03  0.7546771E-02  0.1197628E+00
         -3   -1    0    0    0  501 -0.00000000000E+00  0.00000000000E+00  0.52941254633E+03  0.52941254633E+03  0.00000000000E+00 0.  1.
         21   -1    0    0  501  502  0.00000000000E+00 -0.00000000000E+00 -0.71966839019E+02  0.71966839019E+02  0.00000000000E+00 0.  1.
         23    2    1    2    0    0 -0.24051903989E+02 -0.12457153425E+03  0.36871103263E+03  0.40115040069E+03  0.94219197427E+02 0.  0.
         24    2    1    2    0    0  0.42902020179E+02  0.10142567240E+03  0.37668191647E+02  0.14107796192E+03  0.79726710205E+02 0.  0.
        -13    1    4    4    0    0  0.33923064768E+02  0.22867217937E+02  0.46011583900E+02  0.61569065547E+02  0.00000000000E+00 0.  1.
         14    1    4    4    0    0  0.89789554111E+01  0.78558454465E+02 -0.83433922527E+01  0.79508896373E+02  0.00000000000E+00 0. -1.
        -13    1    3    3    0    0 -0.49336213815E+02 -0.49200381206E+02  0.23961185106E+03  0.24953672810E+03  0.00000000000E+00 0.  1.
         13    1    3    3    0    0  0.25284309826E+02 -0.75371153044E+02  0.12909918157E+03  0.15161367259E+03  0.00000000000E+00 0. -1.
         -4    1    1    2    0  502 -0.18850116190E+02  0.23145861849E+02  0.51066483039E+02  0.59151022739E+02  0.00000000000E+00 0.  1.
<scales pt_clust_5="13000.00000" pt_clust_6="13000.00000" pt_clust_7="13000.00000" pt_clust_8="13000.00000" pt_clust_9="29.85061"></scales>
<clustering>
<clus scale="   29.851">  2  9  1 -1</clus>
<clus scale="   79.727">  5  6 -1 -1</clus>
<clus scale="   94.219">  7  8 -1 -1</clus>
<clus scale="  146.093">  2  5  1 -1</clus>
<clus scale="   29.851">  2  5  1 -1</clus>
</clustering>
</event>
<event>
 9    2  0.4653788E-005  0.1124569E+03  0.7546771E-02  0.1260273E+00
          2   -1    0    0  502    0 -0.00000000000E+00  0.00000000000E+00  0.20719142515E+03  0.20719142515E+03  0.00000000000E+00 0. -1.
         21   -1    0    0  501  502  0.00000000000E+00 -0.00000000000E+00 -0.14670234066E+03  0.14670234066E+03  0.00000000000E+00 0. -1.
         23    2    1    2    0    0  0.25451597952E+02  0.68473058159E+02  0.14728821293E+03  0.18781283542E+03  0.90793721954E+02 0.  0.
         24    2    1    2    0    0 -0.30521552800E+02 -0.37712197312E+02 -0.24315651857E+02  0.96251711233E+02  0.79494439923E+02 0.  0.
        -13    1    4    4    0    0 -0.17198884834E+02 -0.59720895264E+02 -0.19765048061E+01  0.62179526710E+02  0.00000000000E+00 0.  1.
         14    1    4    4    0    0 -0.13322667965E+02  0.22008697951E+02 -0.22339147051E+02  0.34072184523E+02  0.00000000000E+00 0. -1.
        -11    1    3    3    0    0  0.54358333148E+02  0.46739808337E+02  0.60556743023E+02  0.93843258637E+02  0.00000000000E+00 0.  1.
         11    1    3    3    0    0 -0.28906735196E+02  0.21733249822E+02  0.86731469908E+02  0.93969576779E+02  0.00000000000E+00 0. -1.
          1    1    1    2  501    0  0.50699548478E+01 -0.30760860847E+02 -0.62483476585E+02  0.69829219159E+02  0.00000000000E+00 0. -1.
<scales pt_clust_5="13000.00000" pt_clust_6="13000.00000" pt_clust_7="13000.00000" pt_clust_8="13000.00000" pt_clust_9="31.17587"></scales>
<clustering>
<clus scale="   31.176">  2  9  1 -1</clus>
<clus scale="   79.494">  5  6 -1 -1</clus>
<clus scale="   90.794">  7  8 -1 -1</clus>
<clus scale="  103.549">  2  5  1 -1</clus>
<clus scale="   31.176">  2  5  1 -1</clus>
</clustering>
</event>
<event>
 9    2  0.4653788E-005  0.1186878E+03  0.7546771E-02  0.1249651E+00
         21   -1    0    0  501  502  0.00000000000E+00  0.00000000000E+00  0.12932611570E+02  0.12932611570E+02  0.00000000000E+00 0. -1.
          2   -1    0    0  502    0 -0.00000000000E+00 -0.00000000000E+00 -0.13280046908E+04  0.13280046908E+04  0.00000000000E+00 0. -1.
         24    2    1    2    0    0 -0.64619130273E+02  0.52993322305E+02 -0.72307170669E+03  0.73249175047E+03  0.82021626916E+02 0.  0.
         23    2    1    2    0    0  0.48559996198E+02 -0.27473648464E+02 -0.48074701636E+03  0.49317864945E+03  0.94839927985E+02 0.  0.
        -13    1    3    3    0    0  0.14922184475E+02  0.27067938486E+02 -0.13461061250E+03  0.13811358326E+03  0.00000000000E+00 0.  1.
         14    1    3    3    0    0 -0.79541314748E+02  0.25925383819E+02 -0.58846109418E+03  0.59437816720E+03  0.00000000000E+00 0. -1.
        -11    1    4    4    0    0 -0.10583092236E+02 -0.46667447229E+02 -0.21054534068E+03  0.21591478170E+03  0.00000000000E+00 0.  1.
         11    1    4    4    0    0  0.59143088434E+02  0.19193798765E+02 -0.27020167568E+03  0.27726386775E+03  0.00000000000E+00 0. -1.
          1    1    1    2  501    0  0.16059134075E+02 -0.25519673841E+02 -0.11125335615E+03  0.11526690243E+03  0.00000000000E+00 0. -1.
<scales pt_clust_5="13000.00000" pt_clust_6="13000.00000" pt_clust_7="13000.00000" pt_clust_8="13000.00000" pt_clust_9="30.15211"></scales>
<clustering>
<clus scale="   30.152">  1  9  2 -1</clus>
<clus scale="   82.022">  5  6 -1 -1</clus>
<clus scale="   94.840">  7  8 -1 -1</clus>
<clus scale="  108.719">  2  5  1 -1</clus>
<clus scale="   30.152">  1  5  2 -1</clus>
</clustering>
</event>
<event>
 9    2  0.4653788E-005  0.1139204E+03  0.7546771E-02  0.1257587E+00
         21   -1    0    0  501  502  0.00000000000E+00  0.00000000000E+00  0.86373851287E+02  0.86373851287E+02  0.00000000000E+00 0.  1.
         -1   -1    0    0    0  501 -0.00000000000E+00 -0.00000000000E+00 -0.30588174604E+03  0.30588174604E+03  0.00000000000E+00 0.  1.
         23    2    1    2    0    0 -0.71290326217E+02 -0.24474744303E+02 -0.18287796926E+03  0.21766942555E+03  0.90853197294E+02 0.  0.
         24    2    1    2    0    0  0.62911960436E+02 -0.12151682986E+02 -0.70483668317E+02  0.12401179000E+03  0.79406538737E+02 0.  0.
        -13    1    4    4    0    0  0.42232006312E+02 -0.45943483501E+02 -0.44038268195E+02  0.76378760784E+02  0.00000000000E+00 0.  1.
         14    1    4    4    0    0  0.20679954124E+02  0.33791800515E+02 -0.26445400122E+02  0.47633029216E+02  0.00000000000E+00 0. -1.
        -13    1    3    3    0    0 -0.28845119131E+02 -0.30077674492E+02 -0.14799175657E+02  0.44223557078E+02  0.00000000000E+00 0. -1.
         13    1    3    3    0    0 -0.42445207086E+02  0.56029301897E+01 -0.16807879360E+03  0.17344586847E+03  0.00000000000E+00 0.  1.
         -2    1    1    2    0  502  0.83783657814E+01  0.36626427289E+02  0.33853742822E+02  0.50574381777E+02  0.00000000000E+00 0.  1.
<scales pt_clust_5="13000.00000" pt_clust_6="13000.00000" pt_clust_7="13000.00000" pt_clust_8="13000.00000" pt_clust_9="37.57249"></scales>
<clustering>
<clus scale="   37.572">  1  9  2 -1</clus>
<clus scale="   79.407">  5  6 -1 -1</clus>
<clus scale="   90.853">  7  8 -1 -1</clus>
<clus scale="  105.019">  1  5  2 -1</clus>
<clus scale="   37.572">  1  5  2 -1</clus>
</clustering>
</event>
<event>
 9    2  0.4653788E-005  0.9598440E+02  0.7546771E-02  0.1292946E+00
         21   -1    0    0  501  502  0.00000000000E+00  0.00000000000E+00  0.80336856167E+02  0.80336856167E+02  0.00000000000E+00 0.  1.
          4   -1    0    0  502    0 -0.00000000000E+00 -0.00000000000E+00 -0.33115254852E+03  0.33115254852E+03  0.00000000000E+00 0. -1.
         23    2    1    2    0    0 -0.17049314583E+02  0.12757885177E+02 -0.21211612091E+03  0.23172165351E+03  0.90819784131E+02 0.  0.
         24    2    1    2    0    0  0.46878211232E+02 -0.29703171025E+02 -0.78405932424E+02  0.12729393970E+03  0.83524917169E+02 0.  0.
        -13    1    4    4    0    0  0.23994848874E+01 -0.39715311747E+02 -0.70598883495E+02  0.81038668952E+02  0.00000000000E+00 0.  1.
         14    1    4    4    0    0  0.44478726344E+02  0.10012140722E+02 -0.78070489295E+01  0.46255270749E+02  0.00000000000E+00 0. -1.
        -13    1    3    3    0    0  0.30670737179E+02 -0.55656843445E+01 -0.13936010183E+03  0.14280374275E+03  0.00000000000E+00 0. -1.
         13    1    3    3    0    0 -0.47720051762E+02  0.18323569521E+02 -0.72756019088E+02  0.88917910759E+02  0.00000000000E+00 0.  1.
          3    1    1    2  501    0 -0.29828896648E+02  0.16945285848E+02  0.39706360990E+02  0.52473811476E+02  0.00000000000E+00 0. -1.
<scales pt_clust_5="13000.00000" pt_clust_6="13000.00000" pt_clust_7="13000.00000" pt_clust_8="13000.00000" pt_clust_9="34.30606"></scales>
<clustering>
<clus scale="   34.306">  1  9  2 -1</clus>
<clus scale="   83.525">  5  6 -1 -1</clus>
<clus scale="   89.113">  1  5  2 -1</clus>
<clus scale="   90.820">  7  8 -1 -1</clus>
<clus scale="   34.306">  1  5  2 -1</clus>
</clustering>
</event>
<event>
 9    2  0.4653788E-005  0.9377516E+02  0.7546771E-02  0.1302045E+00
         -3   -1    0    0    0  501 -0.00000000000E+00  0.00000000000E+00  0.19453648745E+03  0.19453648745E+03  0.00000000000E+00 0.  1.
         21   -1    0    0  501  502  0.00000000000E+00 -0.00000000000E+00 -0.11362561799E+03  0.11362561799E+03  0.00000000000E+00 0. -1.
         23    2    1    2    0    0  0.42847688075E+01  0.11450044602E+01  0.13150251697E+03  0.16145949679E+03  0.93576636265E+02 0.  0.
         24    2    1    2    0    0  0.36500875754E+02 -0.12352017289E+02 -0.13176758367E+02  0.90231909458E+02  0.80518844139E+02 0.  0.
        -11    1    4    4    0    0  0.13413373465E+02  0.28687031207E+02 -0.26503005316E+02  0.41294958989E+02  0.00000000000E+00 0.  1.
         12    1    4    4    0    0  0.23087502289E+02 -0.41039048496E+02  0.13326246949E+02  0.48936950469E+02  0.00000000000E+00 0. -1.
        -13    1    3    3    0    0  0.32867647455E+02 -0.79506735589E+00  0.68838541934E+01  0.33590204374E+02  0.00000000000E+00 0. -1.
         13    1    3    3    0    0 -0.28582878648E+02  0.19400718161E+01  0.12461866277E+03  0.12786929241E+03  0.00000000000E+00 0.  1.
         -4    1    1    2    0  502 -0.40785644561E+02  0.11207012829E+02 -0.37414889140E+02  0.56470699200E+02  0.00000000000E+00 0.  1.
<scales pt_clust_5="13000.00000" pt_clust_6="13000.00000" pt_clust_7="13000.00000" pt_clust_8="13000.00000" pt_clust_9="42.29735"></scales>
<clustering>
<clus scale="   42.297">  2  9  1 -1</clus>
<clus scale="   80.519">  5  6 -1 -1</clus>
<clus scale="   80.749">  2  5  1 -1</clus>
<clus scale="   93.577">  7  8 -1 -1</clus>
<clus scale="   42.297">  2  5  1 -1</clus>
</clustering>
</event>
<event>
 9    2  0.4653788E-005  0.1040228E+03  0.7546771E-02  0.1276292E+00
          2   -1    0    0  502    0 -0.00000000000E+00  0.00000000000E+00  0.14145703875E+04  0.14145703875E+04  0.00000000000E+00 0. -1.
         21   -1    0    0  501  502  0.00000000000E+00 -0.00000000000E+00 -0.15604658913E+02  0.15604658913E+02  0.00000000000E+00 0. -1.
         24    2    1    2    0    0 -0.26783842360E+02  0.54869470672E+02  0.69143298828E+03  0.69882072382E+03  0.80887537608E+02 0.  0.
         23    2    1    2    0    0 -0.45860943266E+02 -0.45467746371E+02  0.45920640630E+03  0.47244965778E+03  0.90374849792E+02 0.  0.
        -13    1    3    3    0    0 -0.17985230365E+02  0.47412991794E+02  0.17348409214E+03  0.18074343841E+03  0.00000000000E+00 0.  1.
         14    1    3    3    0    0 -0.87986119951E+01  0.74564788782E+01  0.51794889614E+03  0.51807728541E+03  0.00000000000E+00 0. -1.
        -13    1    4    4    0    0  0.95541968677E+01  0.21020559471E+02  0.13116105895E+03  0.13317796358E+03  0.00000000000E+00 0.  1.
         13    1    4    4    0    0 -0.55415140134E+02 -0.66488305842E+02  0.32804534734E+03  0.33927169420E+03  0.00000000000E+00 0. -1.
          1    1    1    2  501    0  0.72644785626E+02 -0.94017243008E+01  0.24832633405E+03  0.25890466485E+03  0.00000000000E+00 0. -1.
<scales pt_clust_5="13000.00000" pt_clust_6="13000.00000" pt_clust_7="13000.00000" pt_clust_8="13000.00000" pt_clust_9="73.25065"></scales>
<clustering>
<clus scale="   73.251">  2  9  1 -1</clus>
<clus scale="   80.888">  5  6 -1 -1</clus>
<clus scale="   90.375">  7  8 -1 -1</clus>
<clus scale="   95.895">  1  5  2 -1</clus>
<clus scale="   73.251">  2  5  1 -1</clus>
</clustering>
</event>
<event>
 9    2  0.4653788E-005  0.1255718E+03  0.7546771E-02  0.1237960E+00
         21   -1    0    0  501  502  0.00000000000E+00  0.00000000000E+00  0.24096514140E+02  0.24096514140E+02  0.00000000000E+00 0.  1.
          2   -1    0    0  502    0 -0.00000000000E+00 -0.00000000000E+00 -0.98303161718E+03  0.98303161718E+03  0.00000000000E+00 0. -1.
         23    2    1    2    0    0  0.39443074597E+02  0.63308742756E+02 -0.49706704677E+03  0.51132007122E+03  0.93855277950E+02 0.  0.
         24    2    1    2    0    0 -0.39090613568E+02 -0.96087897974E+02 -0.26104905339E+03  0.29233111015E+03  0.80931511041E+02 0.  0.
        -11    1    4    4    0    0 -0.45569912039E+02 -0.25024295642E+02 -0.62199365244E+02  0.81065364320E+02  0.00000000000E+00 0.  1.
         12    1    4    4    0    0  0.64792984711E+01 -0.71063602332E+02 -0.19884968815E+03  0.21126574583E+03  0.00000000000E+00 0. -1.
        -11    1    3    3    0    0  0.91054547314E+01 -0.21875134230E+02 -0.51771360294E+02  0.56935968861E+02  0.00000000000E+00 0.  1.
         11    1    3    3    0    0  0.30337619865E+02  0.85183876986E+02 -0.44529568648E+03  0.45438410236E+03  0.00000000000E+00 0. -1.
          1    1    1    2  501    0 -0.35246102869E+00  0.32779155218E+02 -0.20081900287E+03  0.20347694995E+03  0.00000000000E+00 0. -1.
<scales pt_clust_5="13000.00000" pt_clust_6="13000.00000" pt_clust_7="13000.00000" pt_clust_8="13000.00000" pt_clust_9="32.78107"></scales>
<clustering>
<clus scale="   32.781">  1  9  2 -1</clus>
<clus scale="   80.932">  5  6 -1 -1</clus>
<clus scale="   93.855">  7  8 -1 -1</clus>
<clus scale="  116.230">  1  5  2 -1</clus>
<clus scale="   32.781">  1  5  2 -1</clus>
</clustering>
</event>
<event>
 9    2  0.4653788E-005  0.1240960E+03  0.7546771E-02  0.1239107E+00
          2   -1    0    0  502    0 -0.00000000000E+00  0.00000000000E+00  0.18274862995E+03  0.18274862995E+03  0.00000000000E+00 0. -1.
         21   -1    0    0  501  502  0.00000000000E+00 -0.00000000000E+00 -0.12648156543E+03  0.12648156543E+03  0.00000000000E+00 0.  1.
         23    2    1    2    0    0 -0.47702835417E+02 -0.78927979346E+02  0.87897638333E+02  0.15631686632E+03  0.90574728495E+02 0.  0.
         24    2    1    2    0    0  0.11952890382E+02  0.70888697953E+02 -0.39119292194E+02  0.11551320181E+03  0.81516266382E+02 0.  0.
        -13    1    4    4    0    0  0.19229316021E+02  0.37279490108E+02 -0.61529572957E+02  0.74467545452E+02  0.00000000000E+00 0.  1.
         14    1    4    4    0    0 -0.72764256386E+01  0.33609207846E+02  0.22410280763E+02  0.41045656359E+02  0.00000000000E+00 0. -1.
        -11    1    3    3    0    0 -0.62598049320E+02 -0.39961395384E+02  0.87274043707E+02  0.11459575736E+03  0.00000000000E+00 0.  1.
         11    1    3    3    0    0  0.14895213903E+02 -0.38966583962E+02  0.62359462614E+00  0.41721108964E+02  0.00000000000E+00 0. -1.
          1    1    1    2  501    0  0.35749945034E+02  0.80392813923E+01  0.74887183753E+01  0.37400127248E+02  0.00000000000E+00 0. -1.
<scales pt_clust_5="13000.00000" pt_clust_6="13000.00000" pt_clust_7="13000.00000" pt_clust_8="13000.00000" pt_clust_9="36.64273"></scales>
<clustering>
<clus scale="   36.643">  2  9  1 -1</clus>
<clus scale="   81.516">  5  6 -1 -1</clus>
<clus scale="   90.575">  7  8 -1 -1</clus>
<clus scale="  117.648">  2  5  1 -1</clus>
<clus scale="   36.643">  2  5  1 -1</clus>
</clustering>
</event>
<event>
 9    2  0.4653788E-005  0.1372331E+03  0.7546771E-02  0.1218623E+00
         21   -1    0    0  501  502  0.00000000000E+00  0.00000000000E+00  0.66984250209E+03  0.66984250209E+03  0.00000000000E+00 0. -1.
          2   -1    0    0  502    0 -0.00000000000E+00 -0.00000000000E+00 -0.65203642484E+02  0.65203642484E+02  0.00000000000E+00 0. -1.
         24    2    1    2    0    0  0.16836236844E+02 -0.10522443485E+03  0.67357995382E+02  0.15194727446E+03  0.84824725838E+02 0.  0.
         23    2    1    2    0    0  0.55462264921E+02  0.90298323997E+02  0.43493280838E+03  0.45690462826E+03  0.91462786811E+02 0.  0.
        -13    1    3    3    0    0  0.13427115570E+02 -0.28614128412E+02  0.68295843841E+02  0.75255418830E+02  0.00000000000E+00 0.  1.
         14    1    3    3    0    0  0.34091212744E+01 -0.76610306436E+02 -0.93784845915E+00  0.76691855629E+02  0.00000000000E+00 0. -1.
        -11    1    4    4    0    0  0.68356064084E+02  0.25456265906E+02  0.20175815600E+03  0.21453886940E+03  0.00000000000E+00 0. -1.
         11    1    4    4    0    0 -0.12893799162E+02  0.64842058091E+02  0.23317465238E+03  0.24236575885E+03  0.00000000000E+00 0.  1.
          1    1    1    2  501    0 -0.72298501766E+02  0.14926110851E+02  0.10234805584E+03  0.12619424185E+03  0.00000000000E+00 0. -1.
<scales pt_clust_5="13000.00000" pt_clust_6="13000.00000" pt_clust_7="13000.00000" pt_clust_8="13000.00000" pt_clust_9="73.82322"></scales>
<clustering>
<clus scale="   73.823">  1  9  2 -1</clus>
<clus scale="   84.825">  5  6 -1 -1</clus>
<clus scale="   91.463">  7  8 -1 -1</clus>
<clus scale="  132.901">  2  5  1 -1</clus>
<clus scale="   73.823">  1  5  2 -1</clus>
</clustering>
</event>
<event>
 9    2  0.4653788E-005  0.1352745E+03  0.7546771E-02  0.1222939E+00
         21   -1    0    0  501  502  0.00000000000E+00  0.00000000000E+00  0.34709134136E+03  0.34709134136E+03  0.00000000000E+00 0. -1.
          2   -1    0    0  502    0 -0.00000000000E+00 -0.00000000000E+00 -0.24779568952E+03  0.24779568952E+03  0.00000000000E+00 0. -1.
         23    2    1    2    0    0  0.59073866997E+02  0.65238569818E+02 -0.15772282952E+03  0.20308809402E+03  0.92857364952E+02 0.  0.
         24    2    1    2    0    0 -0.90915705276E+02 -0.13106678791E+03  0.71185165461E+02  0.19209596176E+03  0.79933487253E+02 0.  0.
        -11    1    4    4    0    0 -0.59494052355E+02 -0.10856842190E+03  0.85965006441E+02  0.15072035972E+03  0.00000000000E+00 0.  1.
         12    1    4    4    0    0 -0.31421652921E+02 -0.22498366005E+02 -0.14779840980E+02  0.41375602045E+02  0.00000000000E+00 0. -1.
        -13    1    3    3    0    0  0.35122234078E+02  0.20323899527E+01 -0.43087226655E+01  0.35443857389E+02  0.00000000000E+00 0.  1.
         13    1    3    3    0    0  0.23951632919E+02  0.63206179865E+02 -0.15341410686E+03  0.16764423663E+03  0.00000000000E+00 0. -1.
          1    1    1    2  501    0  0.31841838279E+02  0.65828218092E+02  0.18583331591E+03  0.19970297510E+03  0.00000000000E+00 0. -1.
<scales pt_clust_5="13000.00000" pt_clust_6="13000.00000" pt_clust_7="13000.00000" pt_clust_8="13000.00000" pt_clust_9="73.12494"></scales>
<clustering>
<clus scale="   73.125">  1  9  2 -1</clus>
<clus scale="   79.933">  5  6 -1 -1</clus>
<clus scale="   92.857">  7  8 -1 -1</clus>
<clus scale="  126.752">  1  5  2 -1</clus>
<clus scale="   73.125">  1  5  2 -1</clus>
</clustering>
</event>
<event>
 9    2  0.4653788E-005  0.9685245E+02  0.7546771E-02  0.1293767E+00
         -1   -1    0    0    0  501 -0.00000000000E+00  0.00000000000E+00  0.10333693819E+03  0.10333693819E+03  0.00000000000E+00 0.  1.
         21   -1    0    0  501  502  0.00000000000E+00 -0.00000000000E+00 -0.12052077123E+03  0.12052077123E+03  0.00000000000E+00 0. -1.
         23    2    1    2    0    0  0.12385501064E+02 -0.17651129495E+02  0.10326062541E+02  0.95182857456E+02  0.92131350673E+02 0.  0.
         24    2    1    2    0    0 -0.44073269736E+02  0.89419183292E+01 -0.12865690929E+02  0.92696834049E+02  0.80029782150E+02 0.  0.
        -11    1    4    4    0    0 -0.18757424489E+02 -0.35516280519E+02 -0.99801595515E+00  0.40177645416E+02  0.00000000000E+00 0.  1.
         12    1    4    4    0    0 -0.25315845247E+02  0.44458198848E+02 -0.11867674974E+02  0.52519188633E+02  0.00000000000E+00 0. -1.
        -11    1    3    3    0    0 -0.39282882406E+02 -0.16751907816E+02  0.13078966992E+01  0.42725658091E+02  0.00000000000E+00 0. -1.
         11    1    3    3    0    0  0.51668383470E+02 -0.89922167934E+00  0.90181658418E+01  0.52457199364E+02  0.00000000000E+00 0.  1.
         -2    1    1    2    0  502  0.31687768672E+02  0.87092111657E+01 -0.14644204654E+02  0.35978017907E+02  0.00000000000E+00 0.  1.
<scales pt_clust_5="13000.00000" pt_clust_6="13000.00000" pt_clust_7="13000.00000" pt_clust_8="13000.00000" pt_clust_9="32.86282"></scales>
<clustering>
<clus scale="   32.863">  2  9  1 -1</clus>
<clus scale="   80.030">  5  6 -1 -1</clus>
<clus scale="   85.422">  2  5  1 -1</clus>
<clus scale="   92.131">  7  8 -1 -1</clus>
<clus scale="   32.863">  2  5  1 -1</clus>
</clustering>
</event>
<event>
 9    2  0.4653788E-005  0.2534750E+03  0.7546771E-02  0.1111128E+00
          2   -1    0    0  502    0 -0.00000000000E+00  0.00000000000E+00  0.52316185997E+03  0.52316185997E+03  0.00000000000E+00 0. -1.
         21   -1    0    0  501  502  0.00000000000E+00 -0.00000000000E+00 -0.91850261197E+02  0.91850261197E+02  0.00000000000E+00 0. -1.
         24    2    1    2    0    0 -0.71505436612E+02 -0.10067136618E+03  0.25149970878E+03  0.29224390792E+03  0.83106237819E+02 0.  0.
         23    2    1    2    0    0  0.37191344850E+01 -0.41409587745E+02  0.11306447361E+03  0.15177933110E+03  0.92329866456E+02 0.  0.
        -13    1    3    3    0    0 -0.46605371602E+02 -0.16310136567E+01  0.83536781923E+02  0.95671912293E+02  0.00000000000E+00 0.  1.
         14    1    3    3    0    0 -0.24900065010E+02 -0.99040352521E+02  0.16796292686E+03  0.19657199563E+03  0.00000000000E+00 0. -1.
        -13    1    4    4    0    0  0.45120860976E+02 -0.37284146267E+01  0.50026667321E+02  0.67471924636E+02  0.00000000000E+00 0.  1.
         13    1    4    4    0    0 -0.41401726491E+02 -0.37681173118E+02  0.63037806285E+02  0.84307406467E+02  0.00000000000E+00 0. -1.
          1    1    1    2  501    0  0.67786302127E+02  0.14208095392E+03  0.66747416386E+02  0.17098888215E+03  0.00000000000E+00 0. -1.
<scales pt_clust_5="13000.00000" pt_clust_6="13000.00000" pt_clust_7="13000.00000" pt_clust_8="13000.00000" pt_clust_9="157.42293"></scales>
<clustering>
<clus scale="   83.106">  5  6 -1 -1</clus>
<clus scale="   92.330">  7  8 -1 -1</clus>
<clus scale="   97.444">  5  7 -1 -1</clus>
<clus scale="  157.423">  2  9  1 -1</clus>
<clus scale="  157.423">  2  5  1 -1</clus>
</clustering>
</event>
<event>
 9    2  0.4653788E-005  0.1367140E+03  0.7546771E-02  0.1219488E+00
         -1   -1    0    0    0  501 -0.00000000000E+00  0.00000000000E+00  0.36530834327E+02  0.36530834327E+02  0.00000000000E+00 0.  1.
         21   -1    0    0  501  502  0.00000000000E+00 -0.00000000000E+00 -0.91475900723E+03  0.91475900723E+03  0.00000000000E+00 0.  1.
         23    2    1    2    0    0 -0.46709604380E+02  0.74000463305E+02 -0.18424154465E+03  0.22326661912E+03  0.90802977508E+02 0.  0.
         24    2    1    2    0    0  0.90495070790E+02 -0.98090584737E+02 -0.40094108984E+03  0.43074693916E+03  0.83534707897E+02 0.  0.
        -11    1    4    4    0    0  0.32790463602E+02 -0.93922179314E+02 -0.26116984536E+03  0.27947500496E+03  0.00000000000E+00 0.  1.
         12    1    4    4    0    0  0.57704607188E+02 -0.41684054233E+01 -0.13977124448E+03  0.15127193420E+03  0.00000000000E+00 0. -1.
        -13    1    3    3    0    0 -0.66391635451E+02  0.62021154857E+02 -0.96455242567E+02  0.13250693086E+03  0.00000000000E+00 0.  1.
         13    1    3    3    0    0  0.19682031071E+02  0.11979308449E+02 -0.87786302087E+02  0.90759688255E+02  0.00000000000E+00 0. -1.
         -2    1    1    2    0  502 -0.43785466410E+02  0.24090121432E+02 -0.29304553841E+03  0.29727628328E+03  0.00000000000E+00 0.  1.
<scales pt_clust_5="13000.00000" pt_clust_6="13000.00000" pt_clust_7="13000.00000" pt_clust_8="13000.00000" pt_clust_9="49.97500"></scales>
<clustering>
<clus scale="   49.975">  2  9  1 -1</clus>
<clus scale="   83.535">  5  6 -1 -1</clus>
<clus scale="   90.803">  7  8 -1 -1</clus>
<clus scale="  131.998">  2  5  1 -1</clus>
<clus scale="   49.975">  2  5  1 -1</clus>
</clustering>
</event>
<event>
 9    2  0.4653788E-005  0.1111854E+03  0.7546771E-02  0.1262738E+00
          2   -1    0    0  502    0 -0.00000000000E+00  0.00000000000E+00  0.48204453309E+03  0.48204453309E+03  0.00000000000E+00 0. -1.
         21   -1    0    0  501  502  0.00000000000E+00 -0.00000000000E+00 -0.13662972755E+03  0.13662972755E+03  0.00000000000E+00 0.  1.
         24    2    1    2    0    0  0.62396844353E+02  0.83515683031E+01  0.41179832979E+03  0.42420145266E+03  0.80036823717E+02 0.  0.
         23    2    1    2    0    0 -0.60328969106E+02 -0.49691636053E+02 -0.48672700734E+01  0.12032749903E+03  0.91357394329E+02 0.  0.
        -11    1    3    3    0    0  0.41780626942E+01  0.36688141163E+02  0.16095634021E+03  0.16513757708E+03  0.00000000000E+00 0.  1.
         12    1    3    3    0    0  0.58218781658E+02 -0.28336572860E+02  0.25084198957E+03  0.25906387558E+03  0.00000000000E+00 0. -1.
        -13    1    4    4    0    0 -0.39886061227E+02 -0.74396329539E+02  0.99596285493E+01  0.84999446645E+02  0.00000000000E+00 0.  1.
         13    1    4    4    0    0 -0.20442907879E+02  0.24704693486E+02 -0.14826898623E+02  0.35328052388E+02  0.00000000000E+00 0. -1.
          1    1    1    2  501    0 -0.20678752464E+01  0.41340067750E+02 -0.61516254177E+02  0.74145308938E+02  0.00000000000E+00 0. -1.
<scales pt_clust_5="13000.00000" pt_clust_6="13000.00000" pt_clust_7="13000.00000" pt_clust_8="13000.00000" pt_clust_9="41.39175"></scales>
<clustering>
<clus scale="   41.392">  2  9  1 -1</clus>
<clus scale="   80.037">  5  6 -1 -1</clus>
<clus scale="   91.357">  7  8 -1 -1</clus>
<clus scale="  102.088">  1  5  2 -1</clus>
<clus scale="   41.392">  2  5  1 -1</clus>
</clustering>
</event>
<event>
 9    2  0.4653788E-005  0.1145350E+03  0.7546771E-02  0.1256870E+00
         -1   -1    0    0    0  501 -0.00000000000E+00  0.00000000000E+00  0.89797378617E+02  0.89797378617E+02  0.00000000000E+00 0.  1.
         21   -1    0    0  501  502  0.00000000000E+00 -0.00000000000E+00 -0.49363379535E+03  0.49363379535E+03  0.00000000000E+00 0.  1.
         23    2    1    2    0    0 -0.42828284081E+02  0.60960274890E+02  0.18936236382E+02  0.11968856891E+03  0.91740696788E+02 0.  0.
         24    2    1    2    0    0 -0.34172560903E+02 -0.57167505856E+02 -0.31241473014E+03  0.32912319194E+03  0.79266791408E+02 0.  0.
        -13    1    4    4    0    0 -0.40167076820E+02 -0.12853647622E+01 -0.19305238013E+03  0.19719094223E+03  0.00000000000E+00 0.  1.
         14    1    4    4    0    0  0.59945159165E+01 -0.55882141094E+02 -0.11936235001E+03  0.13193224971E+03  0.00000000000E+00 0. -1.
        -11    1    3    3    0    0 -0.30200434309E+02  0.84538497028E+02  0.22909754829E+02  0.92648154750E+02  0.00000000000E+00 0.  1.
         11    1    3    3    0    0 -0.12627849771E+02 -0.23578222138E+02 -0.39735184470E+01  0.27040414159E+02  0.00000000000E+00 0. -1.
         -2    1    1    2    0  502  0.77000844984E+02 -0.37927690341E+01 -0.11035792298E+03  0.13461941312E+03  0.00000000000E+00 0.  1.
<scales pt_clust_5="13000.00000" pt_clust_6="13000.00000" pt_clust_7="13000.00000" pt_clust_8="13000.00000" pt_clust_9="77.09420"></scales>
<clustering>
<clus scale="   77.094">  2  9  1 -1</clus>
<clus scale="   79.267">  5  6 -1 -1</clus>
<clus scale="   91.741">  7  8 -1 -1</clus>
<clus scale="  104.810">  2  5  1 -1</clus>
<clus scale="   77.094">  2  5  1 -1</clus>
</clustering>
</event>
<event>
 9    2  0.4653788E-005  0.1689593E+03  0.7546771E-02  0.1179408E+00
         21   -1    0    0  501  502  0.00000000000E+00  0.00000000000E+00  0.28824280701E+03  0.28824280701E+03  0.00000000000E+00 0. -1.
          4   -1    0    0  502    0 -0.00000000000E+00 -0.00000000000E+00 -0.24546692709E+03  0.24546692709E+03  0.00000000000E+00 0. -1.
         23    2    1    2    0    0  0.13586008817E+03 -0.10878849522E+03 -0.57584363358E+02  0.20522238903E+03  0.92235404304E+02 0.  0.
         24    2    1    2    0    0  0.35965434481E+01  0.13636284867E+03  0.17080768913E+02  0.16373307982E+03  0.88932598841E+02 0.  0.
        -13    1    4    4    0    0 -0.31275900168E+02  0.12064712811E+02  0.88905048326E-01  0.33522337786E+02  0.00000000000E+00 0.  1.
         14    1    4    4    0    0  0.34872443616E+02  0.12429813586E+03  0.16991863865E+02  0.13021074203E+03  0.00000000000E+00 0. -1.
        -13    1    3    3    0    0  0.52787315674E+02 -0.78963390336E+02 -0.67323236472E+02  0.11642223103E+03  0.00000000000E+00 0. -1.
         13    1    3    3    0    0  0.83072772493E+02 -0.29825104883E+02  0.97388731140E+01  0.88800157998E+02  0.00000000000E+00 0.  1.
          3    1    1    2  501    0 -0.13945663162E+03 -0.27574353452E+02  0.83279474364E+02  0.16475426526E+03  0.00000000000E+00 0. -1.
<scales pt_clust_5="13000.00000" pt_clust_6="13000.00000" pt_clust_7="13000.00000" pt_clust_8="13000.00000" pt_clust_9="142.15659"></scales>
<clustering>
<clus scale="   88.933">  5  6 -1 -1</clus>
<clus scale="   92.235">  7  8 -1 -1</clus>
<clus scale="  142.157">  1  9  2 -1</clus>
<clus scale="  167.179">  1  5  2 -1</clus>
<clus scale="  142.157">  1  5  2 -1</clus>
</clustering>
</event>
<event>
 9    2  0.4653788E-005  0.1651300E+03  0.7546771E-02  0.1184849E+00
          4   -1    0    0  502    0 -0.00000000000E+00  0.00000000000E+00  0.61653572222E+03  0.61653572222E+03  0.00000000000E+00 0. -1.
         21   -1    0    0  501  502  0.00000000000E+00 -0.00000000000E+00 -0.67290536413E+02  0.67290536413E+02  0.00000000000E+00 0. -1.
         23    2    1    2    0    0 -0.21295987726E+02 -0.15339059617E+03  0.36162436495E+03  0.40412257457E+03  0.92523942097E+02 0.  0.
         24    2    1    2    0    0  0.42187060246E+02  0.97972784353E+02  0.76564180804E+02  0.15384206133E+03  0.80167895860E+02 0.  0.
        -13    1    4    4    0    0  0.43967347928E+02  0.34937579280E+02  0.71016927663E+02  0.90538202680E+02  0.00000000000E+00 0.  1.
         14    1    4    4    0    0 -0.17802876823E+01  0.63035205073E+02  0.55472531407E+01  0.63303858652E+02  0.00000000000E+00 0. -1.
        -11    1    3    3    0    0  0.22301244996E+02 -0.12761729707E+03  0.25126752321E+03  0.28269928946E+03  0.00000000000E+00 0. -1.
         11    1    3    3    0    0 -0.43597232721E+02 -0.25773299100E+02  0.11035684174E+03  0.12142328511E+03  0.00000000000E+00 0.  1.
          3    1    1    2  501    0 -0.20891072520E+02  0.55417811818E+02  0.11105664005E+03  0.12586162273E+03  0.00000000000E+00 0. -1.
<scales pt_clust_5="13000.00000" pt_clust_6="13000.00000" pt_clust_7="13000.00000" pt_clust_8="13000.00000" pt_clust_9="59.22478"></scales>
<clustering>
<clus scale="   59.225">  2  9  1 -1</clus>
<clus scale="   80.168">  5  6 -1 -1</clus>
<clus scale="   92.524">  7  8 -1 -1</clus>
<clus scale="  158.537">  2  5  1 -1</clus>
<clus scale="   59.225">  2  5  1 -1</clus>
</clustering>
</event>
<event>
 9    2  0.4653788E-005  0.8607674E+02  0.7546771E-02  0.1315902E+00
          2   -1    0    0  502    0 -0.00000000000E+00  0.00000000000E+00  0.30175728713E+03  0.30175728713E+03  0.00000000000E+00 0. -1.
         21   -1    0    0  501  502  0.00000000000E+00 -0.00000000000E+00 -0.77103343594E+02  0.77103343594E+02  0.00000000000E+00 0. -1.
         23    2    1    2    0    0  0.29547091164E+00 -0.52173481275E+01  0.14417914599E+03  0.16779281243E+03  0.85670845332E+02 0.  0.
         24    2    1    2    0    0 -0.47897018140E+02 -0.22343697989E+02 -0.18108574861E+02  0.98177606688E+02  0.80731386616E+02 0.  0.
        -13    1    4    4    0    0 -0.56203857699E+01 -0.45701982070E+02 -0.19141080483E+02  0.49866229689E+02  0.00000000000E+00 0.  1.
         14    1    4    4    0    0 -0.42276632370E+02  0.23358284080E+02  0.10325056225E+01  0.48311376999E+02  0.00000000000E+00 0. -1.
        -13    1    3    3    0    0  0.40396552056E+02 -0.16969411176E+02  0.67700534359E+02  0.80642449653E+02  0.00000000000E+00 0. -1.
         13    1    3    3    0    0 -0.40101081144E+02  0.11752063049E+02  0.76478611636E+02  0.87150362779E+02  0.00000000000E+00 0.  1.
          1    1    1    2  501    0  0.47601547228E+02  0.27561046117E+02  0.98583372407E+02  0.11289021161E+03  0.00000000000E+00 0. -1.
<scales pt_clust_5="13000.00000" pt_clust_6="13000.00000" pt_clust_7="13000.00000" pt_clust_8="13000.00000" pt_clust_9="55.00474"></scales>
<clustering>
<clus scale="   55.005">  2  9  1 -1</clus>
<clus scale="   80.731">  5  6 -1 -1</clus>
<clus scale="   81.162">  2  5  1 -1</clus>
<clus scale="   85.671">  7  8 -1 -1</clus>
<clus scale="   55.005">  2  5  1 -1</clus>
</clustering>
</event>
<event>
 9    2  0.4653788E-005  0.9226318E+02  0.7546771E-02  0.1304059E+00
         -1   -1    0    0    0  501 -0.00000000000E+00  0.00000000000E+00  0.23482388646E+03  0.23482388646E+03  0.00000000000E+00 0.  1.
         21   -1    0    0  501  502  0.00000000000E+00 -0.00000000000E+00 -0.59868457113E+02  0.59868457113E+02  0.00000000000E+00 0.  1.
         24    2    1    2    0    0  0.20622622795E+02 -0.24398032457E+01  0.12032485002E+03  0.14610959262E+03  0.80241499942E+02 0.  0.
         23    2    1    2    0    0  0.39197185824E+01 -0.29992589554E+02  0.27632667812E+02  0.99766013565E+02  0.90965782085E+02 0.  0.
        -13    1    3    3    0    0  0.42914224764E+02  0.17951057841E+01  0.11506133775E+03  0.12281679257E+03  0.00000000000E+00 0.  1.
         14    1    3    3    0    0 -0.22291601969E+02 -0.42349090298E+01  0.52635122675E+01  0.23292800052E+02  0.00000000000E+00 0. -1.
        -13    1    4    4    0    0  0.56949374919E+01  0.27526872915E+02  0.31340621042E+02  0.42099828655E+02  0.00000000000E+00 0. -1.
         13    1    4    4    0    0 -0.17752189094E+01 -0.57519462469E+02 -0.37079532304E+01  0.57666184910E+02  0.00000000000E+00 0.  1.
         -2    1    1    2    0  502 -0.24542341377E+02  0.32432392800E+02  0.26997911521E+02  0.48816737391E+02  0.00000000000E+00 0.  1.
<scales pt_clust_5="13000.00000" pt_clust_6="13000.00000" pt_clust_7="13000.00000" pt_clust_8="13000.00000" pt_clust_9="40.67169"></scales>
<clustering>
<clus scale="   40.672">  2  9  1 -1</clus>
<clus scale="   80.241">  5  6 -1 -1</clus>
<clus scale="   81.709">  1  5  2 -1</clus>
<clus scale="   90.966">  7  8 -1 -1</clus>
<clus scale="   40.672">  2  5  1 -1</clus>
</clustering>
</event>
<event>
 9    2  0.4653788E-005  0.9582595E+02  0.7546771E-02  0.1294072E+00
         21   -1    0    0  501  502  0.00000000000E+00  0.00000000000E+00  0.41293852164E+03  0.41293852164E+03  0.00000000000E+00 0.  1.
          2   -1    0    0  502    0 -0.00000000000E+00 -0.00000000000E+00 -0.11350235788E+03  0.11350235788E+03  0.00000000000E+00 0. -1.
         23    2    1    2    0    0  0.17842154351E+02 -0.25571239623E+02 -0.78387055143E+02  0.12313565615E+03  0.89697428245E+02 0.  0.
         24    2    1    2    0    0 -0.42290540781E+02  0.41818347579E+02  0.20828006589E+03  0.23123961714E+03  0.80956226767E+02 0.  0.
        -13    1    4    4    0    0 -0.66525021953E+02  0.30604886587E+02  0.14166131232E+03  0.15946838256E+03  0.00000000000E+00 0.  1.
         14    1    4    4    0    0  0.24234481171E+02  0.11213460992E+02  0.66618753573E+02  0.71771234577E+02  0.00000000000E+00 0. -1.
        -13    1    3    3    0    0  0.17013426170E+01 -0.44347859236E+02 -0.86382432339E+02  0.97116176831E+02  0.00000000000E+00 0. -1.
         13    1    3    3    0    0  0.16140811735E+02  0.18776619612E+02  0.79953771962E+01  0.26019479319E+02  0.00000000000E+00 0.  1.
          1    1    1    2  501    0  0.24448386430E+02 -0.16247107956E+02  0.16954315301E+03  0.17206560623E+03  0.00000000000E+00 0. -1.
<scales pt_clust_5="13000.00000" pt_clust_6="13000.00000" pt_clust_7="13000.00000" pt_clust_8="13000.00000" pt_clust_9="29.35459"></scales>
<clustering>
<clus scale="   29.355">  1  9  2 -1</clus>
<clus scale="   80.956">  5  6 -1 -1</clus>
<clus scale="   87.698">  1  5  2 -1</clus>
<clus scale="   89.697">  7  8 -1 -1</clus>
<clus scale="   29.355">  1  5  2 -1</clus>
</clustering>
</event>
<event>
 9    2  0.4653788E-005  0.1005474E+03  0.7546771E-02  0.1287132E+00
          2   -1    0    0  502    0 -0.00000000000E+00  0.00000000000E+00  0.17101496643E+03  0.17101496643E+03  0.00000000000E+00 0. -1.
         21   -1    0    0  501  502  0.00000000000E+00 -0.00000000000E+00 -0.98854500731E+02  0.98854500731E+02  0.00000000000E+00 0.  1.
         23    2    1    2    0    0  0.33414711889E+02  0.25074919874E+02  0.11577411259E+03  0.15487806309E+03  0.94012098704E+02 0.  0.
         24    2    1    2    0    0 -0.17145219014E+02 -0.80890617185E+01 -0.24309399967E+02  0.84563296595E+02  0.78743969609E+02 0.  0.
        -13    1    4    4    0    0 -0.13965792023E+02 -0.42655715234E+02 -0.21413379608E+02  0.49730133874E+02  0.00000000000E+00 0.  1.
         14    1    4    4    0    0 -0.31794269911E+01  0.34566653515E+02 -0.28960203597E+01  0.34833162721E+02  0.00000000000E+00 0. -1.
        -13    1    3    3    0    0 -0.17485326087E+02 -0.10084662272E+02 -0.35275105769E+01  0.20490982709E+02  0.00000000000E+00 0.  1.
         13    1    3    3    0    0  0.50900037976E+02  0.35159582145E+02  0.11930162317E+03  0.13438708038E+03  0.00000000000E+00 0. -1.
          1    1    1    2  501    0 -0.16269492874E+02 -0.16985858155E+02 -0.19304246920E+02  0.30428107480E+02  0.00000000000E+00 0. -1.
<scales pt_clust_5="13000.00000" pt_clust_6="13000.00000" pt_clust_7="13000.00000" pt_clust_8="13000.00000" pt_clust_9="23.52054"></scales>
<clustering>
<clus scale="   23.521">  2  9  1 -1</clus>
<clus scale="   78.744">  5  6 -1 -1</clus>
<clus scale="   86.441">  2  5  1 -1</clus>
<clus scale="   94.012">  7  8 -1 -1</clus>
<clus scale="   23.521">  2  5  1 -1</clus>
</clustering>
</event>
<event>
 9    2  0.4653788E-005  0.1411610E+03  0.7546771E-02  0.1214765E+00
         21   -1    0    0  501  502  0.00000000000E+00  0.00000000000E+00  0.15795362179E+03  0.15795362179E+03  0.00000000000E+00 0.  1.
         -3   -1    0    0    0  501 -0.00000000000E+00 -0.00000000000E+00 -0.42616348418E+03  0.42616348418E+03  0.00000000000E+00 0.  1.
         23    2    1    2    0    0 -0.15336671584E+02 -0.11703585947E+03 -0.35495757379E+03  0.38522285116E+03  0.92028039047E+02 0.  0.
         24    2    1    2    0    0  0.45071369611E+02  0.47496792926E+02  0.37123640258E+02  0.10843773222E+03  0.78058973894E+02 0.  0.
        -11    1    4    4    0    0  0.29468042428E+02  0.64293040605E+02  0.77077132833E+01  0.71143302136E+02  0.00000000000E+00 0.  1.
         12    1    4    4    0    0  0.15603327183E+02 -0.16796247678E+02  0.29415926975E+02  0.37294430081E+02  0.00000000000E+00 0. -1.
        -13    1    3    3    0    0  0.30027016035E+02 -0.74610845757E+01 -0.80345960252E+02  0.86097403003E+02  0.00000000000E+00 0. -1.
         13    1    3    3    0    0 -0.45363687619E+02 -0.10957477490E+03 -0.27461161354E+03  0.29912544816E+03  0.00000000000E+00 0.  1.
         -4    1    1    2    0  502 -0.29734698027E+02  0.69539066546E+02  0.49624071135E+02  0.90456522589E+02  0.00000000000E+00 0.  1.
<scales pt_clust_5="13000.00000" pt_clust_6="13000.00000" pt_clust_7="13000.00000" pt_clust_8="13000.00000" pt_clust_9="75.62958"></scales>
<clustering>
<clus scale="   75.630">  1  9  2 -1</clus>
<clus scale="   78.059">  5  6 -1 -1</clus>
<clus scale="   92.028">  7  8 -1 -1</clus>
<clus scale="  132.478">  1  5  2 -1</clus>
<clus scale="   75.630">  1  5  2 -1</clus>
</clustering>
</event>
<event>
 9    2  0.4653788E-005  0.1756102E+03  0.7546771E-02  0.1179099E+00
         -1   -1    0    0    0  501 -0.00000000000E+00  0.00000000000E+00  0.72202661803E+03  0.72202661803E+03  0.00000000000E+00 0.  1.
         21   -1    0    0  501  502  0.00000000000E+00 -0.00000000000E+00 -0.97796857761E+02  0.97796857761E+02  0.00000000000E+00 0.  1.
         24    2    1    2    0    0 -0.11797168814E+03 -0.45679525282E+02  0.32687269053E+03  0.35961970084E+03  0.80477544608E+02 0.  0.
         23    2    1    2    0    0 -0.20593136454E+02  0.14800982340E+03  0.18622394433E+03  0.25521042850E+03  0.90122251876E+02 0.  0.
        -13    1    3    3    0    0 -0.10257243782E+03 -0.79773587465E+01  0.27536391204E+03  0.29395582544E+03  0.00000000000E+00 0.  1.
         14    1    3    3    0    0 -0.15399250315E+02 -0.37702166535E+02  0.51508778492E+02  0.65663875407E+02  0.00000000000E+00 0. -1.
        -13    1    4    4    0    0 -0.55017793534E+02  0.11119024531E+03  0.13502119258E+03  0.18336016662E+03  0.00000000000E+00 0.  1.
         13    1    4    4    0    0  0.34424657080E+02  0.36819578088E+02  0.51202751749E+02  0.71850261881E+02  0.00000000000E+00 0. -1.
         -2    1    1    2    0  502  0.13856482459E+03 -0.10233029811E+03  0.11113312541E+03  0.20499334645E+03  0.00000000000E+00 0.  1.
<scales pt_clust_5="13000.00000" pt_clust_6="13000.00000" pt_clust_7="13000.00000" pt_clust_8="13000.00000" pt_clust_9="150.72140"></scales>
<clustering>
<clus scale="   80.478">  5  6 -1 -1</clus>
<clus scale="   90.122">  7  8 -1 -1</clus>
<clus scale="  149.935">  1  5  2 -1</clus>
<clus scale="  150.721">  2  9  1 -1</clus>
<clus scale="  150.721">  2  5  1 -1</clus>
</clustering>
</event>
<event>
 9    2  0.4653788E-005  0.9917027E+02  0.7546771E-02  0.1284734E+00
         21   -1    0    0  501  502  0.00000000000E+00  0.00000000000E+00  0.46562862996E+03  0.46562862996E+03  0.00000000000E+00 0.  1.
          2   -1    0    0  502    0 -0.00000000000E+00 -0.00000000000E+00 -0.18704575325E+03  0.18704575325E+03  0.00000000000E+00 0. -1.
         23    2    1    2    0    0 -0.41990294486E+02  0.24380521117E+02 -0.15615790358E+03  0.18474680036E+03  0.85956353756E+02 0.  0.
         24    2    1    2    0    0  0.37520537577E+02 -0.76458345776E+02  0.34209911796E+03  0.36155768039E+03  0.80240141830E+02 0.  0.
        -11    1    4    4    0    0  0.36404315542E+02 -0.82316241237E+02  0.34377572386E+03  0.35536317491E+03  0.00000000000E+00 0.  1.
         12    1    4    4    0    0  0.11162220348E+01  0.58578954612E+01 -0.16766059012E+01  0.61945054857E+01  0.00000000000E+00 0. -1.
        -11    1    3    3    0    0 -0.10894923546E+02 -0.29449512520E+02 -0.83012967050E+02  0.88753173719E+02  0.00000000000E+00 0.  1.
         11    1    3    3    0    0 -0.31095370940E+02  0.53830033637E+02 -0.73144936533E+02  0.95993626641E+02  0.00000000000E+00 0. -1.
          1    1    1    2  501    0  0.44697569088E+01  0.52077824659E+02  0.92641662332E+02  0.10636990245E+03  0.00000000000E+00 0. -1.
<scales pt_clust_5="13000.00000" pt_clust_6="13000.00000" pt_clust_7="13000.00000" pt_clust_8="13000.00000" pt_clust_9="52.26929"></scales>
<clustering>
<clus scale="   52.269">  1  9  2 -1</clus>
<clus scale="   80.240">  5  6 -1 -1</clus>
<clus scale="   85.956">  7  8 -1 -1</clus>
<clus scale="   94.259">  1  5  2 -1</clus>
<clus scale="   52.269">  1  5  2 -1</clus>
</clustering>
</event>
<event>
 9    2  0.4653788E-005  0.1379846E+03  0.7546771E-02  0.1218466E+00
         -1   -1    0    0    0  501 -0.00000000000E+00  0.00000000000E+00  0.13010428757E+03  0.13010428757E+03  0.00000000000E+00 0.  1.
         21   -1    0    0  501  502  0.00000000000E+00 -0.00000000000E+00 -0.31428196091E+03  0.31428196091E+03  0.00000000000E+00 0.  1.
         23    2    1    2    0    0 -0.11075203980E+03 -0.52705953657E+02  0.28513303636E+02  0.15546973907E+03  0.91180586816E+02 0.  0.
         24    2    1    2    0    0  0.79340723843E+02 -0.99604552965E+01 -0.79961702627E+02  0.13881384504E+03  0.80506201991E+02 0.  0.
        -11    1    4    4    0    0  0.26029285896E+02 -0.34011948822E+02 -0.66009920064E+02  0.78687012485E+02  0.00000000000E+00 0.  1.
         12    1    4    4    0    0  0.53311437947E+02  0.24051493526E+02 -0.13951782563E+02  0.60126832558E+02  0.00000000000E+00 0. -1.
        -11    1    3    3    0    0 -0.71953759088E+02 -0.75645691136E+02  0.34606003873E+02  0.10998722443E+03  0.00000000000E+00 0.  1.
         11    1    3    3    0    0 -0.38798280708E+02  0.22939737479E+02 -0.60927002360E+01  0.45482514636E+02  0.00000000000E+00 0. -1.
         -2    1    1    2    0  502  0.31411315954E+02  0.62666408953E+02 -0.13272927435E+03  0.15010266437E+03  0.00000000000E+00 0.  1.
<scales pt_clust_5="13000.00000" pt_clust_6="13000.00000" pt_clust_7="13000.00000" pt_clust_8="13000.00000" pt_clust_9="70.09814"></scales>
<clustering>
<clus scale="   70.098">  2  9  1 -1</clus>
<clus scale="   80.506">  5  6 -1 -1</clus>
<clus scale="   91.181">  7  8 -1 -1</clus>
<clus scale="  131.176">  2  5  1 -1</clus>
<clus scale="   70.098">  2  5  1 -1</clus>
</clustering>
</event>
<event>
 9    2  0.4653788E-005  0.9794401E+02  0.7546771E-02  0.1286597E+00
         -1   -1    0    0    0  501 -0.00000000000E+00  0.00000000000E+00  0.16725888791E+03  0.16725888791E+03  0.00000000000E+00 0.  1.
         21   -1    0    0  501  502  0.00000000000E+00 -0.00000000000E+00 -0.14230378431E+03  0.14230378431E+03  0.00000000000E+00 0.  1.
         23    2    1    2    0    0 -0.30577422416E+02  0.25162072335E+02  0.11613332718E+03  0.15222752578E+03  0.90100839500E+02 0.  0.
         24    2    1    2    0    0  0.11806017115E+02 -0.36732458204E+02 -0.42015972653E+02  0.10345410709E+03  0.86306168894E+02 0.  0.
        -11    1    4    4    0    0  0.26879958270E+02 -0.59216017999E+02 -0.18538181726E+02  0.67621987001E+02  0.00000000000E+00 0.  1.
         12    1    4    4    0    0 -0.15073941154E+02  0.22483559795E+02 -0.23477790926E+02  0.35832120085E+02  0.00000000000E+00 0. -1.
        -13    1    3    3    0    0 -0.60765896177E+02  0.26118491282E+02  0.93292734026E+02  0.11435997528E+03  0.00000000000E+00 0.  1.
         13    1    3    3    0    0  0.30188473760E+02 -0.95641894699E+00  0.22840593150E+02  0.37867550497E+02  0.00000000000E+00 0. -1.
         -2    1    1    2    0  502  0.18771405301E+02  0.11570385869E+02 -0.49162250927E+02  0.53881039359E+02  0.00000000000E+00 0.  1.
<scales pt_clust_5="13000.00000" pt_clust_6="13000.00000" pt_clust_7="13000.00000" pt_clust_8="13000.00000" pt_clust_9="22.05084"></scales>
<clustering>
<clus scale="   22.051">  2  9  1 -1</clus>
<clus scale="   86.306">  5  6 -1 -1</clus>
<clus scale="   90.101">  7  8 -1 -1</clus>
<clus scale="   94.465">  2  5  1 -1</clus>
<clus scale="   22.051">  2  5  1 -1</clus>
</clustering>
</event>
<event>
 9    2  0.4653788E-005  0.2539012E+03  0.7546771E-02  0.1148596E+00
         -3   -1    0    0    0  501 -0.00000000000E+00  0.00000000000E+00  0.37641926931E+03  0.37641926931E+03  0.00000000000E+00 0.  1.
         21   -1    0    0  501  502  0.00000000000E+00 -0.00000000000E+00 -0.29835945818E+03  0.29835945818E+03  0.00000000000E+00 0. -1.
         24    2    1    2    0    0 -0.60487161990E+02  0.37505172167E+01 -0.10253448081E+03  0.14353236681E+03  0.80096550631E+02 0.  0.
         23    2    1    2    0    0  0.25805881510E+03  0.69867353021E+01  0.23345311968E+02  0.27850718997E+03  0.10187288526E+03 0.  0.
        -11    1    3    3    0    0 -0.69126290407E+02  0.79697884339E+01 -0.39997377888E+02  0.80260524488E+02  0.00000000000E+00 0.  1.
         12    1    3    3    0    0  0.86391284171E+01 -0.42192712172E+01 -0.62537102921E+02  0.63271842325E+02  0.00000000000E+00 0. -1.
        -11    1    4    4    0    0  0.12399248121E+03  0.33163863617E+02 -0.30087575044E+02  0.13183034331E+03  0.00000000000E+00 0.  1.
         11    1    4    4    0    0  0.13406633390E+03 -0.26177128315E+02  0.53432887012E+02  0.14667684666E+03  0.00000000000E+00 0. -1.
         -4    1    1    2    0  502 -0.19757165311E+03 -0.10737252519E+02  0.15724897997E+03  0.25273917070E+03  0.00000000000E+00 0.  1.
<scales pt_clust_5="13000.00000" pt_clust_6="13000.00000" pt_clust_7="13000.00000" pt_clust_8="13000.00000" pt_clust_9="232.56787"></scales>
<clustering>
<clus scale="   80.097">  5  6 -1 -1</clus>
<clus scale="  100.440">  1  5  2 -1</clus>
<clus scale="  101.873">  7  8 -1 -1</clus>
<clus scale="  232.568">  2  9  1 -1</clus>
<clus scale="  232.568">  2  5  1 -1</clus>
</clustering>
</event>
<event>
 9    2  0.4653788E-005  0.1380743E+03  0.7546771E-02  0.1219947E+00
         -3   -1    0    0    0  501 -0.00000000000E+00  0.00000000000E+00  0.29996810999E+03  0.29996810999E+03  0.00000000000E+00 0.  1.
         21   -1    0    0  501  502  0.00000000000E+00 -0.00000000000E+00 -0.14861112113E+03  0.14861112113E+03  0.00000000000E+00 0. -1.
         23    2    1    2    0    0 -0.42256480145E+02  0.84803972746E+02  0.19599348092E+03  0.23833322853E+03  0.97015253177E+02 0.  0.
         24    2    1    2    0    0  0.30471623140E+02 -0.10443462917E+03  0.24485443996E+02  0.13743056762E+03  0.80327531789E+02 0.  0.
        -11    1    4    4    0    0 -0.17564222043E+02 -0.42525078343E+02  0.35748968546E+02  0.58265538152E+02  0.00000000000E+00 0.  1.
         12    1    4    4    0    0  0.48035845184E+02 -0.61909550823E+02 -0.11263524550E+02  0.79165029469E+02  0.00000000000E+00 0. -1.
        -13    1    3    3    0    0  0.21337406866E+02  0.44491005914E+02  0.34675782375E+02  0.60308742503E+02  0.00000000000E+00 0. -1.
         13    1    3    3    0    0 -0.63593887011E+02  0.40312966832E+02  0.16131769855E+03  0.17802448603E+03  0.00000000000E+00 0.  1.
         -4    1    1    2    0  502  0.11784857005E+02  0.19630656420E+02 -0.69121936051E+02  0.72815434968E+02  0.00000000000E+00 0.  1.
<scales pt_clust_5="13000.00000" pt_clust_6="13000.00000" pt_clust_7="13000.00000" pt_clust_8="13000.00000" pt_clust_9="22.89641"></scales>
<clustering>
<clus scale="   22.896">  2  9  1 -1</clus>
<clus scale="   80.328">  5  6 -1 -1</clus>
<clus scale="   97.015">  7  8 -1 -1</clus>
<clus scale="  126.906">  2  5  1 -1</clus>
<clus scale="   22.896">  2  5  1 -1</clus>
</clustering>
</event>
<event>
 9    2  0.4653788E-005  0.1799296E+03  0.7546771E-02  0.1183132E+00
         21   -1    0    0  501  502  0.00000000000E+00  0.00000000000E+00  0.28832791453E+02  0.28832791453E+02  0.00000000000E+00 0.  1.
          2   -1    0    0  502    0 -0.00000000000E+00 -0.00000000000E+00 -0.20657074047E+04  0.20657074047E+04  0.00000000000E+00 0. -1.
         23    2    1    2    0    0 -0.18343785668E+02  0.89241291058E+02 -0.44122085406E+03  0.45922725851E+03  0.88956901891E+02 0.  0.
         24    2    1    2    0    0 -0.10148490082E+03 -0.15460104843E+03 -0.68168844167E+03  0.71121152892E+03  0.83198786593E+02 0.  0.
        -13    1    4    4    0    0 -0.61827166281E+02 -0.80828037380E+02 -0.22550846490E+03  0.24740622033E+03  0.00000000000E+00 0.  1.
         14    1    4    4    0    0 -0.39657734544E+02 -0.73773011048E+02 -0.45617997678E+03  0.46380530859E+03  0.00000000000E+00 0. -1.
        -13    1    3    3    0    0 -0.46128524528E+02  0.15838398537E+02 -0.16144004124E+03  0.16864632388E+03  0.00000000000E+00 0.  1.
         13    1    3    3    0    0  0.27784738860E+02  0.73402892521E+02 -0.27978081282E+03  0.29058093463E+03  0.00000000000E+00 0. -1.
          1    1    1    2  501    0  0.11982868649E+03  0.65359757370E+02 -0.91396531746E+03  0.92410140868E+03  0.00000000000E+00 0. -1.
<scales pt_clust_5="13000.00000" pt_clust_6="13000.00000" pt_clust_7="13000.00000" pt_clust_8="13000.00000" pt_clust_9="159.53887"></scales>
<clustering>
<clus scale="   83.199">  5  6 -1 -1</clus>
<clus scale="   88.957">  7  8 -1 -1</clus>
<clus scale="  127.334">  2  7  1 -1</clus>
<clus scale="  159.539">  1  9  2 -1</clus>
<clus scale="  159.539">  1  5  2 -1</clus>
</clustering>
</event>
<event>
 9    2  0.4653788E-005  0.1480861E+03  0.7546771E-02  0.1220877E+00
          2   -1    0    0  502    0 -0.00000000000E+00  0.00000000000E+00  0.67052247409E+03  0.67052247409E+03  0.00000000000E+00 0. -1.
         21   -1    0    0  501  502  0.00000000000E+00 -0.00000000000E+00 -0.10101338659E+03  0.10101338659E+03  0.00000000000E+00 0. -1.
         24    2    1    2    0    0 -0.58231195606E+02  0.16377189079E+02  0.14207915974E+03  0.17425086995E+03  0.80732853170E+02 0.  0.
         23    2    1    2    0    0  0.16575772812E+03  0.98049068879E+01  0.44620614891E+03  0.48503525208E+03  0.92668807056E+02 0.  0.
        -13    1    3    3    0    0 -0.29003614098E+02  0.48720228747E+02  0.70902351475E+02  0.90785537199E+02  0.00000000000E+00 0.  1.
         14    1    3    3    0    0 -0.29227581508E+02 -0.32343039669E+02  0.71176808269E+02  0.83465332751E+02  0.00000000000E+00 0. -1.
        -13    1    4    4    0    0  0.99956513460E+02  0.39724714710E+02  0.33965425581E+03  0.35627850206E+03  0.00000000000E+00 0.  1.
         13    1    4    4    0    0  0.65801214663E+02 -0.29919807823E+02  0.10655189310E+03  0.12875675002E+03  0.00000000000E+00 0. -1.
          1    1    1    2  501    0 -0.10752653252E+03 -0.26182095967E+02 -0.18776221158E+02  0.11224973864E+03  0.00000000000E+00 0. -1.
<scales pt_clust_5="13000.00000" pt_clust_6="13000.00000" pt_clust_7="13000.00000" pt_clust_8="13000.00000" pt_clust_9="115.50755"></scales>
<clustering>
<clus scale="   80.733">  5  6 -1 -1</clus>
<clus scale="   92.669">  7  8 -1 -1</clus>
<clus scale="  100.881">  1  5  2 -1</clus>
<clus scale="  115.508">  2  9  1 -1</clus>
<clus scale="  115.508">  2  5  1 -1</clus>
</clustering>
</event>
<event>
 9    2  0.4653788E-005  0.5247823E+03  0.7546771E-02  0.1007505E+00
          2   -1    0    0  502    0 -0.00000000000E+00  0.00000000000E+00  0.20274365424E+04  0.20274365424E+04  0.00000000000E+00 0. -1.
         21   -1    0    0  501  502  0.00000000000E+00 -0.00000000000E+00 -0.12552803823E+03  0.12552803823E+03  0.00000000000E+00 0. -1.
         24    2    1    2    0    0 -0.26319379302E+03 -0.70894635224E+02  0.59858508002E+03  0.66294382133E+03  0.83026442959E+02 0.  0.
         23    2    1    2    0    0 -0.19610903852E+03 -0.24406169602E+02  0.21886714241E+03  0.30845960494E+03  0.90499092532E+02 0.  0.
        -13    1    3    3    0    0 -0.13475424172E+03  0.26744665548E+01  0.24497759576E+03  0.27960665381E+03  0.00000000000E+00 0.  1.
         14    1    3    3    0    0 -0.12843955130E+03 -0.73569101779E+02  0.35360748426E+03  0.38333716752E+03  0.00000000000E+00 0. -1.
        -13    1    4    4    0    0 -0.12819618204E+02 -0.24093188481E+02  0.59950480154E+02  0.65870208841E+02  0.00000000000E+00 0.  1.
         13    1    4    4    0    0 -0.18328942032E+03 -0.31298112175E+00  0.15891666225E+03  0.24258939610E+03  0.00000000000E+00 0. -1.
          1    1    1    2  501    0  0.45930283154E+03  0.95300804827E+02  0.10844562817E+04  0.11815611543E+04  0.00000000000E+00 0. -1.
<scales pt_clust_5="13000.00000" pt_clust_6="13000.00000" pt_clust_7="13000.00000" pt_clust_8="13000.00000" pt_clust_9="469.08587"></scales>
<clustering>
<clus scale="   83.026">  5  6 -1 -1</clus>
<clus scale="   90.499">  7  8 -1 -1</clus>
<clus scale="  161.682">  5  7 -1 -1</clus>
<clus scale="  469.086">  2  9  1 -1</clus>
<clus scale="  469.086">  2  5  1 -1</clus>
</clustering>
</event>
<event>
 9    2  0.4653788E-005  0.9713182E+02  0.7546771E-02  0.1293296E+00
          2   -1    0    0  502    0 -0.00000000000E+00  0.00000000000E+00  0.12097770117E+03  0.12097770117E+03  0.00000000000E+00 0. -1.
         21   -1    0    0  501  502  0.00000000000E+00 -0.00000000000E+00 -0.43048825496E+03  0.43048825496E+03  0.00000000000E+00 0. -1.
         24    2    1    2    0    0 -0.21677900493E+02  0.24378225315E+02  0.86796606760E+02  0.12160984296E+03  0.78683376400E+02 0.  0.
         23    2    1    2    0    0  0.35224477942E+01 -0.48345801876E+02 -0.15253839325E+03  0.18423999582E+03  0.91250701077E+02 0.  0.
        -11    1    3    3    0    0 -0.31322519517E+02 -0.18918778491E+02  0.20799443605E+02  0.42090821597E+02  0.00000000000E+00 0.  1.
         12    1    3    3    0    0  0.96446190239E+01  0.43297003806E+02  0.65997163155E+02  0.79519021368E+02  0.00000000000E+00 0. -1.
        -13    1    4    4    0    0  0.36008955874E+02  0.92647592879E+01 -0.55860440874E+02  0.67103424074E+02  0.00000000000E+00 0.  1.
         13    1    4    4    0    0 -0.32486508080E+02 -0.57610561164E+02 -0.96677952374E+02  0.11713657174E+03  0.00000000000E+00 0. -1.
          1    1    1    2  501    0  0.18155452699E+02  0.23967576561E+02 -0.24376876730E+03  0.24561611735E+03  0.00000000000E+00 0. -1.
<scales pt_clust_5="13000.00000" pt_clust_6="13000.00000" pt_clust_7="13000.00000" pt_clust_8="13000.00000" pt_clust_9="30.06768"></scales>
<clustering>
<clus scale="   30.068">  2  9  1 -1</clus>
<clus scale="   78.683">  5  6 -1 -1</clus>
<clus scale="   85.434">  1  5  2 -1</clus>
<clus scale="   91.251">  7  8 -1 -1</clus>
<clus scale="   30.068">  2  5  1 -1</clus>
</clustering>
</event>
<event>
 9    2  0.4653788E-005  0.9263301E+02  0.7546771E-02  0.1302947E+00
          2   -1    0    0  502    0 -0.00000000000E+00  0.00000000000E+00  0.30041224844E+03  0.30041224844E+03  0.00000000000E+00 0. -1.
         21   -1    0    0  501  502  0.00000000000E+00 -0.00000000000E+00 -0.43463758006E+02  0.43463758006E+02  0.00000000000E+00 0.  1.
         23    2    1    2    0    0 -0.12189227426E+02  0.15032140768E+02  0.19878873983E+03  0.21908759278E+03  0.90043698862E+02 0.  0.
         24    2    1    2    0    0 -0.10222911831E+00 -0.33352848690E+02  0.35656818339E+02  0.93274762605E+02  0.79475465890E+02 0.  0.
        -13    1    4    4    0    0 -0.90876427293E+01 -0.49508175264E+02 -0.30006172775E+01  0.50424680191E+02  0.00000000000E+00 0.  1.
         14    1    4    4    0    0  0.89854136110E+01  0.16155326573E+02  0.38657435617E+02  0.42850082414E+02  0.00000000000E+00 0. -1.
        -11    1    3    3    0    0 -0.22281324319E+02 -0.31935957257E+02  0.54282969783E+02  0.66805715233E+02  0.00000000000E+00 0. -1.
         11    1    3    3    0    0  0.10092096893E+02  0.46968098025E+02  0.14450577005E+03  0.15228187754E+03  0.00000000000E+00 0.  1.
          1    1    1    2  501    0  0.12291456544E+02  0.18320707922E+02  0.22502932265E+02  0.31513651063E+02  0.00000000000E+00 0. -1.
<scales pt_clust_5="13000.00000" pt_clust_6="13000.00000" pt_clust_7="13000.00000" pt_clust_8="13000.00000" pt_clust_9="22.06192"></scales>
<clustering>
<clus scale="   22.062">  2  9  1 -1</clus>
<clus scale="   79.475">  5  6 -1 -1</clus>
<clus scale="   82.398">  2  5  1 -1</clus>
<clus scale="   90.044">  7  8 -1 -1</clus>
<clus scale="   22.062">  2  5  1 -1</clus>
</clustering>
</event>
<event>
 9    2  0.4653788E-005  0.1284935E+03  0.7546771E-02  0.1232515E+00
          2   -1    0    0  502    0 -0.00000000000E+00  0.00000000000E+00  0.17633129540E+03  0.17633129540E+03  0.00000000000E+00 0. -1.
         21   -1    0    0  501  502  0.00000000000E+00 -0.00000000000E+00 -0.36050243107E+03  0.36050243107E+03  0.00000000000E+00 0. -1.
         23    2    1    2    0    0 -0.86734691744E+02 -0.46802160413E+02  0.12989655351E+03  0.18649698013E+03  0.90524361444E+02 0.  0.
         24    2    1    2    0    0  0.38516941895E+02  0.35183344248E+02 -0.14078854860E+03  0.17009910085E+03  0.79942893153E+02 0.  0.
        -11    1    4    4    0    0  0.57938797867E+02  0.18410808443E+02 -0.12738405550E+03  0.14114729810E+03  0.00000000000E+00 0.  1.
         12    1    4    4    0    0 -0.19421855972E+02  0.16772535805E+02 -0.13404493100E+02  0.28951802742E+02  0.00000000000E+00 0. -1.
        -11    1    3    3    0    0 -0.87074755845E+02 -0.69147943924E+02  0.11249607267E+03  0.15817337836E+03  0.00000000000E+00 0. -1.
         11    1    3    3    0    0  0.34006410033E+00  0.22345783511E+02  0.17400480836E+02  0.28323601778E+02  0.00000000000E+00 0.  1.
          1    1    1    2  501    0  0.48217749850E+02  0.11618816165E+02 -0.17327914058E+03  0.18023764548E+03  0.00000000000E+00 0. -1.
<scales pt_clust_5="13000.00000" pt_clust_6="13000.00000" pt_clust_7="13000.00000" pt_clust_8="13000.00000" pt_clust_9="49.59787"></scales>
<clustering>
<clus scale="   49.598">  2  9  1 -1</clus>
<clus scale="   79.943">  5  6 -1 -1</clus>
<clus scale="   90.524">  7  8 -1 -1</clus>
<clus scale="  121.272">  2  5  1 -1</clus>
<clus scale="   49.598">  2  5  1 -1</clus>
</clustering>
</event>
<event>
 9    2  0.4653788E-005  0.9365441E+02  0.7546771E-02  0.1301213E+00
         21   -1    0    0  501  502  0.00000000000E+00  0.00000000000E+00  0.30579988993E+03  0.30579988993E+03  0.00000000000E+00 0. -1.
          2   -1    0    0  502    0 -0.00000000000E+00 -0.00000000000E+00 -0.13063162119E+03  0.13063162119E+03  0.00000000000E+00 0. -1.
         23    2    1    2    0    0  0.33662382512E+00 -0.34145824133E+02 -0.66784271695E+02  0.11851968964E+03  0.91764520726E+02 0.  0.
         24    2    1    2    0    0 -0.19975491529E+02 -0.15462393335E+02  0.15752570910E+02  0.85504664588E+02  0.80154839570E+02 0.  0.
        -13    1    4    4    0    0 -0.42093694624E+02  0.95651218186E+01 -0.87952016819E+01  0.44053674707E+02  0.00000000000E+00 0.  1.
         14    1    4    4    0    0  0.22118203095E+02 -0.25027515153E+02  0.24547772591E+02  0.41450989881E+02  0.00000000000E+00 0. -1.
        -13    1    3    3    0    0 -0.27568304597E+02  0.58175434338E+01  0.79679268363E+01  0.29280421582E+02  0.00000000000E+00 0.  1.
         13    1    3    3    0    0  0.27904928422E+02 -0.39963367567E+02 -0.74752198531E+02  0.89239268054E+02  0.00000000000E+00 0. -1.
          1    1    1    2  501    0  0.19638867704E+02  0.49608217468E+02  0.22619996953E+03  0.23240715690E+03  0.00000000000E+00 0. -1.
<scales pt_clust_5="13000.00000" pt_clust_6="13000.00000" pt_clust_7="13000.00000" pt_clust_8="13000.00000" pt_clust_9="53.35410"></scales>
<clustering>
<clus scale="   53.354">  1  9  2 -1</clus>
<clus scale="   80.155">  5  6 -1 -1</clus>
<clus scale="   82.312">  1  5  2 -1</clus>
<clus scale="   91.765">  7  8 -1 -1</clus>
<clus scale="   53.354">  1  5  2 -1</clus>
</clustering>
</event>
<event>
 9    2  0.4653788E-005  0.1144214E+03  0.7546771E-02  0.1267234E+00
         21   -1    0    0  501  502  0.00000000000E+00  0.00000000000E+00  0.37294486484E+02  0.37294486484E+02  0.00000000000E+00 0.  1.
          2   -1    0    0  502    0 -0.00000000000E+00 -0.00000000000E+00 -0.70051810781E+03  0.70051810781E+03  0.00000000000E+00 0. -1.
         24    2    1    2    0    0 -0.30519063781E+02 -0.15006002857E+02 -0.28643932850E+03  0.29901550583E+03  0.78779378283E+02 0.  0.
         23    2    1    2    0    0 -0.34677798515E+02 -0.49034820955E+02 -0.10218332743E+03  0.14938812494E+03  0.90930831367E+02 0.  0.
        -13    1    3    3    0    0 -0.56468937849E+01 -0.45729887524E+02 -0.16429357598E+03  0.17063261449E+03  0.00000000000E+00 0.  1.
         14    1    3    3    0    0 -0.24872169996E+02  0.30723884667E+02 -0.12214575252E+03  0.12838289134E+03  0.00000000000E+00 0. -1.
        -13    1    4    4    0    0 -0.48371516572E+02  0.79918930245E+01 -0.58089272867E+02  0.76013404028E+02  0.00000000000E+00 0. -1.
         13    1    4    4    0    0  0.13693718057E+02 -0.57026713979E+02 -0.44094054565E+02  0.73374720916E+02  0.00000000000E+00 0.  1.
          1    1    1    2  501    0  0.65196862296E+02  0.64040823811E+02 -0.27460096539E+03  0.28940896351E+03  0.00000000000E+00 0. -1.
<scales pt_clust_5="13000.00000" pt_clust_6="13000.00000" pt_clust_7="13000.00000" pt_clust_8="13000.00000" pt_clust_9="69.45393"></scales>
<clustering>
<clus scale="   78.779">  5  6 -1 -1</clus>
<clus scale="   85.807">  2  5  1 -1</clus>
<clus scale="   69.454">  1  9  2 -1</clus>
<clus scale="   90.931">  7  8 -1 -1</clus>
<clus scale="   69.454">  1  5  2 -1</clus>
</clustering>
</event>
<event>
 9    2  0.4653788E-005  0.9665274E+02  0.7546771E-02  0.1294231E+00
          2   -1    0    0  502    0 -0.00000000000E+00  0.00000000000E+00  0.36060261926E+03  0.36060261926E+03  0.00000000000E+00 0. -1.
         21   -1    0    0  501  502  0.00000000000E+00 -0.00000000000E+00 -0.60360488118E+02  0.60360488118E+02  0.00000000000E+00 0.  1.
         23    2    1    2    0    0  0.17505915512E+02 -0.51621483724E+01  0.29422621825E+03  0.30970035378E+03  0.94932274661E+02 0.  0.
         24    2    1    2    0    0 -0.20765039666E+02 -0.14781328501E+02  0.16308206772E+02  0.88584670046E+02  0.83256300749E+02 0.  0.
        -13    1    4    4    0    0 -0.30209541371E+02  0.27190036891E+02 -0.43222566802E+01  0.40872929902E+02  0.00000000000E+00 0.  1.
         14    1    4    4    0    0  0.94445017053E+01 -0.41971365392E+02  0.20630463452E+02  0.47711740144E+02  0.00000000000E+00 0. -1.
        -13    1    3    3    0    0 -0.22010105101E+02 -0.26796792705E+02  0.47028992122E+02  0.58431489164E+02  0.00000000000E+00 0.  1.
         13    1    3    3    0    0  0.39516020613E+02  0.21634644333E+02  0.24719722613E+03  0.25126886462E+03  0.00000000000E+00 0. -1.
          1    1    1    2  501    0  0.32591241541E+01  0.19943476873E+02 -0.10292293884E+02  0.22678083549E+02  0.00000000000E+00 0. -1.
<scales pt_clust_5="13000.00000" pt_clust_6="13000.00000" pt_clust_7="13000.00000" pt_clust_8="13000.00000" pt_clust_9="20.20802"></scales>
<clustering>
<clus scale="   20.208">  2  9  1 -1</clus>
<clus scale="   83.256">  5  6 -1 -1</clus>
<clus scale="   85.213">  2  5  1 -1</clus>
<clus scale="   94.932">  7  8 -1 -1</clus>
<clus scale="   20.208">  2  5  1 -1</clus>
</clustering>
</event>
<event>
 9    2  0.4653788E-005  0.2367077E+03  0.7546771E-02  0.1122006E+00
         21   -1    0    0  501  502  0.00000000000E+00  0.00000000000E+00  0.51717168387E+03  0.51717168387E+03  0.00000000000E+00 0.  1.
          2   -1    0    0  502    0 -0.00000000000E+00 -0.00000000000E+00 -0.72553203505E+02  0.72553203505E+02  0.00000000000E+00 0. -1.
         24    2    1    2    0    0  0.83542597408E+02 -0.62611168742E+02  0.14770561062E+03  0.19814356100E+03  0.80897461785E+02 0.  0.
         23    2    1    2    0    0  0.50260429672E+02 -0.67283673981E+01  0.12529801799E+03  0.16318938547E+03  0.91431944632E+02 0.  0.
        -11    1    3    3    0    0  0.11808025253E+02  0.17279137525E+02  0.44685058751E+02  0.49343211585E+02  0.00000000000E+00 0.  1.
         12    1    3    3    0    0  0.71734572156E+02 -0.79890306267E+02  0.10302055187E+03  0.14880034941E+03  0.00000000000E+00 0. -1.
        -13    1    4    4    0    0 -0.59647051773E+01  0.34382836746E+02  0.42492471186E+02  0.54985155070E+02  0.00000000000E+00 0. -1.
         13    1    4    4    0    0  0.56225134849E+02 -0.41111204144E+02  0.82805546802E+02  0.10820423040E+03  0.00000000000E+00 0.  1.
          1    1    1    2  501    0 -0.13380302708E+03  0.69339536140E+02  0.17161485175E+03  0.22839194090E+03  0.00000000000E+00 0. -1.
<scales pt_clust_5="13000.00000" pt_clust_6="13000.00000" pt_clust_7="13000.00000" pt_clust_8="13000.00000" pt_clust_9="150.70250"></scales>
<clustering>
<clus scale="   80.897">  5  6 -1 -1</clus>
<clus scale="   91.432">  7  8 -1 -1</clus>
<clus scale="   95.060">  5  7 -1 -1</clus>
<clus scale="  150.703">  1  9  2 -1</clus>
<clus scale="  150.703">  1  5  2 -1</clus>
</clustering>
</event>
<event>
 9    2  0.4653788E-005  0.1338293E+03  0.7546771E-02  0.1243895E+00
         -1   -1    0    0    0  501 -0.00000000000E+00  0.00000000000E+00  0.50152079267E+02  0.50152079267E+02  0.00000000000E+00 0.  1.
         21   -1    0    0  501  502  0.00000000000E+00 -0.00000000000E+00 -0.51920595267E+03  0.51920595267E+03  0.00000000000E+00 0.  1.
         24    2    1    2    0    0 -0.14221157135E+02  0.23010977210E+02 -0.16835662568E+03  0.18865532071E+03  0.80716356706E+02 0.  0.
         23    2    1    2    0    0 -0.60195262008E+02  0.57238938844E+02 -0.15912146724E+03  0.20175703767E+03  0.92122175532E+02 0.  0.
        -11    1    3    3    0    0  0.25367214506E+02 -0.10502861342E+02 -0.94477879538E+02  0.98386357744E+02  0.00000000000E+00 0.  1.
         12    1    3    3    0    0 -0.39588371641E+02  0.33513838552E+02 -0.73878746142E+02  0.90268962967E+02  0.00000000000E+00 0. -1.
        -11    1    4    4    0    0 -0.54656942904E+02  0.14962942066E+02 -0.14682631063E+03  0.15738245307E+03  0.00000000000E+00 0.  1.
         11    1    4    4    0    0 -0.55383191045E+01  0.42275996778E+02 -0.12295156613E+02  0.44374584598E+02  0.00000000000E+00 0. -1.
         -2    1    1    2    0  502  0.74416419143E+02 -0.80249916055E+02 -0.14157578049E+03  0.17894567356E+03  0.00000000000E+00 0.  1.
<scales pt_clust_5="13000.00000" pt_clust_6="13000.00000" pt_clust_7="13000.00000" pt_clust_8="13000.00000" pt_clust_9="97.07618"></scales>
<clustering>
<clus scale="   80.716">  5  6 -1 -1</clus>
<clus scale="   85.129">  1  5  2 -1</clus>
<clus scale="   92.122">  7  8 -1 -1</clus>
<clus scale="   97.076">  2  9  1 -1</clus>
<clus scale="   97.076">  2  5  1 -1</clus>
</clustering>
</event>
<event>
 9    2  0.4653788E-005  0.2152222E+03  0.7546771E-02  0.1138451E+00
          2   -1    0    0  502    0 -0.00000000000E+00  0.00000000000E+00  0.73214519680E+03  0.73214519680E+03  0.00000000000E+00 0. -1.
         21   -1    0    0  501  502  0.00000000000E+00 -0.00000000000E+00 -0.12661716148E+03  0.12661716148E+03  0.00000000000E+00 0. -1.
         24    2    1    2    0    0  0.18121618458E+02  0.19649492899E+03  0.56305837239E+03  0.60188704997E+03  0.79338767492E+02 0.  0.
         23    2    1    2    0    0 -0.35262535227E+02 -0.17838603549E+03 -0.45537417255E+01  0.20364990426E+03  0.91583420397E+02 0.  0.
        -11    1    3    3    0    0  0.49508271136E+02  0.11486813246E+03  0.34224303564E+03  0.36438448404E+03  0.00000000000E+00 0.  1.
         12    1    3    3    0    0 -0.31386652679E+02  0.81626796538E+02  0.22081533675E+03  0.23750256593E+03  0.00000000000E+00 0. -1.
        -11    1    4    4    0    0  0.68309311868E+01 -0.87370855303E+02 -0.41261019709E+02  0.96864852886E+02  0.00000000000E+00 0. -1.
         11    1    4    4    0    0 -0.42093466414E+02 -0.91015180189E+02  0.36707277984E+02  0.10678505137E+03  0.00000000000E+00 0.  1.
          1    1    1    2  501    0  0.17140916770E+02 -0.18108893501E+02  0.47023404657E+02  0.53225404058E+02  0.00000000000E+00 0. -1.
<scales pt_clust_5="13000.00000" pt_clust_6="13000.00000" pt_clust_7="13000.00000" pt_clust_8="13000.00000" pt_clust_9="24.93479"></scales>
<clustering>
<clus scale="   24.935">  2  9  1 -1</clus>
<clus scale="   79.339">  5  6 -1 -1</clus>
<clus scale="   91.583">  7  8 -1 -1</clus>
<clus scale="  210.304">  1  5  2 -1</clus>
<clus scale="   24.935">  2  5  1 -1</clus>
</clustering>
</event>
<event>
 9    2  0.4792364E-005  0.1407808E+03  0.7546771E-02  0.1214185E+00
         21   -1    0    0  501  502  0.00000000000E+00  0.00000000000E+00  0.17269896080E+03  0.17269896080E+03  0.00000000000E+00 0.  1.
         -3   -1    0    0    0  501 -0.00000000000E+00 -0.00000000000E+00 -0.47190665237E+03  0.47190665237E+03  0.00000000000E+00 0.  1.
         24    2    1    2    0    0  0.12877582583E+03 -0.11852686109E+02 -0.37870276548E+03  0.40788096266E+03  0.78913849472E+02 0.  0.
         23    2    1    2    0    0 -0.48077282760E+02 -0.33829554449E+02 -0.11806217464E+02  0.10658992124E+03  0.88125822932E+02 0.  0.
        -13    1    3    3    0    0  0.11097788309E+03  0.75025131128E+01 -0.35655451473E+03  0.37350167364E+03  0.00000000000E+00 0.  1.
         14    1    3    3    0    0  0.17797942742E+02 -0.19355199222E+02 -0.22148250749E+02  0.34379289027E+02  0.00000000000E+00 0. -1.
        -13    1    4    4    0    0 -0.68394357289E+02 -0.10955860412E+02  0.86246970299E+01  0.69801177535E+02  0.00000000000E+00 0. -1.
         13    1    4    4    0    0  0.20317074529E+02 -0.22873694038E+02 -0.20430914494E+02  0.36788743705E+02  0.00000000000E+00 0.  1.
         -4    1    1    2    0  502 -0.80698543075E+02  0.45682240558E+02  0.91301291361E+02  0.13013472927E+03  0.00000000000E+00 0.  1.
<scales pt_clust_5="13000.00000" pt_clust_6="13000.00000" pt_clust_7="13000.00000" pt_clust_8="13000.00000" pt_clust_9="92.73145"></scales>
<clustering>
<clus scale="   78.914">  5  6 -1 -1</clus>
<clus scale="   88.126">  7  8 -1 -1</clus>
<clus scale="   92.731">  1  9  2 -1</clus>
<clus scale="  135.205">  2  5  1 -1</clus>
<clus scale="   92.731">  1  5  2 -1</clus>
</clustering>
</event>
<event>
 9    2  0.4653788E-005  0.9835957E+02  0.7546771E-02  0.1291073E+00
          2   -1    0    0  502    0 -0.00000000000E+00  0.00000000000E+00  0.26417155120E+03  0.26417155120E+03  0.00000000000E+00 0. -1.
         21   -1    0    0  501  502  0.00000000000E+00 -0.00000000000E+00 -0.55871721286E+02  0.55871721286E+02  0.00000000000E+00 0.  1.
         23    2    1    2    0    0 -0.16476598566E+02  0.44434877828E+02  0.15278358223E+03  0.18411218711E+03  0.91151180885E+02 0.  0.
         24    2    1    2    0    0  0.23216169890E+01 -0.13905478644E+02  0.99520810620E+01  0.79287453799E+02  0.77386718309E+02 0.  0.
        -11    1    4    4    0    0  0.19336584778E+02  0.17277472633E+02 -0.20059329493E+02  0.32784009382E+02  0.00000000000E+00 0.  1.
         12    1    4    4    0    0 -0.17014967789E+02 -0.31182951277E+02  0.30011410555E+02  0.46503444417E+02  0.00000000000E+00 0. -1.
        -11    1    3    3    0    0 -0.12129365534E+02 -0.27672234512E+02  0.38997328394E+02  0.49332197326E+02  0.00000000000E+00 0.  1.
         11    1    3    3    0    0 -0.43472330317E+01  0.72107112340E+02  0.11378625383E+03  0.13477998978E+03  0.00000000000E+00 0. -1.
          1    1    1    2  501    0  0.14154981577E+02 -0.30529399184E+02  0.45564166624E+02  0.56643631576E+02  0.00000000000E+00 0. -1.
<scales pt_clust_5="13000.00000" pt_clust_6="13000.00000" pt_clust_7="13000.00000" pt_clust_8="13000.00000" pt_clust_9="33.65128"></scales>
<clustering>
<clus scale="   33.651">  2  9  1 -1</clus>
<clus scale="   77.387">  5  6 -1 -1</clus>
<clus scale="   85.760">  2  5  1 -1</clus>
<clus scale="   91.151">  7  8 -1 -1</clus>
<clus scale="   33.651">  2  5  1 -1</clus>
</clustering>
</event>
<event>
 9    2  0.4653788E-005  0.8411542E+02  0.7546771E-02  0.1320231E+00
         21   -1    0    0  501  502  0.00000000000E+00  0.00000000000E+00  0.46734692261E+03  0.46734692261E+03  0.00000000000E+00 0.  1.
         -1   -1    0    0    0  501 -0.00000000000E+00 -0.00000000000E+00 -0.82615713009E+02  0.82615713009E+02  0.00000000000E+00 0.  1.
         23    2    1    2    0    0  0.12614953019E+01 -0.74908193566E+01 -0.32282269812E+02  0.90159493578E+02  0.83838449372E+02 0.  0.
         24    2    1    2    0    0  0.61299183238E+02 -0.40711543480E+02  0.18411483785E+03  0.21387818697E+03  0.80190932832E+02 0.  0.
        -11    1    4    4    0    0  0.12901887696E+02 -0.56467721835E+02  0.99891458214E+02  0.11547019416E+03  0.00000000000E+00 0.  1.
         12    1    4    4    0    0  0.48397295542E+02  0.15756178356E+02  0.84223379632E+02  0.98407992810E+02  0.00000000000E+00 0. -1.
        -11    1    3    3    0    0 -0.52323176292E+01 -0.42434064346E+02 -0.33925639422E+02  0.54579996105E+02  0.00000000000E+00 0.  1.
         11    1    3    3    0    0  0.64938129311E+01  0.34943244989E+02  0.16433696100E+01  0.35579497473E+02  0.00000000000E+00 0. -1.
         -2    1    1    2    0  502 -0.62560678540E+02  0.48202362836E+02  0.23289864157E+03  0.24592495507E+03  0.00000000000E+00 0.  1.
<scales pt_clust_5="13000.00000" pt_clust_6="13000.00000" pt_clust_7="13000.00000" pt_clust_8="13000.00000" pt_clust_9="78.97662"></scales>
<clustering>
<clus scale="   78.977">  1  9  2 -1</clus>
<clus scale="   80.191">  5  6 -1 -1</clus>
<clus scale="   80.480">  1  5  2 -1</clus>
<clus scale="   83.838">  7  8 -1 -1</clus>
<clus scale="   78.977">  1  5  2 -1</clus>
</clustering>
</event>
<event>
 9    2  0.4653788E-005  0.9320268E+02  0.7546771E-02  0.1298499E+00
         21   -1    0    0  501  502  0.00000000000E+00  0.00000000000E+00  0.53375163877E+03  0.53375163877E+03  0.00000000000E+00 0.  1.
         -1   -1    0    0    0  501 -0.00000000000E+00 -0.00000000000E+00 -0.26137548715E+02  0.26137548715E+02  0.00000000000E+00 0.  1.
         24    2    1    2    0    0 -0.13553795688E+02  0.20802925498E+02  0.16180164625E+03  0.18344156296E+03  0.82792313681E+02 0.  0.
         23    2    1    2    0    0 -0.29255907054E+02 -0.40488648093E+02  0.23457893775E+03  0.25564575702E+03  0.88499922747E+02 0.  0.
        -11    1    3    3    0    0  0.34082862121E+01 -0.30773226512E+02  0.44817279101E+02  0.54471978033E+02  0.00000000000E+00 0.  1.
         12    1    3    3    0    0 -0.16962081900E+02  0.51576152010E+02  0.11698436715E+03  0.12896958493E+03  0.00000000000E+00 0. -1.
        -13    1    4    4    0    0  0.20241705081E+02  0.16052687115E+02  0.73296629893E+02  0.77716223158E+02  0.00000000000E+00 0. -1.
         13    1    4    4    0    0 -0.49497612135E+02 -0.56541335207E+02  0.16128230785E+03  0.17792953386E+03  0.00000000000E+00 0.  1.
         -2    1    1    2    0  502  0.42809702742E+02  0.19685722595E+02  0.11123350606E+03  0.12080186751E+03  0.00000000000E+00 0.  1.
<scales pt_clust_5="13000.00000" pt_clust_6="13000.00000" pt_clust_7="13000.00000" pt_clust_8="13000.00000" pt_clust_9="47.11898"></scales>
<clustering>
<clus scale="   47.119">  1  9  2 -1</clus>
<clus scale="   82.792">  5  6 -1 -1</clus>
<clus scale="   87.801">  2  5  1 -1</clus>
<clus scale="   88.500">  7  8 -1 -1</clus>
<clus scale="   47.119">  1  5  2 -1</clus>
</clustering>
</event>
<event>
 9    2  0.4653788E-005  0.9487185E+02  0.7546771E-02  0.1296864E+00
         21   -1    0    0  501  502  0.00000000000E+00  0.00000000000E+00  0.17043732839E+03  0.17043732839E+03  0.00000000000E+00 0. -1.
          4   -1    0    0  502    0 -0.00000000000E+00 -0.00000000000E+00 -0.81096323571E+02  0.81096323571E+02  0.00000000000E+00 0. -1.
         24    2    1    2    0    0 -0.36287386601E+02  0.18507216730E+02  0.22654851870E+02  0.93646100742E+02  0.81222277569E+02 0.  0.
         23    2    1    2    0    0 -0.83334904324E+01 -0.28033192216E+02  0.31992931912E+02  0.10056926040E+03  0.90748672259E+02 0.  0.
        -11    1    3    3    0    0 -0.46288256156E+02  0.42986995098E+02  0.22923256579E+02  0.67200893578E+02  0.00000000000E+00 0.  1.
         12    1    3    3    0    0  0.10000869555E+02 -0.24479778369E+02 -0.26840470875E+00  0.26445207164E+02  0.00000000000E+00 0. -1.
        -11    1    4    4    0    0  0.12187121944E+01  0.33256645012E+02  0.12493451659E+02  0.35546814642E+02  0.00000000000E+00 0.  1.
         11    1    4    4    0    0 -0.95522026268E+01 -0.61289837227E+02  0.19499480253E+02  0.65022445759E+02  0.00000000000E+00 0. -1.
          3    1    1    2  501    0  0.44620877034E+02  0.95259754862E+01  0.34693221036E+02  0.57318290816E+02  0.00000000000E+00 0. -1.
<scales pt_clust_5="13000.00000" pt_clust_6="13000.00000" pt_clust_7="13000.00000" pt_clust_8="13000.00000" pt_clust_9="45.62638"></scales>
<clustering>
<clus scale="   45.626">  1  9  2 -1</clus>
<clus scale="   81.222">  5  6 -1 -1</clus>
<clus scale="   85.804">  2  5  1 -1</clus>
<clus scale="   90.749">  7  8 -1 -1</clus>
<clus scale="   45.626">  1  5  2 -1</clus>
</clustering>
</event>
<event>
 9    2  0.4653788E-005  0.2596475E+03  0.7546771E-02  0.1107355E+00
         21   -1    0    0  501  502  0.00000000000E+00  0.00000000000E+00  0.13661364849E+03  0.13661364849E+03  0.00000000000E+00 0.  1.
         -1   -1    0    0    0  501 -0.00000000000E+00 -0.00000000000E+00 -0.34173774031E+03  0.34173774031E+03  0.00000000000E+00 0.  1.
         24    2    1    2    0    0  0.80480966886E+02  0.86902839016E+02 -0.32526582779E+02  0.14674608721E+03  0.80294122219E+02 0.  0.
         23    2    1    2    0    0  0.22558258460E+02  0.51312761192E+02 -0.85832425359E+02  0.13860578386E+03  0.93287103018E+02 0.  0.
        -13    1    3    3    0    0  0.33234558697E+02  0.79680114906E+02 -0.44989642739E+02  0.97352578584E+02  0.00000000000E+00 0.  1.
         14    1    3    3    0    0  0.47246408190E+02  0.72227241101E+01  0.12463059960E+02  0.49393508622E+02  0.00000000000E+00 0. -1.
        -11    1    4    4    0    0  0.85441175113E+01  0.74239397079E+02 -0.82845050071E+02  0.11156967484E+03  0.00000000000E+00 0. -1.
         11    1    4    4    0    0  0.14014140949E+02 -0.22926635887E+02 -0.29873752877E+01  0.27036109016E+02  0.00000000000E+00 0.  1.
         -2    1    1    2    0  502 -0.10303922535E+03 -0.13821560021E+03 -0.86765083684E+02  0.19299951774E+03  0.00000000000E+00 0.  1.
<scales pt_clust_5="13000.00000" pt_clust_6="13000.00000" pt_clust_7="13000.00000" pt_clust_8="13000.00000" pt_clust_9="172.39682"></scales>
<clustering>
<clus scale="   80.294">  5  6 -1 -1</clus>
<clus scale="   93.287">  7  8 -1 -1</clus>
<clus scale="  105.171">  5  7 -1 -1</clus>
<clus scale="  172.397">  1  9  2 -1</clus>
<clus scale="  172.397">  1  5  2 -1</clus>
</clustering>
</event>
<event>
 9    2  0.4653788E-005  0.8081440E+02  0.7546771E-02  0.1335901E+00
          4   -1    0    0  502    0 -0.00000000000E+00  0.00000000000E+00  0.79414368860E+02  0.79414368860E+02  0.00000000000E+00 0. -1.
         21   -1    0    0  501  502  0.00000000000E+00 -0.00000000000E+00 -0.24575956362E+03  0.24575956362E+03  0.00000000000E+00 0.  1.
         24    2    1    2    0    0 -0.66877017179E+00 -0.10002781019E+02 -0.10565311037E+02  0.81040979133E+02  0.79721462731E+02 0.  0.
         23    2    1    2    0    0  0.46582659301E+02  0.45544824812E+01 -0.17556344823E+03  0.19384221268E+03  0.67539555850E+02 0.  0.
        -13    1    3    3    0    0 -0.26402364342E+02 -0.26303775416E+02 -0.27380770469E+02  0.46245865063E+02  0.00000000000E+00 0.  1.
         14    1    3    3    0    0  0.25733594170E+02  0.16300994397E+02  0.16815459432E+02  0.34795114070E+02  0.00000000000E+00 0. -1.
        -13    1    4    4    0    0  0.58656843045E+02 -0.12369355856E+02 -0.14474100636E+03  0.15666392412E+03  0.00000000000E+00 0.  1.
         13    1    4    4    0    0 -0.12074183744E+02  0.16923838337E+02 -0.30822441877E+02  0.37178288562E+02  0.00000000000E+00 0. -1.
          3    1    1    2  501    0 -0.45913889129E+02  0.54482985378E+01  0.19783564509E+02  0.50290740665E+02  0.00000000000E+00 0. -1.
<scales pt_clust_5="13000.00000" pt_clust_6="13000.00000" pt_clust_7="13000.00000" pt_clust_8="13000.00000" pt_clust_9="46.23604"></scales>
<clustering>
<clus scale="   46.236">  2  9  1 -1</clus>
<clus scale="   67.540">  7  8 -1 -1</clus>
<clus scale="   68.826">  2  7  1 -1</clus>
<clus scale="   79.721">  5  6 -1 -1</clus>
<clus scale="   46.236">  2  5  1 -1</clus>
</clustering>
</event>
<event>
 9    2  0.4653788E-005  0.1464261E+03  0.7546771E-02  0.1205595E+00
         -1   -1    0    0    0  501 -0.00000000000E+00  0.00000000000E+00  0.11029802876E+03  0.11029802876E+03  0.00000000000E+00 0.  1.
         21   -1    0    0  501  502  0.00000000000E+00 -0.00000000000E+00 -0.33238503757E+03  0.33238503757E+03  0.00000000000E+00 0.  1.
         24    2    1    2    0    0 -0.11648067242E+03 -0.12884352985E+02  0.57309594846E+01  0.14229394161E+03  0.80504461507E+02 0.  0.
         23    2    1    2    0    0  0.12826719982E+03 -0.16783084778E+02 -0.14550313554E+03  0.21210089911E+03  0.84151544635E+02 0.  0.
        -11    1    3    3    0    0 -0.12026771793E+03 -0.18017606749E+02  0.23105497460E+02  0.12378538743E+03  0.00000000000E+00 0.  1.
         12    1    3    3    0    0  0.37870455078E+01  0.51332537638E+01 -0.17374537975E+02  0.18508554177E+02  0.00000000000E+00 0. -1.
        -11    1    4    4    0    0  0.60440160414E+02 -0.50302510326E+02 -0.72019069048E+02  0.10663067965E+03  0.00000000000E+00 0.  1.
         11    1    4    4    0    0  0.67827039407E+02  0.33519425548E+02 -0.73484066496E+02  0.10547021946E+03  0.00000000000E+00 0. -1.
         -2    1    1    2    0  502 -0.11786527400E+02  0.29667437763E+02 -0.82314832747E+02  0.88288225612E+02  0.00000000000E+00 0.  1.
<scales pt_clust_5="13000.00000" pt_clust_6="13000.00000" pt_clust_7="13000.00000" pt_clust_8="13000.00000" pt_clust_9="31.92302"></scales>
<clustering>
<clus scale="   31.923">  2  9  1 -1</clus>
<clus scale="   80.504">  5  6 -1 -1</clus>
<clus scale="   84.152">  7  8 -1 -1</clus>
<clus scale="  144.361">  1  5  2 -1</clus>
<clus scale="   31.923">  2  5  1 -1</clus>
</clustering>
</event>
<event>
 9    2  0.4653788E-005  0.2430919E+03  0.7546771E-02  0.1118454E+00
          2   -1    0    0  502    0 -0.00000000000E+00  0.00000000000E+00  0.16627502476E+04  0.16627502476E+04  0.00000000000E+00 0. -1.
         21   -1    0    0  501  502  0.00000000000E+00 -0.00000000000E+00 -0.49129463830E+03  0.49129463830E+03  0.00000000000E+00 0.  1.
         23    2    1    2    0    0  0.22580896301E+03  0.64016295840E+01  0.57693191432E+03  0.62609906234E+03  0.90105124549E+02 0.  0.
         24    2    1    2    0    0 -0.21439206267E+03 -0.18949530851E+03 -0.41044876481E+03  0.50636700338E+03  0.77890468610E+02 0.  0.
        -13    1    4    4    0    0 -0.21388527638E+03 -0.19234952744E+03 -0.41244447755E+03  0.50284759045E+03  0.00000000000E+00 0.  1.
         14    1    4    4    0    0 -0.50678628596E+00  0.28542189253E+01  0.19957127468E+01  0.35194129313E+01  0.00000000000E+00 0. -1.
        -11    1    3    3    0    0  0.10926716512E+03  0.26107218279E+02  0.18219778848E+03  0.21404890644E+03  0.00000000000E+00 0.  1.
         11    1    3    3    0    0  0.11654179789E+03 -0.19705588695E+02  0.39473412584E+03  0.41205015591E+03  0.00000000000E+00 0. -1.
          1    1    1    2  501    0 -0.11416900344E+02  0.18309367893E+03  0.10049724598E+04  0.10215788202E+04  0.00000000000E+00 0. -1.
<scales pt_clust_5="13000.00000" pt_clust_6="13000.00000" pt_clust_7="13000.00000" pt_clust_8="13000.00000" pt_clust_9="183.44938"></scales>
<clustering>
<clus scale="   77.890">  5  6 -1 -1</clus>
<clus scale="   90.105">  7  8 -1 -1</clus>
<clus scale="  183.449">  2  9  1 -1</clus>
<clus scale="  238.834">  2  5  1 -1</clus>
<clus scale="  183.449">  2  5  1 -1</clus>
</clustering>
</event>
<event>
 9    2  0.4653788E-005  0.1098551E+03  0.7546771E-02  0.1261784E+00
          2   -1    0    0  502    0 -0.00000000000E+00  0.00000000000E+00  0.37879690669E+03  0.37879690669E+03  0.00000000000E+00 0. -1.
         21   -1    0    0  501  502  0.00000000000E+00 -0.00000000000E+00 -0.82901208253E+02  0.82901208253E+02  0.00000000000E+00 0. -1.
         24    2    1    2    0    0  0.95347442517E+02 -0.53307288982E+01  0.22277926753E+03  0.25381302919E+03  0.75305380149E+02 0.  0.
         23    2    1    2    0    0 -0.17881075854E+02 -0.27414633105E+02 -0.15013751576E+02  0.86064620473E+02  0.78169119087E+02 0.  0.
        -11    1    3    3    0    0  0.62094103544E+02 -0.17873327907E+02  0.63419150659E+02  0.90537960082E+02  0.00000000000E+00 0.  1.
         12    1    3    3    0    0  0.33253338973E+02  0.12542599009E+02  0.15936011687E+03  0.16327506911E+03  0.00000000000E+00 0. -1.
        -11    1    4    4    0    0  0.30947136886E+02 -0.14024200047E+02 -0.84359795581E+01  0.35008130763E+02  0.00000000000E+00 0.  1.
         11    1    4    4    0    0 -0.48828212739E+02 -0.13390433058E+02 -0.65777720178E+01  0.51056489710E+02  0.00000000000E+00 0. -1.
          1    1    1    2  501    0 -0.77466366664E+02  0.32745362003E+02  0.88130182481E+02  0.12182046528E+03  0.00000000000E+00 0. -1.
<scales pt_clust_5="13000.00000" pt_clust_6="13000.00000" pt_clust_7="13000.00000" pt_clust_8="13000.00000" pt_clust_9="84.10294"></scales>
<clustering>
<clus scale="   75.305">  5  6 -1 -1</clus>
<clus scale="   78.169">  7  8 -1 -1</clus>
<clus scale="   84.103">  2  9  1 -1</clus>
<clus scale="  107.836">  1  5  2 -1</clus>
<clus scale="   84.103">  2  5  1 -1</clus>
</clustering>
</event>
<event>
 9    2  0.4653788E-005  0.1572954E+03  0.7546771E-02  0.1192779E+00
          2   -1    0    0  502    0 -0.00000000000E+00  0.00000000000E+00  0.18888981398E+03  0.18888981398E+03  0.00000000000E+00 0. -1.
         21   -1    0    0  501  502  0.00000000000E+00 -0.00000000000E+00 -0.17529275003E+03  0.17529275003E+03  0.00000000000E+00 0.  1.
         23    2    1    2    0    0 -0.85240461267E+02 -0.86505240710E+02  0.48172133885E+02  0.15762948134E+03  0.88189602542E+02 0.  0.
         24    2    1    2    0    0  0.94400222568E+02  0.11441571893E+03 -0.45070180331E+02  0.17535943967E+03  0.81958850444E+02 0.  0.
        -11    1    4    4    0    0  0.31366059896E+02  0.92483676752E+02 -0.47452502321E+02  0.10857624121E+03  0.00000000000E+00 0.  1.
         12    1    4    4    0    0  0.63034162672E+02  0.21932042176E+02  0.23823219900E+01  0.66783198455E+02  0.00000000000E+00 0. -1.
        -11    1    3    3    0    0  0.10319800607E+02 -0.34789911950E+02 -0.50508461739E+01  0.36638058152E+02  0.00000000000E+00 0.  1.
         11    1    3    3    0    0 -0.95560261874E+02 -0.51715328760E+02  0.53222980059E+02  0.12099142319E+03  0.00000000000E+00 0. -1.
          1    1    1    2  501    0 -0.91597613007E+01 -0.27910478218E+02  0.10495110394E+02  0.31193643001E+02  0.00000000000E+00 0. -1.
<scales pt_clust_5="13000.00000" pt_clust_6="13000.00000" pt_clust_7="13000.00000" pt_clust_8="13000.00000" pt_clust_9="29.37511"></scales>
<clustering>
<clus scale="   29.375">  2  9  1 -1</clus>
<clus scale="   81.959">  5  6 -1 -1</clus>
<clus scale="   88.190">  7  8 -1 -1</clus>
<clus scale="  153.889">  2  5  1 -1</clus>
<clus scale="   29.375">  2  5  1 -1</clus>
</clustering>
</event>
<event>
 9    2  0.4653788E-005  0.1024719E+03  0.7546771E-02  0.1276939E+00
          2   -1    0    0  502    0 -0.00000000000E+00  0.00000000000E+00  0.53243266445E+03  0.53243266445E+03  0.00000000000E+00 0. -1.
         21   -1    0    0  501  502  0.00000000000E+00 -0.00000000000E+00 -0.65899679397E+02  0.65899679397E+02  0.00000000000E+00 0. -1.
         23    2    1    2    0    0 -0.47035170249E+02  0.72758521472E+01  0.33244629104E+03  0.34932456775E+03  0.96134655251E+02 0.  0.
         24    2    1    2    0    0 -0.32671480618E+02  0.59855764987E+02  0.66240261140E+02  0.12465769502E+03  0.80632688676E+02 0.  0.
        -13    1    4    4    0    0  0.16092172941E+02  0.50585008305E+02  0.19717262510E+02  0.56626597426E+02  0.00000000000E+00 0.  1.
         14    1    4    4    0    0 -0.48763653559E+02  0.92707566825E+01  0.46522998630E+02  0.68031097591E+02  0.00000000000E+00 0. -1.
        -13    1    3    3    0    0  0.12929195136E+02  0.33566561202E+02  0.68399297851E+02  0.77280929499E+02  0.00000000000E+00 0.  1.
         13    1    3    3    0    0 -0.59964365385E+02 -0.26290709054E+02  0.26404699319E+03  0.27204363825E+03  0.00000000000E+00 0. -1.
          1    1    1    2  501    0  0.79706650867E+02 -0.67131617135E+02  0.67846432870E+02  0.12435008108E+03  0.00000000000E+00 0. -1.
<scales pt_clust_5="13000.00000" pt_clust_6="13000.00000" pt_clust_7="13000.00000" pt_clust_8="13000.00000" pt_clust_9="104.21038"></scales>
<clustering>
<clus scale="   80.633">  5  6 -1 -1</clus>
<clus scale="   96.135">  7  8 -1 -1</clus>
<clus scale="  104.210">  2  9  1 -1</clus>
<clus scale="  104.210">  2  5  1 -1</clus>
<clus scale="  102.472">  2  5  1 -1</clus>
</clustering>
</event>
<event>
 9    2  0.4653788E-005  0.1827645E+03  0.7546771E-02  0.1166534E+00
         21   -1    0    0  501  502  0.00000000000E+00  0.00000000000E+00  0.73851793158E+02  0.73851793158E+02  0.00000000000E+00 0.  1.
          2   -1    0    0  502    0 -0.00000000000E+00 -0.00000000000E+00 -0.65659264429E+03  0.65659264429E+03  0.00000000000E+00 0. -1.
         23    2    1    2    0    0 -0.34145833835E+02  0.14398740054E+03 -0.38263446176E+03  0.42032531335E+03  0.91465448322E+02 0.  0.
         24    2    1    2    0    0  0.54777182393E+02 -0.17424217674E+03 -0.17938092177E+03  0.26804123164E+03  0.79421098568E+02 0.  0.
        -11    1    4    4    0    0  0.49663838259E+02 -0.39079763306E+02 -0.46780195727E+02  0.78626404235E+02  0.00000000000E+00 0.  1.
         12    1    4    4    0    0  0.51133441337E+01 -0.13516241343E+03 -0.13260072604E+03  0.18941482740E+03  0.00000000000E+00 0. -1.
        -11    1    3    3    0    0 -0.54123085970E+00  0.12576287101E+03 -0.34267664605E+03  0.36502585717E+03  0.00000000000E+00 0. -1.
         11    1    3    3    0    0 -0.33604602975E+02  0.18224529535E+02 -0.39957815709E+02  0.55299456183E+02  0.00000000000E+00 0.  1.
          1    1    1    2  501    0 -0.20631348558E+02  0.30254776199E+02 -0.20725467605E+02  0.42077892457E+02  0.00000000000E+00 0. -1.
<scales pt_clust_5="13000.00000" pt_clust_6="13000.00000" pt_clust_7="13000.00000" pt_clust_8="13000.00000" pt_clust_9="36.61972"></scales>
<clustering>
<clus scale="   36.620">  1  9  2 -1</clus>
<clus scale="   79.421">  5  6 -1 -1</clus>
<clus scale="   91.465">  7  8 -1 -1</clus>
<clus scale="  177.044">  1  5  2 -1</clus>
<clus scale="   36.620">  1  5  2 -1</clus>
</clustering>
</event>
<event>
 9    2  0.4653788E-005  0.9721333E+02  0.7546771E-02  0.1289164E+00
         21   -1    0    0  501  502  0.00000000000E+00  0.00000000000E+00  0.11947492528E+03  0.11947492528E+03  0.00000000000E+00 0. -1.
          2   -1    0    0  502    0 -0.00000000000E+00 -0.00000000000E+00 -0.22344624852E+03  0.22344624852E+03  0.00000000000E+00 0. -1.
         24    2    1    2    0    0 -0.29417998001E+02 -0.24395292691E+02 -0.17466904896E+03  0.19802343788E+03  0.85108497650E+02 0.  0.
         23    2    1    2    0    0  0.22233959971E+02  0.18220472026E+00  0.31976855102E+02  0.98667985194E+02  0.90655776791E+02 0.  0.
        -13    1    3    3    0    0  0.52678206635E+01 -0.30462941739E+02 -0.14713327478E+02  0.34237738818E+02  0.00000000000E+00 0.  1.
         14    1    3    3    0    0 -0.34685818664E+02  0.60676490474E+01 -0.15995572148E+03  0.16378569906E+03  0.00000000000E+00 0. -1.
        -11    1    4    4    0    0  0.29321561958E+02 -0.37215184511E+02 -0.23161462925E+01  0.47435097633E+02  0.00000000000E+00 0. -1.
         11    1    4    4    0    0 -0.70876019869E+01  0.37397389231E+02  0.34293001394E+02  0.51232887561E+02  0.00000000000E+00 0.  1.
          1    1    1    2  501    0  0.71840380295E+01  0.24213087971E+02  0.38720870615E+02  0.46229750731E+02  0.00000000000E+00 0. -1.
<scales pt_clust_5="13000.00000" pt_clust_6="13000.00000" pt_clust_7="13000.00000" pt_clust_8="13000.00000" pt_clust_9="25.25637"></scales>
<clustering>
<clus scale="   25.256">  1  9  2 -1</clus>
<clus scale="   85.108">  5  6 -1 -1</clus>
<clus scale="   90.656">  7  8 -1 -1</clus>
<clus scale="   92.062">  2  5  1 -1</clus>
<clus scale="   25.256">  1  5  2 -1</clus>
</clustering>
</event>
<event>
 9    2  0.4653788E-005  0.2302545E+03  0.7546771E-02  0.1127234E+00
          2   -1    0    0  502    0 -0.00000000000E+00  0.00000000000E+00  0.55057029994E+03  0.55057029994E+03  0.00000000000E+00 0. -1.
         21   -1    0    0  501  502  0.00000000000E+00 -0.00000000000E+00 -0.15445564749E+03  0.15445564749E+03  0.00000000000E+00 0.  1.
         24    2    1    2    0    0  0.21468270602E+03 -0.24147158508E+02  0.30689274488E+03  0.38373981373E+03  0.80008363644E+02 0.  0.
         23    2    1    2    0    0 -0.20187163479E+03 -0.42362195528E+02  0.23502343844E+02  0.22691093157E+03  0.91594203718E+02 0.  0.
        -13    1    3    3    0    0  0.44266293795E+02 -0.32520220222E+02  0.44216597625E+02  0.70513665308E+02  0.00000000000E+00 0.  1.
         14    1    3    3    0    0  0.17041641222E+03  0.83730617137E+01  0.26267614726E+03  0.31322614842E+03  0.00000000000E+00 0. -1.
        -13    1    4    4    0    0 -0.15633097757E+03 -0.16768318121E+02 -0.20564756072E+02  0.15856689513E+03  0.00000000000E+00 0.  1.
         13    1    4    4    0    0 -0.45540657229E+02 -0.25593877408E+02  0.44067099916E+02  0.68344036438E+02  0.00000000000E+00 0. -1.
          1    1    1    2  501    0 -0.12811071223E+02  0.66509354037E+02  0.65719563733E+02  0.94375202132E+02  0.00000000000E+00 0. -1.
<scales pt_clust_5="13000.00000" pt_clust_6="13000.00000" pt_clust_7="13000.00000" pt_clust_8="13000.00000" pt_clust_9="67.73199"></scales>
<clustering>
<clus scale="   67.732">  2  9  1 -1</clus>
<clus scale="   80.008">  5  6 -1 -1</clus>
<clus scale="   91.594">  7  8 -1 -1</clus>
<clus scale="  225.896">  1  5  2 -1</clus>
<clus scale="   67.732">  2  5  1 -1</clus>
</clustering>
</event>
<event>
 9    2  0.4653788E-005  0.1597511E+03  0.7546771E-02  0.1213275E+00
         21   -1    0    0  501  502  0.00000000000E+00  0.00000000000E+00  0.34979931527E+03  0.34979931527E+03  0.00000000000E+00 0. -1.
          2   -1    0    0  502    0 -0.00000000000E+00 -0.00000000000E+00 -0.27802143068E+03  0.27802143068E+03  0.00000000000E+00 0. -1.
         23    2    1    2    0    0 -0.33492745589E+01 -0.22028596949E+02  0.21534975120E+03  0.23510597200E+03  0.91666929731E+02 0.  0.
         24    2    1    2    0    0 -0.13191336396E+00  0.15555704871E+03 -0.18295390497E+03  0.25345634138E+03  0.81055368977E+02 0.  0.
        -13    1    4    4    0    0  0.22670517285E+02  0.54638537058E+01 -0.29380500605E+02  0.37510263490E+02  0.00000000000E+00 0.  1.
         14    1    4    4    0    0 -0.22802430649E+02  0.15009319500E+03 -0.15357340436E+03  0.21594607789E+03  0.00000000000E+00 0. -1.
        -11    1    3    3    0    0 -0.40225791357E+02  0.22372909375E+00  0.49652633515E+02  0.63902647519E+02  0.00000000000E+00 0. -1.
         11    1    3    3    0    0  0.36876516798E+02 -0.22252326043E+02  0.16569711768E+03  0.17120332448E+03  0.00000000000E+00 0.  1.
          1    1    1    2  501    0  0.34811879228E+01 -0.13352845176E+03  0.39382038358E+02  0.13925843257E+03  0.00000000000E+00 0. -1.
<scales pt_clust_5="13000.00000" pt_clust_6="13000.00000" pt_clust_7="13000.00000" pt_clust_8="13000.00000" pt_clust_9="137.66065"></scales>
<clustering>
<clus scale="   81.055">  5  6 -1 -1</clus>
<clus scale="   91.667">  7  8 -1 -1</clus>
<clus scale="   94.336">  2  7  1 -1</clus>
<clus scale="  137.661">  1  9  2 -1</clus>
<clus scale="  137.661">  1  5  2 -1</clus>
</clustering>
</event>
<event>
 9    2  0.4653788E-005  0.1423162E+03  0.7546771E-02  0.1212468E+00
          2   -1    0    0  502    0 -0.00000000000E+00  0.00000000000E+00  0.12156855539E+04  0.12156855539E+04  0.00000000000E+00 0. -1.
         21   -1    0    0  501  502  0.00000000000E+00 -0.00000000000E+00 -0.50130811687E+02  0.50130811687E+02  0.00000000000E+00 0. -1.
         24    2    1    2    0    0  0.92098883226E+02 -0.83284447933E+02  0.10182591347E+04  0.10288992158E+04  0.79771093230E+02 0.  0.
         23    2    1    2    0    0 -0.45423864005E+02  0.35306162963E+02  0.12852708348E+03  0.16739930503E+03  0.90517752802E+02 0.  0.
        -11    1    3    3    0    0  0.47736594834E+02 -0.10492741473E+02  0.18704476366E+03  0.19332517612E+03  0.00000000000E+00 0.  1.
         12    1    3    3    0    0  0.44362288392E+02 -0.72791706460E+02  0.83121437101E+03  0.83557403965E+03  0.00000000000E+00 0. -1.
        -11    1    4    4    0    0  0.23338793279E+02 -0.65696175229E+01  0.16048191886E+02  0.29075825164E+02  0.00000000000E+00 0.  1.
         11    1    4    4    0    0 -0.68762657284E+02  0.41875780486E+02  0.11247889159E+03  0.13832347987E+03  0.00000000000E+00 0. -1.
          1    1    1    2  501    0 -0.46675019221E+02  0.47978284969E+02  0.18768524060E+02  0.69517844783E+02  0.00000000000E+00 0. -1.
<scales pt_clust_5="13000.00000" pt_clust_6="13000.00000" pt_clust_7="13000.00000" pt_clust_8="13000.00000" pt_clust_9="66.93634"></scales>
<clustering>
<clus scale="   66.936">  2  9  1 -1</clus>
<clus scale="   79.771">  5  6 -1 -1</clus>
<clus scale="   90.518">  7  8 -1 -1</clus>
<clus scale="  135.735">  1  5  2 -1</clus>
<clus scale="   66.936">  2  5  1 -1</clus>
</clustering>
</event>
<event>
 9    2  0.4653788E-005  0.2428634E+03  0.7546771E-02  0.1126850E+00
         21   -1    0    0  501  502  0.00000000000E+00  0.00000000000E+00  0.10126595555E+03  0.10126595555E+03  0.00000000000E+00 0. -1.
          2   -1    0    0  502    0 -0.00000000000E+00 -0.00000000000E+00 -0.13414839974E+04  0.13414839974E+04  0.00000000000E+00 0. -1.
         24    2    1    2    0    0 -0.43710537390E+02 -0.17172326544E+03 -0.31157337852E+03  0.36721630986E+03  0.79814516576E+02 0.  0.
         23    2    1    2    0    0  0.23904510889E+03  0.48216462229E+02 -0.25846830967E+03  0.36662894549E+03  0.90241482982E+02 0.  0.
        -11    1    3    3    0    0 -0.58520335861E+02 -0.14097923244E+03 -0.20685109777E+03  0.25707421174E+03  0.00000000000E+00 0.  1.
         12    1    3    3    0    0  0.14809798472E+02 -0.30744032998E+02 -0.10472228074E+03  0.11014209812E+03  0.00000000000E+00 0. -1.
        -13    1    4    4    0    0  0.14800695566E+03  0.53771487360E+02 -0.21251341718E+03  0.26449836343E+03  0.00000000000E+00 0. -1.
         13    1    4    4    0    0  0.91038153224E+02 -0.55550251310E+01 -0.45954892495E+02  0.10213058205E+03  0.00000000000E+00 0.  1.
          1    1    1    2  501    0 -0.19533457150E+03  0.12350680321E+03 -0.67017635368E+03  0.70890469761E+03  0.00000000000E+00 0. -1.
<scales pt_clust_5="13000.00000" pt_clust_6="13000.00000" pt_clust_7="13000.00000" pt_clust_8="13000.00000" pt_clust_9="225.47536"></scales>
<clustering>
<clus scale="   79.815">  5  6 -1 -1</clus>
<clus scale="   90.241">  7  8 -1 -1</clus>
<clus scale="  194.345">  2  5  1 -1</clus>
<clus scale="  225.475">  1  9  2 -1</clus>
<clus scale="  225.475">  1  5  2 -1</clus>
</clustering>
</event>
<event>
 9    2  0.4653788E-005  0.8628926E+02  0.7546771E-02  0.1314470E+00
         21   -1    0    0  501  502  0.00000000000E+00  0.00000000000E+00  0.98811422122E+02  0.98811422122E+02  0.00000000000E+00 0.  1.
         -3   -1    0    0    0  501 -0.00000000000E+00 -0.00000000000E+00 -0.23340105230E+03  0.23340105230E+03  0.00000000000E+00 0.  1.
         23    2    1    2    0    0 -0.36300922444E+02 -0.86437146871E+01 -0.16829966147E+03  0.18878477828E+03  0.76957427747E+02 0.  0.
         24    2    1    2    0    0  0.36775759939E+01 -0.27552476164E+02  0.24145340838E+01  0.85515218117E+02  0.80835382394E+02 0.  0.
        -11    1    4    4    0    0 -0.28264978154E+02 -0.35247637445E+02  0.18635129789E+02  0.48873029349E+02  0.00000000000E+00 0.  1.
         12    1    4    4    0    0  0.31942554148E+02  0.76951612815E+01 -0.16220595705E+02  0.36642188768E+02  0.00000000000E+00 0. -1.
        -13    1    3    3    0    0 -0.34989666196E+02 -0.36821961840E+02 -0.69803498666E+02  0.86328801916E+02  0.00000000000E+00 0.  1.
         13    1    3    3    0    0 -0.13112562477E+01  0.28178247153E+02 -0.98496162805E+02  0.10245597636E+03  0.00000000000E+00 0. -1.
         -4    1    1    2    0  502  0.32623346450E+02  0.36196190851E+02  0.31295497208E+02  0.57912478026E+02  0.00000000000E+00 0.  1.
<scales pt_clust_5="13000.00000" pt_clust_6="13000.00000" pt_clust_7="13000.00000" pt_clust_8="13000.00000" pt_clust_9="48.72830"></scales>
<clustering>
<clus scale="   48.728">  1  9  2 -1</clus>
<clus scale="   76.957">  7  8 -1 -1</clus>
<clus scale="   80.835">  5  6 -1 -1</clus>
<clus scale="   82.668">  2  7  1 -1</clus>
<clus scale="   48.728">  1  5  2 -1</clus>
</clustering>
</event>
<event>
 9    2  0.4653788E-005  0.1024189E+03  0.7546771E-02  0.1281884E+00
         21   -1    0    0  501  502  0.00000000000E+00  0.00000000000E+00  0.11781500696E+03  0.11781500696E+03  0.00000000000E+00 0.  1.
         -1   -1    0    0    0  501 -0.00000000000E+00 -0.00000000000E+00 -0.12374024093E+03  0.12374024093E+03  0.00000000000E+00 0.  1.
         24    2    1    2    0    0  0.37229599935E+02  0.36307641333E+01  0.16388239752E+01  0.89091131418E+02  0.80841316131E+02 0.  0.
         23    2    1    2    0    0 -0.39161954856E+02 -0.27978832000E+02  0.27924407426E+02  0.10938287254E+03  0.94172005008E+02 0.  0.
        -11    1    3    3    0    0  0.48966292126E+02 -0.27250147702E+02  0.13127644926E+01  0.56053471480E+02  0.00000000000E+00 0.  1.
         12    1    3    3    0    0 -0.11736692192E+02  0.30880911835E+02  0.32605948254E+00  0.33037659938E+02  0.00000000000E+00 0. -1.
        -13    1    4    4    0    0  0.27673528823E+02  0.77642725774E+01  0.15251337518E+02  0.32537845999E+02  0.00000000000E+00 0. -1.
         13    1    4    4    0    0 -0.66835483679E+02 -0.35743104578E+02  0.12673069908E+02  0.76845026543E+02  0.00000000000E+00 0.  1.
         -2    1    1    2    0  502  0.19323549209E+01  0.24348067867E+02 -0.35488465364E+02  0.43081243927E+02  0.00000000000E+00 0.  1.
<scales pt_clust_5="13000.00000" pt_clust_6="13000.00000" pt_clust_7="13000.00000" pt_clust_8="13000.00000" pt_clust_9="24.42464"></scales>
<clustering>
<clus scale="   24.425">  1  9  2 -1</clus>
<clus scale="   80.841">  5  6 -1 -1</clus>
<clus scale="   90.314">  2  5  1 -1</clus>
<clus scale="   94.172">  7  8 -1 -1</clus>
<clus scale="   24.425">  1  5  2 -1</clus>
</clustering>
</event>
<event>
 9    2  0.4653788E-005  0.9276467E+02  0.7546771E-02  0.1303407E+00
         21   -1    0    0  501  502  0.00000000000E+00  0.00000000000E+00  0.61881896505E+02  0.61881896505E+02  0.00000000000E+00 0. -1.
          2   -1    0    0  502    0 -0.00000000000E+00 -0.00000000000E+00 -0.73274590495E+03  0.73274590495E+03  0.00000000000E+00 0. -1.
         24    2    1    2    0    0 -0.92722135216E+00  0.93629348362E+01 -0.49940172787E+03  0.50575183689E+03  0.79336690368E+02 0.  0.
         23    2    1    2    0    0  0.20231791714E+02 -0.49320538764E+02 -0.20680593558E+03  0.23214457556E+03  0.90997626519E+02 0.  0.
        -13    1    3    3    0    0 -0.27339355267E+02 -0.23121660381E+02 -0.17225745014E+03  0.17593942325E+03  0.00000000000E+00 0.  1.
         14    1    3    3    0    0  0.26412133915E+02  0.32484595218E+02 -0.32714427773E+03  0.32981241364E+03  0.00000000000E+00 0. -1.
        -13    1    4    4    0    0  0.35192019513E+02 -0.10801122651E+00 -0.15573081394E+03  0.15965768480E+03  0.00000000000E+00 0. -1.
         13    1    4    4    0    0 -0.14960227798E+02 -0.49212527538E+02 -0.51075121637E+02  0.72486890764E+02  0.00000000000E+00 0.  1.
          1    1    1    2  501    0 -0.19304570362E+02  0.39957603928E+02  0.35343655002E+02  0.56731388996E+02  0.00000000000E+00 0. -1.
<scales pt_clust_5="13000.00000" pt_clust_6="13000.00000" pt_clust_7="13000.00000" pt_clust_8="13000.00000" pt_clust_9="44.37653"></scales>
<clustering>
<clus scale="   44.377">  1  9  2 -1</clus>
<clus scale="   79.337">  5  6 -1 -1</clus>
<clus scale="   81.357">  2  5  1 -1</clus>
<clus scale="   90.998">  7  8 -1 -1</clus>
<clus scale="   44.377">  1  5  2 -1</clus>
</clustering>
</event>
<event>
 9    2  0.4653788E-005  0.1138914E+03  0.7546771E-02  0.1256357E+00
          2   -1    0    0  502    0 -0.00000000000E+00  0.00000000000E+00  0.25589891363E+03  0.25589891363E+03  0.00000000000E+00 0. -1.
         21   -1    0    0  501  502  0.00000000000E+00 -0.00000000000E+00 -0.10548004792E+03  0.10548004792E+03  0.00000000000E+00 0. -1.
         24    2    1    2    0    0 -0.85354844029E+02  0.37702246092E+02  0.10138050214E+03  0.15989334987E+03  0.81123167824E+02 0.  0.
         23    2    1    2    0    0  0.76894880081E+01 -0.40342177887E+02 -0.16810759054E+02  0.99627947684E+02  0.89199253345E+02 0.  0.
        -13    1    3    3    0    0 -0.29651426694E+02  0.46025569388E+02  0.14990014158E+02  0.56764959851E+02  0.00000000000E+00 0.  1.
         14    1    3    3    0    0 -0.55703417334E+02 -0.83233232954E+01  0.86390487981E+02  0.10312839001E+03  0.00000000000E+00 0. -1.
        -11    1    4    4    0    0  0.17788658101E+02  0.25513268362E+02 -0.83328964553E+00  0.31113623884E+02  0.00000000000E+00 0.  1.
         11    1    4    4    0    0 -0.10099170093E+02 -0.65855446249E+02 -0.15977469408E+02  0.68514323801E+02  0.00000000000E+00 0. -1.
          1    1    1    2  501    0  0.77665356021E+02  0.26399317951E+01  0.65849122624E+02  0.10185766400E+03  0.00000000000E+00 0. -1.
<scales pt_clust_5="13000.00000" pt_clust_6="13000.00000" pt_clust_7="13000.00000" pt_clust_8="13000.00000" pt_clust_9="77.71025"></scales>
<clustering>
<clus scale="   77.710">  2  9  1 -1</clus>
<clus scale="   81.123">  5  6 -1 -1</clus>
<clus scale="   89.199">  7  8 -1 -1</clus>
<clus scale="  107.683">  1  5  2 -1</clus>
<clus scale="   77.710">  2  5  1 -1</clus>
</clustering>
</event>
<event>
 9    2  0.4653788E-005  0.9187106E+02  0.7546771E-02  0.1305153E+00
         21   -1    0    0  501  502  0.00000000000E+00  0.00000000000E+00  0.49506109752E+03  0.49506109752E+03  0.00000000000E+00 0. -1.
         -1   -1    0    0    0  501 -0.00000000000E+00 -0.00000000000E+00 -0.40396723382E+02  0.40396723382E+02  0.00000000000E+00 0.  1.
         24    2    1    2    0    0  0.15505720246E+02 -0.10206726158E+02  0.42138244982E+02  0.92864605157E+02  0.80644891850E+02 0.  0.
         23    2    1    2    0    0  0.40403623680E+02 -0.68982503504E+01  0.29008797242E+03  0.30691146611E+03  0.91452597675E+02 0.  0.
        -11    1    3    3    0    0  0.32064711676E+02 -0.34116426093E+02  0.71429303389E+01  0.47361352579E+02  0.00000000000E+00 0.  1.
         12    1    3    3    0    0 -0.16558991431E+02  0.23909699935E+02  0.34995314643E+02  0.45503252578E+02  0.00000000000E+00 0. -1.
        -13    1    4    4    0    0  0.15316379801E+02  0.32712410283E+02  0.21762624310E+03  0.22060343371E+03  0.00000000000E+00 0. -1.
         13    1    4    4    0    0  0.25087243879E+02 -0.39610660633E+02  0.72461729320E+02  0.86308032403E+02  0.00000000000E+00 0.  1.
         -2    1    1    2    0  502 -0.55909343926E+02  0.17104976509E+02  0.12243815674E+03  0.13568174964E+03  0.00000000000E+00 0.  1.
<scales pt_clust_5="13000.00000" pt_clust_6="13000.00000" pt_clust_7="13000.00000" pt_clust_8="13000.00000" pt_clust_9="58.46738"></scales>
<clustering>
<clus scale="   58.467">  1  9  2 -1</clus>
<clus scale="   80.645">  5  6 -1 -1</clus>
<clus scale="   81.119">  2  5  1 -1</clus>
<clus scale="   91.453">  7  8 -1 -1</clus>
<clus scale="   58.467">  1  5  2 -1</clus>
</clustering>
</event>
<event>
 9    2  0.4653788E-005  0.9234632E+02  0.7546771E-02  0.1304054E+00
         21   -1    0    0  501  502  0.00000000000E+00  0.00000000000E+00  0.71993790979E+02  0.71993790979E+02  0.00000000000E+00 0.  1.
          2   -1    0    0  502    0 -0.00000000000E+00 -0.00000000000E+00 -0.24296427814E+03  0.24296427814E+03  0.00000000000E+00 0. -1.
         24    2    1    2    0    0 -0.93090850149E+01  0.18793872963E+02 -0.17622073237E+03  0.19455727263E+03  0.79742818424E+02 0.  0.
         23    2    1    2    0    0  0.85315591392E+01  0.84782332599E+01 -0.37457492465E+01  0.91672757211E+02  0.90803060723E+02 0.  0.
        -11    1    3    3    0    0  0.30929078793E+02 -0.92099443512E+01 -0.54540863195E+02  0.63372996994E+02  0.00000000000E+00 0.  1.
         12    1    3    3    0    0 -0.40238163808E+02  0.28003817314E+02 -0.12167986918E+03  0.13118427564E+03  0.00000000000E+00 0. -1.
        -11    1    4    4    0    0 -0.11159672541E+02 -0.34116466840E+02  0.17765683821E+02  0.40051106383E+02  0.00000000000E+00 0. -1.
         11    1    4    4    0    0  0.19691231680E+02  0.42594700099E+02 -0.21511433068E+02  0.51621650828E+02  0.00000000000E+00 0.  1.
          1    1    1    2  501    0  0.77752587566E+00 -0.27272106223E+02  0.89959944601E+01  0.28728039276E+02  0.00000000000E+00 0. -1.
<scales pt_clust_5="13000.00000" pt_clust_6="13000.00000" pt_clust_7="13000.00000" pt_clust_8="13000.00000" pt_clust_9="27.28319"></scales>
<clustering>
<clus scale="   27.283">  1  9  2 -1</clus>
<clus scale="   79.743">  5  6 -1 -1</clus>
<clus scale="   81.496">  2  5  1 -1</clus>
<clus scale="   90.803">  7  8 -1 -1</clus>
<clus scale="   27.283">  1  5  2 -1</clus>
</clustering>
</event>
<event>
 9    2  0.4653788E-005  0.1175500E+03  0.7546771E-02  0.1250184E+00
         -1   -1    0    0    0  501 -0.00000000000E+00  0.00000000000E+00  0.48678577706E+03  0.48678577706E+03  0.00000000000E+00 0.  1.
         21   -1    0    0  501  502  0.00000000000E+00 -0.00000000000E+00 -0.64863646983E+02  0.64863646983E+02  0.00000000000E+00 0. -1.
         23    2    1    2    0    0 -0.34091104161E+02  0.55680924432E+02  0.37577041250E+03  0.39310551492E+03  0.95215409553E+02 0.  0.
         24    2    1    2    0    0  0.35461263625E+02 -0.78354624703E+02  0.55342577773E+02  0.13403991084E+03  0.86642647421E+02 0.  0.
        -13    1    4    4    0    0  0.23094284656E+02 -0.17271937001E+02  0.64872253867E+02  0.70993486415E+02  0.00000000000E+00 0.  1.
         14    1    4    4    0    0  0.12366978969E+02 -0.61082687703E+02 -0.95296760947E+01  0.63046424421E+02  0.00000000000E+00 0. -1.
        -11    1    3    3    0    0  0.23492933700E+02  0.27323201034E+02  0.53491327504E+02  0.64496491120E+02  0.00000000000E+00 0. -1.
         11    1    3    3    0    0 -0.57584037862E+02  0.28357723398E+02  0.32227908500E+03  0.32860902380E+03  0.00000000000E+00 0.  1.
         -2    1    1    2    0  502 -0.13701594638E+01  0.22673700271E+02 -0.91908602000E+01  0.24503998290E+02  0.00000000000E+00 0.  1.
<scales pt_clust_5="13000.00000" pt_clust_6="13000.00000" pt_clust_7="13000.00000" pt_clust_8="13000.00000" pt_clust_9="22.71506"></scales>
<clustering>
<clus scale="   22.715">  2  9  1 -1</clus>
<clus scale="   86.643">  5  6 -1 -1</clus>
<clus scale="   95.215">  7  8 -1 -1</clus>
<clus scale="  110.720">  2  5  1 -1</clus>
<clus scale="   22.715">  2  5  1 -1</clus>
</clustering>
</event>
<event>
 9    2  0.4653788E-005  0.9400120E+02  0.7546771E-02  0.1300370E+00
          2   -1    0    0  502    0 -0.00000000000E+00  0.00000000000E+00  0.21680136950E+03  0.21680136950E+03  0.00000000000E+00 0. -1.
         21   -1    0    0  501  502  0.00000000000E+00 -0.00000000000E+00 -0.71489125894E+02  0.71489125894E+02  0.00000000000E+00 0. -1.
         23    2    1    2    0    0 -0.36374908225E+02 -0.16684643164E+01  0.10139759805E+03  0.14141288446E+03  0.91598107394E+02 0.  0.
         24    2    1    2    0    0  0.71897124133E+01  0.17144840124E+01  0.70919179041E+02  0.10711553603E+03  0.79934827726E+02 0.  0.
        -13    1    4    4    0    0  0.86221676467E-01  0.35504044449E+02  0.62012779517E+02  0.71457185992E+02  0.00000000000E+00 0.  1.
         14    1    4    4    0    0  0.71034907368E+01 -0.33789560437E+02  0.89063995237E+01  0.35658350041E+02  0.00000000000E+00 0. -1.
        -13    1    3    3    0    0  0.64910559808E+00  0.36303963493E+02  0.13467244204E+02  0.38726809445E+02  0.00000000000E+00 0.  1.
         13    1    3    3    0    0 -0.37024013823E+02 -0.37972427809E+02  0.87930353849E+02  0.10268607501E+03  0.00000000000E+00 0. -1.
          1    1    1    2  501    0  0.29185195811E+02 -0.46019695955E-01 -0.27004533484E+02  0.39762074909E+02  0.00000000000E+00 0. -1.
<scales pt_clust_5="13000.00000" pt_clust_6="13000.00000" pt_clust_7="13000.00000" pt_clust_8="13000.00000" pt_clust_9="29.18523"></scales>
<clustering>
<clus scale="   29.185">  2  9  1 -1</clus>
<clus scale="   79.935">  5  6 -1 -1</clus>
<clus scale="   82.678">  2  5  1 -1</clus>
<clus scale="   91.598">  7  8 -1 -1</clus>
<clus scale="   29.185">  2  5  1 -1</clus>
</clustering>
</event>
<event>
 9    2  0.4653788E-005  0.1042315E+03  0.7546771E-02  0.1272941E+00
         -3   -1    0    0    0  501 -0.00000000000E+00  0.00000000000E+00  0.76693608559E+03  0.76693608559E+03  0.00000000000E+00 0.  1.
         21   -1    0    0  501  502  0.00000000000E+00 -0.00000000000E+00 -0.38757066183E+02  0.38757066183E+02  0.00000000000E+00 0.  1.
         24    2    1    2    0    0 -0.42764335971E+02  0.33932213348E+02  0.42592783573E+03  0.43702385064E+03  0.81210474999E+02 0.  0.
         23    2    1    2    0    0  0.33120175240E+02 -0.70644412436E+02  0.30938287001E+03  0.33004733396E+03  0.84415066098E+02 0.  0.
        -11    1    3    3    0    0 -0.60993547715E+02  0.95636244485E+01  0.34666289610E+03  0.35211764981E+03  0.00000000000E+00 0.  1.
         12    1    3    3    0    0  0.18229211744E+02  0.24368588899E+02  0.79264939634E+02  0.84906200839E+02  0.00000000000E+00 0. -1.
        -13    1    4    4    0    0  0.43760747167E+02 -0.10635872197E+02  0.71656118585E+02  0.84632878367E+02  0.00000000000E+00 0. -1.
         13    1    4    4    0    0 -0.10640571927E+02 -0.60008540238E+02  0.23772675142E+03  0.24541445560E+03  0.00000000000E+00 0.  1.
         -4    1    1    2    0  502  0.96441607310E+01  0.36712199088E+02 -0.71316863282E+01  0.38621967168E+02  0.00000000000E+00 0.  1.
<scales pt_clust_5="13000.00000" pt_clust_6="13000.00000" pt_clust_7="13000.00000" pt_clust_8="13000.00000" pt_clust_9="37.95781"></scales>
<clustering>
<clus scale="   37.958">  2  9  1 -1</clus>
<clus scale="   81.210">  5  6 -1 -1</clus>
<clus scale="   84.415">  7  8 -1 -1</clus>
<clus scale="  101.654">  1  5  2 -1</clus>
<clus scale="   37.958">  2  5  1 -1</clus>
</clustering>
</event>
<event>
 9    2  0.8334095E-005  0.1089360E+03  0.7546771E-02  0.1266148E+00
         -1   -1    0    0    0  501 -0.00000000000E+00  0.00000000000E+00  0.24502682853E+03  0.24502682853E+03  0.00000000000E+00 0.  1.
         21   -1    0    0  501  502  0.00000000000E+00 -0.00000000000E+00 -0.44131392353E+03  0.44131392353E+03  0.00000000000E+00 0.  1.
         23    2    1    2    0    0  0.38962966810E+02 -0.47369643526E+02  0.17310224370E+03  0.20457018116E+03  0.90125336818E+02 0.  0.
         24    2    1    2    0    0 -0.10540572520E+03 -0.22898024336E+02 -0.43384527366E+02  0.14172451181E+03  0.81048958105E+02 0.  0.
        -13    1    4    4    0    0 -0.67796228371E+02 -0.43194337482E+02  0.61074333191E+00  0.80389379767E+02  0.00000000000E+00 0.  1.
         14    1    4    4    0    0 -0.37609496825E+02  0.20296313147E+02 -0.43995270698E+02  0.61335132041E+02  0.00000000000E+00 0. -1.
        -11    1    3    3    0    0 -0.17036311390E+02  0.13339164935E+02  0.15428968423E+02  0.26574843246E+02  0.00000000000E+00 0. -1.
         11    1    3    3    0    0  0.55999278200E+02 -0.60708808461E+02  0.15767327528E+03  0.17799533792E+03  0.00000000000E+00 0.  1.
         -2    1    1    2    0  502  0.66442758386E+02  0.70267667862E+02 -0.32600481133E+03  0.34004605909E+03  0.00000000000E+00 0.  1.
<scales pt_clust_5="13000.00000" pt_clust_6="13000.00000" pt_clust_7="13000.00000" pt_clust_8="13000.00000" pt_clust_9="96.70670"></scales>
<clustering>
<clus scale="   81.049">  5  6 -1 -1</clus>
<clus scale="   90.125">  7  8 -1 -1</clus>
<clus scale="   96.707">  2  9  1 -1</clus>
<clus scale="  101.555">  2  5  1 -1</clus>
<clus scale="   96.707">  2  5  1 -1</clus>
</clustering>
</event>
<event>
 9    2  0.4653788E-005  0.4568668E+03  0.7546771E-02  0.1072844E+00
         21   -1    0    0  501  502  0.00000000000E+00  0.00000000000E+00  0.83664718302E+03  0.83664718302E+03  0.00000000000E+00 0. -1.
          4   -1    0    0  502    0 -0.00000000000E+00 -0.00000000000E+00 -0.31674927709E+03  0.31674927709E+03  0.00000000000E+00 0. -1.
         24    2    1    2    0    0 -0.67028286148E+02  0.57006507877E+02  0.48098846560E+02  0.12806565702E+03  0.79654129730E+02 0.  0.
         23    2    1    2    0    0  0.24417500972E+03 -0.42660676672E+03  0.27251878963E+03  0.56959190974E+03  0.92486129549E+02 0.  0.
        -13    1    3    3    0    0 -0.11220809898E+02  0.58166270924E+02  0.90086395485E+01  0.59919756629E+02  0.00000000000E+00 0.  1.
         14    1    3    3    0    0 -0.55807476250E+02 -0.11597630469E+01  0.39090207011E+02  0.68145900390E+02  0.00000000000E+00 0. -1.
        -11    1    4    4    0    0  0.23021009283E+03 -0.40580036645E+03  0.22982300928E+03  0.52008580046E+03  0.00000000000E+00 0. -1.
         11    1    4    4    0    0  0.13964916894E+02 -0.20806400268E+02  0.42695780351E+02  0.49506109277E+02  0.00000000000E+00 0.  1.
          3    1    1    2  501    0 -0.17714672357E+03  0.36960025884E+03  0.19928026974E+03  0.45573889335E+03  0.00000000000E+00 0. -1.
<scales pt_clust_5="13000.00000" pt_clust_6="13000.00000" pt_clust_7="13000.00000" pt_clust_8="13000.00000" pt_clust_9="447.40765"></scales>
<clustering>
<clus scale="   79.654">  5  6 -1 -1</clus>
<clus scale="   92.486">  7  8 -1 -1</clus>
<clus scale="  118.690">  2  5  1 -1</clus>
<clus scale="  447.408">  1  9  2 -1</clus>
<clus scale="  447.408">  1  5  2 -1</clus>
</clustering>
</event>
<event>
 9    2  0.4653788E-005  0.1202202E+03  0.7546771E-02  0.1259680E+00
         -3   -1    0    0    0  501 -0.00000000000E+00  0.00000000000E+00  0.53401362807E+03  0.53401362807E+03  0.00000000000E+00 0.  1.
         21   -1    0    0  501  502  0.00000000000E+00 -0.00000000000E+00 -0.67206814041E+02  0.67206814041E+02  0.00000000000E+00 0. -1.
         23    2    1    2    0    0  0.75662482035E+01  0.40432617603E+02  0.42685226449E+03  0.44450836790E+03  0.11701619013E+03 0.  0.
         24    2    1    2    0    0 -0.11121424111E+02  0.25186971923E+02  0.25136414875E+02  0.89346304564E+02  0.81196386358E+02 0.  0.
        -13    1    4    4    0    0 -0.44013997528E+02  0.28346335478E+02  0.11506790772E+02  0.53601799851E+02  0.00000000000E+00 0.  1.
         14    1    4    4    0    0  0.32892573417E+02 -0.31593635543E+01  0.13629624103E+02  0.35744504714E+02  0.00000000000E+00 0. -1.
        -13    1    3    3    0    0  0.57228743107E+01  0.68007439451E+02  0.40066346263E+03  0.40643446384E+03  0.00000000000E+00 0. -1.
         13    1    3    3    0    0  0.18433738928E+01 -0.27574821847E+02  0.26188801860E+02  0.38073904056E+02  0.00000000000E+00 0.  1.
         -4    1    1    2    0  502  0.35551759074E+01 -0.65619589527E+02  0.14818134663E+02  0.67365769648E+02  0.00000000000E+00 0.  1.
<scales pt_clust_5="13000.00000" pt_clust_6="13000.00000" pt_clust_7="13000.00000" pt_clust_8="13000.00000" pt_clust_9="65.71583"></scales>
<clustering>
<clus scale="   65.716">  2  9  1 -1</clus>
<clus scale="   81.196">  5  6 -1 -1</clus>
<clus scale="   85.749">  2  5  1 -1</clus>
<clus scale="  117.016">  7  8 -1 -1</clus>
<clus scale="   65.716">  2  5  1 -1</clus>
</clustering>
</event>
<event>
 9    2  0.4653788E-005  0.9179701E+02  0.7546771E-02  0.1302995E+00
         -1   -1    0    0    0  501 -0.00000000000E+00  0.00000000000E+00  0.52943808092E+02  0.52943808092E+02  0.00000000000E+00 0.  1.
         21   -1    0    0  501  502  0.00000000000E+00 -0.00000000000E+00 -0.32381597445E+03  0.32381597445E+03  0.00000000000E+00 0.  1.
         23    2    1    2    0    0 -0.34659834451E+02 -0.83552469894E+01 -0.23781059068E+02  0.97823355291E+02  0.87936089256E+02 0.  0.
         24    2    1    2    0    0  0.60439118980E+01 -0.23612815544E+02 -0.13603491447E+03  0.15988053277E+03  0.80387765714E+02 0.  0.
        -13    1    4    4    0    0 -0.25077512218E+02 -0.30054330292E+02 -0.11572148561E+03  0.12216221437E+03  0.00000000000E+00 0.  1.
         14    1    4    4    0    0  0.31121424116E+02  0.64415147480E+01 -0.20313428864E+02  0.37718318407E+02  0.00000000000E+00 0. -1.
        -11    1    3    3    0    0 -0.13470690134E+02  0.39907894892E+02 -0.12277866627E+02  0.43873062080E+02  0.00000000000E+00 0. -1.
         11    1    3    3    0    0 -0.21189144317E+02 -0.48263141882E+02 -0.11503192441E+02  0.53950293211E+02  0.00000000000E+00 0.  1.
         -2    1    1    2    0  502  0.28615922553E+02  0.31968062533E+02 -0.11105619282E+03  0.11905589448E+03  0.00000000000E+00 0.  1.
<scales pt_clust_5="13000.00000" pt_clust_6="13000.00000" pt_clust_7="13000.00000" pt_clust_8="13000.00000" pt_clust_9="42.90487"></scales>
<clustering>
<clus scale="   42.905">  2  9  1 -1</clus>
<clus scale="   80.388">  5  6 -1 -1</clus>
<clus scale="   84.594">  2  5  1 -1</clus>
<clus scale="   87.936">  7  8 -1 -1</clus>
<clus scale="   42.905">  2  5  1 -1</clus>
</clustering>
</event>
<event>
 9    2  0.4653788E-005  0.1320531E+03  0.7546771E-02  0.1228237E+00
         -1   -1    0    0    0  501 -0.00000000000E+00  0.00000000000E+00  0.28813235563E+03  0.28813235563E+03  0.00000000000E+00 0.  1.
         21   -1    0    0  501  502  0.00000000000E+00 -0.00000000000E+00 -0.80237914019E+02  0.80237914019E+02  0.00000000000E+00 0. -1.
         23    2    1    2    0    0 -0.72560132434E+02 -0.53682523073E+02  0.14739664698E+03  0.19504927437E+03  0.90397244354E+02 0.  0.
         24    2    1    2    0    0  0.72394270598E+02  0.79740213746E+02  0.65659120341E+02  0.14675654467E+03  0.75012873661E+02 0.  0.
        -11    1    4    4    0    0  0.15246505533E+02  0.21390211998E+02  0.59273989934E+02  0.64833656251E+02  0.00000000000E+00 0.  1.
         12    1    4    4    0    0  0.57147765065E+02  0.58350001748E+02  0.63851304070E+01  0.81922888415E+02  0.00000000000E+00 0. -1.
        -13    1    3    3    0    0 -0.12896761641E+02  0.23592915202E+02  0.15777894715E+02  0.31175215640E+02  0.00000000000E+00 0. -1.
         13    1    3    3    0    0 -0.59663370793E+02 -0.77275438275E+02  0.13161875227E+03  0.16387405873E+03  0.00000000000E+00 0.  1.
         -2    1    1    2    0  502  0.16586183638E+00 -0.26057690673E+02 -0.51613257141E+01  0.26564450615E+02  0.00000000000E+00 0.  1.
<scales pt_clust_5="13000.00000" pt_clust_6="13000.00000" pt_clust_7="13000.00000" pt_clust_8="13000.00000" pt_clust_9="26.05822"></scales>
<clustering>
<clus scale="   26.058">  2  9  1 -1</clus>
<clus scale="   75.013">  5  6 -1 -1</clus>
<clus scale="   90.397">  7  8 -1 -1</clus>
<clus scale="  122.038">  2  5  1 -1</clus>
<clus scale="   26.058">  2  5  1 -1</clus>
</clustering>
</event>
<event>
 9    2  0.4653788E-005  0.9567405E+02  0.7546771E-02  0.1295705E+00
         21   -1    0    0  501  502  0.00000000000E+00  0.00000000000E+00  0.15512564068E+03  0.15512564068E+03  0.00000000000E+00 0. -1.
         -3   -1    0    0    0  501 -0.00000000000E+00 -0.00000000000E+00 -0.99576747221E+02  0.99576747221E+02  0.00000000000E+00 0.  1.
         23    2    1    2    0    0  0.59297884813E+01  0.27578953569E+02 -0.40972813361E+02  0.10380299639E+03  0.91107242049E+02 0.  0.
         24    2    1    2    0    0  0.13601887716E+02 -0.33219088665E+02  0.52636376203E+02  0.10253391061E+03  0.80337385596E+02 0.  0.
        -11    1    4    4    0    0  0.34047662275E+02 -0.63824421914E+01 -0.57366529964E+01  0.35112505783E+02  0.00000000000E+00 0.  1.
         12    1    4    4    0    0 -0.20445774559E+02 -0.26836646473E+02  0.58373029200E+02  0.67421404830E+02  0.00000000000E+00 0. -1.
        -11    1    3    3    0    0 -0.70177339819E+01  0.56340471459E+02 -0.44400743141E+02  0.72075816374E+02  0.00000000000E+00 0.  1.
         11    1    3    3    0    0  0.12947522463E+02 -0.28761517890E+02  0.34279297805E+01  0.31727180018E+02  0.00000000000E+00 0. -1.
         -4    1    1    2    0  502 -0.19531676198E+02  0.56401350960E+01  0.43885330613E+02  0.48365480893E+02  0.00000000000E+00 0.  1.
<scales pt_clust_5="13000.00000" pt_clust_6="13000.00000" pt_clust_7="13000.00000" pt_clust_8="13000.00000" pt_clust_9="20.32972"></scales>
<clustering>
<clus scale="   20.330">  1  9  2 -1</clus>
<clus scale="   80.337">  5  6 -1 -1</clus>
<clus scale="   85.482">  1  5  2 -1</clus>
<clus scale="   91.107">  7  8 -1 -1</clus>
<clus scale="   20.330">  1  5  2 -1</clus>
</clustering>
</event>
<event>
 9    2  0.4653788E-005  0.1608665E+03  0.7546771E-02  0.1190072E+00
          2   -1    0    0  502    0 -0.00000000000E+00  0.00000000000E+00  0.11702999892E+03  0.11702999892E+03  0.00000000000E+00 0. -1.
         21   -1    0    0  501  502  0.00000000000E+00 -0.00000000000E+00 -0.51351293159E+03  0.51351293159E+03  0.00000000000E+00 0. -1.
         24    2    1    2    0    0 -0.76057593437E+02 -0.84572787867E+02 -0.56808023570E+02  0.16498127284E+03  0.10513969222E+03 0.  0.
         23    2    1    2    0    0  0.16552070885E+03  0.46183481021E+01 -0.15260431982E+03  0.24331907212E+03  0.92182743680E+02 0.  0.
        -11    1    3    3    0    0 -0.33871513171E+02  0.21513277757E+02 -0.21251574472E+02  0.45406276459E+02  0.00000000000E+00 0.  1.
         12    1    3    3    0    0 -0.42186080266E+02 -0.10608606562E+03 -0.35556449098E+02  0.11957499638E+03  0.00000000000E+00 0. -1.
        -11    1    4    4    0    0  0.44086352823E+02  0.40241872041E+02 -0.28783535895E+02  0.66268444295E+02  0.00000000000E+00 0.  1.
         11    1    4    4    0    0  0.12143435603E+03 -0.35623523939E+02 -0.12382078393E+03  0.17705062783E+03  0.00000000000E+00 0. -1.
          1    1    1    2  501    0 -0.89463115412E+02  0.79954439765E+02 -0.18707058927E+03  0.22224258554E+03  0.00000000000E+00 0. -1.
<scales pt_clust_5="13000.00000" pt_clust_6="13000.00000" pt_clust_7="13000.00000" pt_clust_8="13000.00000" pt_clust_9="119.98484"></scales>
<clustering>
<clus scale="   92.183">  7  8 -1 -1</clus>
<clus scale="  105.140">  5  6 -1 -1</clus>
<clus scale="  119.985">  2  9  1 -1</clus>
<clus scale="  152.713">  2  7  1 -1</clus>
<clus scale="  119.985">  2  5  1 -1</clus>
</clustering>
</event>
<event>
 9    2  0.4653788E-005  0.9832729E+02  0.7546771E-02  0.1293352E+00
          2   -1    0    0  502    0 -0.00000000000E+00  0.00000000000E+00  0.31997398306E+03  0.31997398306E+03  0.00000000000E+00 0. -1.
         21   -1    0    0  501  502  0.00000000000E+00 -0.00000000000E+00 -0.12376876285E+03  0.12376876285E+03  0.00000000000E+00 0. -1.
         24    2    1    2    0    0  0.37544338578E+02  0.11584630290E+02  0.22753685477E+03  0.24292950565E+03  0.75484723091E+02 0.  0.
         23    2    1    2    0    0 -0.11856041481E+02  0.33687015445E+02  0.44468269235E+02  0.10886197093E+03  0.92726053609E+02 0.  0.
        -11    1    3    3    0    0 -0.48319775235E+01  0.35876931846E+02  0.10107736359E+03  0.10736449914E+03  0.00000000000E+00 0.  1.
         12    1    3    3    0    0  0.42376316101E+02 -0.24292301556E+02  0.12645949118E+03  0.13556500651E+03  0.00000000000E+00 0. -1.
        -13    1    4    4    0    0 -0.23093332635E+02 -0.18443194798E+02  0.46948996933E+02  0.55476677619E+02  0.00000000000E+00 0.  1.
         13    1    4    4    0    0  0.11237291154E+02  0.52130210244E+02 -0.24807276983E+01  0.53385293316E+02  0.00000000000E+00 0. -1.
          1    1    1    2  501    0 -0.25688297097E+02 -0.45271645735E+02 -0.75799903798E+02  0.91951269328E+02  0.00000000000E+00 0. -1.
<scales pt_clust_5="13000.00000" pt_clust_6="13000.00000" pt_clust_7="13000.00000" pt_clust_8="13000.00000" pt_clust_9="52.05200"></scales>
<clustering>
<clus scale="   52.052">  2  9  1 -1</clus>
<clus scale="   75.485">  5  6 -1 -1</clus>
<clus scale="   82.268">  1  5  2 -1</clus>
<clus scale="   92.726">  7  8 -1 -1</clus>
<clus scale="   52.052">  2  5  1 -1</clus>
</clustering>
</event>
<event>
 9    2  0.4653788E-005  0.9537710E+02  0.7546771E-02  0.1295070E+00
          2   -1    0    0  502    0 -0.00000000000E+00  0.00000000000E+00  0.28958637219E+03  0.28958637219E+03  0.00000000000E+00 0. -1.
         21   -1    0    0  501  502  0.00000000000E+00 -0.00000000000E+00 -0.57947942708E+02  0.57947942708E+02  0.00000000000E+00 0.  1.
         23    2    1    2    0    0 -0.32620181022E+01 -0.22845092524E+02  0.90826207381E+02  0.12962343056E+03  0.89556098549E+02 0.  0.
         24    2    1    2    0    0 -0.47268217078E+02  0.38027251635E+02  0.49825972488E+02  0.11273341413E+03  0.80906358918E+02 0.  0.
        -11    1    4    4    0    0 -0.46037585101E+02  0.60364981008E+02  0.26489553119E+02  0.80405762222E+02  0.00000000000E+00 0.  1.
         12    1    4    4    0    0 -0.12306319775E+01 -0.22337729373E+02  0.23336419370E+02  0.32327651904E+02  0.00000000000E+00 0. -1.
        -11    1    3    3    0    0  0.40020232747E+02 -0.16172604473E+02  0.23060143765E+02  0.48938148668E+02  0.00000000000E+00 0.  1.
         11    1    3    3    0    0 -0.43282250849E+02 -0.66724880508E+01  0.67766063616E+02  0.80685281888E+02  0.00000000000E+00 0. -1.
          1    1    1    2  501    0  0.50530235181E+02 -0.15182159111E+02  0.90986249610E+02  0.10517747021E+03  0.00000000000E+00 0. -1.
<scales pt_clust_5="13000.00000" pt_clust_6="13000.00000" pt_clust_7="13000.00000" pt_clust_8="13000.00000" pt_clust_9="52.76178"></scales>
<clustering>
<clus scale="   52.762">  2  9  1 -1</clus>
<clus scale="   80.906">  5  6 -1 -1</clus>
<clus scale="   87.306">  2  5  1 -1</clus>
<clus scale="   89.556">  7  8 -1 -1</clus>
<clus scale="   52.762">  2  5  1 -1</clus>
</clustering>
</event>
<event>
 9    2  0.4653788E-005  0.1055794E+03  0.7546771E-02  0.1274620E+00
         -1   -1    0    0    0  501 -0.00000000000E+00  0.00000000000E+00  0.76823030410E+03  0.76823030410E+03  0.00000000000E+00 0.  1.
         21   -1    0    0  501  502  0.00000000000E+00 -0.00000000000E+00 -0.36458597362E+02  0.36458597362E+02  0.00000000000E+00 0.  1.
         23    2    1    2    0    0  0.52152971639E+02  0.42740376367E+02  0.23818810351E+03  0.26574036550E+03  0.96631759701E+02 0.  0.
         24    2    1    2    0    0  0.40396388499E+02 -0.39427165936E+02  0.13757628299E+03  0.17109316562E+03  0.84612458075E+02 0.  0.
        -11    1    4    4    0    0  0.57256019040E+02 -0.50542888284E+02  0.82462428784E+02  0.11239611841E+03  0.00000000000E+00 0.  1.
         12    1    4    4    0    0 -0.16859630542E+02  0.11115722348E+02  0.55113854205E+02  0.58697047206E+02  0.00000000000E+00 0. -1.
        -11    1    3    3    0    0  0.14289988696E+02  0.64657817226E+02  0.93434569621E+02  0.11452011136E+03  0.00000000000E+00 0.  1.
         11    1    3    3    0    0  0.37862982943E+02 -0.21917440859E+02  0.14475353389E+03  0.15122025415E+03  0.00000000000E+00 0. -1.
         -2    1    1    2    0  502 -0.92549360138E+02 -0.33132104310E+01  0.35600732024E+03  0.36785537034E+03  0.00000000000E+00 0.  1.
<scales pt_clust_5="13000.00000" pt_clust_6="13000.00000" pt_clust_7="13000.00000" pt_clust_8="13000.00000" pt_clust_9="92.60869"></scales>
<clustering>
<clus scale="   84.612">  5  6 -1 -1</clus>
<clus scale="   92.609">  2  9  1 -1</clus>
<clus scale="   94.703">  2  5  1 -1</clus>
<clus scale="   96.632">  7  8 -1 -1</clus>
<clus scale="   92.609">  2  5  1 -1</clus>
</clustering>
</event>
<event>
 9    2  0.4653788E-005  0.1027171E+03  0.7546771E-02  0.1275426E+00
         -1   -1    0    0    0  501 -0.00000000000E+00  0.00000000000E+00  0.20694254534E+03  0.20694254534E+03  0.00000000000E+00 0.  1.
         21   -1    0    0  501  502  0.00000000000E+00 -0.00000000000E+00 -0.92061489489E+02  0.92061489489E+02  0.00000000000E+00 0. -1.
         24    2    1    2    0    0 -0.51112385456E+02  0.12360717055E+02  0.12954736565E+03  0.16758695318E+03  0.92399153977E+02 0.  0.
         23    2    1    2    0    0  0.25389344366E+02 -0.11856174327E+02  0.10301651718E+02  0.95565603176E+02  0.90782557826E+02 0.  0.
        -11    1    3    3    0    0 -0.78923065780E+01 -0.25411333314E+02  0.99103795837E+02  0.10261377448E+03  0.00000000000E+00 0.  1.
         12    1    3    3    0    0 -0.43220078878E+02  0.37772050369E+02  0.30443569818E+02  0.64973178701E+02  0.00000000000E+00 0. -1.
        -13    1    4    4    0    0  0.54186112314E+02 -0.28707075822E+02  0.10425273837E+02  0.62200621416E+02  0.00000000000E+00 0. -1.
         13    1    4    4    0    0 -0.28796767948E+02  0.16850901495E+02 -0.12362211833E+00  0.33364981760E+02  0.00000000000E+00 0.  1.
         -2    1    1    2    0  502  0.25723041090E+02 -0.50454272816E+00 -0.24967961520E+02  0.35851478473E+02  0.00000000000E+00 0.  1.
<scales pt_clust_5="13000.00000" pt_clust_6="13000.00000" pt_clust_7="13000.00000" pt_clust_8="13000.00000" pt_clust_9="25.72799"></scales>
<clustering>
<clus scale="   25.728">  2  9  1 -1</clus>
<clus scale="   90.783">  7  8 -1 -1</clus>
<clus scale="   92.399">  5  6 -1 -1</clus>
<clus scale="  101.265">  2  7  1 -1</clus>
<clus scale="   25.728">  2  5  1 -1</clus>
</clustering>
</event>
<event>
 9    2  0.4653788E-005  0.1268056E+03  0.7546771E-02  0.1235027E+00
         21   -1    0    0  501  502  0.00000000000E+00  0.00000000000E+00  0.41601302204E+02  0.41601302204E+02  0.00000000000E+00 0.  1.
          2   -1    0    0  502    0 -0.00000000000E+00 -0.00000000000E+00 -0.89404081864E+03  0.89404081864E+03  0.00000000000E+00 0. -1.
         24    2    1    2    0    0  0.83094057663E+02 -0.17898021608E+01 -0.61368002340E+03  0.62450280716E+03  0.80577659522E+02 0.  0.
         23    2    1    2    0    0 -0.10899362332E+03  0.31965218628E+02 -0.22726830241E+03  0.26974618959E+03  0.90613135864E+02 0.  0.
        -11    1    3    3    0    0  0.64200081724E+02  0.81322370329E+01 -0.19865848572E+03  0.20893295030E+03  0.00000000000E+00 0.  1.
         12    1    3    3    0    0  0.18893975939E+02 -0.99220391936E+01 -0.41502153768E+03  0.41556985686E+03  0.00000000000E+00 0. -1.
        -11    1    4    4    0    0 -0.82760005579E+02  0.63265966982E+02 -0.15543008569E+03  0.18711042899E+03  0.00000000000E+00 0.  1.
         11    1    4    4    0    0 -0.26233617745E+02 -0.31300748354E+02 -0.71838216719E+02  0.82635760593E+02  0.00000000000E+00 0. -1.
          1    1    1    2  501    0  0.25899565661E+02 -0.30175416467E+02 -0.11491190623E+02  0.41393124095E+02  0.00000000000E+00 0. -1.
<scales pt_clust_5="13000.00000" pt_clust_6="13000.00000" pt_clust_7="13000.00000" pt_clust_8="13000.00000" pt_clust_9="39.76611"></scales>
<clustering>
<clus scale="   39.766">  1  9  2 -1</clus>
<clus scale="   80.578">  5  6 -1 -1</clus>
<clus scale="   90.613">  7  8 -1 -1</clus>
<clus scale="  119.840">  2  5  1 -1</clus>
<clus scale="   39.766">  1  5  2 -1</clus>
</clustering>
</event>
<event>
 9    2  0.4653788E-005  0.1187213E+03  0.7546771E-02  0.1270656E+00
          2   -1    0    0  502    0 -0.00000000000E+00  0.00000000000E+00  0.24683171436E+03  0.24683171436E+03  0.00000000000E+00 0. -1.
         21   -1    0    0  501  502  0.00000000000E+00 -0.00000000000E+00 -0.11866469019E+03  0.11866469019E+03  0.00000000000E+00 0. -1.
         24    2    1    2    0    0 -0.22641281369E+01  0.11254118798E+02  0.11265099379E+03  0.13363541837E+03  0.70967578336E+02 0.  0.
         23    2    1    2    0    0 -0.28266805185E+01  0.62892219693E+02  0.75865902324E+02  0.13612330870E+03  0.93864256329E+02 0.  0.
        -11    1    3    3    0    0 -0.33847441422E+02  0.17568604676E+02  0.74606468112E+02  0.83788007765E+02  0.00000000000E+00 0.  1.
         12    1    3    3    0    0  0.31583313285E+02 -0.63144858780E+01  0.38044525681E+02  0.49847410607E+02  0.00000000000E+00 0. -1.
        -13    1    4    4    0    0 -0.10162413660E+02 -0.19702268601E+02  0.40098171613E+02  0.45818308635E+02  0.00000000000E+00 0.  1.
         13    1    4    4    0    0  0.73357331410E+01  0.82594488293E+02  0.35767730711E+02  0.90305000068E+02  0.00000000000E+00 0. -1.
          1    1    1    2  501    0  0.50908086554E+01 -0.74146338490E+02 -0.60349871949E+02  0.95737677477E+02  0.00000000000E+00 0. -1.
<scales pt_clust_5="13000.00000" pt_clust_6="13000.00000" pt_clust_7="13000.00000" pt_clust_8="13000.00000" pt_clust_9="72.69288"></scales>
<clustering>
<clus scale="   70.968">  5  6 -1 -1</clus>
<clus scale="   71.890">  1  5  2 -1</clus>
<clus scale="   72.693">  2  9  1 -1</clus>
<clus scale="   93.864">  7  8 -1 -1</clus>
<clus scale="   72.693">  2  5  1 -1</clus>
</clustering>
</event>
<event>
 9    2  0.4653788E-005  0.9231055E+02  0.7546771E-02  0.1304636E+00
          2   -1    0    0  502    0 -0.00000000000E+00  0.00000000000E+00  0.47469640244E+03  0.47469640244E+03  0.00000000000E+00 0. -1.
         21   -1    0    0  501  502  0.00000000000E+00 -0.00000000000E+00 -0.39125282049E+02  0.39125282049E+02  0.00000000000E+00 0.  1.
         24    2    1    2    0    0  0.29014000947E+00  0.13995319579E+02  0.34657583273E+03  0.35594900234E+03  0.79930790604E+02 0.  0.
         23    2    1    2    0    0 -0.25887970207E+02  0.90543369103E+01  0.60451327331E+02  0.11313686600E+03  0.91615607041E+02 0.  0.
        -11    1    3    3    0    0 -0.17250208906E+02 -0.26872232051E+02  0.88844989922E+02  0.94409315203E+02  0.00000000000E+00 0.  1.
         12    1    3    3    0    0  0.17540348916E+02  0.40867551630E+02  0.25773084280E+03  0.26153968714E+03  0.00000000000E+00 0. -1.
        -13    1    4    4    0    0 -0.10070846754E+02  0.42024619716E+02  0.86345902091E+00  0.43223097738E+02  0.00000000000E+00 0.  1.
         13    1    4    4    0    0 -0.15817123453E+02 -0.32970282805E+02  0.59587868310E+02  0.69913768260E+02  0.00000000000E+00 0. -1.
          1    1    1    2  501    0  0.25597830198E+02 -0.23049656489E+02  0.28543960337E+02  0.44735816152E+02  0.00000000000E+00 0. -1.
<scales pt_clust_5="13000.00000" pt_clust_6="13000.00000" pt_clust_7="13000.00000" pt_clust_8="13000.00000" pt_clust_9="34.44613"></scales>
<clustering>
<clus scale="   34.446">  2  9  1 -1</clus>
<clus scale="   79.931">  5  6 -1 -1</clus>
<clus scale="   80.726">  1  5  2 -1</clus>
<clus scale="   91.616">  7  8 -1 -1</clus>
<clus scale="   34.446">  2  5  1 -1</clus>
</clustering>
</event>
<event>
 9    2  0.4653788E-005  0.1536798E+03  0.7546771E-02  0.1197346E+00
          2   -1    0    0  502    0 -0.00000000000E+00  0.00000000000E+00  0.41739558797E+03  0.41739558797E+03  0.00000000000E+00 0. -1.
         21   -1    0    0  501  502  0.00000000000E+00 -0.00000000000E+00 -0.97460136348E+02  0.97460136348E+02  0.00000000000E+00 0.  1.
         24    2    1    2    0    0  0.17919957379E+02 -0.10440134923E+03  0.19158599197E+03  0.23969518155E+03  0.97610558587E+02 0.  0.
         23    2    1    2    0    0 -0.10876066816E+02  0.13706479528E+03  0.15968001799E+03  0.22935529212E+03  0.90559897012E+02 0.  0.
        -13    1    3    3    0    0  0.53902957210E+02 -0.88201263000E+02  0.15184893387E+03  0.18369292395E+03  0.00000000000E+00 0.  1.
         14    1    3    3    0    0 -0.35982999831E+02 -0.16200086231E+02  0.39737058100E+02  0.56002257608E+02  0.00000000000E+00 0. -1.
        -11    1    4    4    0    0  0.38337502561E+02  0.83546120024E+02  0.87862068568E+02  0.12715919694E+03  0.00000000000E+00 0.  1.
         11    1    4    4    0    0 -0.49213569377E+02  0.53518675251E+02  0.71817949418E+02  0.10219609518E+03  0.00000000000E+00 0. -1.
          1    1    1    2  501    0 -0.70438905632E+01 -0.32663446044E+02 -0.31330558328E+02  0.45805250647E+02  0.00000000000E+00 0. -1.
<scales pt_clust_5="13000.00000" pt_clust_6="13000.00000" pt_clust_7="13000.00000" pt_clust_8="13000.00000" pt_clust_9="33.41432"></scales>
<clustering>
<clus scale="   33.414">  2  9  1 -1</clus>
<clus scale="   90.560">  7  8 -1 -1</clus>
<clus scale="   97.611">  5  6 -1 -1</clus>
<clus scale="  149.301">  2  7  1 -1</clus>
<clus scale="   33.414">  2  5  1 -1</clus>
</clustering>
</event>
<event>
 9    2  0.4653788E-005  0.1060404E+03  0.7546771E-02  0.1271641E+00
         21   -1    0    0  501  502  0.00000000000E+00  0.00000000000E+00  0.22426960524E+03  0.22426960524E+03  0.00000000000E+00 0. -1.
          2   -1    0    0  502    0 -0.00000000000E+00 -0.00000000000E+00 -0.11491076869E+03  0.11491076869E+03  0.00000000000E+00 0. -1.
         23    2    1    2    0    0  0.20619980338E+02  0.54244896252E+02 -0.36420000061E+01  0.10995550530E+03  0.93323398050E+02 0.  0.
         24    2    1    2    0    0 -0.18840452199E+02 -0.20925885639E+02  0.15284735342E+03  0.17725306768E+03  0.85226059539E+02 0.  0.
        -11    1    4    4    0    0  0.15583276188E+01  0.31646511788E+02  0.72194205970E+02  0.78841191448E+02  0.00000000000E+00 0.  1.
         12    1    4    4    0    0 -0.20398779818E+02 -0.52572397427E+02  0.80653147448E+02  0.98411876227E+02  0.00000000000E+00 0. -1.
        -11    1    3    3    0    0 -0.59397309100E+01  0.59001935805E+02 -0.34784941920E+02  0.68749552845E+02  0.00000000000E+00 0. -1.
         11    1    3    3    0    0  0.26559711248E+02 -0.47570395527E+01  0.31142941914E+02  0.41205952457E+02  0.00000000000E+00 0.  1.
          1    1    1    2  501    0 -0.17795281389E+01 -0.33319010613E+02 -0.39846516861E+02  0.51971800956E+02  0.00000000000E+00 0. -1.
<scales pt_clust_5="13000.00000" pt_clust_6="13000.00000" pt_clust_7="13000.00000" pt_clust_8="13000.00000" pt_clust_9="33.36651"></scales>
<clustering>
<clus scale="   33.367">  1  9  2 -1</clus>
<clus scale="   85.226">  5  6 -1 -1</clus>
<clus scale="   93.323">  7  8 -1 -1</clus>
<clus scale="   98.989">  1  5  2 -1</clus>
<clus scale="   33.367">  1  5  2 -1</clus>
</clustering>
</event>
<event>
 9    2  0.7215004E-005  0.2762061E+03  0.7546771E-02  0.1122634E+00
         21   -1    0    0  501  502  0.00000000000E+00  0.00000000000E+00  0.31828697918E+03  0.31828697918E+03  0.00000000000E+00 0.  1.
         -1   -1    0    0    0  501 -0.00000000000E+00 -0.00000000000E+00 -0.45743166135E+03  0.45743166135E+03  0.00000000000E+00 0.  1.
         23    2    1    2    0    0  0.52757318528E+02  0.10323934290E+03 -0.88741645363E+02  0.17143191086E+03  0.89844999086E+02 0.  0.
         24    2    1    2    0    0 -0.95962337272E+02  0.22031460986E+03  0.58899359917E+02  0.26004720852E+03  0.80050724972E+02 0.  0.
        -13    1    4    4    0    0 -0.93663536135E+02  0.20876412378E+03  0.32460388787E+02  0.23110386024E+03  0.00000000000E+00 0.  1.
         14    1    4    4    0    0 -0.22988011373E+01  0.11550486087E+02  0.26438971130E+02  0.28943348285E+02  0.00000000000E+00 0. -1.
        -13    1    3    3    0    0  0.21450642100E+02  0.99381134499E+02 -0.95144435494E+02  0.13924512037E+03  0.00000000000E+00 0.  1.
         13    1    3    3    0    0  0.31306676428E+02  0.38582083983E+01  0.64027901308E+01  0.32186790496E+02  0.00000000000E+00 0. -1.
         -2    1    1    2    0  502  0.43205018744E+02 -0.32355395276E+03 -0.10930239672E+03  0.34423952115E+03  0.00000000000E+00 0.  1.
<scales pt_clust_5="13000.00000" pt_clust_6="13000.00000" pt_clust_7="13000.00000" pt_clust_8="13000.00000" pt_clust_9="264.35161"></scales>
<clustering>
<clus scale="   80.051">  5  6 -1 -1</clus>
<clus scale="   89.845">  7  8 -1 -1</clus>
<clus scale="  146.676">  2  7  1 -1</clus>
<clus scale="  264.352">  1  9  2 -1</clus>
<clus scale="  264.352">  1  5  2 -1</clus>
</clustering>
</event>
<event>
 9    2  0.4653788E-005  0.8858509E+02  0.7546771E-02  0.1310698E+00
         -1   -1    0    0    0  501 -0.00000000000E+00  0.00000000000E+00  0.31615435681E+03  0.31615435681E+03  0.00000000000E+00 0.  1.
         21   -1    0    0  501  502  0.00000000000E+00 -0.00000000000E+00 -0.23152305386E+03  0.23152305386E+03  0.00000000000E+00 0.  1.
         23    2    1    2    0    0 -0.13396852997E+01  0.89576615099E+01  0.22373395843E+03  0.24067412949E+03  0.88233315664E+02 0.  0.
         24    2    1    2    0    0 -0.36891878424E+02  0.25244686441E+02  0.53840623471E+02  0.10735718941E+03  0.81415284163E+02 0.  0.
        -13    1    4    4    0    0 -0.60722535762E+02  0.59340890244E+01  0.43716317646E+02  0.75057019595E+02  0.00000000000E+00 0.  1.
         14    1    4    4    0    0  0.23830657338E+02  0.19310597416E+02  0.10124305825E+02  0.32300169816E+02  0.00000000000E+00 0. -1.
        -13    1    3    3    0    0 -0.25693188598E+02  0.39880435686E+02  0.97197814926E+02  0.10815731282E+03  0.00000000000E+00 0.  1.
         13    1    3    3    0    0  0.24353503299E+02 -0.30922774176E+02  0.12653614350E+03  0.13251681666E+03  0.00000000000E+00 0. -1.
         -2    1    1    2    0  502  0.38231563724E+02 -0.34202347951E+02 -0.19294327895E+03  0.19964609178E+03  0.00000000000E+00 0.  1.
<scales pt_clust_5="13000.00000" pt_clust_6="13000.00000" pt_clust_7="13000.00000" pt_clust_8="13000.00000" pt_clust_9="51.29769"></scales>
<clustering>
<clus scale="   51.298">  2  9  1 -1</clus>
<clus scale="   81.415">  5  6 -1 -1</clus>
<clus scale="   81.796">  2  5  1 -1</clus>
<clus scale="   88.233">  7  8 -1 -1</clus>
<clus scale="   51.298">  2  5  1 -1</clus>
</clustering>
</event>
<event>
 9    2  0.4790240E-005  0.1178419E+03  0.7546771E-02  0.1255409E+00
         21   -1    0    0  501  502  0.00000000000E+00  0.00000000000E+00  0.18431533772E+03  0.18431533772E+03  0.00000000000E+00 0. -1.
          2   -1    0    0  502    0 -0.00000000000E+00 -0.00000000000E+00 -0.10420312156E+04  0.10420312156E+04  0.00000000000E+00 0. -1.
         24    2    1    2    0    0 -0.15614511768E+02  0.54670968287E+02 -0.96940196711E+03  0.97440241197E+03  0.80542900825E+02 0.  0.
         23    2    1    2    0    0  0.30276539894E+01 -0.79525640117E+02 -0.68638068228E+01  0.13016457994E+03  0.10277262234E+03 0.  0.
        -13    1    3    3    0    0 -0.23439754726E+02 -0.20801667046E+01 -0.86498157524E+02  0.89641956974E+02  0.00000000000E+00 0.  1.
         14    1    3    3    0    0  0.78252429584E+01  0.56751134991E+02 -0.88290380959E+03  0.88476045500E+03  0.00000000000E+00 0. -1.
        -13    1    4    4    0    0 -0.43039708462E+02 -0.25333993104E+02 -0.26281695188E+02  0.56435407441E+02  0.00000000000E+00 0. -1.
         13    1    4    4    0    0  0.46067362451E+02 -0.54191647013E+02  0.19417888366E+02  0.73729172502E+02  0.00000000000E+00 0.  1.
          1    1    1    2  501    0  0.12586857778E+02  0.24854671831E+02  0.11854989610E+03  0.12177956136E+03  0.00000000000E+00 0. -1.
<scales pt_clust_5="13000.00000" pt_clust_6="13000.00000" pt_clust_7="13000.00000" pt_clust_8="13000.00000" pt_clust_9="27.86007"></scales>
<clustering>
<clus scale="   27.860">  1  9  2 -1</clus>
<clus scale="   80.543">  5  6 -1 -1</clus>
<clus scale="   99.054">  2  5  1 -1</clus>
<clus scale="  102.773">  7  8 -1 -1</clus>
<clus scale="   27.860">  1  5  2 -1</clus>
</clustering>
</event>
<event>
 9    2  0.4653788E-005  0.1093498E+03  0.7546771E-02  0.1265288E+00
         -1   -1    0    0    0  501 -0.00000000000E+00  0.00000000000E+00  0.27348654068E+03  0.27348654068E+03  0.00000000000E+00 0.  1.
         21   -1    0    0  501  502  0.00000000000E+00 -0.00000000000E+00 -0.15316689911E+03  0.15316689911E+03  0.00000000000E+00 0.  1.
         23    2    1    2    0    0 -0.16752694386E+02 -0.34561954783E+02  0.90249053915E+02  0.13322039527E+03  0.90153205691E+02 0.  0.
         24    2    1    2    0    0  0.72521401431E+02  0.56172026329E+02  0.12895161085E+03  0.17787093728E+03  0.81209003079E+02 0.  0.
        -13    1    4    4    0    0  0.37429291508E+02  0.23989038096E+02  0.12187821209E+03  0.12973328175E+03  0.00000000000E+00 0.  1.
         14    1    4    4    0    0  0.35092109924E+02  0.32182988233E+02  0.70733987678E+01  0.48137655537E+02  0.00000000000E+00 0. -1.
        -13    1    3    3    0    0 -0.17806115723E+02 -0.65058216278E+02  0.63613415182E+02  0.92716211385E+02  0.00000000000E+00 0.  1.
         13    1    3    3    0    0  0.10534213368E+01  0.30496261495E+02  0.26635638733E+02  0.40504183887E+02  0.00000000000E+00 0. -1.
         -2    1    1    2    0  502 -0.55768707045E+02 -0.21610071547E+02 -0.98881023206E+02  0.11556210723E+03  0.00000000000E+00 0.  1.
<scales pt_clust_5="13000.00000" pt_clust_6="13000.00000" pt_clust_7="13000.00000" pt_clust_8="13000.00000" pt_clust_9="59.80923"></scales>
<clustering>
<clus scale="   59.809">  2  9  1 -1</clus>
<clus scale="   81.209">  5  6 -1 -1</clus>
<clus scale="   90.153">  7  8 -1 -1</clus>
<clus scale="  102.101">  2  5  1 -1</clus>
<clus scale="   59.809">  2  5  1 -1</clus>
</clustering>
</event>
<event>
 9    2  0.4653788E-005  0.4553633E+03  0.7546771E-02  0.1026135E+00
         21   -1    0    0  501  502  0.00000000000E+00  0.00000000000E+00  0.67734381533E+03  0.67734381533E+03  0.00000000000E+00 0. -1.
          2   -1    0    0  502    0 -0.00000000000E+00 -0.00000000000E+00 -0.27836511138E+03  0.27836511138E+03  0.00000000000E+00 0. -1.
         24    2    1    2    0    0 -0.11270258488E+03  0.23646469628E+03  0.13451104151E+03  0.30572985577E+03  0.82219822378E+02 0.  0.
         23    2    1    2    0    0 -0.46608413498E+02  0.11892666139E+03 -0.30656966635E+02  0.16132627191E+03  0.93650528072E+02 0.  0.
        -11    1    3    3    0    0  0.11100210611E+01  0.62638231108E+02  0.98163389549E+01  0.63412464496E+02  0.00000000000E+00 0.  1.
         12    1    3    3    0    0 -0.11381260594E+03  0.17382646518E+03  0.12469470256E+03  0.24231739127E+03  0.00000000000E+00 0. -1.
        -11    1    4    4    0    0  0.18684143607E+02  0.41819502596E+02 -0.38706990761E+02  0.59968317914E+02  0.00000000000E+00 0.  1.
         11    1    4    4    0    0 -0.65292557105E+02  0.77107158792E+02  0.80500241255E+01  0.10135795400E+03  0.00000000000E+00 0. -1.
          1    1    1    2  501    0  0.15931099838E+03 -0.35539135767E+03  0.29512462908E+03  0.48865279903E+03  0.00000000000E+00 0. -1.
<scales pt_clust_5="13000.00000" pt_clust_6="13000.00000" pt_clust_7="13000.00000" pt_clust_8="13000.00000" pt_clust_9="389.46503"></scales>
<clustering>
<clus scale="   82.220">  5  6 -1 -1</clus>
<clus scale="   93.651">  7  8 -1 -1</clus>
<clus scale="  140.513">  5  7 -1 -1</clus>
<clus scale="  389.465">  1  9  2 -1</clus>
<clus scale="  389.465">  1  5  2 -1</clus>
</clustering>
</event>
<event>
 9    2  0.4653788E-005  0.1249310E+03  0.7546771E-02  0.1238862E+00
         21   -1    0    0  501  502  0.00000000000E+00  0.00000000000E+00  0.32116744832E+03  0.32116744832E+03  0.00000000000E+00 0.  1.
         -1   -1    0    0    0  501 -0.00000000000E+00 -0.00000000000E+00 -0.94083860144E+02  0.94083860144E+02  0.00000000000E+00 0.  1.
         24    2    1    2    0    0 -0.91444041633E+02  0.50352765774E+02  0.92437733089E+02  0.16087191297E+03  0.80234806126E+02 0.  0.
         23    2    1    2    0    0  0.67748954921E+02  0.17330678114E+02  0.14060490977E+03  0.18242096275E+03  0.92829918134E+02 0.  0.
        -13    1    3    3    0    0 -0.33064227366E+02  0.42618172633E+02  0.33044913368E+01  0.54041386297E+02  0.00000000000E+00 0.  1.
         14    1    3    3    0    0 -0.58379814267E+02  0.77345931414E+01  0.89133241753E+02  0.10683052668E+03  0.00000000000E+00 0. -1.
        -13    1    4    4    0    0 -0.11660509416E+02  0.19507111159E+02  0.78100146930E+02  0.81339583329E+02  0.00000000000E+00 0.  1.
         13    1    4    4    0    0  0.79409464337E+02 -0.21764330446E+01  0.62504762840E+02  0.10108137942E+03  0.00000000000E+00 0. -1.
         -2    1    1    2    0  502  0.23695086712E+02 -0.67683443889E+02 -0.59590546790E+01  0.71958432748E+02  0.00000000000E+00 0.  1.
<scales pt_clust_5="13000.00000" pt_clust_6="13000.00000" pt_clust_7="13000.00000" pt_clust_8="13000.00000" pt_clust_9="71.71130"></scales>
<clustering>
<clus scale="   71.711">  1  9  2 -1</clus>
<clus scale="   80.235">  5  6 -1 -1</clus>
<clus scale="   92.830">  7  8 -1 -1</clus>
<clus scale="  115.879">  2  5  1 -1</clus>
<clus scale="   71.711">  1  5  2 -1</clus>
</clustering>
</event>
<event>
 9    2  0.4653788E-005  0.1132376E+03  0.7546771E-02  0.1257191E+00
         21   -1    0    0  501  502  0.00000000000E+00  0.00000000000E+00  0.64232803871E+03  0.64232803871E+03  0.00000000000E+00 0.  1.
         -1   -1    0    0    0  501 -0.00000000000E+00 -0.00000000000E+00 -0.16641549955E+03  0.16641549955E+03  0.00000000000E+00 0.  1.
         24    2    1    2    0    0 -0.80407996310E+02  0.16688568492E+02 -0.58914572377E+02  0.13146829595E+03  0.84077534533E+02 0.  0.
         23    2    1    2    0    0  0.37807364642E+02  0.80387205085E+02 -0.48828199844E+01  0.12725221569E+03  0.90982332928E+02 0.  0.
        -11    1    3    3    0    0  0.89830271335E+00  0.26520045165E+02 -0.39020508687E+02  0.47188132422E+02  0.00000000000E+00 0.  1.
         12    1    3    3    0    0 -0.81306299024E+02 -0.98314766732E+01 -0.19894063690E+02  0.84280163530E+02  0.00000000000E+00 0. -1.
        -11    1    4    4    0    0 -0.49231608482E+01  0.76730502062E+02  0.17531125286E+02  0.78861573743E+02  0.00000000000E+00 0.  1.
         11    1    4    4    0    0  0.42730525490E+02  0.36567030231E+01 -0.22413945270E+02  0.48390641949E+02  0.00000000000E+00 0. -1.
         -2    1    1    2    0  502  0.42600631668E+02 -0.97075773577E+02  0.53970993152E+03  0.55002302662E+03  0.00000000000E+00 0.  1.
<scales pt_clust_5="13000.00000" pt_clust_6="13000.00000" pt_clust_7="13000.00000" pt_clust_8="13000.00000" pt_clust_9="106.01188"></scales>
<clustering>
<clus scale="   84.078">  5  6 -1 -1</clus>
<clus scale="   90.982">  7  8 -1 -1</clus>
<clus scale="  106.012">  1  9  2 -1</clus>
<clus scale="  107.768">  2  5  1 -1</clus>
<clus scale="  106.012">  1  5  2 -1</clus>
</clustering>
</event>
<event>
 9    2  0.4653788E-005  0.9954911E+02  0.7546771E-02  0.1290668E+00
          2   -1    0    0  502    0 -0.00000000000E+00  0.00000000000E+00  0.48540200151E+03  0.48540200151E+03  0.00000000000E+00 0. -1.
         21   -1    0    0  501  502  0.00000000000E+00 -0.00000000000E+00 -0.30716116544E+03  0.30716116544E+03  0.00000000000E+00 0. -1.
         23    2    1    2    0    0  0.20728984282E+02  0.17529515476E+02  0.46823192618E+03  0.47870044300E+03  0.95791454401E+02 0.  0.
         24    2    1    2    0    0 -0.34294358699E+02  0.18048086246E+01 -0.15898929709E+03  0.18074884321E+03  0.78823774084E+02 0.  0.
        -11    1    4    4    0    0 -0.51430205430E+02  0.48575941734E+01 -0.15430662953E+03  0.16272430110E+03  0.00000000000E+00 0.  1.
         12    1    4    4    0    0  0.17135846731E+02 -0.30527855488E+01 -0.46826675561E+01  0.18024542109E+02  0.00000000000E+00 0. -1.
        -11    1    3    3    0    0  0.28988740065E+02  0.54093488246E+02  0.26223757230E+03  0.26932322003E+03  0.00000000000E+00 0. -1.
         11    1    3    3    0    0 -0.82597557830E+01 -0.36563972770E+02  0.20599435388E+03  0.20937722297E+03  0.00000000000E+00 0.  1.
          1    1    1    2  501    0  0.13565374417E+02 -0.19334324100E+02 -0.13100179302E+03  0.13311388074E+03  0.00000000000E+00 0. -1.
<scales pt_clust_5="13000.00000" pt_clust_6="13000.00000" pt_clust_7="13000.00000" pt_clust_8="13000.00000" pt_clust_9="23.61854"></scales>
<clustering>
<clus scale="   23.619">  2  9  1 -1</clus>
<clus scale="   78.824">  5  6 -1 -1</clus>
<clus scale="   83.350">  2  5  1 -1</clus>
<clus scale="   95.791">  7  8 -1 -1</clus>
<clus scale="   23.619">  2  5  1 -1</clus>
</clustering>
</event>
<event>
 9    2  0.4653788E-005  0.1161904E+03  0.7546771E-02  0.1252475E+00
         -1   -1    0    0    0  501 -0.00000000000E+00  0.00000000000E+00  0.28173623970E+03  0.28173623970E+03  0.00000000000E+00 0.  1.
         21   -1    0    0  501  502  0.00000000000E+00 -0.00000000000E+00 -0.10921678454E+03  0.10921678454E+03  0.00000000000E+00 0.  1.
         23    2    1    2    0    0  0.54160523393E+02 -0.55743502276E+02  0.20445637047E+03  0.23670283118E+03  0.90471666953E+02 0.  0.
         24    2    1    2    0    0 -0.64032891010E+02  0.12183271074E+02 -0.11673465036E+02  0.10520363557E+03  0.81748956722E+02 0.  0.
        -13    1    4    4    0    0 -0.64277918890E+01 -0.30361989614E+02  0.56013747996E+01  0.31536365065E+02  0.00000000000E+00 0.  1.
         14    1    4    4    0    0 -0.57605099121E+02  0.42545260688E+02 -0.17274839836E+02  0.73667270501E+02  0.00000000000E+00 0. -1.
        -11    1    3    3    0    0  0.52938110331E+02 -0.26510805819E+01  0.15619362523E+03  0.16494217265E+03  0.00000000000E+00 0.  1.
         11    1    3    3    0    0  0.12224130622E+01 -0.53092421694E+02  0.48262745238E+02  0.71760658532E+02  0.00000000000E+00 0. -1.
         -2    1    1    2    0  502  0.98723676169E+01  0.43560231202E+02 -0.20263450274E+02  0.49046557492E+02  0.00000000000E+00 0.  1.
<scales pt_clust_5="13000.00000" pt_clust_6="13000.00000" pt_clust_7="13000.00000" pt_clust_8="13000.00000" pt_clust_9="44.66495"></scales>
<clustering>
<clus scale="   44.665">  2  9  1 -1</clus>
<clus scale="   81.749">  5  6 -1 -1</clus>
<clus scale="   90.472">  7  8 -1 -1</clus>
<clus scale="  109.535">  2  5  1 -1</clus>
<clus scale="   44.665">  2  5  1 -1</clus>
</clustering>
</event>
<event>
 9    2  0.4653788E-005  0.1840179E+03  0.7546771E-02  0.1177178E+00
         21   -1    0    0  501  502  0.00000000000E+00  0.00000000000E+00  0.27623722865E+03  0.27623722865E+03  0.00000000000E+00 0.  1.
         -3   -1    0    0    0  501 -0.00000000000E+00 -0.00000000000E+00 -0.25200741966E+03  0.25200741966E+03  0.00000000000E+00 0.  1.
         24    2    1    2    0    0 -0.10251940981E+02 -0.10916220248E+03 -0.59521313295E+02  0.14852400342E+03  0.80592208751E+02 0.  0.
         23    2    1    2    0    0  0.14029208902E+03 -0.16591738649E+02 -0.22880483322E+02  0.16973304257E+03  0.91261345538E+02 0.  0.
        -13    1    3    3    0    0 -0.44771460129E+02 -0.50150386527E+02 -0.23270717365E+02  0.71141206045E+02  0.00000000000E+00 0.  1.
         14    1    3    3    0    0  0.34519519148E+02 -0.59011815953E+02 -0.36250595930E+02  0.77382797375E+02  0.00000000000E+00 0. -1.
        -13    1    4    4    0    0  0.13198839491E+03  0.57559136447E+01  0.60412645768E+01  0.13225189530E+03  0.00000000000E+00 0.  1.
         13    1    4    4    0    0  0.83036941082E+01 -0.22347652294E+02 -0.28921747898E+02  0.37481147266E+02  0.00000000000E+00 0. -1.
         -4    1    1    2    0  502 -0.13004014804E+03  0.12575394113E+03  0.10663160561E+03  0.20998760231E+03  0.00000000000E+00 0.  1.
<scales pt_clust_5="13000.00000" pt_clust_6="13000.00000" pt_clust_7="13000.00000" pt_clust_8="13000.00000" pt_clust_9="159.79347"></scales>
<clustering>
<clus scale="   80.592">  5  6 -1 -1</clus>
<clus scale="   91.261">  7  8 -1 -1</clus>
<clus scale="  136.076">  2  5  1 -1</clus>
<clus scale="  159.793">  1  9  2 -1</clus>
<clus scale="  159.793">  1  5  2 -1</clus>
</clustering>
</event>
<event>
 9    2  0.4653788E-005  0.9900040E+02  0.7546771E-02  0.1285607E+00
         21   -1    0    0  501  502  0.00000000000E+00  0.00000000000E+00  0.10177863407E+03  0.10177863407E+03  0.00000000000E+00 0. -1.
         -3   -1    0    0    0  501 -0.00000000000E+00 -0.00000000000E+00 -0.14099155092E+03  0.14099155092E+03  0.00000000000E+00 0.  1.
         23    2    1    2    0    0  0.26010732050E+02 -0.24392128515E+02 -0.63655851544E+02  0.11542949154E+03  0.89444764883E+02 0.  0.
         24    2    1    2    0    0 -0.45986901033E+02  0.36462962276E+02  0.19742976234E+02  0.10353225032E+03  0.82974689279E+02 0.  0.
        -11    1    4    4    0    0 -0.19846978648E+02  0.19640850666E+02 -0.32433941421E+02  0.42797501474E+02  0.00000000000E+00 0.  1.
         12    1    4    4    0    0 -0.26139922385E+02  0.16822111610E+02  0.52176917655E+02  0.60734748845E+02  0.00000000000E+00 0. -1.
        -13    1    3    3    0    0  0.51096614569E+02 -0.35971597468E+02 -0.61564226747E+02  0.87721000107E+02  0.00000000000E+00 0. -1.
         13    1    3    3    0    0 -0.25085882519E+02  0.11579468952E+02 -0.20916247973E+01  0.27708491429E+02  0.00000000000E+00 0.  1.
         -4    1    1    2    0  502  0.19976168983E+02 -0.12070833760E+02  0.46999584624E+01  0.23808443134E+02  0.00000000000E+00 0.  1.
<scales pt_clust_5="13000.00000" pt_clust_6="13000.00000" pt_clust_7="13000.00000" pt_clust_8="13000.00000" pt_clust_9="23.33993"></scales>
<clustering>
<clus scale="   23.340">  1  9  2 -1</clus>
<clus scale="   82.975">  5  6 -1 -1</clus>
<clus scale="   89.445">  7  8 -1 -1</clus>
<clus scale="   93.196">  1  5  2 -1</clus>
<clus scale="   23.340">  1  5  2 -1</clus>
</clustering>
</event>
<event>
 9    2  0.4653788E-005  0.1286573E+03  0.7546771E-02  0.1232500E+00
         21   -1    0    0  501  502  0.00000000000E+00  0.00000000000E+00  0.98653213020E+02  0.98653213020E+02  0.00000000000E+00 0.  1.
         -1   -1    0    0    0  501 -0.00000000000E+00 -0.00000000000E+00 -0.32413983090E+03  0.32413983090E+03  0.00000000000E+00 0.  1.
         23    2    1    2    0    0  0.49356661496E+02  0.69102639969E+02 -0.21484782953E+03  0.24883085712E+03  0.92444311446E+02 0.  0.
         24    2    1    2    0    0 -0.37090332370E+02 -0.10046973748E+03 -0.26066157051E+02  0.13691679111E+03  0.81221316406E+02 0.  0.
        -11    1    4    4    0    0 -0.50153288911E+02 -0.10787275596E+03 -0.19585918280E+02  0.12056322848E+03  0.00000000000E+00 0.  1.
         12    1    4    4    0    0  0.13062956541E+02  0.74030184741E+01 -0.64802387710E+01  0.16353562629E+02  0.00000000000E+00 0. -1.
        -11    1    3    3    0    0  0.23548459030E+02 -0.80526350628E+01 -0.12569902128E+03  0.12813906042E+03  0.00000000000E+00 0. -1.
         11    1    3    3    0    0  0.25808202467E+02  0.77155275032E+02 -0.89148808249E+02  0.12069179671E+03  0.00000000000E+00 0.  1.
         -2    1    1    2    0  502 -0.12266329126E+02  0.31367097516E+02  0.15427368698E+02  0.37045395689E+02  0.00000000000E+00 0.  1.
<scales pt_clust_5="13000.00000" pt_clust_6="13000.00000" pt_clust_7="13000.00000" pt_clust_8="13000.00000" pt_clust_9="33.68023"></scales>
<clustering>
<clus scale="   33.680">  1  9  2 -1</clus>
<clus scale="   81.221">  5  6 -1 -1</clus>
<clus scale="   92.444">  7  8 -1 -1</clus>
<clus scale="  120.846">  1  5  2 -1</clus>
<clus scale="   33.680">  1  5  2 -1</clus>
</clustering>
</event>
<event>
 9    2  0.4653788E-005  0.9749005E+02  0.7546771E-02  0.1292984E+00
         21   -1    0    0  501  502  0.00000000000E+00  0.00000000000E+00  0.11308938102E+03  0.11308938102E+03  0.00000000000E+00 0.  1.
         -3   -1    0    0    0  501 -0.00000000000E+00 -0.00000000000E+00 -0.14871625032E+03  0.14871625032E+03  0.00000000000E+00 0.  1.
         23    2    1    2    0    0 -0.87343021647E+01  0.42554053531E+02 -0.59081129429E+02  0.11925681055E+03  0.94045050388E+02 0.  0.
         24    2    1    2    0    0  0.15282379227E+02 -0.69457004426E+00 -0.16764468610E+02  0.84131016896E+02  0.81012017960E+02 0.  0.
        -13    1    4    4    0    0  0.28909411143E+02  0.31127267121E+02 -0.23962729715E+02  0.48773694001E+02  0.00000000000E+00 0.  1.
         14    1    4    4    0    0 -0.13627031916E+02 -0.31821837165E+02  0.71982611051E+01  0.35357322896E+02  0.00000000000E+00 0. -1.
        -11    1    3    3    0    0  0.38574670982E+02  0.14277822155E+02 -0.47688240750E+02  0.62976422197E+02  0.00000000000E+00 0.  1.
         11    1    3    3    0    0 -0.47308973147E+02  0.28276231376E+02 -0.11392888679E+02  0.56280388356E+02  0.00000000000E+00 0. -1.
         -4    1    1    2    0  502 -0.65480770625E+01 -0.41859483487E+02  0.40218728733E+02  0.58417803895E+02  0.00000000000E+00 0.  1.
<scales pt_clust_5="13000.00000" pt_clust_6="13000.00000" pt_clust_7="13000.00000" pt_clust_8="13000.00000" pt_clust_9="42.36855"></scales>
<clustering>
<clus scale="   42.369">  1  9  2 -1</clus>
<clus scale="   81.012">  5  6 -1 -1</clus>
<clus scale="   84.987">  1  5  2 -1</clus>
<clus scale="   94.045">  7  8 -1 -1</clus>
<clus scale="   42.369">  1  5  2 -1</clus>
</clustering>
</event>
<event>
 9    2  0.4653788E-005  0.1961501E+03  0.7546771E-02  0.1167419E+00
         21   -1    0    0  501  502  0.00000000000E+00  0.00000000000E+00  0.89287164670E+02  0.89287164670E+02  0.00000000000E+00 0. -1.
          2   -1    0    0  502    0 -0.00000000000E+00 -0.00000000000E+00 -0.17731342036E+04  0.17731342036E+04  0.00000000000E+00 0. -1.
         23    2    1    2    0    0  0.85376276345E+02 -0.66319651992E+02 -0.24063603412E+03  0.27856561845E+03  0.89474566546E+02 0.  0.
         24    2    1    2    0    0 -0.24906287062E+03  0.95875046329E+01 -0.13715350224E+04  0.13963743264E+04  0.81416877903E+02 0.  0.
        -11    1    4    4    0    0 -0.24690531452E+02 -0.32774538539E+01 -0.49939232267E+02  0.55805832729E+02  0.00000000000E+00 0.  1.
         12    1    4    4    0    0 -0.22437233917E+03  0.12864958487E+02 -0.13215957901E+04  0.13405684936E+04  0.00000000000E+00 0. -1.
        -11    1    3    3    0    0  0.98681464185E+02 -0.32469550055E+02 -0.18216454468E+03  0.20970508909E+03  0.00000000000E+00 0.  1.
         11    1    3    3    0    0 -0.13305187840E+02 -0.33850101937E+02 -0.58471489447E+02  0.68860529352E+02  0.00000000000E+00 0. -1.
          1    1    1    2  501    0  0.16368659427E+03  0.56732147359E+02 -0.71675982474E+02  0.18748142349E+03  0.00000000000E+00 0. -1.
<scales pt_clust_5="13000.00000" pt_clust_6="13000.00000" pt_clust_7="13000.00000" pt_clust_8="13000.00000" pt_clust_9="178.45491"></scales>
<clustering>
<clus scale="   81.417">  5  6 -1 -1</clus>
<clus scale="   89.475">  7  8 -1 -1</clus>
<clus scale="  140.332">  2  7  1 -1</clus>
<clus scale="  178.455">  1  9  2 -1</clus>
<clus scale="  178.455">  1  5  2 -1</clus>
</clustering>
</event>
<event>
 9    2  0.4653788E-005  0.1097225E+03  0.7546771E-02  0.1265029E+00
          2   -1    0    0  502    0 -0.00000000000E+00  0.00000000000E+00  0.93315208942E+03  0.93315208942E+03  0.00000000000E+00 0. -1.
         21   -1    0    0  501  502  0.00000000000E+00 -0.00000000000E+00 -0.19892164791E+02  0.19892164791E+02  0.00000000000E+00 0.  1.
         23    2    1    2    0    0 -0.33705658866E+02 -0.77876492565E+02  0.49142808422E+03  0.50680844918E+03  0.90290767353E+02 0.  0.
         24    2    1    2    0    0 -0.70104373958E+01  0.42541312097E+02  0.24514361305E+03  0.26150598838E+03  0.80194023901E+02 0.  0.
        -13    1    4    4    0    0  0.22386290722E+02  0.49719565253E+02  0.10706370640E+03  0.12014915068E+03  0.00000000000E+00 0.  1.
         14    1    4    4    0    0 -0.29396728118E+02 -0.71782531555E+01  0.13807990666E+03  0.14135683770E+03  0.00000000000E+00 0. -1.
        -13    1    3    3    0    0 -0.14892343287E+02 -0.88210472303E+02  0.46082705014E+03  0.46942990899E+03  0.00000000000E+00 0.  1.
         13    1    3    3    0    0 -0.18813315579E+02  0.10333979738E+02  0.30601034081E+02  0.37378540195E+02  0.00000000000E+00 0. -1.
          1    1    1    2  501    0  0.40716096262E+02  0.35335180468E+02  0.17668822736E+03  0.18472981666E+03  0.00000000000E+00 0. -1.
<scales pt_clust_5="13000.00000" pt_clust_6="13000.00000" pt_clust_7="13000.00000" pt_clust_8="13000.00000" pt_clust_9="53.91081"></scales>
<clustering>
<clus scale="   53.911">  2  9  1 -1</clus>
<clus scale="   80.194">  5  6 -1 -1</clus>
<clus scale="   90.291">  7  8 -1 -1</clus>
<clus scale="  101.576">  2  5  1 -1</clus>
<clus scale="   53.911">  2  5  1 -1</clus>
</clustering>
</event>
<event>
 9    2  0.4653788E-005  0.9301234E+02  0.7546771E-02  0.1301912E+00
         21   -1    0    0  501  502  0.00000000000E+00  0.00000000000E+00  0.16614885547E+03  0.16614885547E+03  0.00000000000E+00 0.  1.
          4   -1    0    0  502    0 -0.00000000000E+00 -0.00000000000E+00 -0.12593108539E+03  0.12593108539E+03  0.00000000000E+00 0. -1.
         23    2    1    2    0    0  0.71932831946E+01 -0.59242233836E+01  0.33483755775E+02  0.97929192926E+02  0.91553946832E+02 0.  0.
         24    2    1    2    0    0  0.58326813529E+01  0.31691388274E+02  0.78039239185E+02  0.11722183507E+03  0.81317104608E+02 0.  0.
        -11    1    4    4    0    0 -0.16332609100E+02  0.30701044494E+02  0.86692156577E+02  0.93406842710E+02  0.00000000000E+00 0.  1.
         12    1    4    4    0    0  0.22165290453E+02  0.99034377991E+00 -0.86529173918E+01  0.23814992359E+02  0.00000000000E+00 0. -1.
        -13    1    3    3    0    0 -0.41536828301E+02 -0.11491511710E+01  0.24222924241E+02  0.48097595704E+02  0.00000000000E+00 0. -1.
         13    1    3    3    0    0  0.48730111495E+02 -0.47750722126E+01  0.92608315341E+01  0.49831597222E+02  0.00000000000E+00 0.  1.
          3    1    1    2  501    0 -0.13025964548E+02 -0.25767164890E+02 -0.71305224887E+02  0.76928912868E+02  0.00000000000E+00 0. -1.
<scales pt_clust_5="13000.00000" pt_clust_6="13000.00000" pt_clust_7="13000.00000" pt_clust_8="13000.00000" pt_clust_9="28.87254"></scales>
<clustering>
<clus scale="   28.873">  1  9  2 -1</clus>
<clus scale="   81.317">  5  6 -1 -1</clus>
<clus scale="   82.956">  1  5  2 -1</clus>
<clus scale="   91.554">  7  8 -1 -1</clus>
<clus scale="   28.873">  1  5  2 -1</clus>
</clustering>
</event>
<event>
 9    2  0.4653788E-005  0.9810603E+02  0.7546771E-02  0.1290298E+00
         21   -1    0    0  501  502  0.00000000000E+00  0.00000000000E+00  0.16656435622E+03  0.16656435622E+03  0.00000000000E+00 0.  1.
         -3   -1    0    0    0  501 -0.00000000000E+00 -0.00000000000E+00 -0.17944631438E+03  0.17944631438E+03  0.00000000000E+00 0.  1.
         23    2    1    2    0    0 -0.34629744766E+02 -0.14726456976E+02 -0.10159924264E+03  0.14239714483E+03  0.92403749889E+02 0.  0.
         24    2    1    2    0    0  0.29439838612E+02 -0.34436013220E+02 -0.96388156109E+01  0.93532619044E+02  0.81258236228E+02 0.  0.
        -13    1    4    4    0    0 -0.13366404415E+02 -0.15707838916E+02  0.27127449428E+02  0.34077785769E+02  0.00000000000E+00 0.  1.
         14    1    4    4    0    0  0.42806243027E+02 -0.18728174304E+02 -0.36766265039E+02  0.59454833275E+02  0.00000000000E+00 0. -1.
        -11    1    3    3    0    0  0.27515368332E+02  0.10541408238E+02 -0.48884814377E+02  0.57078383463E+02  0.00000000000E+00 0. -1.
         11    1    3    3    0    0 -0.62145113098E+02 -0.25267865213E+02 -0.52714428261E+02  0.85318761367E+02  0.00000000000E+00 0.  1.
         -4    1    1    2    0  502  0.51899061535E+01  0.49162470196E+02  0.98356100090E+02  0.11008090673E+03  0.00000000000E+00 0.  1.
<scales pt_clust_5="13000.00000" pt_clust_6="13000.00000" pt_clust_7="13000.00000" pt_clust_8="13000.00000" pt_clust_9="49.43565"></scales>
<clustering>
<clus scale="   49.436">  1  9  2 -1</clus>
<clus scale="   81.258">  5  6 -1 -1</clus>
<clus scale="   87.688">  1  5  2 -1</clus>
<clus scale="   92.404">  7  8 -1 -1</clus>
<clus scale="   49.436">  1  5  2 -1</clus>
</clustering>
</event>
<event>
 9    2  0.4653788E-005  0.1045357E+03  0.7546771E-02  0.1275483E+00
          2   -1    0    0  502    0 -0.00000000000E+00  0.00000000000E+00  0.64321414442E+03  0.64321414442E+03  0.00000000000E+00 0. -1.
         21   -1    0    0  501  502  0.00000000000E+00 -0.00000000000E+00 -0.33798083163E+02  0.33798083163E+02  0.00000000000E+00 0. -1.
         24    2    1    2    0    0 -0.44527771794E+02  0.33460058389E+02  0.37366490314E+03  0.38633949552E+03  0.80811187289E+02 0.  0.
         23    2    1    2    0    0  0.54993603128E+02  0.85311119977E+01  0.22033899419E+03  0.24473443853E+03  0.90821785869E+02 0.  0.
        -11    1    3    3    0    0 -0.34188589010E+02 -0.15845788833E+02  0.80569422213E+02  0.88945941099E+02  0.00000000000E+00 0.  1.
         12    1    3    3    0    0 -0.10339182785E+02  0.49305847222E+02  0.29309548092E+03  0.29739355442E+03  0.00000000000E+00 0. -1.
        -11    1    4    4    0    0  0.37763460378E+02 -0.39027947684E+02  0.13524132730E+03  0.14573769674E+03  0.00000000000E+00 0.  1.
         11    1    4    4    0    0  0.17230142751E+02  0.47559059681E+02  0.85097666884E+02  0.98996741796E+02  0.00000000000E+00 0. -1.
          1    1    1    2  501    0 -0.10465831334E+02 -0.41991170386E+02  0.15412163937E+02  0.45938293538E+02  0.00000000000E+00 0. -1.
<scales pt_clust_5="13000.00000" pt_clust_6="13000.00000" pt_clust_7="13000.00000" pt_clust_8="13000.00000" pt_clust_9="43.27577"></scales>
<clustering>
<clus scale="   43.276">  2  9  1 -1</clus>
<clus scale="   80.811">  5  6 -1 -1</clus>
<clus scale="   90.822">  7  8 -1 -1</clus>
<clus scale="   95.966">  1  5  2 -1</clus>
<clus scale="   43.276">  2  5  1 -1</clus>
</clustering>
</event>
<event>
 9    2  0.4653788E-005  0.1123318E+03  0.7546771E-02  0.1260590E+00
         21   -1    0    0  501  502  0.00000000000E+00  0.00000000000E+00  0.25066530895E+02  0.25066530895E+02  0.00000000000E+00 0. -1.
          2   -1    0    0  502    0 -0.00000000000E+00 -0.00000000000E+00 -0.10831978575E+04  0.10831978575E+04  0.00000000000E+00 0. -1.
         23    2    1    2    0    0  0.32749061629E+02  0.80891277253E+02 -0.39368795644E+03  0.41339149905E+03  0.91029800984E+02 0.  0.
         24    2    1    2    0    0 -0.69156901014E+02 -0.10968226608E+01 -0.25116521214E+03  0.27239031970E+03  0.79552765516E+02 0.  0.
        -13    1    4    4    0    0 -0.47090688579E+02  0.37618204571E+02 -0.13005729082E+03  0.14334420519E+03  0.00000000000E+00 0.  1.
         14    1    4    4    0    0 -0.22066212435E+02 -0.38715027232E+02 -0.12110792131E+03  0.12904611451E+03  0.00000000000E+00 0. -1.
        -11    1    3    3    0    0 -0.19444144855E+02  0.12824118114E+02 -0.22367891856E+02  0.32293271135E+02  0.00000000000E+00 0.  1.
         11    1    3    3    0    0  0.52193206484E+02  0.68067159138E+02 -0.37132006459E+03  0.38109822792E+03  0.00000000000E+00 0. -1.
          1    1    1    2  501    0  0.36407839385E+02 -0.79794454592E+02 -0.41327815807E+03  0.42248256968E+03  0.00000000000E+00 0. -1.
<scales pt_clust_5="13000.00000" pt_clust_6="13000.00000" pt_clust_7="13000.00000" pt_clust_8="13000.00000" pt_clust_9="87.70800"></scales>
<clustering>
<clus scale="   79.553">  5  6 -1 -1</clus>
<clus scale="   87.708">  1  9  2 -1</clus>
<clus scale="   91.030">  7  8 -1 -1</clus>
<clus scale="  103.250">  1  5  2 -1</clus>
<clus scale="   87.708">  1  5  2 -1</clus>
</clustering>
</event>
<event>
 9    2  0.4653788E-005  0.1963935E+03  0.7546771E-02  0.1172610E+00
          2   -1    0    0  502    0 -0.00000000000E+00  0.00000000000E+00  0.47654768673E+03  0.47654768673E+03  0.00000000000E+00 0. -1.
         21   -1    0    0  501  502  0.00000000000E+00 -0.00000000000E+00 -0.23970471811E+03  0.23970471811E+03  0.00000000000E+00 0.  1.
         23    2    1    2    0    0  0.35379531169E+02  0.74152226101E+02  0.29541360814E+03  0.32044445235E+03  0.93086966346E+02 0.  0.
         24    2    1    2    0    0 -0.29299102573E+01 -0.22377441991E+03 -0.30243711501E+02  0.24010890424E+03  0.81572228300E+02 0.  0.
        -11    1    4    4    0    0  0.23489645497E+02 -0.18803218076E+03 -0.42087446951E+02  0.19411135370E+03  0.00000000000E+00 0.  1.
         12    1    4    4    0    0 -0.26419555754E+02 -0.35742239152E+02  0.11843735450E+02  0.45997550536E+02  0.00000000000E+00 0. -1.
        -13    1    3    3    0    0 -0.90290993273E+01  0.65616441550E+02  0.10056792904E+03  0.12041989200E+03  0.00000000000E+00 0. -1.
         13    1    3    3    0    0  0.44408630497E+02  0.85357845513E+01  0.19484567910E+03  0.20002456035E+03  0.00000000000E+00 0.  1.
          1    1    1    2  501    0 -0.32449620912E+02  0.14962219381E+03 -0.28326928021E+02  0.15569904826E+03  0.00000000000E+00 0. -1.
<scales pt_clust_5="13000.00000" pt_clust_6="13000.00000" pt_clust_7="13000.00000" pt_clust_8="13000.00000" pt_clust_9="178.65151"></scales>
<clustering>
<clus scale="   81.572">  5  6 -1 -1</clus>
<clus scale="   93.087">  7  8 -1 -1</clus>
<clus scale="  124.159">  1  7  2 -1</clus>
<clus scale="  178.652">  2  9  1 -1</clus>
<clus scale="  178.652">  2  5  1 -1</clus>
</clustering>
</event>
<event>
 9    2  0.4653788E-005  0.9142449E+02  0.7546771E-02  0.1310908E+00
         21   -1    0    0  501  502  0.00000000000E+00  0.00000000000E+00  0.14942391046E+03  0.14942391046E+03  0.00000000000E+00 0. -1.
          2   -1    0    0  502    0 -0.00000000000E+00 -0.00000000000E+00 -0.12652575828E+03  0.12652575828E+03  0.00000000000E+00 0. -1.
         24    2    1    2    0    0 -0.13270069359E+01  0.30122250867E+01 -0.57275185492E+02  0.93681224238E+02  0.74060046274E+02 0.  0.
         23    2    1    2    0    0 -0.88180922815E+01  0.16366732562E+02 -0.59293728802E+01  0.93430705890E+02  0.91370184711E+02 0.  0.
        -11    1    3    3    0    0 -0.12242684290E+02 -0.33298454861E+02 -0.21109203881E+02  0.41282791854E+02  0.00000000000E+00 0.  1.
         12    1    3    3    0    0  0.10915677354E+02  0.36310679948E+02 -0.36165981612E+02  0.52398432384E+02  0.00000000000E+00 0. -1.
        -11    1    4    4    0    0  0.14483028246E+02 -0.33090122849E+02 -0.12817233241E+02  0.38327481072E+02  0.00000000000E+00 0.  1.
         11    1    4    4    0    0 -0.23301120527E+02  0.49456855411E+02  0.68878603608E+01  0.55103224818E+02  0.00000000000E+00 0. -1.
          1    1    1    2  501    0  0.10145099217E+02 -0.19378957649E+02  0.86102710556E+02  0.88837738618E+02  0.00000000000E+00 0. -1.
<scales pt_clust_5="13000.00000" pt_clust_6="13000.00000" pt_clust_7="13000.00000" pt_clust_8="13000.00000" pt_clust_9="21.87389"></scales>
<clustering>
<clus scale="   21.874">  1  9  2 -1</clus>
<clus scale="   74.060">  5  6 -1 -1</clus>
<clus scale="   74.127">  2  5  1 -1</clus>
<clus scale="   91.370">  7  8 -1 -1</clus>
<clus scale="   21.874">  1  5  2 -1</clus>
</clustering>
</event>
<event>
 9    2  0.4653788E-005  0.8994956E+02  0.7546771E-02  0.1309540E+00
         -1   -1    0    0    0  501 -0.00000000000E+00  0.00000000000E+00  0.57659839802E+02  0.57659839802E+02  0.00000000000E+00 0.  1.
         21   -1    0    0  501  502  0.00000000000E+00 -0.00000000000E+00 -0.22553803358E+03  0.22553803358E+03  0.00000000000E+00 0. -1.
         24    2    1    2    0    0  0.10009318589E+02 -0.12531640738E+02 -0.20436810840E+02  0.82440015866E+02  0.78239788474E+02 0.  0.
         23    2    1    2    0    0 -0.27823987371E+02 -0.13739477052E+02 -0.13933459436E+03  0.16799730082E+03  0.88577742098E+02 0.  0.
        -13    1    3    3    0    0 -0.11836057144E+02  0.18367594875E+02 -0.35520275950E+02  0.41703126907E+02  0.00000000000E+00 0.  1.
         14    1    3    3    0    0  0.21845375732E+02 -0.30899235613E+02  0.15083465110E+02  0.40736888959E+02  0.00000000000E+00 0. -1.
        -13    1    4    4    0    0 -0.51563337838E+02 -0.26105433257E+02 -0.56022859302E+02  0.80491193424E+02  0.00000000000E+00 0.  1.
         13    1    4    4    0    0  0.23739350467E+02  0.12365956205E+02 -0.83311735059E+02  0.87506107398E+02  0.00000000000E+00 0. -1.
         -2    1    1    2    0  502  0.17814668782E+02  0.26271117790E+02 -0.81067885755E+01  0.32760556692E+02  0.00000000000E+00 0.  1.
<scales pt_clust_5="13000.00000" pt_clust_6="13000.00000" pt_clust_7="13000.00000" pt_clust_8="13000.00000" pt_clust_9="31.74169"></scales>
<clustering>
<clus scale="   31.742">  2  9  1 -1</clus>
<clus scale="   78.240">  5  6 -1 -1</clus>
<clus scale="   79.790">  1  5  2 -1</clus>
<clus scale="   88.578">  7  8 -1 -1</clus>
<clus scale="   31.742">  2  5  1 -1</clus>
</clustering>
</event>
<event>
 9    2  0.4653788E-005  0.1190264E+03  0.7546771E-02  0.1248311E+00
         21   -1    0    0  501  502  0.00000000000E+00  0.00000000000E+00  0.40588151042E+02  0.40588151042E+02  0.00000000000E+00 0. -1.
          2   -1    0    0  502    0 -0.00000000000E+00 -0.00000000000E+00 -0.49815158128E+03  0.49815158128E+03  0.00000000000E+00 0. -1.
         24    2    1    2    0    0 -0.77178397733E+02 -0.86039000034E+01 -0.32897902369E+03  0.34750957187E+03  0.80654648595E+02 0.  0.
         23    2    1    2    0    0  0.66922313826E+02  0.30293456402E+02 -0.10504911326E+03  0.15762161773E+03  0.91722236075E+02 0.  0.
        -11    1    3    3    0    0  0.10824411956E+01  0.26260225593E+02 -0.75833591166E+02  0.80258985019E+02  0.00000000000E+00 0.  1.
         12    1    3    3    0    0 -0.78260838929E+02 -0.34864125597E+02 -0.25314543252E+03  0.26725058685E+03  0.00000000000E+00 0. -1.
        -11    1    4    4    0    0  0.79117663478E+02 -0.55361602249E+01 -0.65286263570E+02  0.10272560516E+03  0.00000000000E+00 0.  1.
         11    1    4    4    0    0 -0.12195349652E+02  0.35829616627E+02 -0.39762849688E+02  0.54896012570E+02  0.00000000000E+00 0. -1.
          1    1    1    2  501    0  0.10256083907E+02 -0.21689556399E+02 -0.23535293291E+02  0.33608542726E+02  0.00000000000E+00 0. -1.
<scales pt_clust_5="13000.00000" pt_clust_6="13000.00000" pt_clust_7="13000.00000" pt_clust_8="13000.00000" pt_clust_9="23.99217"></scales>
<clustering>
<clus scale="   23.992">  1  9  2 -1</clus>
<clus scale="   80.655">  5  6 -1 -1</clus>
<clus scale="   91.722">  7  8 -1 -1</clus>
<clus scale="  110.723">  2  5  1 -1</clus>
<clus scale="   23.992">  1  5  2 -1</clus>
</clustering>
</event>
<event>
 9    2  0.4653788E-005  0.9353487E+02  0.7546771E-02  0.1300214E+00
          2   -1    0    0  502    0 -0.00000000000E+00  0.00000000000E+00  0.54934030683E+03  0.54934030683E+03  0.00000000000E+00 0. -1.
         21   -1    0    0  501  502  0.00000000000E+00 -0.00000000000E+00 -0.16566826880E+03  0.16566826880E+03  0.00000000000E+00 0.  1.
         23    2    1    2    0    0  0.20689249066E+02  0.11881038912E+02  0.52054071801E+03  0.52889270807E+03  0.90529848316E+02 0.  0.
         24    2    1    2    0    0  0.46589115575E+01 -0.36695265324E+02 -0.82911774272E+02  0.12154325144E+03  0.80809354059E+02 0.  0.
        -11    1    4    4    0    0  0.22598169372E+02 -0.57252283397E+02 -0.55787266351E+02  0.83070574213E+02  0.00000000000E+00 0.  1.
         12    1    4    4    0    0 -0.17939257814E+02  0.20557018073E+02 -0.27124507921E+02  0.38472677226E+02  0.00000000000E+00 0. -1.
        -11    1    3    3    0    0 -0.26349838050E+01 -0.38178128723E+02  0.19972424126E+03  0.20335753048E+03  0.00000000000E+00 0.  1.
         11    1    3    3    0    0  0.23324232871E+02  0.50059167635E+02  0.32081647674E+03  0.32553517760E+03  0.00000000000E+00 0. -1.
          1    1    1    2  501    0 -0.25348160623E+02  0.24814226412E+02 -0.53956905700E+02  0.64572616116E+02  0.00000000000E+00 0. -1.
<scales pt_clust_5="13000.00000" pt_clust_6="13000.00000" pt_clust_7="13000.00000" pt_clust_8="13000.00000" pt_clust_9="35.47217"></scales>
<clustering>
<clus scale="   35.472">  2  9  1 -1</clus>
<clus scale="   80.809">  5  6 -1 -1</clus>
<clus scale="   84.162">  2  5  1 -1</clus>
<clus scale="   90.530">  7  8 -1 -1</clus>
<clus scale="   35.472">  2  5  1 -1</clus>
</clustering>
</event>
<event>
 9    2  0.4653788E-005  0.9973672E+02  0.7546771E-02  0.1286180E+00
          2   -1    0    0  502    0 -0.00000000000E+00  0.00000000000E+00  0.10697127881E+04  0.10697127881E+04  0.00000000000E+00 0. -1.
         21   -1    0    0  501  502  0.00000000000E+00 -0.00000000000E+00 -0.19714000017E+02  0.19714000017E+02  0.00000000000E+00 0.  1.
         23    2    1    2    0    0 -0.30277616888E+01  0.48170017224E+02  0.41396506875E+03  0.42663616062E+03  0.91223996279E+02 0.  0.
         24    2    1    2    0    0 -0.64924280248E+02 -0.79246361255E+01  0.29534137361E+03  0.31306438437E+03  0.80652462893E+02 0.  0.
        -11    1    4    4    0    0 -0.75246524487E+02 -0.21702268066E+02  0.27721959405E+03  0.28806896954E+03  0.00000000000E+00 0.  1.
         12    1    4    4    0    0  0.10322244240E+02  0.13777631941E+02  0.18121779563E+02  0.24995414831E+02  0.00000000000E+00 0. -1.
        -13    1    3    3    0    0 -0.33108201844E+02  0.55139654678E+02  0.34680114546E+03  0.35271457163E+03  0.00000000000E+00 0. -1.
         13    1    3    3    0    0  0.30080440155E+02 -0.69696374545E+01  0.67163923293E+02  0.73921588986E+02  0.00000000000E+00 0.  1.
          1    1    1    2  501    0  0.67952041937E+02 -0.40245381098E+02  0.34069234570E+03  0.34972624311E+03  0.00000000000E+00 0. -1.
<scales pt_clust_5="13000.00000" pt_clust_6="13000.00000" pt_clust_7="13000.00000" pt_clust_8="13000.00000" pt_clust_9="78.97580"></scales>
<clustering>
<clus scale="   78.976">  2  9  1 -1</clus>
<clus scale="   80.652">  5  6 -1 -1</clus>
<clus scale="   90.169">  2  5  1 -1</clus>
<clus scale="   91.224">  7  8 -1 -1</clus>
<clus scale="   78.976">  2  5  1 -1</clus>
</clustering>
</event>
<event>
 9    2  0.4653788E-005  0.9331795E+02  0.7546771E-02  0.1302843E+00
         -1   -1    0    0    0  501 -0.00000000000E+00  0.00000000000E+00  0.24563104448E+02  0.24563104448E+02  0.00000000000E+00 0.  1.
         21   -1    0    0  501  502  0.00000000000E+00 -0.00000000000E+00 -0.54946160988E+03  0.54946160988E+03  0.00000000000E+00 0. -1.
         23    2    1    2    0    0 -0.11506825304E+02  0.32300389347E+02 -0.13540341005E+03  0.16528812929E+03  0.88376241447E+02 0.  0.
         24    2    1    2    0    0 -0.20146313274E+02 -0.26660807059E+02 -0.19460317185E+03  0.21121041480E+03  0.74985146876E+02 0.  0.
        -13    1    4    4    0    0 -0.31073047262E+02 -0.17481119376E+01 -0.26369272405E+02  0.40791282018E+02  0.00000000000E+00 0.  1.
         14    1    4    4    0    0  0.10926733988E+02 -0.24912695122E+02 -0.16823389945E+03  0.17041913278E+03  0.00000000000E+00 0. -1.
        -11    1    3    3    0    0 -0.38883340466E+02  0.38356761395E+02 -0.45415422068E+02  0.71033202604E+02  0.00000000000E+00 0.  1.
         11    1    3    3    0    0  0.27376515162E+02 -0.60563720480E+01 -0.89987987977E+02  0.94254926688E+02  0.00000000000E+00 0. -1.
         -2    1    1    2    0  502  0.31653138577E+02 -0.56395822880E+01 -0.19489192353E+03  0.19752617024E+03  0.00000000000E+00 0.  1.
<scales pt_clust_5="13000.00000" pt_clust_6="13000.00000" pt_clust_7="13000.00000" pt_clust_8="13000.00000" pt_clust_9="32.15161"></scales>
<clustering>
<clus scale="   32.152">  2  9  1 -1</clus>
<clus scale="   74.985">  5  6 -1 -1</clus>
<clus scale="   80.751">  2  5  1 -1</clus>
<clus scale="   88.376">  7  8 -1 -1</clus>
<clus scale="   32.152">  2  5  1 -1</clus>
</clustering>
</event>
<event>
 9    2  0.4653788E-005  0.1274080E+03  0.7546771E-02  0.1236979E+00
          2   -1    0    0  502    0 -0.00000000000E+00  0.00000000000E+00  0.43040146644E+03  0.43040146644E+03  0.00000000000E+00 0. -1.
         21   -1    0    0  501  502  0.00000000000E+00 -0.00000000000E+00 -0.60167703817E+02  0.60167703817E+02  0.00000000000E+00 0. -1.
         23    2    1    2    0    0 -0.83419032316E+02  0.55241516738E+02  0.27216935620E+03  0.30408484570E+03  0.91548210283E+02 0.  0.
         24    2    1    2    0    0  0.37847381486E+02 -0.52651256256E+02  0.23342902025E+02  0.98924127958E+02  0.70968393999E+02 0.  0.
        -11    1    4    4    0    0 -0.10528068518E+02 -0.41202798921E+02  0.24727645325E+02  0.49193163234E+02  0.00000000000E+00 0.  1.
         12    1    4    4    0    0  0.48375450004E+02 -0.11448457334E+02 -0.13847433006E+01  0.49730964724E+02  0.00000000000E+00 0. -1.
        -13    1    3    3    0    0 -0.10240755427E+03  0.44220801782E+02  0.24465576223E+03  0.26888515852E+03  0.00000000000E+00 0. -1.
         13    1    3    3    0    0  0.18988521955E+02  0.11020714955E+02  0.27513593971E+02  0.35199687177E+02  0.00000000000E+00 0.  1.
          1    1    1    2  501    0  0.45571650830E+02 -0.25902604817E+01  0.74721504395E+02  0.87560196595E+02  0.00000000000E+00 0. -1.
<scales pt_clust_5="13000.00000" pt_clust_6="13000.00000" pt_clust_7="13000.00000" pt_clust_8="13000.00000" pt_clust_9="45.64523"></scales>
<clustering>
<clus scale="   45.645">  2  9  1 -1</clus>
<clus scale="   70.968">  5  6 -1 -1</clus>
<clus scale="   91.548">  7  8 -1 -1</clus>
<clus scale="  113.526">  2  5  1 -1</clus>
<clus scale="   45.645">  2  5  1 -1</clus>
</clustering>
</event>
<event>
 9    2  0.4653788E-005  0.9875152E+02  0.7546771E-02  0.1288690E+00
         21   -1    0    0  501  502  0.00000000000E+00  0.00000000000E+00  0.48269170756E+02  0.48269170756E+02  0.00000000000E+00 0.  1.
          2   -1    0    0  502    0 -0.00000000000E+00 -0.00000000000E+00 -0.23268734989E+03  0.23268734989E+03  0.00000000000E+00 0. -1.
         23    2    1    2    0    0 -0.38208551631E+02 -0.28512006387E+02 -0.10873024717E+03  0.14877144829E+03  0.89654053183E+02 0.  0.
         24    2    1    2    0    0  0.16694409426E+02  0.32577522861E+02 -0.60656818122E+02  0.10562718986E+03  0.78344465990E+02 0.  0.
        -11    1    4    4    0    0  0.45562950899E+01  0.56166864952E+02 -0.54496558012E+02  0.78392291576E+02  0.00000000000E+00 0.  1.
         12    1    4    4    0    0  0.12138114336E+02 -0.23589342091E+02 -0.61602601103E+01  0.27234898284E+02  0.00000000000E+00 0. -1.
        -13    1    3    3    0    0 -0.42438260053E+02  0.17419388709E+02 -0.85723615769E+02  0.97226433236E+02  0.00000000000E+00 0. -1.
         13    1    3    3    0    0  0.42297084220E+01 -0.45931395096E+02 -0.23006631397E+02  0.51545015055E+02  0.00000000000E+00 0.  1.
          1    1    1    2  501    0  0.21514142205E+02 -0.40655164740E+01 -0.15031113842E+02  0.26557882490E+02  0.00000000000E+00 0. -1.
<scales pt_clust_5="13000.00000" pt_clust_6="13000.00000" pt_clust_7="13000.00000" pt_clust_8="13000.00000" pt_clust_9="21.89490"></scales>
<clustering>
<clus scale="   21.895">  1  9  2 -1</clus>
<clus scale="   78.344">  5  6 -1 -1</clus>
<clus scale="   88.611">  1  5  2 -1</clus>
<clus scale="   89.654">  7  8 -1 -1</clus>
<clus scale="   21.895">  1  5  2 -1</clus>
</clustering>
</event>
<event>
 9    2  0.4653788E-005  0.1440970E+03  0.7546771E-02  0.1209927E+00
         21   -1    0    0  501  502  0.00000000000E+00  0.00000000000E+00  0.98867661031E+02  0.98867661031E+02  0.00000000000E+00 0. -1.
          2   -1    0    0  502    0 -0.00000000000E+00 -0.00000000000E+00 -0.35570261797E+03  0.35570261797E+03  0.00000000000E+00 0. -1.
         23    2    1    2    0    0 -0.11341700586E+03  0.31859358376E+02 -0.24512387503E+03  0.28714965511E+03  0.92145398072E+02 0.  0.
         24    2    1    2    0    0  0.84330070624E+02 -0.20753713662E+02  0.21825457637E+02  0.12165945442E+03  0.82355296172E+02 0.  0.
        -11    1    4    4    0    0  0.14879513630E+02  0.21885538207E+02 -0.16931744542E+02  0.31417521890E+02  0.00000000000E+00 0.  1.
         12    1    4    4    0    0  0.69450556994E+02 -0.42639251869E+02  0.38757202179E+02  0.90241932534E+02  0.00000000000E+00 0. -1.
        -11    1    3    3    0    0 -0.40921514894E+02 -0.27089673924E+02 -0.46321580224E+02  0.67484143389E+02  0.00000000000E+00 0.  1.
         11    1    3    3    0    0 -0.72495490967E+02  0.58949032300E+02 -0.19880229481E+03  0.21966551172E+03  0.00000000000E+00 0. -1.
          1    1    1    2  501    0  0.29086935238E+02 -0.11105644714E+02 -0.33536539540E+02  0.45761169460E+02  0.00000000000E+00 0. -1.
<scales pt_clust_5="13000.00000" pt_clust_6="13000.00000" pt_clust_7="13000.00000" pt_clust_8="13000.00000" pt_clust_9="31.13497"></scales>
<clustering>
<clus scale="   31.135">  1  9  2 -1</clus>
<clus scale="   82.355">  5  6 -1 -1</clus>
<clus scale="   92.145">  7  8 -1 -1</clus>
<clus scale="  138.042">  1  5  2 -1</clus>
<clus scale="   31.135">  1  5  2 -1</clus>
</clustering>
</event>
<event>
 9    2  0.4653788E-005  0.9174203E+02  0.7546771E-02  0.1305504E+00
         21   -1    0    0  501  502  0.00000000000E+00  0.00000000000E+00  0.22866877611E+03  0.22866877611E+03  0.00000000000E+00 0.  1.
          2   -1    0    0  502    0 -0.00000000000E+00 -0.00000000000E+00 -0.48963288616E+02  0.48963288616E+02  0.00000000000E+00 0. -1.
         24    2    1    2    0    0  0.13824408701E+02 -0.13393332047E+02  0.64544568892E+02  0.10489819682E+03  0.80418497278E+02 0.  0.
         23    2    1    2    0    0 -0.29626561363E+01 -0.19156296692E+02  0.93814773521E+02  0.13232206381E+03  0.91280752665E+02 0.  0.
        -13    1    3    3    0    0  0.40422223105E+02  0.14854794651E+02  0.41301822355E+02  0.59669603440E+02  0.00000000000E+00 0.  1.
         14    1    3    3    0    0 -0.26597814403E+02 -0.28248126698E+02  0.23242746536E+02  0.45228593384E+02  0.00000000000E+00 0. -1.
        -13    1    4    4    0    0 -0.31379905028E+02  0.88296144223E+01  0.85604901487E+02  0.91601635842E+02  0.00000000000E+00 0.  1.
         13    1    4    4    0    0  0.28417248892E+02 -0.27985911114E+02  0.82098720340E+01  0.40720427972E+02  0.00000000000E+00 0. -1.
          1    1    1    2  501    0 -0.10861752565E+02  0.32549628739E+02  0.21346145085E+02  0.40411804090E+02  0.00000000000E+00 0. -1.
<scales pt_clust_5="13000.00000" pt_clust_6="13000.00000" pt_clust_7="13000.00000" pt_clust_8="13000.00000" pt_clust_9="34.31410"></scales>
<clustering>
<clus scale="   34.314">  1  9  2 -1</clus>
<clus scale="   80.418">  5  6 -1 -1</clus>
<clus scale="   80.942">  2  5  1 -1</clus>
<clus scale="   91.281">  7  8 -1 -1</clus>
<clus scale="   34.314">  1  5  2 -1</clus>
</clustering>
</event>
<event>
 9    2  0.4653788E-005  0.9827537E+02  0.7546771E-02  0.1291061E+00
          2   -1    0    0  502    0 -0.00000000000E+00  0.00000000000E+00  0.61594917822E+03  0.61594917822E+03  0.00000000000E+00 0. -1.
         21   -1    0    0  501  502  0.00000000000E+00 -0.00000000000E+00 -0.19278139783E+02  0.19278139783E+02  0.00000000000E+00 0. -1.
         24    2    1    2    0    0  0.18842828252E+02  0.10451152140E+02  0.20270353205E+03  0.21841722708E+03  0.78441598792E+02 0.  0.
         23    2    1    2    0    0 -0.48789237129E+02 -0.16527878379E+02  0.29277000550E+03  0.31109988238E+03  0.91734945738E+02 0.  0.
        -13    1    3    3    0    0  0.26643980562E+02 -0.29019303856E+02  0.12265057176E+03  0.12882229795E+03  0.00000000000E+00 0.  1.
         14    1    3    3    0    0 -0.78011523096E+01  0.39470455996E+02  0.80052960290E+02  0.89594929126E+02  0.00000000000E+00 0. -1.
        -13    1    4    4    0    0 -0.23558200286E+02 -0.53102528945E+02  0.19950899325E+03  0.20779486464E+03  0.00000000000E+00 0. -1.
         13    1    4    4    0    0 -0.25231036843E+02  0.36574650566E+02  0.93261012253E+02  0.10330501774E+03  0.00000000000E+00 0.  1.
          1    1    1    2  501    0  0.29946408877E+02  0.60767262388E+01  0.10119750089E+03  0.10571020855E+03  0.00000000000E+00 0. -1.
<scales pt_clust_5="13000.00000" pt_clust_6="13000.00000" pt_clust_7="13000.00000" pt_clust_8="13000.00000" pt_clust_9="30.55675"></scales>
<clustering>
<clus scale="   30.557">  2  9  1 -1</clus>
<clus scale="   78.442">  5  6 -1 -1</clus>
<clus scale="   85.999">  1  5  2 -1</clus>
<clus scale="   91.735">  7  8 -1 -1</clus>
<clus scale="   30.557">  2  5  1 -1</clus>
</clustering>
</event>
<event>
 9    2  0.4653788E-005  0.2442599E+03  0.7546771E-02  0.1117637E+00
          2   -1    0    0  502    0 -0.00000000000E+00  0.00000000000E+00  0.34199562460E+03  0.34199562460E+03  0.00000000000E+00 0. -1.
         21   -1    0    0  501  502  0.00000000000E+00 -0.00000000000E+00 -0.32276753707E+03  0.32276753707E+03  0.00000000000E+00 0.  1.
         23    2    1    2    0    0  0.15823848981E+03  0.24105788819E+03  0.80135739704E+02  0.31308068018E+03  0.91920892123E+02 0.  0.
         24    2    1    2    0    0 -0.97662148437E+02 -0.10844997537E+03 -0.10769419969E+03  0.19857032421E+03  0.80825989723E+02 0.  0.
        -11    1    4    4    0    0  0.97191716152E+01 -0.35705326948E+02 -0.20774542460E+02  0.42437180441E+02  0.00000000000E+00 0.  1.
         12    1    4    4    0    0 -0.10738132005E+03 -0.72744648426E+02 -0.86919657231E+02  0.15613314377E+03  0.00000000000E+00 0. -1.
        -11    1    3    3    0    0  0.34244910863E+02  0.31608514025E+02  0.49125290784E+02  0.67713412804E+02  0.00000000000E+00 0. -1.
         11    1    3    3    0    0  0.12399357894E+03  0.20944937417E+03  0.31010448921E+02  0.24536726738E+03  0.00000000000E+00 0.  1.
          1    1    1    2  501    0 -0.60576341371E+02 -0.13260791282E+03  0.46786547518E+02  0.15311215727E+03  0.00000000000E+00 0. -1.
<scales pt_clust_5="13000.00000" pt_clust_6="13000.00000" pt_clust_7="13000.00000" pt_clust_8="13000.00000" pt_clust_9="145.78880"></scales>
<clustering>
<clus scale="   80.826">  5  6 -1 -1</clus>
<clus scale="   91.921">  7  8 -1 -1</clus>
<clus scale="  145.789">  2  9  1 -1</clus>
<clus scale="  240.305">  2  5  1 -1</clus>
<clus scale="  145.789">  2  5  1 -1</clus>
</clustering>
</event>
<event>
 9    2  0.4653788E-005  0.1927630E+03  0.7546771E-02  0.1182661E+00
         21   -1    0    0  501  502  0.00000000000E+00  0.00000000000E+00  0.54972143673E+02  0.54972143673E+02  0.00000000000E+00 0. -1.
          2   -1    0    0  502    0 -0.00000000000E+00 -0.00000000000E+00 -0.12878786677E+04  0.12878786677E+04  0.00000000000E+00 0. -1.
         24    2    1    2    0    0  0.30935017747E+02 -0.38321609791E+02 -0.74562421453E+02  0.12849868979E+03  0.92340876566E+02 0.  0.
         23    2    1    2    0    0  0.34007593134E+01  0.18774604993E+03 -0.61717258106E+03  0.65188147826E+03  0.93740719312E+02 0.  0.
        -13    1    3    3    0    0  0.49786826100E+02 -0.43027527020E+02 -0.17314552004E+02  0.68043293907E+02  0.00000000000E+00 0.  1.
         14    1    3    3    0    0 -0.18851808353E+02  0.47059172290E+01 -0.57247869448E+02  0.60455395884E+02  0.00000000000E+00 0. -1.
        -13    1    4    4    0    0  0.26422138198E+02  0.16855713887E+02 -0.49409079462E+02  0.58510696551E+02  0.00000000000E+00 0.  1.
         13    1    4    4    0    0 -0.23021378884E+02  0.17089033605E+03 -0.56776350160E+03  0.59337078171E+03  0.00000000000E+00 0. -1.
          1    1    1    2  501    0 -0.34335777060E+02 -0.14942444014E+03 -0.54117152147E+03  0.56247064327E+03  0.00000000000E+00 0. -1.
<scales pt_clust_5="13000.00000" pt_clust_6="13000.00000" pt_clust_7="13000.00000" pt_clust_8="13000.00000" pt_clust_9="168.43469"></scales>
<clustering>
<clus scale="   92.341">  5  6 -1 -1</clus>
<clus scale="   93.741">  7  8 -1 -1</clus>
<clus scale="  104.654">  2  5  1 -1</clus>
<clus scale="  168.435">  1  9  2 -1</clus>
<clus scale="  168.435">  1  5  2 -1</clus>
</clustering>
</event>
<event>
 9    2  0.4653788E-005  0.1143780E+03  0.7546771E-02  0.1255490E+00
          2   -1    0    0  502    0 -0.00000000000E+00  0.00000000000E+00  0.34429275171E+03  0.34429275171E+03  0.00000000000E+00 0. -1.
         21   -1    0    0  501  502  0.00000000000E+00 -0.00000000000E+00 -0.16281614055E+03  0.16281614055E+03  0.00000000000E+00 0.  1.
         23    2    1    2    0    0  0.33832085720E+02  0.60372477172E+02  0.20758738124E+03  0.23613120620E+03  0.88746716357E+02 0.  0.
         24    2    1    2    0    0 -0.64117386804E+02 -0.80923848181E+02 -0.11535439213E+03  0.17452053295E+03  0.80567190246E+02 0.  0.
        -13    1    4    4    0    0 -0.41797070078E+01 -0.65684625767E+02 -0.78836027880E+02  0.10269887684E+03  0.00000000000E+00 0.  1.
         14    1    4    4    0    0 -0.59937679796E+02 -0.15239222414E+02 -0.36518364246E+02  0.71821656110E+02  0.00000000000E+00 0. -1.
        -13    1    3    3    0    0 -0.18418453510E+02  0.48102743841E+02  0.14391821877E+03  0.15285799648E+03  0.00000000000E+00 0. -1.
         13    1    3    3    0    0  0.52250539231E+02  0.12269733332E+02  0.63669162470E+02  0.83273209711E+02  0.00000000000E+00 0.  1.
          1    1    1    2  501    0  0.30285301084E+02  0.20551371009E+02  0.89243622038E+02  0.96457153112E+02  0.00000000000E+00 0. -1.
<scales pt_clust_5="13000.00000" pt_clust_6="13000.00000" pt_clust_7="13000.00000" pt_clust_8="13000.00000" pt_clust_9="36.60000"></scales>
<clustering>
<clus scale="   36.600">  2  9  1 -1</clus>
<clus scale="   80.567">  5  6 -1 -1</clus>
<clus scale="   88.747">  7  8 -1 -1</clus>
<clus scale="  108.155">  2  5  1 -1</clus>
<clus scale="   36.600">  2  5  1 -1</clus>
</clustering>
</event>
<event>
 9    2  0.4653788E-005  0.9876513E+02  0.7546771E-02  0.1289556E+00
         21   -1    0    0  501  502  0.00000000000E+00  0.00000000000E+00  0.41207829199E+02  0.41207829199E+02  0.00000000000E+00 0.  1.
          2   -1    0    0  502    0 -0.00000000000E+00 -0.00000000000E+00 -0.67605927263E+03  0.67605927263E+03  0.00000000000E+00 0. -1.
         24    2    1    2    0    0  0.28590139154E+02  0.19334272887E+02 -0.42872382050E+03  0.43753028782E+03  0.80233586033E+02 0.  0.
         23    2    1    2    0    0 -0.50651914768E+02  0.38845222442E+02 -0.17989159718E+03  0.21220974783E+03  0.92722287299E+02 0.  0.
        -11    1    3    3    0    0 -0.11498045554E+02  0.35165474202E+02 -0.11360844762E+03  0.11948093989E+03  0.00000000000E+00 0.  1.
         12    1    3    3    0    0  0.40088184707E+02 -0.15831201316E+02 -0.31511537288E+03  0.31804934793E+03  0.00000000000E+00 0. -1.
        -13    1    4    4    0    0 -0.27926135259E+02  0.67924383487E+01 -0.16901387676E+03  0.17144006763E+03  0.00000000000E+00 0. -1.
         13    1    4    4    0    0 -0.22725779509E+02  0.32052784094E+02 -0.10877720417E+02  0.40769680204E+02  0.00000000000E+00 0.  1.
          1    1    1    2  501    0  0.22061775615E+02 -0.58179495329E+02 -0.26236025751E+02  0.67527066183E+02  0.00000000000E+00 0. -1.
<scales pt_clust_5="13000.00000" pt_clust_6="13000.00000" pt_clust_7="13000.00000" pt_clust_8="13000.00000" pt_clust_9="62.22199"></scales>
<clustering>
<clus scale="   62.222">  1  9  2 -1</clus>
<clus scale="   80.234">  5  6 -1 -1</clus>
<clus scale="   87.147">  2  5  1 -1</clus>
<clus scale="   92.722">  7  8 -1 -1</clus>
<clus scale="   62.222">  1  5  2 -1</clus>
</clustering>
</event>
<event>
 9    2  0.4653788E-005  0.9722521E+02  0.7546771E-02  0.1291380E+00
          2   -1    0    0  502    0 -0.00000000000E+00  0.00000000000E+00  0.10793412198E+03  0.10793412198E+03  0.00000000000E+00 0. -1.
         21   -1    0    0  501  502  0.00000000000E+00 -0.00000000000E+00 -0.16865575091E+03  0.16865575091E+03  0.00000000000E+00 0.  1.
         24    2    1    2    0    0  0.33666404684E+02 -0.30530503524E+01  0.48043425411E+02  0.10013665839E+03  0.81095201504E+02 0.  0.
         23    2    1    2    0    0 -0.33643690328E+02  0.28644622253E+02 -0.50591583338E+02  0.11289944360E+03  0.90743395231E+02 0.  0.
        -11    1    3    3    0    0 -0.21740413359E+02  0.13179463372E+02  0.30683655430E+02  0.39847591374E+02  0.00000000000E+00 0.  1.
         12    1    3    3    0    0  0.55406818043E+02 -0.16232513725E+02  0.17359769981E+02  0.60289067013E+02  0.00000000000E+00 0. -1.
        -13    1    4    4    0    0  0.28772299698E+01  0.31781673752E+02  0.16889459619E+02  0.36105499374E+02  0.00000000000E+00 0.  1.
         13    1    4    4    0    0 -0.36520920298E+02 -0.31370514994E+01 -0.67481042957E+02  0.76793944228E+02  0.00000000000E+00 0. -1.
          1    1    1    2  501    0 -0.22714356253E-01 -0.25591571901E+02 -0.58173470996E+02  0.63553770903E+02  0.00000000000E+00 0. -1.
<scales pt_clust_5="13000.00000" pt_clust_6="13000.00000" pt_clust_7="13000.00000" pt_clust_8="13000.00000" pt_clust_9="25.59158"></scales>
<clustering>
<clus scale="   25.592">  2  9  1 -1</clus>
<clus scale="   81.095">  5  6 -1 -1</clus>
<clus scale="   88.288">  1  5  2 -1</clus>
<clus scale="   90.743">  7  8 -1 -1</clus>
<clus scale="   25.592">  2  5  1 -1</clus>
</clustering>
</event>
<event>
 9    2  0.4653788E-005  0.9219647E+02  0.7546771E-02  0.1300664E+00
         -3   -1    0    0    0  501 -0.00000000000E+00  0.00000000000E+00  0.58338553858E+02  0.58338553858E+02  0.00000000000E+00 0.  1.
         21   -1    0    0  501  502  0.00000000000E+00 -0.00000000000E+00 -0.45000941382E+03  0.45000941382E+03  0.00000000000E+00 0. -1.
         23    2    1    2    0    0 -0.28943482525E+02  0.38987445185E+02  0.67959190072E+01  0.89856263938E+02  0.75300847213E+02 0.  0.
         24    2    1    2    0    0  0.19736441630E+00 -0.25162044687E+02 -0.19698648366E+03  0.21450202164E+03  0.81081903639E+02 0.  0.
        -11    1    4    4    0    0  0.30151951954E+02 -0.26139395878E+02 -0.47485160753E+02  0.62026193784E+02  0.00000000000E+00 0.  1.
         12    1    4    4    0    0 -0.29954587538E+02  0.97735119089E+00 -0.14950132291E+03  0.15247582786E+03  0.00000000000E+00 0. -1.
        -13    1    3    3    0    0  0.16598277275E+02  0.36481982756E+02  0.16296319720E+02  0.43266706724E+02  0.00000000000E+00 0.  1.
         13    1    3    3    0    0 -0.45541759800E+02  0.25054624292E+01 -0.95004007130E+01  0.46589557214E+02  0.00000000000E+00 0. -1.
         -4    1    1    2    0  502  0.28746118108E+02 -0.13825400499E+02 -0.20148029530E+03  0.20398968209E+03  0.00000000000E+00 0.  1.
<scales pt_clust_5="13000.00000" pt_clust_6="13000.00000" pt_clust_7="13000.00000" pt_clust_8="13000.00000" pt_clust_9="31.89798"></scales>
<clustering>
<clus scale="   31.898">  2  9  1 -1</clus>
<clus scale="   75.301">  7  8 -1 -1</clus>
<clus scale="   81.082">  5  6 -1 -1</clus>
<clus scale="   87.156">  1  7  2 -1</clus>
<clus scale="   31.898">  2  5  1 -1</clus>
</clustering>
</event>
<event>
 9    2  0.4653788E-005  0.2485484E+03  0.7546771E-02  0.1129407E+00
         21   -1    0    0  501  502  0.00000000000E+00  0.00000000000E+00  0.27088917473E+03  0.27088917473E+03  0.00000000000E+00 0.  1.
         -1   -1    0    0    0  501 -0.00000000000E+00 -0.00000000000E+00 -0.64699050233E+03  0.64699050233E+03  0.00000000000E+00 0.  1.
         24    2    1    2    0    0 -0.14993044919E+03  0.14057687481E+01 -0.81958955394E+02  0.18894130583E+03  0.80625249750E+02 0.  0.
         23    2    1    2    0    0  0.19666899760E+03  0.22144038727E+03 -0.37670208080E+03  0.48673802721E+03  0.85410243702E+02 0.  0.
        -13    1    3    3    0    0 -0.13374210185E+03  0.29198086305E+02 -0.57244604664E+02  0.14837932071E+03  0.00000000000E+00 0.  1.
         14    1    3    3    0    0 -0.16188347349E+02 -0.27792317557E+02 -0.24714350730E+02  0.40561985122E+02  0.00000000000E+00 0. -1.
        -13    1    4    4    0    0  0.49922446042E+01  0.29672831168E+02 -0.12241952636E+02  0.32484839850E+02  0.00000000000E+00 0. -1.
         13    1    4    4    0    0  0.19167675299E+03  0.19176755610E+03 -0.36446012816E+03  0.45425318736E+03  0.00000000000E+00 0.  1.
         -2    1    1    2    0  502 -0.46738548404E+02 -0.22284615601E+03  0.82559708592E+02  0.24220034401E+03  0.00000000000E+00 0.  1.
<scales pt_clust_5="13000.00000" pt_clust_6="13000.00000" pt_clust_7="13000.00000" pt_clust_8="13000.00000" pt_clust_9="233.41253"></scales>
<clustering>
<clus scale="   80.625">  5  6 -1 -1</clus>
<clus scale="   85.410">  7  8 -1 -1</clus>
<clus scale="  170.240">  2  5  1 -1</clus>
<clus scale="  233.413">  1  9  2 -1</clus>
<clus scale="  233.413">  1  5  2 -1</clus>
</clustering>
</event>
<event>
 9    2  0.4653788E-005  0.1119879E+03  0.7546771E-02  0.1261850E+00
          2   -1    0    0  502    0 -0.00000000000E+00  0.00000000000E+00  0.24909549648E+03  0.24909549648E+03  0.00000000000E+00 0. -1.
         21   -1    0    0  501  502  0.00000000000E+00 -0.00000000000E+00 -0.28234421995E+03  0.28234421995E+03  0.00000000000E+00 0.  1.
         23    2    1    2    0    0  0.35587754164E+02  0.50841564457E+02  0.20093794582E+03  0.22945077870E+03  0.91761913943E+02 0.  0.
         24    2    1    2    0    0 -0.27140186231E+02 -0.76661980725E+02 -0.64897560101E+02  0.13053381884E+03  0.78827251364E+02 0.  0.
        -13    1    4    4    0    0 -0.17983766310E+02 -0.68878854484E+02 -0.82659459077E+02  0.10908848986E+03  0.00000000000E+00 0.  1.
         14    1    4    4    0    0 -0.91564199210E+01 -0.77831262416E+01  0.17761898976E+02  0.21445328981E+02  0.00000000000E+00 0. -1.
        -13    1    3    3    0    0  0.12036082055E+02  0.73623706602E+02  0.16339207609E+03  0.17961705925E+03  0.00000000000E+00 0. -1.
         13    1    3    3    0    0  0.23551672109E+02 -0.22782142145E+02  0.37545869730E+02  0.49833719443E+02  0.00000000000E+00 0.  1.
          1    1    1    2  501    0 -0.84475679328E+01  0.25820416268E+02 -0.16928910919E+03  0.17145511888E+03  0.00000000000E+00 0. -1.
<scales pt_clust_5="13000.00000" pt_clust_6="13000.00000" pt_clust_7="13000.00000" pt_clust_8="13000.00000" pt_clust_9="27.16717"></scales>
<clustering>
<clus scale="   27.167">  2  9  1 -1</clus>
<clus scale="   78.827">  5  6 -1 -1</clus>
<clus scale="   91.762">  7  8 -1 -1</clus>
<clus scale="  101.660">  2  5  1 -1</clus>
<clus scale="   27.167">  2  5  1 -1</clus>
</clustering>
</event>
<event>
 9    2  0.4653788E-005  0.1284202E+03  0.7546771E-02  0.1232449E+00
         21   -1    0    0  501  502  0.00000000000E+00  0.00000000000E+00  0.45872183094E+02  0.45872183094E+02  0.00000000000E+00 0.  1.
         -1   -1    0    0    0  501 -0.00000000000E+00 -0.00000000000E+00 -0.13836097980E+04  0.13836097980E+04  0.00000000000E+00 0.  1.
         23    2    1    2    0    0 -0.69779704594E+02  0.53185715746E+01 -0.35332156467E+03  0.37133054636E+03  0.90292592310E+02 0.  0.
         24    2    1    2    0    0  0.16840690697E+03  0.47489605210E+02 -0.25149109149E+03  0.31673722949E+03  0.80365132535E+02 0.  0.
        -13    1    4    4    0    0  0.13592318136E+03  0.60058780384E+01 -0.15087994950E+03  0.20316481231E+03  0.00000000000E+00 0.  1.
         14    1    4    4    0    0  0.32483725603E+02  0.41483727172E+02 -0.10061114199E+03  0.11357241717E+03  0.00000000000E+00 0. -1.
        -11    1    3    3    0    0  0.12632861043E+02 -0.19932880306E+02 -0.40727203060E+02  0.47070308736E+02  0.00000000000E+00 0. -1.
         11    1    3    3    0    0 -0.82412565636E+02  0.25251451881E+02 -0.31259436161E+03  0.32426023763E+03  0.00000000000E+00 0.  1.
         -2    1    1    2    0  502 -0.98627202372E+02 -0.52808176785E+02 -0.73292495879E+03  0.74141420529E+03  0.00000000000E+00 0.  1.
<scales pt_clust_5="13000.00000" pt_clust_6="13000.00000" pt_clust_7="13000.00000" pt_clust_8="13000.00000" pt_clust_9="111.87511"></scales>
<clustering>
<clus scale="   80.365">  5  6 -1 -1</clus>
<clus scale="   90.293">  7  8 -1 -1</clus>
<clus scale="  111.875">  1  9  2 -1</clus>
<clus scale="  121.645">  1  5  2 -1</clus>
<clus scale="  111.875">  1  5  2 -1</clus>
</clustering>
</event>
<event>
 9    2  0.4653788E-005  0.8754638E+02  0.7546771E-02  0.1314257E+00
         -1   -1    0    0    0  501 -0.00000000000E+00  0.00000000000E+00  0.10494963435E+03  0.10494963435E+03  0.00000000000E+00 0.  1.
         21   -1    0    0  501  502  0.00000000000E+00 -0.00000000000E+00 -0.12806295021E+03  0.12806295021E+03  0.00000000000E+00 0. -1.
         24    2    1    2    0    0 -0.12456562215E+02  0.16565639027E+02  0.25714620660E+02  0.85108668464E+02  0.78438876799E+02 0.  0.
         23    2    1    2    0    0  0.12869874783E+02  0.30323755423E+02 -0.30581686213E+02  0.97587797513E+02  0.86619714106E+02 0.  0.
        -13    1    3    3    0    0 -0.16832668427E+02 -0.24962210664E+02 -0.83222897981E+01  0.31236376152E+02  0.00000000000E+00 0.  1.
         14    1    3    3    0    0  0.43761062119E+01  0.41527849691E+02  0.34036910458E+02  0.53872292313E+02  0.00000000000E+00 0. -1.
        -11    1    4    4    0    0  0.15786864078E+02 -0.28432130468E+02 -0.18889662607E+02  0.37608914818E+02  0.00000000000E+00 0.  1.
         11    1    4    4    0    0 -0.29169892951E+01  0.58755885890E+02 -0.11692023606E+02  0.59978882695E+02  0.00000000000E+00 0. -1.
         -2    1    1    2    0  502 -0.41331256798E+00 -0.46889394449E+02 -0.18246250299E+02  0.50316118581E+02  0.00000000000E+00 0.  1.
<scales pt_clust_5="13000.00000" pt_clust_6="13000.00000" pt_clust_7="13000.00000" pt_clust_8="13000.00000" pt_clust_9="46.89122"></scales>
<clustering>
<clus scale="   46.891">  2  9  1 -1</clus>
<clus scale="   78.439">  5  6 -1 -1</clus>
<clus scale="   79.461">  1  5  2 -1</clus>
<clus scale="   86.620">  7  8 -1 -1</clus>
<clus scale="   46.891">  2  5  1 -1</clus>
</clustering>
</event>
<event>
 9    2  0.4653788E-005  0.1455527E+03  0.7546771E-02  0.1208365E+00
         21   -1    0    0  501  502  0.00000000000E+00  0.00000000000E+00  0.23536340936E+03  0.23536340936E+03  0.00000000000E+00 0. -1.
         -1   -1    0    0    0  501 -0.00000000000E+00 -0.00000000000E+00 -0.17787139352E+03  0.17787139352E+03  0.00000000000E+00 0.  1.
         23    2    1    2    0    0  0.84173788500E+02 -0.84651006615E+02 -0.63082326402E+02  0.16313449538E+03  0.91555797672E+02 0.  0.
         24    2    1    2    0    0 -0.68168422855E+02  0.60053013338E+02  0.16023595474E+03  0.20076191972E+03  0.79852920632E+02 0.  0.
        -13    1    4    4    0    0 -0.31822323906E+02  0.10780636411E+02  0.51038380765E+01  0.33984284358E+02  0.00000000000E+00 0.  1.
         14    1    4    4    0    0 -0.36346098948E+02  0.49272376927E+02  0.15513211667E+03  0.16677763537E+03  0.00000000000E+00 0. -1.
        -11    1    3    3    0    0  0.29454847825E+02 -0.40509868389E+02  0.20322408240E+02  0.54052176404E+02  0.00000000000E+00 0. -1.
         11    1    3    3    0    0  0.54718940675E+02 -0.44141138225E+02 -0.83404734643E+02  0.10908231898E+03  0.00000000000E+00 0.  1.
         -2    1    1    2    0  502 -0.16005365646E+02  0.24597993277E+02 -0.39661612495E+02  0.49338387776E+02  0.00000000000E+00 0.  1.
<scales pt_clust_5="13000.00000" pt_clust_6="13000.00000" pt_clust_7="13000.00000" pt_clust_8="13000.00000" pt_clust_9="29.34679"></scales>
<clustering>
<clus scale="   29.347">  1  9  2 -1</clus>
<clus scale="   79.853">  5  6 -1 -1</clus>
<clus scale="   91.556">  7  8 -1 -1</clus>
<clus scale="  138.490">  1  5  2 -1</clus>
<clus scale="   29.347">  1  5  2 -1</clus>
</clustering>
</event>
<event>
 9    2  0.4653788E-005  0.2040296E+03  0.7546771E-02  0.1146945E+00
          2   -1    0    0  502    0 -0.00000000000E+00  0.00000000000E+00  0.76576499019E+03  0.76576499019E+03  0.00000000000E+00 0. -1.
         21   -1    0    0  501  502  0.00000000000E+00 -0.00000000000E+00 -0.86762886205E+02  0.86762886205E+02  0.00000000000E+00 0. -1.
         23    2    1    2    0    0  0.15154483207E+03 -0.44984757007E+02  0.26246264473E+03  0.31821263568E+03  0.85925416122E+02 0.  0.
         24    2    1    2    0    0 -0.19448968328E+03  0.12456861749E+03  0.30705854998E+03  0.39231552033E+03  0.79264979699E+02 0.  0.
        -11    1    4    4    0    0 -0.99327704536E+02  0.88206054852E+02  0.11857307434E+03  0.17806143591E+03  0.00000000000E+00 0.  1.
         12    1    4    4    0    0 -0.95161978748E+02  0.36362562640E+02  0.18848547564E+03  0.21425408442E+03  0.00000000000E+00 0. -1.
        -13    1    3    3    0    0  0.65540907718E+02 -0.48705410154E+02  0.18575427119E+03  0.20291002150E+03  0.00000000000E+00 0.  1.
         13    1    3    3    0    0  0.86003924349E+02  0.37206531474E+01  0.76708373548E+02  0.11530261417E+03  0.00000000000E+00 0. -1.
          1    1    1    2  501    0  0.42944851217E+02 -0.79583860485E+02  0.10948090928E+03  0.14199972039E+03  0.00000000000E+00 0. -1.
<scales pt_clust_5="13000.00000" pt_clust_6="13000.00000" pt_clust_7="13000.00000" pt_clust_8="13000.00000" pt_clust_9="90.43147"></scales>
<clustering>
<clus scale="   79.265">  5  6 -1 -1</clus>
<clus scale="   85.925">  7  8 -1 -1</clus>
<clus scale="   90.431">  2  9  1 -1</clus>
<clus scale="  201.315">  2  5  1 -1</clus>
<clus scale="   90.431">  2  5  1 -1</clus>
</clustering>
</event>
<event>
 9    2  0.4653788E-005  0.9899475E+02  0.7546771E-02  0.1287259E+00
         -1   -1    0    0    0  501 -0.00000000000E+00  0.00000000000E+00  0.15738462975E+03  0.15738462975E+03  0.00000000000E+00 0.  1.
         21   -1    0    0  501  502  0.00000000000E+00 -0.00000000000E+00 -0.13401001502E+03  0.13401001502E+03  0.00000000000E+00 0. -1.
         23    2    1    2    0    0 -0.44065414836E+02  0.16243789645E+01  0.92769538799E+02  0.13760036196E+03  0.91560214569E+02 0.  0.
         24    2    1    2    0    0  0.24565904066E+02  0.56926834824E+01 -0.49519013988E+01  0.86069298547E+02  0.82143244014E+02 0.  0.
        -11    1    4    4    0    0 -0.63927326006E+01  0.36949522814E+02 -0.15906130075E+02  0.40732532946E+02  0.00000000000E+00 0.  1.
         12    1    4    4    0    0  0.30958636667E+02 -0.31256839331E+02  0.10954228676E+02  0.45336765601E+02  0.00000000000E+00 0. -1.
        -11    1    3    3    0    0 -0.22920292711E+02  0.21224809523E+02  0.10251257060E+03  0.10716650357E+03  0.00000000000E+00 0.  1.
         11    1    3    3    0    0 -0.21145122125E+02 -0.19600430558E+02 -0.97430318019E+01  0.30433858389E+02  0.00000000000E+00 0. -1.
         -2    1    1    2    0  502  0.19499510770E+02 -0.73170624469E+01 -0.64443022668E+02  0.67724984265E+02  0.00000000000E+00 0.  1.
<scales pt_clust_5="13000.00000" pt_clust_6="13000.00000" pt_clust_7="13000.00000" pt_clust_8="13000.00000" pt_clust_9="20.82715"></scales>
<clustering>
<clus scale="   20.827">  2  9  1 -1</clus>
<clus scale="   82.143">  5  6 -1 -1</clus>
<clus scale="   90.356">  2  5  1 -1</clus>
<clus scale="   91.560">  7  8 -1 -1</clus>
<clus scale="   20.827">  2  5  1 -1</clus>
</clustering>
</event>
<event>
 9    2  0.4653788E-005  0.1381427E+03  0.7546771E-02  0.1226218E+00
          2   -1    0    0  502    0 -0.00000000000E+00  0.00000000000E+00  0.47393547928E+03  0.47393547928E+03  0.00000000000E+00 0. -1.
         21   -1    0    0  501  502  0.00000000000E+00 -0.00000000000E+00 -0.11457530632E+03  0.11457530632E+03  0.00000000000E+00 0.  1.
         23    2    1    2    0    0  0.25794289726E+02  0.58112421742E+02  0.14653544319E+03  0.18392726305E+03  0.91182251763E+02 0.  0.
         24    2    1    2    0    0  0.29833198530E+02  0.96555415561E+02 -0.88831609257E+01  0.12859267826E+03  0.79020240092E+02 0.  0.
        -11    1    4    4    0    0  0.29484857504E+02  0.18515406524E+02 -0.31908156898E+02  0.47226132357E+02  0.00000000000E+00 0.  1.
         12    1    4    4    0    0  0.34834102595E+00  0.78040009037E+02  0.23024995972E+02  0.81366545899E+02  0.00000000000E+00 0. -1.
        -11    1    3    3    0    0 -0.15985419694E+02 -0.13425261098E+02  0.76934759440E+01  0.22247715623E+02  0.00000000000E+00 0. -1.
         11    1    3    3    0    0  0.41779709419E+02  0.71537682839E+02  0.13884196725E+03  0.16167954742E+03  0.00000000000E+00 0.  1.
          1    1    1    2  501    0 -0.55627488256E+02 -0.15466783730E+03  0.22170789069E+03  0.27599084430E+03  0.00000000000E+00 0. -1.
<scales pt_clust_5="13000.00000" pt_clust_6="13000.00000" pt_clust_7="13000.00000" pt_clust_8="13000.00000" pt_clust_9="113.31028"></scales>
<clustering>
<clus scale="   79.020">  5  6 -1 -1</clus>
<clus scale="   91.182">  7  8 -1 -1</clus>
<clus scale="  111.160">  1  7  2 -1</clus>
<clus scale="  113.310">  2  9  1 -1</clus>
<clus scale="  113.310">  2  5  1 -1</clus>
</clustering>
</event>
<event>
 9    2  0.4653788E-005  0.1027279E+03  0.7546771E-02  0.1275728E+00
         21   -1    0    0  501  502  0.00000000000E+00  0.00000000000E+00  0.59509392697E+02  0.59509392697E+02  0.00000000000E+00 0. -1.
          2   -1    0    0  502    0 -0.00000000000E+00 -0.00000000000E+00 -0.60405378619E+03  0.60405378619E+03  0.00000000000E+00 0. -1.
         23    2    1    2    0    0  0.58392757844E+02 -0.18697265590E+02 -0.33537704487E+03  0.35165976738E+03  0.86183106553E+02 0.  0.
         24    2    1    2    0    0  0.18985951664E+02  0.87860130217E+02 -0.74448338708E+02  0.14184407434E+03  0.80605939269E+02 0.  0.
        -11    1    4    4    0    0 -0.28827572782E+02  0.23649866456E+02 -0.87980849691E+01  0.38311244237E+02  0.00000000000E+00 0.  1.
         12    1    4    4    0    0  0.47813524446E+02  0.64210263762E+02 -0.65650253739E+02  0.10353283010E+03  0.00000000000E+00 0. -1.
        -11    1    3    3    0    0  0.76073315964E+02  0.36243876611E+01 -0.21957206996E+03  0.23240520540E+03  0.00000000000E+00 0. -1.
         11    1    3    3    0    0 -0.17680558120E+02 -0.22321653252E+02 -0.11580497491E+03  0.11925456198E+03  0.00000000000E+00 0.  1.
          1    1    1    2  501    0 -0.77378709508E+02 -0.69162864627E+02 -0.13471900991E+03  0.17005933717E+03  0.00000000000E+00 0. -1.
<scales pt_clust_5="13000.00000" pt_clust_6="13000.00000" pt_clust_7="13000.00000" pt_clust_8="13000.00000" pt_clust_9="103.78327"></scales>
<clustering>
<clus scale="   80.606">  5  6 -1 -1</clus>
<clus scale="   86.183">  7  8 -1 -1</clus>
<clus scale="  103.783">  1  9  2 -1</clus>
<clus scale="  103.783">  1  5  2 -1</clus>
<clus scale="  102.728">  1  5  2 -1</clus>
</clustering>
</event>
<event>
 9    2  0.4653788E-005  0.1037382E+03  0.7546771E-02  0.1277600E+00
          2   -1    0    0  502    0 -0.00000000000E+00  0.00000000000E+00  0.44423754389E+03  0.44423754389E+03  0.00000000000E+00 0. -1.
         21   -1    0    0  501  502  0.00000000000E+00 -0.00000000000E+00 -0.48028575577E+03  0.48028575577E+03  0.00000000000E+00 0. -1.
         23    2    1    2    0    0 -0.26778551838E+02  0.19123909322E+00  0.16943671041E+03  0.19419851843E+03  0.91033720751E+02 0.  0.
         24    2    1    2    0    0  0.49478279055E+02  0.64779981942E+02  0.24725080787E+03  0.27238790946E+03  0.80110330612E+02 0.  0.
        -11    1    4    4    0    0  0.17959273319E+02  0.31072551871E+02  0.21010252929E+03  0.21314575246E+03  0.00000000000E+00 0.  1.
         12    1    4    4    0    0  0.31519005736E+02  0.33707430072E+02  0.37148278573E+02  0.59242156996E+02  0.00000000000E+00 0. -1.
        -13    1    3    3    0    0 -0.26959257831E+02  0.43712512453E+02  0.90191526806E+02  0.10378871247E+03  0.00000000000E+00 0.  1.
         13    1    3    3    0    0  0.18070599244E+00 -0.43521273360E+02  0.79245183601E+02  0.90409805959E+02  0.00000000000E+00 0. -1.
          1    1    1    2  501    0 -0.22699727217E+02 -0.64971221036E+02 -0.45273573015E+03  0.45793687178E+03  0.00000000000E+00 0. -1.
<scales pt_clust_5="13000.00000" pt_clust_6="13000.00000" pt_clust_7="13000.00000" pt_clust_8="13000.00000" pt_clust_9="68.82250"></scales>
<clustering>
<clus scale="   68.823">  2  9  1 -1</clus>
<clus scale="   80.110">  5  6 -1 -1</clus>
<clus scale="   91.034">  7  8 -1 -1</clus>
<clus scale="   94.298">  2  5  1 -1</clus>
<clus scale="   68.823">  2  5  1 -1</clus>
</clustering>
</event>
<event>
 9    2  0.4653788E-005  0.1078022E+03  0.7546771E-02  0.1268030E+00
         -1   -1    0    0    0  501 -0.00000000000E+00  0.00000000000E+00  0.42000053751E+03  0.42000053751E+03  0.00000000000E+00 0.  1.
         21   -1    0    0  501  502  0.00000000000E+00 -0.00000000000E+00 -0.54400846870E+02  0.54400846870E+02  0.00000000000E+00 0.  1.
         23    2    1    2    0    0 -0.69781066528E+02  0.38688919143E+01  0.30211316305E+03  0.32335443477E+03  0.91658941870E+02 0.  0.
         24    2    1    2    0    0  0.23372094688E+02  0.12588228517E+02  0.43591602309E+02  0.97939157980E+02  0.83589069660E+02 0.  0.
        -11    1    4    4    0    0  0.35031541212E+01  0.47281654671E+02  0.19524988003E+02  0.51274283162E+02  0.00000000000E+00 0.  1.
         12    1    4    4    0    0  0.19868940567E+02 -0.34693426154E+02  0.24066614306E+02  0.46664874818E+02  0.00000000000E+00 0. -1.
        -13    1    3    3    0    0  0.17208113091E+02  0.20430563753E+02  0.69847711264E+02  0.74781213285E+02  0.00000000000E+00 0. -1.
         13    1    3    3    0    0 -0.86989179619E+02 -0.16561671839E+02  0.23226545179E+03  0.24857322148E+03  0.00000000000E+00 0.  1.
         -2    1    1    2    0  502  0.46408971840E+02 -0.16457120431E+02  0.19894925278E+02  0.53107791632E+02  0.00000000000E+00 0.  1.
<scales pt_clust_5="13000.00000" pt_clust_6="13000.00000" pt_clust_7="13000.00000" pt_clust_8="13000.00000" pt_clust_9="49.24053"></scales>
<clustering>
<clus scale="   49.241">  2  9  1 -1</clus>
<clus scale="   83.589">  5  6 -1 -1</clus>
<clus scale="   91.659">  7  8 -1 -1</clus>
<clus scale="  101.030">  2  5  1 -1</clus>
<clus scale="   49.241">  2  5  1 -1</clus>
</clustering>
</event>
<event>
 9    2  0.4653788E-005  0.1122063E+03  0.7546771E-02  0.1270926E+00
         21   -1    0    0  501  502  0.00000000000E+00  0.00000000000E+00  0.52952844268E+02  0.52952844268E+02  0.00000000000E+00 0.  1.
         -3   -1    0    0    0  501 -0.00000000000E+00 -0.00000000000E+00 -0.70247679072E+03  0.70247679072E+03  0.00000000000E+00 0.  1.
         23    2    1    2    0    0  0.14490853990E+02 -0.60668216027E+01 -0.44365394434E+03  0.45737795384E+03  0.11008623509E+03 0.  0.
         24    2    1    2    0    0  0.51308502242E+02  0.55708998739E+02 -0.17982864646E+03  0.21161064208E+03  0.81882029851E+02 0.  0.
        -11    1    4    4    0    0  0.54362993812E+02  0.30569756541E+02 -0.51721436045E+02  0.81024391746E+02  0.00000000000E+00 0.  1.
         12    1    4    4    0    0 -0.30544915699E+01  0.25139242198E+02 -0.12810721041E+03  0.13058625034E+03  0.00000000000E+00 0. -1.
        -11    1    3    3    0    0  0.59862342416E+02 -0.71321511925E+01 -0.32066281445E+03  0.32628056668E+03  0.00000000000E+00 0.  1.
         11    1    3    3    0    0 -0.45371488426E+02  0.10653295898E+01 -0.12299112989E+03  0.13109738716E+03  0.00000000000E+00 0. -1.
         -4    1    1    2    0  502 -0.65799356232E+02 -0.49642177136E+02 -0.26041355660E+02  0.86441039073E+02  0.00000000000E+00 0.  1.
<scales pt_clust_5="13000.00000" pt_clust_6="13000.00000" pt_clust_7="13000.00000" pt_clust_8="13000.00000" pt_clust_9="82.42512"></scales>
<clustering>
<clus scale="   81.882">  5  6 -1 -1</clus>
<clus scale="   82.425">  1  9  2 -1</clus>
<clus scale="   84.711">  1  5  2 -1</clus>
<clus scale="  110.086">  7  8 -1 -1</clus>
<clus scale="   82.425">  1  5  2 -1</clus>
</clustering>
</event>
<event>
 9    2  0.4653788E-005  0.1061316E+03  0.7546771E-02  0.1268589E+00
          2   -1    0    0  502    0 -0.00000000000E+00  0.00000000000E+00  0.51251327334E+03  0.51251327334E+03  0.00000000000E+00 0. -1.
         21   -1    0    0  501  502  0.00000000000E+00 -0.00000000000E+00 -0.59884788630E+02  0.59884788630E+02  0.00000000000E+00 0. -1.
         24    2    1    2    0    0  0.61949361957E+02 -0.36930364661E+02  0.38781792206E+03  0.40245925838E+03  0.79806883814E+02 0.  0.
         23    2    1    2    0    0 -0.33651061068E+02  0.19898986488E+02 -0.71185902878E+01  0.90789168606E+02  0.81631092325E+02 0.  0.
        -13    1    3    3    0    0 -0.19007418117E+02 -0.12623794828E+02  0.72296811313E+02  0.75812077306E+02  0.00000000000E+00 0.  1.
         14    1    3    3    0    0  0.80956780074E+02 -0.24306569834E+02  0.31552111075E+03  0.32664718108E+03  0.00000000000E+00 0. -1.
        -13    1    4    4    0    0  0.24108799629E+02  0.11921623166E+01  0.12239634355E+02  0.27064074336E+02  0.00000000000E+00 0.  1.
         13    1    4    4    0    0 -0.57759860697E+02  0.18706824172E+02 -0.19358224643E+02  0.63725094270E+02  0.00000000000E+00 0. -1.
          1    1    1    2  501    0 -0.28298300888E+02  0.17031378173E+02  0.71929152931E+02  0.79149634977E+02  0.00000000000E+00 0. -1.
<scales pt_clust_5="13000.00000" pt_clust_6="13000.00000" pt_clust_7="13000.00000" pt_clust_8="13000.00000" pt_clust_9="33.02821"></scales>
<clustering>
<clus scale="   33.028">  2  9  1 -1</clus>
<clus scale="   79.807">  5  6 -1 -1</clus>
<clus scale="   81.631">  7  8 -1 -1</clus>
<clus scale="  104.735">  1  5  2 -1</clus>
<clus scale="   33.028">  2  5  1 -1</clus>
</clustering>
</event>
<event>
 9    2  0.4653788E-005  0.1057376E+03  0.7546771E-02  0.1273130E+00
          2   -1    0    0  502    0 -0.00000000000E+00  0.00000000000E+00  0.58553736296E+03  0.58553736296E+03  0.00000000000E+00 0. -1.
         21   -1    0    0  501  502  0.00000000000E+00 -0.00000000000E+00 -0.34876016496E+02  0.34876016496E+02  0.00000000000E+00 0.  1.
         24    2    1    2    0    0  0.56358563243E+02 -0.19694298720E+02  0.44176033248E+03  0.45301350232E+03  0.80652891318E+02 0.  0.
         23    2    1    2    0    0 -0.28378460063E+02  0.18733536480E+02  0.96091607985E+02  0.13661205292E+03  0.90955887623E+02 0.  0.
        -11    1    3    3    0    0 -0.15471739169E+02  0.14012076763E+02  0.83133789443E+02  0.85714292596E+02  0.00000000000E+00 0.  1.
         12    1    3    3    0    0  0.71830302411E+02 -0.33706375483E+02  0.35862654304E+03  0.36729920972E+03  0.00000000000E+00 0. -1.
        -11    1    4    4    0    0 -0.92007069262E+01  0.46970895937E+02  0.17560229168E+02  0.50983131735E+02  0.00000000000E+00 0.  1.
         11    1    4    4    0    0 -0.19177753137E+02 -0.28237359456E+02  0.78531378817E+02  0.85628921185E+02  0.00000000000E+00 0. -1.
          1    1    1    2  501    0 -0.27980103180E+02  0.96076224017E+00  0.12809406001E+02  0.30787824219E+02  0.00000000000E+00 0. -1.
<scales pt_clust_5="13000.00000" pt_clust_6="13000.00000" pt_clust_7="13000.00000" pt_clust_8="13000.00000" pt_clust_9="27.99659"></scales>
<clustering>
<clus scale="   27.997">  2  9  1 -1</clus>
<clus scale="   80.653">  5  6 -1 -1</clus>
<clus scale="   90.956">  7  8 -1 -1</clus>
<clus scale="   97.017">  1  5  2 -1</clus>
<clus scale="   27.997">  2  5  1 -1</clus>
</clustering>
</event>
<event>
 9    2  0.4653788E-005  0.9307722E+02  0.7546771E-02  0.1300295E+00
          2   -1    0    0  502    0 -0.00000000000E+00  0.00000000000E+00  0.64119967272E+03  0.64119967272E+03  0.00000000000E+00 0. -1.
         21   -1    0    0  501  502  0.00000000000E+00 -0.00000000000E+00 -0.33834448979E+02  0.33834448979E+02  0.00000000000E+00 0. -1.
         24    2    1    2    0    0  0.21152284175E+02  0.27107677769E+02  0.19676153818E+03  0.21554095843E+03  0.80997262515E+02 0.  0.
         23    2    1    2    0    0 -0.37695301974E+02  0.49866369750E+02  0.13824582412E+03  0.17598393922E+03  0.89167529711E+02 0.  0.
        -13    1    3    3    0    0  0.10656537493E+02  0.35967580777E+02  0.19821080900E+03  0.20172940654E+03  0.00000000000E+00 0.  1.
         14    1    3    3    0    0  0.10495746682E+02 -0.88599030081E+01 -0.14492708219E+01  0.13811551891E+02  0.00000000000E+00 0. -1.
        -11    1    4    4    0    0  0.22518347443E+02  0.33761399082E+02  0.27888772288E+02  0.49241158184E+02  0.00000000000E+00 0.  1.
         11    1    4    4    0    0 -0.60213649417E+02  0.16104970668E+02  0.11035705183E+03  0.12674278104E+03  0.00000000000E+00 0. -1.
          1    1    1    2  501    0  0.16543017799E+02 -0.76974047519E+02  0.27235786144E+03  0.28350922405E+03  0.00000000000E+00 0. -1.
<scales pt_clust_5="13000.00000" pt_clust_6="13000.00000" pt_clust_7="13000.00000" pt_clust_8="13000.00000" pt_clust_9="78.73171"></scales>
<clustering>
<clus scale="   78.732">  2  9  1 -1</clus>
<clus scale="   80.997">  5  6 -1 -1</clus>
<clus scale="   85.282">  1  5  2 -1</clus>
<clus scale="   89.168">  7  8 -1 -1</clus>
<clus scale="   78.732">  2  5  1 -1</clus>
</clustering>
</event>
<event>
 9    2  0.4653788E-005  0.1582717E+03  0.7546771E-02  0.1200638E+00
         21   -1    0    0  501  502  0.00000000000E+00  0.00000000000E+00  0.12996336790E+04  0.12996336790E+04  0.00000000000E+00 0.  1.
         -1   -1    0    0    0  501 -0.00000000000E+00 -0.00000000000E+00 -0.12545366975E+03  0.12545366975E+03  0.00000000000E+00 0.  1.
         24    2    1    2    0    0 -0.11310272136E+03  0.17141724335E+01  0.31403407251E+03  0.33882963258E+03  0.58249096587E+02 0.  0.
         23    2    1    2    0    0  0.33004188676E+02  0.10139302059E+03 -0.62119638424E+02  0.15479614459E+03  0.93451462311E+02 0.  0.
        -13    1    3    3    0    0 -0.72243922062E+02  0.10190392266E+02  0.26286744882E+03  0.27280455279E+03  0.00000000000E+00 0.  1.
         14    1    3    3    0    0 -0.40858799301E+02 -0.84762198326E+01  0.51166623685E+02  0.66025079797E+02  0.00000000000E+00 0. -1.
        -13    1    4    4    0    0  0.29072937860E+02  0.18744819546E+02  0.18537864752E+02  0.39246100510E+02  0.00000000000E+00 0. -1.
         13    1    4    4    0    0  0.39312508163E+01  0.82648201043E+02 -0.80657503176E+02  0.11555004408E+03  0.00000000000E+00 0.  1.
         -2    1    1    2    0  502  0.80098532686E+02 -0.10310719302E+03  0.92226557519E+03  0.93146157161E+03  0.00000000000E+00 0.  1.
<scales pt_clust_5="13000.00000" pt_clust_6="13000.00000" pt_clust_7="13000.00000" pt_clust_8="13000.00000" pt_clust_9="127.73709"></scales>
<clustering>
<clus scale="   58.249">  5  6 -1 -1</clus>
<clus scale="   93.451">  7  8 -1 -1</clus>
<clus scale="  127.233">  2  5  1 -1</clus>
<clus scale="  127.737">  1  9  2 -1</clus>
<clus scale="  127.737">  1  5  2 -1</clus>
</clustering>
</event>
<event>
 9    2  0.4653788E-005  0.1015172E+03  0.7546771E-02  0.1278504E+00
         -1   -1    0    0    0  501 -0.00000000000E+00  0.00000000000E+00  0.11406748166E+03  0.11406748166E+03  0.00000000000E+00 0.  1.
         21   -1    0    0  501  502  0.00000000000E+00 -0.00000000000E+00 -0.28250180129E+03  0.28250180129E+03  0.00000000000E+00 0. -1.
         24    2    1    2    0    0  0.33360369320E+02  0.13952638964E+02  0.29169033346E+02  0.10432235359E+03  0.93406266264E+02 0.  0.
         23    2    1    2    0    0 -0.26895211609E+02 -0.42373373945E+02 -0.11838977144E+02  0.10420985916E+03  0.90557595701E+02 0.  0.
        -11    1    3    3    0    0  0.11659919669E+02  0.53369943726E+02  0.21347499000E+02  0.58651686537E+02  0.00000000000E+00 0.  1.
         12    1    3    3    0    0  0.21700449651E+02 -0.39417304762E+02  0.78215343462E+01  0.45670667055E+02  0.00000000000E+00 0. -1.
        -13    1    4    4    0    0 -0.46290890367E+02 -0.60709185673E+02 -0.13233422119E+02  0.77482741414E+02  0.00000000000E+00 0. -1.
         13    1    4    4    0    0  0.19395678757E+02  0.18335811728E+02  0.13944449754E+01  0.26727117745E+02  0.00000000000E+00 0.  1.
         -2    1    1    2    0  502 -0.64651577102E+01  0.28420734980E+02 -0.18576437584E+03  0.18803707020E+03  0.00000000000E+00 0.  1.
<scales pt_clust_5="13000.00000" pt_clust_6="13000.00000" pt_clust_7="13000.00000" pt_clust_8="13000.00000" pt_clust_9="29.14681"></scales>
<clustering>
<clus scale="   29.147">  2  9  1 -1</clus>
<clus scale="   90.558">  7  8 -1 -1</clus>
<clus scale="   93.406">  5  6 -1 -1</clus>
<clus scale="   98.902">  2  7  1 -1</clus>
<clus scale="   29.147">  2  5  1 -1</clus>
</clustering>
</event>
<event>
 9    2  0.4653788E-005  0.9266421E+02  0.7546771E-02  0.1303080E+00
         21   -1    0    0  501  502  0.00000000000E+00  0.00000000000E+00  0.65082161425E+02  0.65082161425E+02  0.00000000000E+00 0.  1.
         -1   -1    0    0    0  501 -0.00000000000E+00 -0.00000000000E+00 -0.29126604961E+03  0.29126604961E+03  0.00000000000E+00 0.  1.
         24    2    1    2    0    0  0.11009915889E+02  0.23963650362E+02 -0.70421583582E+02  0.11054240254E+03  0.81024370023E+02 0.  0.
         23    2    1    2    0    0  0.40738550638E+02  0.12300585059E+02 -0.30644652716E+02  0.10563653450E+03  0.91700865759E+02 0.  0.
        -11    1    3    3    0    0  0.99501501335E+01  0.51833098325E+02 -0.61970815123E+02  0.81400598872E+02  0.00000000000E+00 0.  1.
         12    1    3    3    0    0  0.10597657550E+01 -0.27869447964E+02 -0.84507684595E+01  0.29141803664E+02  0.00000000000E+00 0. -1.
        -11    1    4    4    0    0  0.63986919857E+02  0.20536672744E+01 -0.43264870384E+02  0.77268314796E+02  0.00000000000E+00 0.  1.
         11    1    4    4    0    0 -0.23248369219E+02  0.10246917785E+02  0.12620217668E+02  0.28368219708E+02  0.00000000000E+00 0. -1.
         -2    1    1    2    0  502 -0.51748466527E+02 -0.36264235421E+02 -0.12511765189E+03  0.14016927400E+03  0.00000000000E+00 0.  1.
<scales pt_clust_5="13000.00000" pt_clust_6="13000.00000" pt_clust_7="13000.00000" pt_clust_8="13000.00000" pt_clust_9="63.19021"></scales>
<clustering>
<clus scale="   63.190">  1  9  2 -1</clus>
<clus scale="   81.024">  5  6 -1 -1</clus>
<clus scale="   82.113">  2  5  1 -1</clus>
<clus scale="   91.701">  7  8 -1 -1</clus>
<clus scale="   63.190">  1  5  2 -1</clus>
</clustering>
</event>
<event>
 9    2  0.4653788E-005  0.1076073E+03  0.7546771E-02  0.1269560E+00
         -1   -1    0    0    0  501 -0.00000000000E+00  0.00000000000E+00  0.37400797077E+03  0.37400797077E+03  0.00000000000E+00 0.  1.
         21   -1    0    0  501  502  0.00000000000E+00 -0.00000000000E+00 -0.54940667967E+02  0.54940667967E+02  0.00000000000E+00 0.  1.
         23    2    1    2    0    0 -0.49875316486E+02 -0.10233909075E+01  0.16238977322E+03  0.19290449619E+03  0.91395359186E+02 0.  0.
         24    2    1    2    0    0  0.72246453851E+02  0.22598491787E+02  0.43758965781E+02  0.11892644612E+03  0.80612719687E+02 0.  0.
        -13    1    4    4    0    0  0.55971150554E+02 -0.81865983807E+01 -0.73916592427E+01  0.57047582892E+02  0.00000000000E+00 0.  1.
         14    1    4    4    0    0  0.16275303297E+02  0.30785090168E+02  0.51150625024E+02  0.61878863228E+02  0.00000000000E+00 0. -1.
        -11    1    3    3    0    0 -0.75591844214E+02 -0.64487676481E+01  0.13556557390E+03  0.15535037285E+03  0.00000000000E+00 0. -1.
         11    1    3    3    0    0  0.25716527728E+02  0.54253767405E+01  0.26824199312E+02  0.37554123340E+02  0.00000000000E+00 0.  1.
         -2    1    1    2    0  502 -0.22371137365E+02 -0.21575100880E+02  0.11291856380E+03  0.11711769643E+03  0.00000000000E+00 0.  1.
<scales pt_clust_5="13000.00000" pt_clust_6="13000.00000" pt_clust_7="13000.00000" pt_clust_8="13000.00000" pt_clust_9="31.07980"></scales>
<clustering>
<clus scale="   31.080">  2  9  1 -1</clus>
<clus scale="   80.613">  5  6 -1 -1</clus>
<clus scale="   91.395">  7  8 -1 -1</clus>
<clus scale="   98.614">  2  5  1 -1</clus>
<clus scale="   31.080">  2  5  1 -1</clus>
</clustering>
</event>
<event>
 9    2  0.4653788E-005  0.9358054E+02  0.7546771E-02  0.1301948E+00
         21   -1    0    0  501  502  0.00000000000E+00  0.00000000000E+00  0.46982351688E+02  0.46982351688E+02  0.00000000000E+00 0.  1.
         -1   -1    0    0    0  501 -0.00000000000E+00 -0.00000000000E+00 -0.31996471530E+03  0.31996471530E+03  0.00000000000E+00 0.  1.
         24    2    1    2    0    0 -0.93220948153E+01  0.17209754584E+01 -0.20891690087E+03  0.22436199729E+03  0.81253745451E+02 0.  0.
         23    2    1    2    0    0 -0.19727421681E+02 -0.90688290277E+01 -0.39181876742E+02  0.10363563822E+03  0.93454326906E+02 0.  0.
        -11    1    3    3    0    0 -0.32686997045E+02  0.30360075812E+02 -0.12261382963E+03  0.13047729763E+03  0.00000000000E+00 0.  1.
         12    1    3    3    0    0  0.23364902230E+02 -0.28639100354E+02 -0.86303071236E+02  0.93884699659E+02  0.00000000000E+00 0. -1.
        -11    1    4    4    0    0  0.26090646496E+02 -0.61218466961E+01 -0.49762096593E+02  0.56519599246E+02  0.00000000000E+00 0. -1.
         11    1    4    4    0    0 -0.45818068176E+02 -0.29469823317E+01  0.10580219851E+02  0.47116038971E+02  0.00000000000E+00 0.  1.
         -2    1    1    2    0  502  0.29049516496E+02  0.73478535693E+01 -0.24883586006E+02  0.38949431488E+02  0.00000000000E+00 0.  1.
<scales pt_clust_5="13000.00000" pt_clust_6="13000.00000" pt_clust_7="13000.00000" pt_clust_8="13000.00000" pt_clust_9="29.96440"></scales>
<clustering>
<clus scale="   29.964">  1  9  2 -1</clus>
<clus scale="   81.254">  5  6 -1 -1</clus>
<clus scale="   81.399">  2  5  1 -1</clus>
<clus scale="   93.454">  7  8 -1 -1</clus>
<clus scale="   29.964">  1  5  2 -1</clus>
</clustering>
</event>
<event>
 9    2  0.4653788E-005  0.1375957E+03  0.7546771E-02  0.1219357E+00
          2   -1    0    0  502    0 -0.00000000000E+00  0.00000000000E+00  0.10218630830E+04  0.10218630830E+04  0.00000000000E+00 0. -1.
         21   -1    0    0  501  502  0.00000000000E+00 -0.00000000000E+00 -0.36879913762E+02  0.36879913762E+02  0.00000000000E+00 0.  1.
         23    2    1    2    0    0  0.65126724271E+02  0.82063510739E+02  0.46824940641E+03  0.48850402158E+03  0.91666583265E+02 0.  0.
         24    2    1    2    0    0 -0.11991461412E+02 -0.10866673353E+03  0.16404931797E+03  0.21258354706E+03  0.79544526091E+02 0.  0.
        -11    1    4    4    0    0  0.18224691359E+02 -0.84060382571E+02  0.70400553783E+02  0.11115091212E+03  0.00000000000E+00 0.  1.
         12    1    4    4    0    0 -0.30216152771E+02 -0.24606350955E+02  0.93648764188E+02  0.10143263493E+03  0.00000000000E+00 0. -1.
        -11    1    3    3    0    0  0.43097651794E+02 -0.91580479586E+01  0.18232319088E+03  0.18757138205E+03  0.00000000000E+00 0.  1.
         11    1    3    3    0    0  0.22029072477E+02  0.91221558697E+02  0.28592621553E+03  0.30093263952E+03  0.00000000000E+00 0. -1.
          1    1    1    2  501    0 -0.53135262859E+02  0.26603222787E+02  0.35268444481E+03  0.35765542808E+03  0.00000000000E+00 0. -1.
<scales pt_clust_5="13000.00000" pt_clust_6="13000.00000" pt_clust_7="13000.00000" pt_clust_8="13000.00000" pt_clust_9="59.42299"></scales>
<clustering>
<clus scale="   59.423">  2  9  1 -1</clus>
<clus scale="   79.545">  5  6 -1 -1</clus>
<clus scale="   91.667">  7  8 -1 -1</clus>
<clus scale="  129.835">  2  5  1 -1</clus>
<clus scale="   59.423">  2  5  1 -1</clus>
</clustering>
</event>
<event>
 9    2  0.4653788E-005  0.1114685E+03  0.7546771E-02  0.1261642E+00
         -3   -1    0    0    0  501 -0.00000000000E+00  0.00000000000E+00  0.13997408375E+03  0.13997408375E+03  0.00000000000E+00 0.  1.
         21   -1    0    0  501  502  0.00000000000E+00 -0.00000000000E+00 -0.18974609177E+03  0.18974609177E+03  0.00000000000E+00 0. -1.
         23    2    1    2    0    0 -0.12772781745E+02  0.65789069424E+02  0.52040388717E+02  0.12382787795E+03  0.90187558405E+02 0.  0.
         24    2    1    2    0    0 -0.16200452117E+02 -0.62381212404E+02 -0.12970611944E+03  0.16552991984E+03  0.80141166903E+02 0.  0.
        -13    1    4    4    0    0  0.74446360344E+01 -0.71834494351E+02 -0.69805201430E+02  0.10044094449E+03  0.00000000000E+00 0.  1.
         14    1    4    4    0    0 -0.23645088151E+02  0.94532819465E+01 -0.59900918007E+02  0.65088975344E+02  0.00000000000E+00 0. -1.
        -11    1    3    3    0    0  0.48847720878E+01  0.78065309465E+02  0.13049029680E+02  0.79298995680E+02  0.00000000000E+00 0.  1.
         11    1    3    3    0    0 -0.17657553833E+02 -0.12276240041E+02  0.38991359037E+02  0.44528882272E+02  0.00000000000E+00 0. -1.
         -4    1    1    2    0  502  0.28973233861E+02 -0.34078570201E+01  0.27893722699E+02  0.40362377728E+02  0.00000000000E+00 0.  1.
<scales pt_clust_5="13000.00000" pt_clust_6="13000.00000" pt_clust_7="13000.00000" pt_clust_8="13000.00000" pt_clust_9="29.17298"></scales>
<clustering>
<clus scale="   29.173">  2  9  1 -1</clus>
<clus scale="   80.141">  5  6 -1 -1</clus>
<clus scale="   90.188">  7  8 -1 -1</clus>
<clus scale="  103.509">  2  5  1 -1</clus>
<clus scale="   29.173">  2  5  1 -1</clus>
</clustering>
</event>
<event>
 9    2  0.4653788E-005  0.9624221E+02  0.7546771E-02  0.1293231E+00
          2   -1    0    0  502    0 -0.00000000000E+00  0.00000000000E+00  0.18644510256E+03  0.18644510256E+03  0.00000000000E+00 0. -1.
         21   -1    0    0  501  502  0.00000000000E+00 -0.00000000000E+00 -0.82623372206E+02  0.82623372206E+02  0.00000000000E+00 0.  1.
         23    2    1    2    0    0  0.31877019918E+02 -0.31353738527E+02  0.45797761532E+02  0.11024425752E+03  0.89761684683E+02 0.  0.
         24    2    1    2    0    0 -0.33787895632E+02 -0.14048787642E+02  0.47685308100E+01  0.88815771276E+02  0.80786830708E+02 0.  0.
        -11    1    4    4    0    0 -0.26048684108E+02 -0.24930477541E+02 -0.32924677605E+02  0.48827216280E+02  0.00000000000E+00 0.  1.
         12    1    4    4    0    0 -0.77392115237E+01  0.10881689899E+02  0.37693208415E+02  0.39988554996E+02  0.00000000000E+00 0. -1.
        -13    1    3    3    0    0 -0.23589376447E+02  0.11410673106E+02 -0.63618009569E+00  0.26211960381E+02  0.00000000000E+00 0.  1.
         13    1    3    3    0    0  0.55466396364E+02 -0.42764411633E+02  0.46433941628E+02  0.84032297143E+02  0.00000000000E+00 0. -1.
          1    1    1    2  501    0  0.19108757145E+01  0.45402526169E+02  0.53255438009E+02  0.70008445962E+02  0.00000000000E+00 0. -1.
<scales pt_clust_5="13000.00000" pt_clust_6="13000.00000" pt_clust_7="13000.00000" pt_clust_8="13000.00000" pt_clust_9="45.44274"></scales>
<clustering>
<clus scale="   45.443">  2  9  1 -1</clus>
<clus scale="   80.787">  5  6 -1 -1</clus>
<clus scale="   87.931">  2  5  1 -1</clus>
<clus scale="   89.762">  7  8 -1 -1</clus>
<clus scale="   45.443">  2  5  1 -1</clus>
</clustering>
</event>
<event>
 9    2  0.4653788E-005  0.9602269E+02  0.7546771E-02  0.1293781E+00
          2   -1    0    0  502    0 -0.00000000000E+00  0.00000000000E+00  0.29166216624E+03  0.29166216624E+03  0.00000000000E+00 0. -1.
         21   -1    0    0  501  502  0.00000000000E+00 -0.00000000000E+00 -0.51812128272E+02  0.51812128272E+02  0.00000000000E+00 0.  1.
         23    2    1    2    0    0  0.20263028344E+02  0.30693890462E+02  0.17429983184E+03  0.19992183472E+03  0.90750225285E+02 0.  0.
         24    2    1    2    0    0 -0.20728818457E+02 -0.46919018535E+01  0.13828170775E+02  0.85660411002E+02  0.81821695463E+02 0.  0.
        -13    1    4    4    0    0 -0.36281538218E+02  0.23307794844E+02 -0.11722897376E+02  0.44688137563E+02  0.00000000000E+00 0.  1.
         14    1    4    4    0    0  0.15552719761E+02 -0.27999696697E+02  0.25551068151E+02  0.40972273439E+02  0.00000000000E+00 0. -1.
        -11    1    3    3    0    0  0.30931547725E+02 -0.14759224194E+02  0.13378636426E+03  0.13810643217E+03  0.00000000000E+00 0.  1.
         11    1    3    3    0    0 -0.10668519381E+02  0.45453114656E+02  0.40513467576E+02  0.61815402552E+02  0.00000000000E+00 0. -1.
          1    1    1    2  501    0  0.46579011241E+00 -0.26001988609E+02  0.51722035358E+02  0.57892048794E+02  0.00000000000E+00 0. -1.
<scales pt_clust_5="13000.00000" pt_clust_6="13000.00000" pt_clust_7="13000.00000" pt_clust_8="13000.00000" pt_clust_9="26.00617"></scales>
<clustering>
<clus scale="   26.006">  2  9  1 -1</clus>
<clus scale="   81.822">  5  6 -1 -1</clus>
<clus scale="   87.633">  2  5  1 -1</clus>
<clus scale="   90.750">  7  8 -1 -1</clus>
<clus scale="   26.006">  2  5  1 -1</clus>
</clustering>
</event>
<event>
 9    2  0.4653788E-005  0.1510156E+03  0.7546771E-02  0.1201010E+00
          2   -1    0    0  502    0 -0.00000000000E+00  0.00000000000E+00  0.47944714157E+03  0.47944714157E+03  0.00000000000E+00 0. -1.
         21   -1    0    0  501  502  0.00000000000E+00 -0.00000000000E+00 -0.59440937058E+02  0.59440937058E+02  0.00000000000E+00 0. -1.
         23    2    1    2    0    0 -0.10305989925E+03  0.91146126789E+02  0.25925933613E+03  0.30656001955E+03  0.88513744438E+02 0.  0.
         24    2    1    2    0    0  0.78321395324E+02 -0.66241212926E+02  0.10472537462E+03  0.16621712145E+03  0.78349142419E+02 0.  0.
        -13    1    4    4    0    0  0.46864750415E+02  0.45557660004E+01  0.19280022618E+02  0.50880046260E+02  0.00000000000E+00 0.  1.
         14    1    4    4    0    0  0.31456644909E+02 -0.70796978926E+02  0.85445352007E+02  0.11533707519E+03  0.00000000000E+00 0. -1.
        -11    1    3    3    0    0 -0.44896198487E+02 -0.82083143035E+01  0.10121255416E+03  0.11102714164E+03  0.00000000000E+00 0.  1.
         11    1    3    3    0    0 -0.58163700763E+02  0.99354441092E+02  0.15804678197E+03  0.19553287791E+03  0.00000000000E+00 0. -1.
          1    1    1    2  501    0  0.24738503926E+02 -0.24904913863E+02  0.56021493757E+02  0.66110937626E+02  0.00000000000E+00 0. -1.
<scales pt_clust_5="13000.00000" pt_clust_6="13000.00000" pt_clust_7="13000.00000" pt_clust_8="13000.00000" pt_clust_9="35.10341"></scales>
<clustering>
<clus scale="   35.103">  2  9  1 -1</clus>
<clus scale="   78.349">  5  6 -1 -1</clus>
<clus scale="   88.514">  7  8 -1 -1</clus>
<clus scale="  145.291">  2  5  1 -1</clus>
<clus scale="   35.103">  2  5  1 -1</clus>
</clustering>
</event>
<event>
 9    2  0.4653788E-005  0.9418692E+02  0.7546771E-02  0.1298815E+00
          2   -1    0    0  502    0 -0.00000000000E+00  0.00000000000E+00  0.56964091201E+03  0.56964091201E+03  0.00000000000E+00 0. -1.
         21   -1    0    0  501  502  0.00000000000E+00 -0.00000000000E+00 -0.23525443676E+02  0.23525443676E+02  0.00000000000E+00 0.  1.
         24    2    1    2    0    0  0.24893439527E+02  0.23421877142E+02  0.37639032520E+03  0.38630816689E+03  0.79975341437E+02 0.  0.
         23    2    1    2    0    0 -0.21727998252E+01 -0.84228055975E+01  0.12175870481E+03  0.15170405186E+03  0.90073705609E+02 0.  0.
        -11    1    3    3    0    0  0.22325844720E+02 -0.26310550299E+02  0.10938427886E+03  0.11469790261E+03  0.00000000000E+00 0.  1.
         12    1    3    3    0    0  0.25675948064E+01  0.49732427441E+02  0.26700604634E+03  0.27161026428E+03  0.00000000000E+00 0. -1.
        -13    1    4    4    0    0  0.20105515507E+02  0.33583097238E+02  0.77126304305E+02  0.86490016705E+02  0.00000000000E+00 0. -1.
         13    1    4    4    0    0 -0.22278315332E+02 -0.42005902835E+02  0.44632400502E+02  0.65214035158E+02  0.00000000000E+00 0.  1.
          1    1    1    2  501    0 -0.22720639701E+02 -0.14999071544E+02  0.47966438330E+02  0.55154136941E+02  0.00000000000E+00 0. -1.
<scales pt_clust_5="13000.00000" pt_clust_6="13000.00000" pt_clust_7="13000.00000" pt_clust_8="13000.00000" pt_clust_9="27.22498"></scales>
<clustering>
<clus scale="   27.225">  2  9  1 -1</clus>
<clus scale="   79.975">  5  6 -1 -1</clus>
<clus scale="   84.581">  1  5  2 -1</clus>
<clus scale="   90.074">  7  8 -1 -1</clus>
<clus scale="   27.225">  2  5  1 -1</clus>
</clustering>
</event>
<event>
 9    2  0.4653788E-005  0.1438812E+03  0.7546771E-02  0.1210426E+00
         -1   -1    0    0    0  501 -0.00000000000E+00  0.00000000000E+00  0.48594054752E+03  0.48594054752E+03  0.00000000000E+00 0.  1.
         21   -1    0    0  501  502  0.00000000000E+00 -0.00000000000E+00 -0.73088364169E+02  0.73088364169E+02  0.00000000000E+00 0.  1.
         23    2    1    2    0    0 -0.67346918454E+02  0.95202091510E+02  0.36416941547E+03  0.39286066613E+03  0.90117113667E+02 0.  0.
         24    2    1    2    0    0  0.72242889417E+02 -0.69885996012E+02  0.55688721529E+02  0.13944824164E+03  0.79003106775E+02 0.  0.
        -13    1    4    4    0    0  0.43776103779E+02 -0.75553082345E+02  0.65121528191E+02  0.10892854974E+03  0.00000000000E+00 0.  1.
         14    1    4    4    0    0  0.28466785638E+02  0.56670863339E+01 -0.94328066620E+01  0.30519691899E+02  0.00000000000E+00 0. -1.
        -13    1    3    3    0    0  0.17283848534E+02  0.12754732536E+02  0.21492003831E+02  0.30386195071E+02  0.00000000000E+00 0. -1.
         13    1    3    3    0    0 -0.84630766988E+02  0.82447358975E+02  0.34267741164E+03  0.36247447106E+03  0.00000000000E+00 0.  1.
         -2    1    1    2    0  502 -0.48959709624E+01 -0.25316095499E+02 -0.70059536489E+01  0.26720003920E+02  0.00000000000E+00 0.  1.
<scales pt_clust_5="13000.00000" pt_clust_6="13000.00000" pt_clust_7="13000.00000" pt_clust_8="13000.00000" pt_clust_9="25.78517"></scales>
<clustering>
<clus scale="   25.785">  2  9  1 -1</clus>
<clus scale="   79.003">  5  6 -1 -1</clus>
<clus scale="   90.117">  7  8 -1 -1</clus>
<clus scale="  137.194">  2  5  1 -1</clus>
<clus scale="   25.785">  2  5  1 -1</clus>
</clustering>
</event>
<event>
 9    2  0.4653788E-005  0.9411524E+02  0.7546771E-02  0.1300269E+00
          2   -1    0    0  502    0 -0.00000000000E+00  0.00000000000E+00  0.23889679485E+03  0.23889679485E+03  0.00000000000E+00 0. -1.
         21   -1    0    0  501  502  0.00000000000E+00 -0.00000000000E+00 -0.93343222323E+02  0.93343222323E+02  0.00000000000E+00 0. -1.
         23    2    1    2    0    0 -0.92750858910E+00  0.14763949797E+02  0.16963746205E+03  0.19447862087E+03  0.93948022652E+02 0.  0.
         24    2    1    2    0    0 -0.60487135711E+01  0.22382207102E+02  0.10932208124E+02  0.86238277784E+02  0.82340617256E+02 0.  0.
        -11    1    4    4    0    0  0.14412596110E+02 -0.27578068216E+02  0.82092585020E+01  0.32181744799E+02  0.00000000000E+00 0.  1.
         12    1    4    4    0    0 -0.20461309681E+02  0.49960275318E+02  0.27229496216E+01  0.54056532985E+02  0.00000000000E+00 0. -1.
        -13    1    3    3    0    0 -0.24461312069E+02 -0.30262828665E+02  0.10682080014E+03  0.11368763315E+03  0.00000000000E+00 0.  1.
         13    1    3    3    0    0  0.23533803480E+02  0.45026778462E+02  0.62816661903E+02  0.80790987724E+02  0.00000000000E+00 0. -1.
          1    1    1    2  501    0  0.69762221602E+01 -0.37146156900E+02 -0.35016097641E+02  0.51523118520E+02  0.00000000000E+00 0. -1.
<scales pt_clust_5="13000.00000" pt_clust_6="13000.00000" pt_clust_7="13000.00000" pt_clust_8="13000.00000" pt_clust_9="37.79556"></scales>
<clustering>
<clus scale="   37.796">  2  9  1 -1</clus>
<clus scale="   82.341">  5  6 -1 -1</clus>
<clus scale="   82.531">  2  5  1 -1</clus>
<clus scale="   93.948">  7  8 -1 -1</clus>
<clus scale="   37.796">  2  5  1 -1</clus>
</clustering>
</event>
<event>
 9    2  0.4653788E-005  0.1277816E+03  0.7546771E-02  0.1243338E+00
         -1   -1    0    0    0  501 -0.00000000000E+00  0.00000000000E+00  0.74917417552E+02  0.74917417552E+02  0.00000000000E+00 0.  1.
         21   -1    0    0  501  502  0.00000000000E+00 -0.00000000000E+00 -0.38189821169E+03  0.38189821169E+03  0.00000000000E+00 0.  1.
         24    2    1    2    0    0 -0.37999396346E+02 -0.43520258747E+02 -0.12301504735E+03  0.15784286775E+03  0.80272672701E+02 0.  0.
         23    2    1    2    0    0 -0.26611844716E+02 -0.35455053915E+02 -0.18824253060E+02  0.10485056947E+03  0.93134517169E+02 0.  0.
        -11    1    3    3    0    0 -0.97954296119E+01 -0.42298301176E+02 -0.12210863010E+03  0.12959789454E+03  0.00000000000E+00 0.  1.
         12    1    3    3    0    0 -0.28203966734E+02 -0.12219575713E+01 -0.90641724999E+00  0.28244973217E+02  0.00000000000E+00 0. -1.
        -13    1    4    4    0    0  0.21387999369E+02 -0.46813096429E+02 -0.20736972967E+02  0.55488147943E+02  0.00000000000E+00 0.  1.
         13    1    4    4    0    0 -0.47999844085E+02  0.11358042515E+02  0.19127199074E+01  0.49362421531E+02  0.00000000000E+00 0. -1.
         -2    1    1    2    0  502  0.64611241062E+02  0.78975312662E+02 -0.16514149373E+03  0.19412219201E+03  0.00000000000E+00 0.  1.
<scales pt_clust_5="13000.00000" pt_clust_6="13000.00000" pt_clust_7="13000.00000" pt_clust_8="13000.00000" pt_clust_9="87.48774"></scales>
<clustering>
<clus scale="   80.273">  5  6 -1 -1</clus>
<clus scale="   93.135">  7  8 -1 -1</clus>
<clus scale="   98.902">  1  5  2 -1</clus>
<clus scale="   87.488">  2  9  1 -1</clus>
<clus scale="   87.488">  2  5  1 -1</clus>
</clustering>
</event>
<event>
 9    2  0.4653788E-005  0.2249139E+03  0.7546771E-02  0.1130272E+00
         -1   -1    0    0    0  501 -0.00000000000E+00  0.00000000000E+00  0.12230076235E+03  0.12230076235E+03  0.00000000000E+00 0.  1.
         21   -1    0    0  501  502  0.00000000000E+00 -0.00000000000E+00 -0.49691071245E+03  0.49691071245E+03  0.00000000000E+00 0.  1.
         24    2    1    2    0    0  0.73879011731E+01  0.82656650386E+02 -0.16745993703E+02  0.11491175145E+03  0.77701862140E+02 0.  0.
         23    2    1    2    0    0 -0.39986877015E+01  0.62913360196E+02  0.83959297267E+01  0.11015708555E+03  0.89944491030E+02 0.  0.
        -11    1    3    3    0    0  0.27855651570E+02  0.80634392848E+02  0.43862248158E+01  0.85422957117E+02  0.00000000000E+00 0.  1.
         12    1    3    3    0    0 -0.20467750397E+02  0.20222575374E+01 -0.21132218519E+02  0.29488794336E+02  0.00000000000E+00 0. -1.
        -13    1    4    4    0    0 -0.37035329708E+02  0.66399623927E+02  0.58925518231E+00  0.76032051965E+02  0.00000000000E+00 0.  1.
         13    1    4    4    0    0  0.33036642007E+02 -0.34862637310E+01  0.78066745444E+01  0.34125033587E+02  0.00000000000E+00 0. -1.
         -2    1    1    2    0  502 -0.33892134717E+01 -0.14557001058E+03 -0.36625988612E+03  0.39414263780E+03  0.00000000000E+00 0.  1.
<scales pt_clust_5="13000.00000" pt_clust_6="13000.00000" pt_clust_7="13000.00000" pt_clust_8="13000.00000" pt_clust_9="145.60946"></scales>
<clustering>
<clus scale="   77.702">  5  6 -1 -1</clus>
<clus scale="   89.944">  7  8 -1 -1</clus>
<clus scale="   95.076">  5  7 -1 -1</clus>
<clus scale="  145.609">  2  9  1 -1</clus>
<clus scale="  145.609">  2  5  1 -1</clus>
</clustering>
</event>
<event>
 9    2  0.4653788E-005  0.9600646E+02  0.7546771E-02  0.1297761E+00
          2   -1    0    0  502    0 -0.00000000000E+00  0.00000000000E+00  0.26032054253E+03  0.26032054253E+03  0.00000000000E+00 0. -1.
         21   -1    0    0  501  502  0.00000000000E+00 -0.00000000000E+00 -0.50423373725E+02  0.50423373725E+02  0.00000000000E+00 0.  1.
         23    2    1    2    0    0 -0.19073154503E+02  0.14007918006E+02  0.14471594216E+03  0.17485220746E+03  0.95239611241E+02 0.  0.
         24    2    1    2    0    0 -0.16748797071E+02 -0.56112578322E+01  0.44654123855E+02  0.93760033469E+02  0.80529154231E+02 0.  0.
        -13    1    4    4    0    0 -0.28625869823E+02 -0.20669477138E+02 -0.92885112326E+01  0.36509507655E+02  0.00000000000E+00 0.  1.
         14    1    4    4    0    0  0.11877072752E+02  0.15058219306E+02  0.53942635088E+02  0.57250525814E+02  0.00000000000E+00 0. -1.
        -11    1    3    3    0    0  0.31240196866E+02 -0.10625910714E+02  0.21186734287E+02  0.39213997354E+02  0.00000000000E+00 0.  1.
         11    1    3    3    0    0 -0.50313351369E+02  0.24633828719E+02  0.12352920787E+03  0.13563821011E+03  0.00000000000E+00 0. -1.
          1    1    1    2  501    0  0.35821951574E+02 -0.83966601735E+01  0.20527102791E+02  0.42131675324E+02  0.00000000000E+00 0. -1.
<scales pt_clust_5="13000.00000" pt_clust_6="13000.00000" pt_clust_7="13000.00000" pt_clust_8="13000.00000" pt_clust_9="36.79288"></scales>
<clustering>
<clus scale="   36.793">  2  9  1 -1</clus>
<clus scale="   80.529">  5  6 -1 -1</clus>
<clus scale="   81.435">  2  5  1 -1</clus>
<clus scale="   95.240">  7  8 -1 -1</clus>
<clus scale="   36.793">  2  5  1 -1</clus>
</clustering>
</event>
<event>
 9    2  0.4653788E-005  0.9595090E+02  0.7546771E-02  0.1295587E+00
         21   -1    0    0  501  502  0.00000000000E+00  0.00000000000E+00  0.17408635335E+03  0.17408635335E+03  0.00000000000E+00 0. -1.
          2   -1    0    0  502    0 -0.00000000000E+00 -0.00000000000E+00 -0.12819844237E+03  0.12819844237E+03  0.00000000000E+00 0. -1.
         24    2    1    2    0    0  0.65862505526E+01 -0.31031363644E+02 -0.72766220083E+02  0.11178646192E+03  0.78708106679E+02 0.  0.
         23    2    1    2    0    0 -0.42240075116E+02  0.22196953756E+02  0.11448193894E+03  0.15353011514E+03  0.90490072428E+02 0.  0.
        -13    1    3    3    0    0  0.20584926620E+02  0.15898492803E+02 -0.24887476609E+01  0.26128435511E+02  0.00000000000E+00 0.  1.
         14    1    3    3    0    0 -0.13998676067E+02 -0.46929856448E+02 -0.70277472423E+02  0.85658026407E+02  0.00000000000E+00 0. -1.
        -11    1    4    4    0    0  0.22157461897E+02  0.21556459659E+02  0.66128881583E+02  0.72997692088E+02  0.00000000000E+00 0.  1.
         11    1    4    4    0    0 -0.64397537013E+02  0.64049409732E+00  0.48353057359E+02  0.80532423048E+02  0.00000000000E+00 0. -1.
          1    1    1    2  501    0  0.35653824563E+02  0.88344098881E+01  0.41721921186E+01  0.36968218663E+02  0.00000000000E+00 0. -1.
<scales pt_clust_5="13000.00000" pt_clust_6="13000.00000" pt_clust_7="13000.00000" pt_clust_8="13000.00000" pt_clust_9="36.73205"></scales>
<clustering>
<clus scale="   36.732">  1  9  2 -1</clus>
<clus scale="   78.708">  5  6 -1 -1</clus>
<clus scale="   84.930">  2  5  1 -1</clus>
<clus scale="   90.490">  7  8 -1 -1</clus>
<clus scale="   36.732">  1  5  2 -1</clus>
</clustering>
</event>
<event>
 9    2  0.4653788E-005  0.9196283E+02  0.7546771E-02  0.1303891E+00
         21   -1    0    0  501  502  0.00000000000E+00  0.00000000000E+00  0.98881447560E+02  0.98881447560E+02  0.00000000000E+00 0.  1.
         -3   -1    0    0    0  501 -0.00000000000E+00 -0.00000000000E+00 -0.17274465570E+03  0.17274465570E+03  0.00000000000E+00 0.  1.
         23    2    1    2    0    0 -0.12747955865E+02  0.38228228414E+00 -0.10638514191E+03  0.14049413253E+03  0.90874343672E+02 0.  0.
         24    2    1    2    0    0  0.46762530057E+01 -0.35894895813E+02  0.14151852475E+02  0.90342781068E+02  0.81555087364E+02 0.  0.
        -11    1    4    4    0    0 -0.12048548078E+02 -0.57365502144E+02  0.21022702423E+02  0.62272966560E+02  0.00000000000E+00 0.  1.
         12    1    4    4    0    0  0.16724801083E+02  0.21470606331E+02 -0.68708499473E+01  0.28069814508E+02  0.00000000000E+00 0. -1.
        -11    1    3    3    0    0  0.41939178548E+01 -0.26136222759E+02 -0.10575707882E+03  0.10901949737E+03  0.00000000000E+00 0.  1.
         11    1    3    3    0    0 -0.16941873720E+02  0.26518505043E+02 -0.62806308754E+00  0.31474635154E+02  0.00000000000E+00 0. -1.
         -4    1    1    2    0  502  0.80717028591E+01  0.35512613529E+02  0.18370081292E+02  0.40789189663E+02  0.00000000000E+00 0.  1.
<scales pt_clust_5="13000.00000" pt_clust_6="13000.00000" pt_clust_7="13000.00000" pt_clust_8="13000.00000" pt_clust_9="36.41838"></scales>
<clustering>
<clus scale="   36.418">  1  9  2 -1</clus>
<clus scale="   81.555">  5  6 -1 -1</clus>
<clus scale="   82.766">  1  5  2 -1</clus>
<clus scale="   90.874">  7  8 -1 -1</clus>
<clus scale="   36.418">  1  5  2 -1</clus>
</clustering>
</event>
<event>
 9    2  0.4653788E-005  0.9482245E+02  0.7546771E-02  0.1297626E+00
          2   -1    0    0  502    0 -0.00000000000E+00  0.00000000000E+00  0.15842207094E+03  0.15842207094E+03  0.00000000000E+00 0. -1.
         21   -1    0    0  501  502  0.00000000000E+00 -0.00000000000E+00 -0.19531272979E+03  0.19531272979E+03  0.00000000000E+00 0. -1.
         24    2    1    2    0    0 -0.27995574739E+02 -0.79654243067E+00  0.70100384505E+02  0.10993587091E+03  0.79921493475E+02 0.  0.
         23    2    1    2    0    0  0.24130254572E+02  0.24008600484E+02  0.32721909975E+02  0.10211812777E+03  0.90546709187E+02 0.  0.
        -13    1    3    3    0    0 -0.75278492601E+01 -0.38267000322E+02  0.48038224262E+02  0.61876512655E+02  0.00000000000E+00 0.  1.
         14    1    3    3    0    0 -0.20467725479E+02  0.37470457891E+02  0.22062160242E+02  0.48059358250E+02  0.00000000000E+00 0. -1.
        -13    1    4    4    0    0 -0.35435380093E+01  0.45861761201E+02 -0.96430416108E+01  0.46998362244E+02  0.00000000000E+00 0.  1.
         13    1    4    4    0    0  0.27673792582E+02 -0.21853160717E+02  0.42364951586E+02  0.55119765529E+02  0.00000000000E+00 0. -1.
          1    1    1    2  501    0  0.38653201669E+01 -0.23212058053E+02 -0.13971295333E+03  0.14168080204E+03  0.00000000000E+00 0. -1.
<scales pt_clust_5="13000.00000" pt_clust_6="13000.00000" pt_clust_7="13000.00000" pt_clust_8="13000.00000" pt_clust_9="23.53169"></scales>
<clustering>
<clus scale="   23.532">  2  9  1 -1</clus>
<clus scale="   79.921">  5  6 -1 -1</clus>
<clus scale="   84.735">  1  5  2 -1</clus>
<clus scale="   90.547">  7  8 -1 -1</clus>
<clus scale="   23.532">  2  5  1 -1</clus>
</clustering>
</event>
<event>
 9    2  0.4653788E-005  0.1722864E+03  0.7546771E-02  0.1220090E+00
         -1   -1    0    0    0  501 -0.00000000000E+00  0.00000000000E+00  0.55653112943E+03  0.55653112943E+03  0.00000000000E+00 0.  1.
         21   -1    0    0  501  502  0.00000000000E+00 -0.00000000000E+00 -0.88027675444E+02  0.88027675444E+02  0.00000000000E+00 0.  1.
         24    2    1    2    0    0 -0.10837732417E+02 -0.33967133737E+01  0.81731069415E+01  0.65637790079E+02  0.64128977098E+02 0.  0.
         23    2    1    2    0    0 -0.12046815319E+03 -0.65375227032E+02  0.11973904357E+03  0.20747350655E+03  0.99605828756E+02 0.  0.
        -11    1    3    3    0    0  0.24515572932E+02  0.91381941114E+01 -0.33998802222E+01  0.26383310887E+02  0.00000000000E+00 0.  1.
         12    1    3    3    0    0 -0.35353305349E+02 -0.12534907485E+02  0.11572987164E+02  0.39254479192E+02  0.00000000000E+00 0. -1.
        -11    1    4    4    0    0 -0.54628375887E+02  0.20694643972E+02  0.25025940661E+02  0.63551754084E+02  0.00000000000E+00 0. -1.
         11    1    4    4    0    0 -0.65839777299E+02 -0.86069871004E+02  0.94713102906E+02  0.14392175246E+03  0.00000000000E+00 0.  1.
         -2    1    1    2    0  502  0.13130588560E+03  0.68771940406E+02  0.34059130348E+03  0.37144750825E+03  0.00000000000E+00 0.  1.
<scales pt_clust_5="13000.00000" pt_clust_6="13000.00000" pt_clust_7="13000.00000" pt_clust_8="13000.00000" pt_clust_9="140.57484"></scales>
<clustering>
<clus scale="   64.129">  5  6 -1 -1</clus>
<clus scale="   65.127">  1  5  2 -1</clus>
<clus scale="   99.606">  7  8 -1 -1</clus>
<clus scale="  140.575">  2  9  1 -1</clus>
<clus scale="  140.575">  2  5  1 -1</clus>
</clustering>
</event>
<event>
 9    2  0.4653788E-005  0.1324349E+03  0.7546771E-02  0.1225162E+00
          2   -1    0    0  502    0 -0.00000000000E+00  0.00000000000E+00  0.28120650698E+03  0.28120650698E+03  0.00000000000E+00 0. -1.
         21   -1    0    0  501  502  0.00000000000E+00 -0.00000000000E+00 -0.15328855236E+03  0.15328855236E+03  0.00000000000E+00 0. -1.
         24    2    1    2    0    0  0.12351163875E+03 -0.12001128501E+02  0.16235254421E+03  0.21927327828E+03  0.79518991219E+02 0.  0.
         23    2    1    2    0    0 -0.60442879939E+02  0.44775988690E+02  0.31976385699E+02  0.11794754275E+03  0.85034714677E+02 0.  0.
        -11    1    3    3    0    0  0.78340029197E+02 -0.31312611657E+02  0.14387612120E+03  0.16678722396E+03  0.00000000000E+00 0.  1.
         12    1    3    3    0    0  0.45171609553E+02  0.19311483157E+02  0.18476423010E+02  0.52486054325E+02  0.00000000000E+00 0. -1.
        -13    1    4    4    0    0  0.33454733693E+01  0.23400008633E+02  0.43676729973E+02  0.49662957395E+02  0.00000000000E+00 0. -1.
         13    1    4    4    0    0 -0.63788353308E+02  0.21375980057E+02 -0.11700344274E+02  0.68284585356E+02  0.00000000000E+00 0.  1.
          1    1    1    2  501    0 -0.63068758812E+02 -0.32774860189E+02 -0.66410975286E+02  0.97274238301E+02  0.00000000000E+00 0. -1.
<scales pt_clust_5="13000.00000" pt_clust_6="13000.00000" pt_clust_7="13000.00000" pt_clust_8="13000.00000" pt_clust_9="71.07644"></scales>
<clustering>
<clus scale="   71.076">  2  9  1 -1</clus>
<clus scale="   79.519">  5  6 -1 -1</clus>
<clus scale="   85.035">  7  8 -1 -1</clus>
<clus scale="  128.963">  1  5  2 -1</clus>
<clus scale="   71.076">  2  5  1 -1</clus>
</clustering>
</event>
<event>
 9    2  0.4653788E-005  0.9630317E+02  0.7546771E-02  0.1297787E+00
         21   -1    0    0  501  502  0.00000000000E+00  0.00000000000E+00  0.99382652864E+02  0.99382652864E+02  0.00000000000E+00 0.  1.
         -1   -1    0    0    0  501 -0.00000000000E+00 -0.00000000000E+00 -0.14041291284E+03  0.14041291284E+03  0.00000000000E+00 0.  1.
         23    2    1    2    0    0 -0.12576516640E+01  0.66353374712E+01 -0.11979389974E+02  0.96878079382E+02  0.95897065072E+02 0.  0.
         24    2    1    2    0    0  0.14441360985E+02  0.19930001828E+02  0.19439992980E+02  0.86076557088E+02  0.80159231989E+02 0.  0.
        -11    1    4    4    0    0  0.45559767497E+02  0.11556925704E+01  0.16288540688E+01  0.45603521851E+02  0.00000000000E+00 0.  1.
         12    1    4    4    0    0 -0.31118406511E+02  0.18774309258E+02  0.17811138912E+02  0.40473035236E+02  0.00000000000E+00 0. -1.
        -13    1    3    3    0    0 -0.42036235842E+02  0.25752312338E+02 -0.15570669944E+02  0.51697896254E+02  0.00000000000E+00 0.  1.
         13    1    3    3    0    0  0.40778584178E+02 -0.19116974867E+02  0.35912799696E+01  0.45180183128E+02  0.00000000000E+00 0. -1.
         -2    1    1    2    0  502 -0.13183709322E+02 -0.26565339299E+02 -0.48490862978E+02  0.56840929231E+02  0.00000000000E+00 0.  1.
<scales pt_clust_5="13000.00000" pt_clust_6="13000.00000" pt_clust_7="13000.00000" pt_clust_8="13000.00000" pt_clust_9="29.65684"></scales>
<clustering>
<clus scale="   29.657">  1  9  2 -1</clus>
<clus scale="   80.159">  5  6 -1 -1</clus>
<clus scale="   80.645">  1  5  2 -1</clus>
<clus scale="   95.897">  7  8 -1 -1</clus>
<clus scale="   29.657">  1  5  2 -1</clus>
</clustering>
</event>
<event>
 9    2  0.4653788E-005  0.5706719E+03  0.7546771E-02  0.9968193E-01
          2   -1    0    0  502    0 -0.00000000000E+00  0.00000000000E+00  0.13757008044E+04  0.13757008044E+04  0.00000000000E+00 0. -1.
         21   -1    0    0  501  502  0.00000000000E+00 -0.00000000000E+00 -0.22378159782E+03  0.22378159782E+03  0.00000000000E+00 0. -1.
         24    2    1    2    0    0  0.35533977500E+02  0.18863833228E+03  0.15472801310E+03  0.25949982385E+03  0.80946380885E+02 0.  0.
         23    2    1    2    0    0  0.18087795730E+03  0.29785514336E+03  0.35411796532E+03  0.50508545649E+03  0.90979465466E+02 0.  0.
        -13    1    3    3    0    0 -0.25874788071E+02  0.62738596924E+02  0.43223186607E+02  0.80460425441E+02  0.00000000000E+00 0.  1.
         14    1    3    3    0    0  0.61408765571E+02  0.12589973535E+03  0.11150482649E+03  0.17903939841E+03  0.00000000000E+00 0. -1.
        -11    1    4    4    0    0  0.12627147061E+03  0.12055323198E+03  0.16720838686E+03  0.24173582827E+03  0.00000000000E+00 0.  1.
         11    1    4    4    0    0  0.54606486685E+02  0.17730191138E+03  0.18690957846E+03  0.26334962822E+03  0.00000000000E+00 0. -1.
          1    1    1    2  501    0 -0.21641193480E+03 -0.48649347564E+03  0.64307322819E+03  0.83489712191E+03  0.00000000000E+00 0. -1.
<scales pt_clust_5="13000.00000" pt_clust_6="13000.00000" pt_clust_7="13000.00000" pt_clust_8="13000.00000" pt_clust_9="532.45686"></scales>
<clustering>
<clus scale="   80.946">  5  6 -1 -1</clus>
<clus scale="   90.979">  7  8 -1 -1</clus>
<clus scale="  120.245">  5  7 -1 -1</clus>
<clus scale="  532.457">  2  9  1 -1</clus>
<clus scale="  532.457">  2  5  1 -1</clus>
</clustering>
</event>
<event>
 9    2  0.4653788E-005  0.1257811E+03  0.7546771E-02  0.1234627E+00
         21   -1    0    0  501  502  0.00000000000E+00  0.00000000000E+00  0.43556071517E+02  0.43556071517E+02  0.00000000000E+00 0.  1.
          2   -1    0    0  502    0 -0.00000000000E+00 -0.00000000000E+00 -0.79509832667E+03  0.79509832667E+03  0.00000000000E+00 0. -1.
         23    2    1    2    0    0 -0.73663495922E+02  0.62988875879E+02 -0.36465432410E+03  0.38881428104E+03  0.93860854148E+02 0.  0.
         24    2    1    2    0    0  0.78509320103E+02  0.18328990690E+02 -0.12051258627E+03  0.17128688750E+03  0.91193470917E+02 0.  0.
        -11    1    4    4    0    0  0.69568177324E+02  0.19271402956E+02 -0.26581567151E+02  0.76926575254E+02  0.00000000000E+00 0.  1.
         12    1    4    4    0    0  0.89411427790E+01 -0.94241226579E+00 -0.93931019115E+02  0.94360312245E+02  0.00000000000E+00 0. -1.
        -13    1    3    3    0    0  0.16451549473E+02  0.30299998774E+02 -0.14693058148E+03  0.15092163258E+03  0.00000000000E+00 0. -1.
         13    1    3    3    0    0 -0.90115045395E+02  0.32688877105E+02 -0.21772374262E+03  0.23789264846E+03  0.00000000000E+00 0.  1.
          1    1    1    2  501    0 -0.48458241806E+01 -0.81317866569E+02 -0.26637534478E+03  0.27855322964E+03  0.00000000000E+00 0. -1.
<scales pt_clust_5="13000.00000" pt_clust_6="13000.00000" pt_clust_7="13000.00000" pt_clust_8="13000.00000" pt_clust_9="81.46216"></scales>
<clustering>
<clus scale="   81.462">  1  9  2 -1</clus>
<clus scale="   91.193">  5  6 -1 -1</clus>
<clus scale="   93.861">  7  8 -1 -1</clus>
<clus scale="  123.803">  1  5  2 -1</clus>
<clus scale="   81.462">  1  5  2 -1</clus>
</clustering>
</event>
<event>
 9    2  0.4653788E-005  0.1053619E+03  0.7546771E-02  0.1274618E+00
         -1   -1    0    0    0  501 -0.00000000000E+00  0.00000000000E+00  0.79027254229E+02  0.79027254229E+02  0.00000000000E+00 0.  1.
         21   -1    0    0  501  502  0.00000000000E+00 -0.00000000000E+00 -0.51156552482E+03  0.51156552482E+03  0.00000000000E+00 0. -1.
         23    2    1    2    0    0  0.52133871270E+02 -0.28013170394E+02  0.26798510365E+02  0.10968450931E+03  0.88373373679E+02 0.  0.
         24    2    1    2    0    0 -0.49908486441E+02 -0.10769088612E+02 -0.39716215286E+03  0.40759592201E+03  0.76090930372E+02 0.  0.
        -13    1    4    4    0    0  0.16708092378E+02 -0.16385421215E+02 -0.13684080342E+03  0.13882740313E+03  0.00000000000E+00 0.  1.
         14    1    4    4    0    0 -0.66616578819E+02  0.56163326034E+01 -0.26032134944E+03  0.26876851888E+03  0.00000000000E+00 0. -1.
        -11    1    3    3    0    0  0.49388177413E+02  0.19197464962E+01  0.51054760249E+02  0.71059594981E+02  0.00000000000E+00 0.  1.
         11    1    3    3    0    0  0.27456938567E+01 -0.29932916890E+02 -0.24256249885E+02  0.38624914327E+02  0.00000000000E+00 0. -1.
         -2    1    1    2    0  502 -0.22253848290E+01  0.38782259005E+02 -0.62174628092E+02  0.73312347729E+02  0.00000000000E+00 0.  1.
<scales pt_clust_5="13000.00000" pt_clust_6="13000.00000" pt_clust_7="13000.00000" pt_clust_8="13000.00000" pt_clust_9="38.84605"></scales>
<clustering>
<clus scale="   38.846">  2  9  1 -1</clus>
<clus scale="   76.091">  5  6 -1 -1</clus>
<clus scale="   88.373">  7  8 -1 -1</clus>
<clus scale="   95.295">  2  5  1 -1</clus>
<clus scale="   38.846">  2  5  1 -1</clus>
</clustering>
</event>
<event>
 9    2  0.4653788E-005  0.9912521E+02  0.7546771E-02  0.1285925E+00
         21   -1    0    0  501  502  0.00000000000E+00  0.00000000000E+00  0.52944962133E+02  0.52944962133E+02  0.00000000000E+00 0.  1.
         -3   -1    0    0    0  501 -0.00000000000E+00 -0.00000000000E+00 -0.38126685589E+03  0.38126685589E+03  0.00000000000E+00 0.  1.
         23    2    1    2    0    0 -0.27508693710E+02  0.44119921453E+02 -0.22054585588E+03  0.24334477119E+03  0.88729405628E+02 0.  0.
         24    2    1    2    0    0  0.27427998127E+02 -0.23349528915E+02 -0.13196329428E+03  0.15898540493E+03  0.81021925177E+02 0.  0.
        -11    1    4    4    0    0  0.13126086571E+02  0.24907316164E+02 -0.15563161240E+02  0.32169559135E+02  0.00000000000E+00 0.  1.
         12    1    4    4    0    0  0.14301911556E+02 -0.48256845079E+02 -0.11640013304E+03  0.12681584579E+03  0.00000000000E+00 0. -1.
        -11    1    3    3    0    0  0.31808928681E+02  0.25186400588E+02 -0.86327123476E+02  0.95386240968E+02  0.00000000000E+00 0.  1.
         11    1    3    3    0    0 -0.59317622391E+02  0.18933520865E+02 -0.13421873240E+03  0.14795853022E+03  0.00000000000E+00 0. -1.
         -4    1    1    2    0  502  0.80695583282E-01 -0.20770392538E+02  0.24187256407E+02  0.31881641904E+02  0.00000000000E+00 0.  1.
<scales pt_clust_5="13000.00000" pt_clust_6="13000.00000" pt_clust_7="13000.00000" pt_clust_8="13000.00000" pt_clust_9="20.77055"></scales>
<clustering>
<clus scale="   20.771">  1  9  2 -1</clus>
<clus scale="   81.022">  5  6 -1 -1</clus>
<clus scale="   88.729">  7  8 -1 -1</clus>
<clus scale="   92.290">  1  5  2 -1</clus>
<clus scale="   20.771">  1  5  2 -1</clus>
</clustering>
</event>
<event>
 9    2  0.4653788E-005  0.1283302E+03  0.7546771E-02  0.1242863E+00
         21   -1    0    0  501  502  0.00000000000E+00  0.00000000000E+00  0.76815802782E+02  0.76815802782E+02  0.00000000000E+00 0.  1.
         -1   -1    0    0    0  501 -0.00000000000E+00 -0.00000000000E+00 -0.73245925751E+03  0.73245925751E+03  0.00000000000E+00 0.  1.
         23    2    1    2    0    0  0.36891624733E+02  0.22516932873E+01 -0.27659978883E+03  0.29364177462E+03  0.91389203529E+02 0.  0.
         24    2    1    2    0    0 -0.70929148376E+02 -0.95268928910E+02 -0.39054500059E+03  0.41591849320E+03  0.79722535041E+02 0.  0.
        -11    1    4    4    0    0 -0.36427813059E+02 -0.10152933496E+03 -0.30180915273E+03  0.32050578169E+03  0.00000000000E+00 0.  1.
         12    1    4    4    0    0 -0.34501335317E+02  0.62604060543E+01 -0.88735847854E+02  0.95412711506E+02  0.00000000000E+00 0. -1.
        -11    1    3    3    0    0 -0.12826687591E+01  0.35377206385E+02 -0.48713983816E+02  0.60218304442E+02  0.00000000000E+00 0. -1.
         11    1    3    3    0    0  0.38174293492E+02 -0.33125513097E+02 -0.22788580501E+03  0.23342347018E+03  0.00000000000E+00 0.  1.
         -2    1    1    2    0  502  0.34037523643E+02  0.93017235623E+02  0.11501334693E+02  0.99714792475E+02  0.00000000000E+00 0.  1.
<scales pt_clust_5="13000.00000" pt_clust_6="13000.00000" pt_clust_7="13000.00000" pt_clust_8="13000.00000" pt_clust_9="100.56322"></scales>
<clustering>
<clus scale="   79.723">  5  6 -1 -1</clus>
<clus scale="   91.389">  7  8 -1 -1</clus>
<clus scale="   98.580">  2  7  1 -1</clus>
<clus scale="  100.563">  1  9  2 -1</clus>
<clus scale="  100.563">  1  5  2 -1</clus>
</clustering>
</event>
<event>
 9    2  0.4653788E-005  0.9671134E+02  0.7546771E-02  0.1294730E+00
         -3   -1    0    0    0  501 -0.00000000000E+00  0.00000000000E+00  0.45651495978E+03  0.45651495978E+03  0.00000000000E+00 0.  1.
         21   -1    0    0  501  502  0.00000000000E+00 -0.00000000000E+00 -0.28687918587E+02  0.28687918587E+02  0.00000000000E+00 0.  1.
         24    2    1    2    0    0  0.40582189724E+02 -0.96996369403E+01  0.17745511111E+03  0.19736604610E+03  0.75644184261E+02 0.  0.
         23    2    1    2    0    0 -0.20836881866E+02  0.27726972166E+02  0.11415819199E+03  0.14902384858E+03  0.89291959407E+02 0.  0.
        -11    1    3    3    0    0  0.19881084884E+02 -0.37745943192E+02  0.13929336407E+03  0.14567997473E+03  0.00000000000E+00 0.  1.
         12    1    3    3    0    0  0.20701104840E+02  0.28046306252E+02  0.38161747045E+02  0.51686071368E+02  0.00000000000E+00 0. -1.
        -11    1    4    4    0    0 -0.26912600276E+02 -0.24530073825E+02  0.20996598536E+02  0.42034149516E+02  0.00000000000E+00 0. -1.
         11    1    4    4    0    0  0.60757184100E+01  0.52257045991E+02  0.93161593457E+02  0.10698969906E+03  0.00000000000E+00 0.  1.
         -4    1    1    2    0  502 -0.19745307858E+02 -0.18027335226E+02  0.13621373809E+03  0.13881298370E+03  0.00000000000E+00 0.  1.
<scales pt_clust_5="13000.00000" pt_clust_6="13000.00000" pt_clust_7="13000.00000" pt_clust_8="13000.00000" pt_clust_9="26.73692"></scales>
<clustering>
<clus scale="   26.737">  2  9  1 -1</clus>
<clus scale="   75.644">  5  6 -1 -1</clus>
<clus scale="   84.274">  1  5  2 -1</clus>
<clus scale="   89.292">  7  8 -1 -1</clus>
<clus scale="   26.737">  2  5  1 -1</clus>
</clustering>
</event>
<event>
 9    2  0.4653788E-005  0.1136337E+03  0.7546771E-02  0.1258205E+00
         -3   -1    0    0    0  501 -0.00000000000E+00  0.00000000000E+00  0.10643736027E+03  0.10643736027E+03  0.00000000000E+00 0.  1.
         21   -1    0    0  501  502  0.00000000000E+00 -0.00000000000E+00 -0.36379056362E+03  0.36379056362E+03  0.00000000000E+00 0.  1.
         24    2    1    2    0    0  0.57386930341E+02 -0.89026861937E+01  0.83026558370E+01  0.99763798241E+02  0.80693021694E+02 0.  0.
         23    2    1    2    0    0 -0.74054065070E+02  0.34499026104E+02 -0.22266597514E+02  0.12516573860E+03  0.92176316905E+02 0.  0.
        -13    1    3    3    0    0  0.22843784347E+02 -0.15986370506E+02  0.42378029311E+02  0.50727703413E+02  0.00000000000E+00 0.  1.
         14    1    3    3    0    0  0.34543145994E+02  0.70836843122E+01 -0.34075373474E+02  0.49036094828E+02  0.00000000000E+00 0. -1.
        -11    1    4    4    0    0 -0.73102863265E+02 -0.13906704588E+02 -0.89328000722E+01  0.74948115167E+02  0.00000000000E+00 0.  1.
         11    1    4    4    0    0 -0.95120180494E+00  0.48405730691E+02 -0.13333797442E+02  0.50217623429E+02  0.00000000000E+00 0. -1.
         -4    1    1    2    0  502  0.16667134729E+02 -0.25596339910E+02 -0.24338926167E+03  0.24529838705E+03  0.00000000000E+00 0.  1.
<scales pt_clust_5="13000.00000" pt_clust_6="13000.00000" pt_clust_7="13000.00000" pt_clust_8="13000.00000" pt_clust_9="30.54449"></scales>
<clustering>
<clus scale="   30.544">  2  9  1 -1</clus>
<clus scale="   80.693">  5  6 -1 -1</clus>
<clus scale="   92.176">  7  8 -1 -1</clus>
<clus scale="  104.535">  1  5  2 -1</clus>
<clus scale="   30.544">  2  5  1 -1</clus>
</clustering>
</event>
<event>
 9    2  0.4653788E-005  0.1364293E+03  0.7546771E-02  0.1220483E+00
          2   -1    0    0  502    0 -0.00000000000E+00  0.00000000000E+00  0.54586274092E+03  0.54586274092E+03  0.00000000000E+00 0. -1.
         21   -1    0    0  501  502  0.00000000000E+00 -0.00000000000E+00 -0.53728569641E+02  0.53728569641E+02  0.00000000000E+00 0. -1.
         24    2    1    2    0    0  0.94294902528E+00 -0.10414420918E+03  0.39944268061E+03  0.42075541109E+03  0.81447869262E+02 0.  0.
         23    2    1    2    0    0  0.15828449956E+02  0.91321751778E+02  0.69465966958E+02  0.14744927511E+03  0.91244539499E+02 0.  0.
        -11    1    3    3    0    0 -0.38850020719E+02 -0.51809936988E+02  0.16450696558E+03  0.17679404799E+03  0.00000000000E+00 0.  1.
         12    1    3    3    0    0  0.39792969744E+02 -0.52334272188E+02  0.23493571504E+03  0.24396136310E+03  0.00000000000E+00 0. -1.
        -11    1    4    4    0    0  0.33585902560E+02  0.37024239260E+01 -0.70821509827E+00  0.33796780354E+02  0.00000000000E+00 0. -1.
         11    1    4    4    0    0 -0.17757452604E+02  0.87619327852E+02  0.70174182057E+02  0.11365249475E+03  0.00000000000E+00 0.  1.
          1    1    1    2  501    0 -0.16771398982E+02  0.12822457398E+02  0.23225523705E+02  0.31386624363E+02  0.00000000000E+00 0. -1.
<scales pt_clust_5="13000.00000" pt_clust_6="13000.00000" pt_clust_7="13000.00000" pt_clust_8="13000.00000" pt_clust_9="21.11150"></scales>
<clustering>
<clus scale="   21.111">  2  9  1 -1</clus>
<clus scale="   81.448">  5  6 -1 -1</clus>
<clus scale="   91.245">  7  8 -1 -1</clus>
<clus scale="  130.081">  1  5  2 -1</clus>
<clus scale="   21.111">  2  5  1 -1</clus>
</clustering>
</event>
<event>
 9    2  0.4653788E-005  0.1767885E+03  0.7546771E-02  0.1192521E+00
          2   -1    0    0  502    0 -0.00000000000E+00  0.00000000000E+00  0.13605288060E+04  0.13605288060E+04  0.00000000000E+00 0. -1.
         21   -1    0    0  501  502  0.00000000000E+00 -0.00000000000E+00 -0.11027640024E+03  0.11027640024E+03  0.00000000000E+00 0.  1.
         23    2    1    2    0    0 -0.44460131847E+02 -0.34587412647E+02  0.35849591615E+03  0.37470300771E+03  0.93327539602E+02 0.  0.
         24    2    1    2    0    0  0.12285268213E+03 -0.98990899533E+02 -0.13026042069E+02  0.17815885222E+03  0.81724654506E+02 0.  0.
        -13    1    4    4    0    0  0.82697800992E+02 -0.10438874951E+03 -0.25849595178E+02  0.13566185493E+03  0.00000000000E+00 0.  1.
         14    1    4    4    0    0  0.40154881140E+02  0.53978499782E+01  0.12823553109E+02  0.42496997283E+02  0.00000000000E+00 0. -1.
        -13    1    3    3    0    0  0.73626189141E+00  0.28725959455E+02  0.13593540566E+03  0.13893940169E+03  0.00000000000E+00 0.  1.
         13    1    3    3    0    0 -0.45196393739E+02 -0.63313372102E+02  0.22256051049E+03  0.23576360602E+03  0.00000000000E+00 0. -1.
          1    1    1    2  501    0 -0.78392550284E+02  0.13357831218E+03  0.90478253171E+03  0.91794334635E+03  0.00000000000E+00 0. -1.
<scales pt_clust_5="13000.00000" pt_clust_6="13000.00000" pt_clust_7="13000.00000" pt_clust_8="13000.00000" pt_clust_9="156.76501"></scales>
<clustering>
<clus scale="   81.725">  5  6 -1 -1</clus>
<clus scale="   93.328">  7  8 -1 -1</clus>
<clus scale="  109.009">  1  7  2 -1</clus>
<clus scale="  156.765">  2  9  1 -1</clus>
<clus scale="  156.765">  2  5  1 -1</clus>
</clustering>
</event>
<event>
 9    2  0.4653788E-005  0.8023676E+03  0.7546771E-02  0.1001709E+00
          2   -1    0    0  502    0 -0.00000000000E+00  0.00000000000E+00  0.10500603488E+04  0.10500603488E+04  0.00000000000E+00 0. -1.
         21   -1    0    0  501  502  0.00000000000E+00 -0.00000000000E+00 -0.87412663551E+03  0.87412663551E+03  0.00000000000E+00 0. -1.
         23    2    1    2    0    0  0.52191166706E+02  0.14157423500E+03 -0.11322553860E+03  0.20923599777E+03  0.90512420539E+02 0.  0.
         24    2    1    2    0    0  0.55233280370E+03 -0.60762562334E+03 -0.14369678501E+03  0.83744458997E+03  0.79901508479E+02 0.  0.
        -13    1    4    4    0    0  0.58954882558E+02 -0.78801435558E+02 -0.42343584537E+02  0.10713693842E+03  0.00000000000E+00 0.  1.
         14    1    4    4    0    0  0.49337792114E+03 -0.52882418779E+03 -0.10135320048E+03  0.73030765155E+03  0.00000000000E+00 0. -1.
        -11    1    3    3    0    0  0.22732403997E+02  0.52973806230E+02  0.58247177375E+01  0.57938878784E+02  0.00000000000E+00 0. -1.
         11    1    3    3    0    0  0.29458762709E+02  0.88600428772E+02 -0.11905025633E+03  0.15129711898E+03  0.00000000000E+00 0.  1.
          1    1    1    2  501    0 -0.60452397041E+03  0.46605138834E+03  0.43285603694E+03  0.87750639661E+03  0.00000000000E+00 0. -1.
<scales pt_clust_5="13000.00000" pt_clust_6="13000.00000" pt_clust_7="13000.00000" pt_clust_8="13000.00000" pt_clust_9="798.37970"></scales>
<clustering>
<clus scale="   79.902">  5  6 -1 -1</clus>
<clus scale="   90.512">  7  8 -1 -1</clus>
<clus scale="  175.954">  1  7  2 -1</clus>
<clus scale="  798.380">  2  9  1 -1</clus>
<clus scale="  798.380">  2  5  1 -1</clus>
</clustering>
</event>
<event>
 9    2  0.4653788E-005  0.1848440E+03  0.7546771E-02  0.1185433E+00
         21   -1    0    0  501  502  0.00000000000E+00  0.00000000000E+00  0.34837573166E+03  0.34837573166E+03  0.00000000000E+00 0.  1.
          2   -1    0    0  502    0 -0.00000000000E+00 -0.00000000000E+00 -0.19232047206E+03  0.19232047206E+03  0.00000000000E+00 0. -1.
         24    2    1    2    0    0  0.63797495486E+02 -0.44269574779E+02  0.11976530032E+03  0.16367932691E+03  0.80107922296E+02 0.  0.
         23    2    1    2    0    0  0.11359187797E+03  0.95088855658E+02  0.68713563982E+02  0.18966459027E+03  0.96468117618E+02 0.  0.
        -13    1    3    3    0    0  0.26844577292E+02 -0.64077268226E+02  0.78982174923E+02  0.10518893282E+03  0.00000000000E+00 0.  1.
         14    1    3    3    0    0  0.36952918195E+02  0.19807693447E+02  0.40783125398E+02  0.58490394083E+02  0.00000000000E+00 0. -1.
        -13    1    4    4    0    0  0.11563354330E+03  0.73858799991E+02  0.86238931960E+02  0.16205984098E+03  0.00000000000E+00 0.  1.
         13    1    4    4    0    0 -0.20416653265E+01  0.21230055667E+02 -0.17525367978E+02  0.27604749296E+02  0.00000000000E+00 0. -1.
          1    1    1    2  501    0 -0.17738937346E+03 -0.50819280879E+02 -0.32423604705E+02  0.18735228653E+03  0.00000000000E+00 0. -1.
<scales pt_clust_5="13000.00000" pt_clust_6="13000.00000" pt_clust_7="13000.00000" pt_clust_8="13000.00000" pt_clust_9="157.67449"></scales>
<clustering>
<clus scale="   80.108">  5  6 -1 -1</clus>
<clus scale="   96.468">  7  8 -1 -1</clus>
<clus scale="  111.567">  2  5  1 -1</clus>
<clus scale="  157.674">  1  9  2 -1</clus>
<clus scale="  157.674">  1  5  2 -1</clus>
</clustering>
</event>
<event>
 9    2  0.4653788E-005  0.9078633E+02  0.7546771E-02  0.1307325E+00
         21   -1    0    0  501  502  0.00000000000E+00  0.00000000000E+00  0.37542717352E+03  0.37542717352E+03  0.00000000000E+00 0. -1.
         -1   -1    0    0    0  501 -0.00000000000E+00 -0.00000000000E+00 -0.52478477264E+02  0.52478477264E+02  0.00000000000E+00 0.  1.
         24    2    1    2    0    0 -0.19427411213E+02 -0.13169483238E+02  0.41164091151E+00  0.82123618071E+02  0.78697265528E+02 0.  0.
         23    2    1    2    0    0 -0.11889752111E+02 -0.12407602205E+01  0.21948973092E+03  0.23712122604E+03  0.88925970166E+02 0.  0.
        -11    1    3    3    0    0  0.14375706174E+01 -0.44316119101E+02 -0.32345472527E+01  0.44457252697E+02  0.00000000000E+00 0.  1.
         12    1    3    3    0    0 -0.20864981831E+02  0.31146635863E+02  0.36461881642E+01  0.37666365374E+02  0.00000000000E+00 0. -1.
        -11    1    4    4    0    0  0.22274631456E+02  0.33947775292E+02  0.94522322627E+02  0.10287409843E+03  0.00000000000E+00 0.  1.
         11    1    4    4    0    0 -0.34164383567E+02 -0.35188535512E+02  0.12496740829E+03  0.13424712761E+03  0.00000000000E+00 0. -1.
         -2    1    1    2    0  502  0.31317163324E+02  0.14410243458E+02  0.10304732443E+03  0.10866080668E+03  0.00000000000E+00 0.  1.
<scales pt_clust_5="13000.00000" pt_clust_6="13000.00000" pt_clust_7="13000.00000" pt_clust_8="13000.00000" pt_clust_9="34.47347"></scales>
<clustering>
<clus scale="   34.473">  1  9  2 -1</clus>
<clus scale="   78.697">  5  6 -1 -1</clus>
<clus scale="   80.793">  2  5  1 -1</clus>
<clus scale="   88.926">  7  8 -1 -1</clus>
<clus scale="   34.473">  1  5  2 -1</clus>
</clustering>
</event>
<event>
 9    2  0.4653788E-005  0.1596948E+03  0.7546771E-02  0.1204118E+00
         21   -1    0    0  501  502  0.00000000000E+00  0.00000000000E+00  0.23804355637E+03  0.23804355637E+03  0.00000000000E+00 0. -1.
          2   -1    0    0  502    0 -0.00000000000E+00 -0.00000000000E+00 -0.32103793987E+03  0.32103793987E+03  0.00000000000E+00 0. -1.
         24    2    1    2    0    0  0.65604726235E+02 -0.48668290846E+02  0.13950633771E+03  0.18071936107E+03  0.80776769961E+02 0.  0.
         23    2    1    2    0    0  0.10082243118E+03  0.17720563554E+02 -0.10899448345E+03  0.17454990158E+03  0.90048263262E+02 0.  0.
        -11    1    3    3    0    0  0.27114189753E+02 -0.18222328467E+02  0.12550187275E+03  0.12968404915E+03  0.00000000000E+00 0.  1.
         12    1    3    3    0    0  0.38490536482E+02 -0.30445962379E+02  0.14004464965E+02  0.51035311920E+02  0.00000000000E+00 0. -1.
        -11    1    4    4    0    0  0.31286989652E+02 -0.31606523357E+01  0.11823332491E+02  0.33595485349E+02  0.00000000000E+00 0.  1.
         11    1    4    4    0    0  0.69535441528E+02  0.20881215890E+02 -0.12081781594E+03  0.14095441623E+03  0.00000000000E+00 0. -1.
          1    1    1    2  501    0 -0.16642715742E+03  0.30947727292E+02 -0.11350623776E+03  0.20381223359E+03  0.00000000000E+00 0. -1.
<scales pt_clust_5="13000.00000" pt_clust_6="13000.00000" pt_clust_7="13000.00000" pt_clust_8="13000.00000" pt_clust_9="131.88543"></scales>
<clustering>
<clus scale="   80.777">  5  6 -1 -1</clus>
<clus scale="   90.048">  7  8 -1 -1</clus>
<clus scale="  114.880">  2  5  1 -1</clus>
<clus scale="  131.885">  1  9  2 -1</clus>
<clus scale="  131.885">  1  5  2 -1</clus>
</clustering>
</event>
<event>
 9    2  0.4653788E-005  0.1478047E+03  0.7546771E-02  0.1205370E+00
          2   -1    0    0  502    0 -0.00000000000E+00  0.00000000000E+00  0.68354783584E+03  0.68354783584E+03  0.00000000000E+00 0. -1.
         21   -1    0    0  501  502  0.00000000000E+00 -0.00000000000E+00 -0.49535195574E+02  0.49535195574E+02  0.00000000000E+00 0.  1.
         24    2    1    2    0    0  0.14136549736E+03 -0.27370441946E+02  0.39178921051E+03  0.42482791839E+03  0.79035623809E+02 0.  0.
         23    2    1    2    0    0 -0.85561116919E+02 -0.58206524591E+01  0.17390146563E+03  0.21400189872E+03  0.90556657331E+02 0.  0.
        -11    1    3    3    0    0  0.14797790477E+02 -0.27864342452E+02  0.39887552130E+02  0.50856789106E+02  0.00000000000E+00 0.  1.
         12    1    3    3    0    0  0.12656770688E+03  0.49390050564E+00  0.35190165838E+03  0.37397112928E+03  0.00000000000E+00 0. -1.
        -13    1    4    4    0    0 -0.20319171025E+02  0.25629047901E+02  0.11817619159E+03  0.12261863263E+03  0.00000000000E+00 0. -1.
         13    1    4    4    0    0 -0.65241945894E+02 -0.31449700360E+02  0.55725274033E+02  0.91383266098E+02  0.00000000000E+00 0.  1.
          1    1    1    2  501    0 -0.55804380440E+02  0.33191094405E+02  0.68321964121E+02  0.94253214298E+02  0.00000000000E+00 0. -1.
<scales pt_clust_5="13000.00000" pt_clust_6="13000.00000" pt_clust_7="13000.00000" pt_clust_8="13000.00000" pt_clust_9="64.92902"></scales>
<clustering>
<clus scale="   64.929">  2  9  1 -1</clus>
<clus scale="   79.036">  5  6 -1 -1</clus>
<clus scale="   90.557">  7  8 -1 -1</clus>
<clus scale="  141.040">  1  5  2 -1</clus>
<clus scale="   64.929">  2  5  1 -1</clus>
</clustering>
</event>
<event>
 9    2  0.4653788E-005  0.1927736E+03  0.7546771E-02  0.1157115E+00
         -1   -1    0    0    0  501 -0.00000000000E+00  0.00000000000E+00  0.62811219974E+03  0.62811219974E+03  0.00000000000E+00 0.  1.
         21   -1    0    0  501  502  0.00000000000E+00 -0.00000000000E+00 -0.10942119032E+03  0.10942119032E+03  0.00000000000E+00 0.  1.
         23    2    1    2    0    0 -0.46031745660E+02  0.12972863322E+03  0.21959876662E+03  0.27495006314E+03  0.91790408159E+02 0.  0.
         24    2    1    2    0    0  0.11912583423E+03 -0.20282175985E+03  0.22557778202E+03  0.33573803971E+03  0.80666380355E+02 0.  0.
        -11    1    4    4    0    0  0.11958711622E+03 -0.14595155591E+03  0.14940138102E+03  0.24067344617E+03  0.00000000000E+00 0.  1.
         12    1    4    4    0    0 -0.46128198866E+00 -0.56870203933E+02  0.76176401001E+02  0.95064593545E+02  0.00000000000E+00 0. -1.
        -11    1    3    3    0    0 -0.39259866631E+02  0.61090753573E+01  0.36695598393E+02  0.54085348025E+02  0.00000000000E+00 0.  1.
         11    1    3    3    0    0 -0.67718790294E+01  0.12361955787E+03  0.18290316823E+03  0.22086471511E+03  0.00000000000E+00 0. -1.
         -2    1    1    2    0  502 -0.73094088567E+02  0.73093126622E+02  0.73514460779E+02  0.12684528721E+03  0.00000000000E+00 0.  1.
<scales pt_clust_5="13000.00000" pt_clust_6="13000.00000" pt_clust_7="13000.00000" pt_clust_8="13000.00000" pt_clust_9="103.36997"></scales>
<clustering>
<clus scale="   80.666">  5  6 -1 -1</clus>
<clus scale="   91.790">  7  8 -1 -1</clus>
<clus scale="  103.370">  2  9  1 -1</clus>
<clus scale="  187.732">  2  5  1 -1</clus>
<clus scale="  103.370">  2  5  1 -1</clus>
</clustering>
</event>
<event>
 9    2  0.4653788E-005  0.2684306E+03  0.7546771E-02  0.1135285E+00
          2   -1    0    0  502    0 -0.00000000000E+00  0.00000000000E+00  0.30125351401E+04  0.30125351401E+04  0.00000000000E+00 0. -1.
         21   -1    0    0  501  502  0.00000000000E+00 -0.00000000000E+00 -0.43194312274E+02  0.43194312274E+02  0.00000000000E+00 0.  1.
         23    2    1    2    0    0  0.43900981227E+02  0.22315789476E+02  0.19316986782E+03  0.22586543564E+03  0.10618524647E+03 0.  0.
         24    2    1    2    0    0  0.32383012297E+02 -0.25948287834E+03  0.10198015340E+04  0.10559133308E+04  0.81103450462E+02 0.  0.
        -13    1    4    4    0    0  0.36742219239E+02 -0.19534954856E+03  0.62310027379E+03  0.65403775732E+03  0.00000000000E+00 0.  1.
         14    1    4    4    0    0 -0.43592069421E+01 -0.64133329789E+02  0.39670126025E+03  0.40187557348E+03  0.00000000000E+00 0. -1.
        -13    1    3    3    0    0 -0.29000011576E+02 -0.16796375094E+02  0.44246961589E+02  0.55505968126E+02  0.00000000000E+00 0. -1.
         13    1    3    3    0    0  0.72900992803E+02  0.39112164570E+02  0.14892290624E+03  0.17035946751E+03  0.00000000000E+00 0.  1.
          1    1    1    2  501    0 -0.76283993523E+02  0.23716708887E+03  0.17563694260E+04  0.17739506860E+04  0.00000000000E+00 0. -1.
<scales pt_clust_5="13000.00000" pt_clust_6="13000.00000" pt_clust_7="13000.00000" pt_clust_8="13000.00000" pt_clust_9="255.88528"></scales>
<clustering>
<clus scale="   81.103">  5  6 -1 -1</clus>
<clus scale="  106.185">  7  8 -1 -1</clus>
<clus scale="  117.050">  1  7  2 -1</clus>
<clus scale="  255.885">  2  9  1 -1</clus>
<clus scale="  255.885">  2  5  1 -1</clus>
</clustering>
</event>
<event>
 9    2  0.4653788E-005  0.2042002E+03  0.7546771E-02  0.1147207E+00
         21   -1    0    0  501  502  0.00000000000E+00  0.00000000000E+00  0.10027588551E+03  0.10027588551E+03  0.00000000000E+00 0. -1.
         -3   -1    0    0    0  501 -0.00000000000E+00 -0.00000000000E+00 -0.71944036377E+03  0.71944036377E+03  0.00000000000E+00 0.  1.
         24    2    1    2    0    0 -0.16885556100E+03  0.61394810513E+02 -0.49825494890E+03  0.53555729939E+03  0.79259722309E+02 0.  0.
         23    2    1    2    0    0  0.18789905886E+03 -0.50438779387E+02 -0.13909328278E+03  0.25563986300E+03  0.90303219492E+02 0.  0.
        -11    1    3    3    0    0 -0.15654014582E+03  0.62026382162E+02 -0.49492538660E+03  0.52278411188E+03  0.00000000000E+00 0.  1.
         12    1    3    3    0    0 -0.12315415185E+02 -0.63157164824E+00 -0.33295623067E+01  0.12773187507E+02  0.00000000000E+00 0. -1.
        -11    1    4    4    0    0  0.13631143532E+03 -0.22047066638E+02 -0.46107365338E+02  0.14557736667E+03  0.00000000000E+00 0. -1.
         11    1    4    4    0    0  0.51587623537E+02 -0.28391712749E+02 -0.92985917446E+02  0.11006249633E+03  0.00000000000E+00 0.  1.
         -4    1    1    2    0  502 -0.19043497857E+02 -0.10956031127E+02  0.18183753421E+02  0.28519086892E+02  0.00000000000E+00 0.  1.
<scales pt_clust_5="13000.00000" pt_clust_6="13000.00000" pt_clust_7="13000.00000" pt_clust_8="13000.00000" pt_clust_9="21.97019"></scales>
<clustering>
<clus scale="   21.970">  1  9  2 -1</clus>
<clus scale="   79.260">  5  6 -1 -1</clus>
<clus scale="   90.303">  7  8 -1 -1</clus>
<clus scale="  199.562">  2  5  1 -1</clus>
<clus scale="   21.970">  1  5  2 -1</clus>
</clustering>
</event>
<event>
 9    2  0.4653788E-005  0.9139842E+02  0.7546771E-02  0.1305316E+00
          2   -1    0    0  502    0 -0.00000000000E+00  0.00000000000E+00  0.11130921707E+04  0.11130921707E+04  0.00000000000E+00 0. -1.
         21   -1    0    0  501  502  0.00000000000E+00 -0.00000000000E+00 -0.16566299665E+02  0.16566299665E+02  0.00000000000E+00 0. -1.
         24    2    1    2    0    0 -0.23521599752E+02  0.40630025290E+00  0.70967161552E+03  0.71465246689E+03  0.80875928628E+02 0.  0.
         23    2    1    2    0    0 -0.26027315836E+02  0.59174760041E+01  0.19173446669E+03  0.21359394531E+03  0.90265331458E+02 0.  0.
        -11    1    3    3    0    0  0.26915196775E+02 -0.11208640272E+00  0.12806857132E+03  0.13086634151E+03  0.00000000000E+00 0.  1.
         12    1    3    3    0    0 -0.50436796527E+02  0.51838665562E+00  0.58160304419E+03  0.58378612538E+03  0.00000000000E+00 0. -1.
        -13    1    4    4    0    0  0.16878811476E+02 -0.32321830167E+02  0.81160421846E+02  0.88975328358E+02  0.00000000000E+00 0.  1.
         13    1    4    4    0    0 -0.42906127311E+02  0.38239306171E+02  0.11057404485E+03  0.12461861695E+03  0.00000000000E+00 0. -1.
          1    1    1    2  501    0  0.49548915587E+02 -0.63237762570E+01  0.19511978886E+03  0.20141205820E+03  0.00000000000E+00 0. -1.
<scales pt_clust_5="13000.00000" pt_clust_6="13000.00000" pt_clust_7="13000.00000" pt_clust_8="13000.00000" pt_clust_9="49.95083"></scales>
<clustering>
<clus scale="   49.951">  2  9  1 -1</clus>
<clus scale="   80.876">  5  6 -1 -1</clus>
<clus scale="   82.139">  1  5  2 -1</clus>
<clus scale="   90.265">  7  8 -1 -1</clus>
<clus scale="   49.951">  2  5  1 -1</clus>
</clustering>
</event>
<event>
 9    2  0.4653788E-005  0.2034976E+03  0.7546771E-02  0.1147051E+00
          2   -1    0    0  502    0 -0.00000000000E+00  0.00000000000E+00  0.12550863053E+04  0.12550863053E+04  0.00000000000E+00 0. -1.
         21   -1    0    0  501  502  0.00000000000E+00 -0.00000000000E+00 -0.10065007842E+03  0.10065007842E+03  0.00000000000E+00 0. -1.
         23    2    1    2    0    0 -0.18682231965E+03  0.82954833118E+02  0.10736438790E+04  0.10968554112E+04  0.92717477830E+02 0.  0.
         24    2    1    2    0    0  0.92146294020E+02 -0.16688502184E+02  0.49466724111E+02  0.13914763904E+03  0.90253327074E+02 0.  0.
        -11    1    4    4    0    0  0.65482051409E+02 -0.29381263577E+02  0.72257662610E+02  0.10184462436E+03  0.00000000000E+00 0.  1.
         12    1    4    4    0    0  0.26664242612E+02  0.12692761394E+02 -0.22790938499E+02  0.37303014671E+02  0.00000000000E+00 0. -1.
        -13    1    3    3    0    0 -0.71005362649E+02  0.81881635022E+02  0.49299192787E+03  0.50476470224E+03  0.00000000000E+00 0. -1.
         13    1    3    3    0    0 -0.11581695700E+03  0.10731980955E+01  0.58065195117E+03  0.59209070900E+03  0.00000000000E+00 0.  1.
          1    1    1    2  501    0  0.94676025632E+02 -0.66266330934E+02  0.31325623761E+02  0.11973333349E+03  0.00000000000E+00 0. -1.
<scales pt_clust_5="13000.00000" pt_clust_6="13000.00000" pt_clust_7="13000.00000" pt_clust_8="13000.00000" pt_clust_9="115.56287"></scales>
<clustering>
<clus scale="   90.253">  5  6 -1 -1</clus>
<clus scale="   92.717">  7  8 -1 -1</clus>
<clus scale="  115.563">  2  9  1 -1</clus>
<clus scale="  202.387">  2  5  1 -1</clus>
<clus scale="  115.563">  2  5  1 -1</clus>
</clustering>
</event>
<event>
 9    2  0.4653788E-005  0.9661265E+02  0.7546771E-02  0.1292139E+00
         -1   -1    0    0    0  501 -0.00000000000E+00  0.00000000000E+00  0.35965695661E+03  0.35965695661E+03  0.00000000000E+00 0.  1.
         21   -1    0    0  501  502  0.00000000000E+00 -0.00000000000E+00 -0.41805442244E+02  0.41805442244E+02  0.00000000000E+00 0. -1.
         24    2    1    2    0    0 -0.24950057463E+02  0.23009310523E+02  0.11810872139E+03  0.14610783877E+03  0.79030985970E+02 0.  0.
         23    2    1    2    0    0  0.45515665192E+02 -0.67619849376E+02  0.15870491070E+03  0.19134555931E+03  0.69150231968E+02 0.  0.
        -13    1    3    3    0    0 -0.20378058263E+02  0.92535468657E+01  0.12709645972E+03  0.12905194094E+03  0.00000000000E+00 0.  1.
         14    1    3    3    0    0 -0.45719992004E+01  0.13755763657E+02 -0.89877383272E+01  0.17055897828E+02  0.00000000000E+00 0. -1.
        -11    1    4    4    0    0  0.53012772032E+02 -0.16958905329E+02  0.80808343563E+02  0.98122101781E+02  0.00000000000E+00 0.  1.
         11    1    4    4    0    0 -0.74971068400E+01 -0.50660944046E+02  0.77896567132E+02  0.93223457529E+02  0.00000000000E+00 0. -1.
         -2    1    1    2    0  502 -0.20565607729E+02  0.44610538853E+02  0.41037882279E+02  0.64009000773E+02  0.00000000000E+00 0.  1.
<scales pt_clust_5="13000.00000" pt_clust_6="13000.00000" pt_clust_7="13000.00000" pt_clust_8="13000.00000" pt_clust_9="49.12275"></scales>
<clustering>
<clus scale="   49.123">  2  9  1 -1</clus>
<clus scale="   69.150">  7  8 -1 -1</clus>
<clus scale="   79.031">  5  6 -1 -1</clus>
<clus scale="   88.712">  2  7  1 -1</clus>
<clus scale="   49.123">  2  5  1 -1</clus>
</clustering>
</event>
<event>
 9    2  0.4653788E-005  0.1393416E+03  0.7546771E-02  0.1216679E+00
         -1   -1    0    0    0  501 -0.00000000000E+00  0.00000000000E+00  0.12254212304E+03  0.12254212304E+03  0.00000000000E+00 0.  1.
         21   -1    0    0  501  502  0.00000000000E+00 -0.00000000000E+00 -0.37252256543E+03  0.37252256543E+03  0.00000000000E+00 0. -1.
         23    2    1    2    0    0 -0.17451709189E+02  0.84119887485E+02 -0.73025237131E+02  0.14624626419E+03  0.93137355059E+02 0.  0.
         24    2    1    2    0    0  0.62545594984E+02 -0.13139134661E+03 -0.21569702770E+03  0.27286463444E+03  0.82184326684E+02 0.  0.
        -13    1    4    4    0    0  0.61293572006E+02 -0.82044778454E+02 -0.84780218734E+02  0.13295086735E+03  0.00000000000E+00 0.  1.
         14    1    4    4    0    0  0.12520229780E+01 -0.49346568155E+02 -0.13091680897E+03  0.13991376709E+03  0.00000000000E+00 0. -1.
        -11    1    3    3    0    0 -0.24131907637E+02 -0.47463007109E+01 -0.47591922783E+02  0.53571143826E+02  0.00000000000E+00 0.  1.
         11    1    3    3    0    0  0.66801984482E+01  0.88866188196E+02 -0.25433314348E+02  0.92675120364E+02  0.00000000000E+00 0. -1.
         -2    1    1    2    0  502 -0.45093885796E+02  0.47271459124E+02  0.38741822443E+02  0.75953789834E+02  0.00000000000E+00 0.  1.
<scales pt_clust_5="13000.00000" pt_clust_6="13000.00000" pt_clust_7="13000.00000" pt_clust_8="13000.00000" pt_clust_9="65.33034"></scales>
<clustering>
<clus scale="   65.330">  2  9  1 -1</clus>
<clus scale="   82.184">  5  6 -1 -1</clus>
<clus scale="   93.137">  7  8 -1 -1</clus>
<clus scale="  132.272">  2  5  1 -1</clus>
<clus scale="   65.330">  2  5  1 -1</clus>
</clustering>
</event>
<event>
 9    2  0.4653788E-005  0.9722785E+02  0.7546771E-02  0.1294139E+00
          2   -1    0    0  502    0 -0.00000000000E+00  0.00000000000E+00  0.15032506910E+04  0.15032506910E+04  0.00000000000E+00 0. -1.
         21   -1    0    0  501  502  0.00000000000E+00 -0.00000000000E+00 -0.10769470276E+02  0.10769470276E+02  0.00000000000E+00 0.  1.
         24    2    1    2    0    0  0.20200102446E+02  0.14218468198E+02  0.11017433409E+04  0.11049857516E+04  0.80900636453E+02 0.  0.
         23    2    1    2    0    0  0.20745790548E+01 -0.19694298375E+02  0.33687977881E+03  0.35049518186E+03  0.94692755096E+02 0.  0.
        -13    1    3    3    0    0  0.19374003232E+02 -0.14533979885E+02  0.10227517029E+03  0.10510375365E+03  0.00000000000E+00 0.  1.
         14    1    3    3    0    0  0.82609921325E+00  0.28752448083E+02  0.99946817064E+03  0.99988199796E+03  0.00000000000E+00 0. -1.
        -13    1    4    4    0    0 -0.56757889859E+01 -0.57293943903E+02  0.17985020537E+03  0.18884095679E+03  0.00000000000E+00 0.  1.
         13    1    4    4    0    0  0.77503680406E+01  0.37599645528E+02  0.15702957344E+03  0.16165422507E+03  0.00000000000E+00 0. -1.
          1    1    1    2  501    0 -0.22274681500E+02  0.54758301774E+01  0.53858100991E+02  0.58539227825E+02  0.00000000000E+00 0. -1.
<scales pt_clust_5="13000.00000" pt_clust_6="13000.00000" pt_clust_7="13000.00000" pt_clust_8="13000.00000" pt_clust_9="22.93788"></scales>
<clustering>
<clus scale="   22.938">  2  9  1 -1</clus>
<clus scale="   80.901">  5  6 -1 -1</clus>
<clus scale="   83.854">  1  5  2 -1</clus>
<clus scale="   94.693">  7  8 -1 -1</clus>
<clus scale="   22.938">  2  5  1 -1</clus>
</clustering>
</event>
<event>
 9    2  0.4653788E-005  0.3416077E+03  0.7546771E-02  0.1102931E+00
         21   -1    0    0  501  502  0.00000000000E+00  0.00000000000E+00  0.92609583631E+02  0.92609583631E+02  0.00000000000E+00 0. -1.
          2   -1    0    0  502    0 -0.00000000000E+00 -0.00000000000E+00 -0.22644432343E+04  0.22644432343E+04  0.00000000000E+00 0. -1.
         23    2    1    2    0    0 -0.80535750416E+02 -0.38117809031E+02 -0.23924518861E+03  0.27121270845E+03  0.91537415796E+02 0.  0.
         24    2    1    2    0    0  0.82594470581E+02 -0.29999841635E+03 -0.15115773317E+04  0.15458612284E+04  0.89442781807E+02 0.  0.
        -13    1    4    4    0    0 -0.16344080402E+02 -0.84569459043E+02 -0.44442303085E+03  0.45269300051E+03  0.00000000000E+00 0.  1.
         14    1    4    4    0    0  0.98938550983E+02 -0.21542895730E+03 -0.10671543009E+04  0.10931682278E+04  0.00000000000E+00 0. -1.
        -13    1    3    3    0    0 -0.52071692674E+02 -0.45361760402E+02 -0.23041675604E+03  0.24054320183E+03  0.00000000000E+00 0. -1.
         13    1    3    3    0    0 -0.28464057742E+02  0.72439513703E+01 -0.88284325768E+01  0.30669506621E+02  0.00000000000E+00 0.  1.
          1    1    1    2  501    0 -0.20587201654E+01  0.33811622538E+03 -0.42101113039E+03  0.53997888116E+03  0.00000000000E+00 0. -1.
<scales pt_clust_5="13000.00000" pt_clust_6="13000.00000" pt_clust_7="13000.00000" pt_clust_8="13000.00000" pt_clust_9="329.69049"></scales>
<clustering>
<clus scale="   89.443">  5  6 -1 -1</clus>
<clus scale="   91.537">  7  8 -1 -1</clus>
<clus scale="  127.742">  2  7  1 -1</clus>
<clus scale="  329.690">  1  9  2 -1</clus>
<clus scale="  329.690">  1  5  2 -1</clus>
</clustering>
</event>
<event>
 9    2  0.4653788E-005  0.1099633E+03  0.7546771E-02  0.1264997E+00
         21   -1    0    0  501  502  0.00000000000E+00  0.00000000000E+00  0.15043028838E+03  0.15043028838E+03  0.00000000000E+00 0. -1.
          2   -1    0    0  502    0 -0.00000000000E+00 -0.00000000000E+00 -0.22046365467E+03  0.22046365467E+03  0.00000000000E+00 0. -1.
         23    2    1    2    0    0  0.21217860846E+02 -0.62937491107E+02 -0.12501537092E+03  0.16823036908E+03  0.90891631679E+02 0.  0.
         24    2    1    2    0    0 -0.90712363454E+01  0.34668911623E+02  0.10945251190E+03  0.14010408840E+03  0.79781466910E+02 0.  0.
        -11    1    4    4    0    0 -0.14036331788E+02 -0.18031331926E+02  0.71250442497E+02  0.74824949697E+02  0.00000000000E+00 0.  1.
         12    1    4    4    0    0  0.49650954422E+01  0.52700243549E+02  0.38202069408E+02  0.65279138704E+02  0.00000000000E+00 0. -1.
        -13    1    3    3    0    0  0.11842694644E+02  0.18559826465E+02 -0.45438853145E+01  0.22480290670E+02  0.00000000000E+00 0.  1.
         13    1    3    3    0    0  0.93751662021E+01 -0.81497317572E+02 -0.12047148561E+03  0.14575007841E+03  0.00000000000E+00 0. -1.
          1    1    1    2  501    0 -0.12146624501E+02  0.28268579484E+02 -0.54470507266E+02  0.62559485569E+02  0.00000000000E+00 0. -1.
<scales pt_clust_5="13000.00000" pt_clust_6="13000.00000" pt_clust_7="13000.00000" pt_clust_8="13000.00000" pt_clust_9="30.76774"></scales>
<clustering>
<clus scale="   30.768">  1  9  2 -1</clus>
<clus scale="   79.781">  5  6 -1 -1</clus>
<clus scale="   90.892">  7  8 -1 -1</clus>
<clus scale="  100.974">  1  5  2 -1</clus>
<clus scale="   30.768">  1  5  2 -1</clus>
</clustering>
</event>
<event>
 9    2  0.4653788E-005  0.1043403E+03  0.7546771E-02  0.1272283E+00
         21   -1    0    0  501  502  0.00000000000E+00  0.00000000000E+00  0.15871901120E+03  0.15871901120E+03  0.00000000000E+00 0. -1.
          2   -1    0    0  502    0 -0.00000000000E+00 -0.00000000000E+00 -0.79362071030E+03  0.79362071030E+03  0.00000000000E+00 0. -1.
         24    2    1    2    0    0 -0.56499230276E+02 -0.32115160738E+02 -0.32869762207E+02  0.10776267682E+03  0.79428122714E+02 0.  0.
         23    2    1    2    0    0 -0.23094611426E+02 -0.55349059171E+02  0.93303794766E+02  0.13925658622E+03  0.84201658304E+02 0.  0.
        -13    1    3    3    0    0 -0.75604879462E+02 -0.34943418422E+02 -0.25766482460E+02  0.87184011768E+02  0.00000000000E+00 0.  1.
         14    1    3    3    0    0  0.19105649187E+02  0.28282576841E+01 -0.71032797466E+01  0.20578665057E+02  0.00000000000E+00 0. -1.
        -11    1    4    4    0    0 -0.31425132111E+02  0.57447464175E+01  0.62814004957E+02  0.70470846868E+02  0.00000000000E+00 0. -1.
         11    1    4    4    0    0  0.83305206852E+01 -0.61093805588E+02  0.30489789808E+02  0.68785739356E+02  0.00000000000E+00 0.  1.
          1    1    1    2  501    0  0.79593841701E+02  0.87464219908E+02 -0.69533573166E+03  0.70532045846E+03  0.00000000000E+00 0. -1.
<scales pt_clust_5="13000.00000" pt_clust_6="13000.00000" pt_clust_7="13000.00000" pt_clust_8="13000.00000" pt_clust_9="61.61959"></scales>
<clustering>
<clus scale="   79.428">  5  6 -1 -1</clus>
<clus scale="   84.202">  7  8 -1 -1</clus>
<clus scale="  102.627">  2  5  1 -1</clus>
<clus scale="   61.620">  1  9  2 -1</clus>
<clus scale="   61.620">  1  5  2 -1</clus>
</clustering>
</event>
<event>
 9    2  0.4653788E-005  0.9665360E+02  0.7546771E-02  0.1292480E+00
         21   -1    0    0  501  502  0.00000000000E+00  0.00000000000E+00  0.10623878172E+03  0.10623878172E+03  0.00000000000E+00 0. -1.
          2   -1    0    0  502    0 -0.00000000000E+00 -0.00000000000E+00 -0.14649262931E+03  0.14649262931E+03  0.00000000000E+00 0. -1.
         23    2    1    2    0    0  0.10015888462E+02 -0.36984132675E+02 -0.81689515493E+02  0.12727755079E+03  0.89767777640E+02 0.  0.
         24    2    1    2    0    0 -0.32794922252E+02  0.18193985640E+02  0.33818084763E+02  0.94958260906E+02  0.80416916244E+02 0.  0.
        -11    1    4    4    0    0  0.20299741809E+02 -0.14638497579E+02  0.17168584262E+02  0.30350048014E+02  0.00000000000E+00 0.  1.
         12    1    4    4    0    0 -0.53094664061E+02  0.32832483219E+02  0.16649500501E+02  0.64608212892E+02  0.00000000000E+00 0. -1.
        -11    1    3    3    0    0  0.20433868990E+02  0.13547532827E+02  0.62671103688E+01  0.25305242934E+02  0.00000000000E+00 0.  1.
         11    1    3    3    0    0 -0.10417980527E+02 -0.50531665502E+02 -0.87956625862E+02  0.10197230786E+03  0.00000000000E+00 0. -1.
          1    1    1    2  501    0  0.22779033789E+02  0.18790147035E+02  0.76175831456E+01  0.30495599337E+02  0.00000000000E+00 0. -1.
<scales pt_clust_5="13000.00000" pt_clust_6="13000.00000" pt_clust_7="13000.00000" pt_clust_8="13000.00000" pt_clust_9="29.52887"></scales>
<clustering>
<clus scale="   29.529">  1  9  2 -1</clus>
<clus scale="   80.417">  5  6 -1 -1</clus>
<clus scale="   88.037">  1  5  2 -1</clus>
<clus scale="   89.768">  7  8 -1 -1</clus>
<clus scale="   29.529">  1  5  2 -1</clus>
</clustering>
</event>
<event>
 9    2  0.4653788E-005  0.1250884E+03  0.7546771E-02  0.1237664E+00
         -1   -1    0    0    0  501 -0.00000000000E+00  0.00000000000E+00  0.68750754755E+02  0.68750754755E+02  0.00000000000E+00 0.  1.
         21   -1    0    0  501  502  0.00000000000E+00 -0.00000000000E+00 -0.28224971821E+03  0.28224971821E+03  0.00000000000E+00 0.  1.
         24    2    1    2    0    0 -0.75772098962E+02  0.75310853672E+01 -0.86391641757E+02  0.14085681029E+03  0.81111016584E+02 0.  0.
         23    2    1    2    0    0  0.93830529564E+02 -0.34164028731E+02 -0.10699810422E+03  0.17219895006E+03  0.90733317787E+02 0.  0.
        -13    1    3    3    0    0 -0.56593525455E+02  0.42379269485E+02 -0.47158097416E+02  0.84986562217E+02  0.00000000000E+00 0.  1.
         14    1    3    3    0    0 -0.19178573507E+02 -0.34848184118E+02 -0.39233544341E+02  0.55870248072E+02  0.00000000000E+00 0. -1.
        -11    1    4    4    0    0  0.19862913352E+02  0.23661755572E+02 -0.14390749391E+01  0.30927090718E+02  0.00000000000E+00 0. -1.
         11    1    4    4    0    0  0.73967616212E+02 -0.57825784303E+02 -0.10555902928E+03  0.14127185934E+03  0.00000000000E+00 0.  1.
         -2    1    1    2    0  502 -0.18058430602E+02  0.26632943363E+02 -0.20109217472E+02  0.37944712614E+02  0.00000000000E+00 0.  1.
<scales pt_clust_5="13000.00000" pt_clust_6="13000.00000" pt_clust_7="13000.00000" pt_clust_8="13000.00000" pt_clust_9="32.17797"></scales>
<clustering>
<clus scale="   32.178">  2  9  1 -1</clus>
<clus scale="   81.111">  5  6 -1 -1</clus>
<clus scale="   90.733">  7  8 -1 -1</clus>
<clus scale="  118.294">  1  5  2 -1</clus>
<clus scale="   32.178">  2  5  1 -1</clus>
</clustering>
</event>
<event>
 9    2  0.4653788E-005  0.1598103E+03  0.7546771E-02  0.1196488E+00
          2   -1    0    0  502    0 -0.00000000000E+00  0.00000000000E+00  0.95059642154E+02  0.95059642154E+02  0.00000000000E+00 0. -1.
         21   -1    0    0  501  502  0.00000000000E+00 -0.00000000000E+00 -0.44285420595E+03  0.44285420595E+03  0.00000000000E+00 0.  1.
         23    2    1    2    0    0  0.37958285990E+02 -0.91550576607E+02 -0.30653577730E+02  0.15741853066E+03  0.11840022135E+03 0.  0.
         24    2    1    2    0    0 -0.74011983683E+02  0.11401541831E+03 -0.28813155686E+03  0.32905520456E+03  0.82342238540E+02 0.  0.
        -11    1    4    4    0    0 -0.27469296318E+02  0.87866715159E+02 -0.24047056860E+03  0.25749022552E+03  0.00000000000E+00 0.  1.
         12    1    4    4    0    0 -0.46542687365E+02  0.26148703155E+02 -0.47660988260E+02  0.71564979045E+02  0.00000000000E+00 0. -1.
        -11    1    3    3    0    0  0.32608108325E+02  0.37370238738E+01 -0.50221516269E+02  0.59995456264E+02  0.00000000000E+00 0.  1.
         11    1    3    3    0    0  0.53501776647E+01 -0.95287600481E+02  0.19567938539E+02  0.97423074398E+02  0.00000000000E+00 0. -1.
          1    1    1    2  501    0  0.36053697692E+02 -0.22464841707E+02 -0.29009429203E+02  0.51440112878E+02  0.00000000000E+00 0. -1.
<scales pt_clust_5="13000.00000" pt_clust_6="13000.00000" pt_clust_7="13000.00000" pt_clust_8="13000.00000" pt_clust_9="42.47988"></scales>
<clustering>
<clus scale="   42.480">  2  9  1 -1</clus>
<clus scale="   82.342">  5  6 -1 -1</clus>
<clus scale="  118.400">  7  8 -1 -1</clus>
<clus scale="  135.281">  2  5  1 -1</clus>
<clus scale="   42.480">  2  5  1 -1</clus>
</clustering>
</event>
<event>
 9    2  0.4653788E-005  0.1460197E+03  0.7546771E-02  0.1207649E+00
          2   -1    0    0  502    0 -0.00000000000E+00  0.00000000000E+00  0.61174000335E+03  0.61174000335E+03  0.00000000000E+00 0. -1.
         21   -1    0    0  501  502  0.00000000000E+00 -0.00000000000E+00 -0.10707066095E+03  0.10707066095E+03  0.00000000000E+00 0.  1.
         23    2    1    2    0    0 -0.56872153315E+02 -0.79239889392E+02  0.17759313232E+03  0.22231468755E+03  0.91493703385E+02 0.  0.
         24    2    1    2    0    0  0.14862453192E+03  0.97474133918E+02  0.46180951358E+02  0.20043325870E+03  0.80314087511E+02 0.  0.
        -13    1    4    4    0    0  0.12780817585E+03  0.11014817602E+03  0.30512880640E+02  0.17146015974E+03  0.00000000000E+00 0.  1.
         14    1    4    4    0    0  0.20816356066E+02 -0.12674042098E+02  0.15668070718E+02  0.28973098954E+02  0.00000000000E+00 0. -1.
        -13    1    3    3    0    0 -0.25533255811E+02 -0.62849457128E+02  0.17401183626E+03  0.18676755760E+03  0.00000000000E+00 0. -1.
         13    1    3    3    0    0 -0.31338897504E+02 -0.16390432264E+02  0.35812960690E+01  0.35547129956E+02  0.00000000000E+00 0.  1.
          1    1    1    2  501    0 -0.91752378604E+02 -0.18234244526E+02  0.28089525871E+03  0.29606271805E+03  0.00000000000E+00 0. -1.
<scales pt_clust_5="13000.00000" pt_clust_6="13000.00000" pt_clust_7="13000.00000" pt_clust_8="13000.00000" pt_clust_9="93.54676"></scales>
<clustering>
<clus scale="   80.314">  5  6 -1 -1</clus>
<clus scale="   91.494">  7  8 -1 -1</clus>
<clus scale="   93.547">  2  9  1 -1</clus>
<clus scale="  139.288">  2  5  1 -1</clus>
<clus scale="   93.547">  2  5  1 -1</clus>
</clustering>
</event>
<event>
 9    2  0.4653788E-005  0.1342029E+03  0.7546771E-02  0.1223585E+00
          2   -1    0    0  502    0 -0.00000000000E+00  0.00000000000E+00  0.43267937662E+03  0.43267937662E+03  0.00000000000E+00 0. -1.
         21   -1    0    0  501  502  0.00000000000E+00 -0.00000000000E+00 -0.72427624882E+02  0.72427624882E+02  0.00000000000E+00 0. -1.
         23    2    1    2    0    0  0.99307366779E+02  0.84303913603E+02  0.22934674518E+03  0.27868943623E+03  0.89993163055E+02 0.  0.
         24    2    1    2    0    0 -0.33892995767E+02 -0.46861412747E+02  0.36646221488E+02  0.10572912602E+03  0.80566589687E+02 0.  0.
        -13    1    4    4    0    0  0.18621724116E+02 -0.42399675632E+02  0.20161617695E+02  0.50507345316E+02  0.00000000000E+00 0.  1.
         14    1    4    4    0    0 -0.52514719882E+02 -0.44617371145E+01  0.16484603794E+02  0.55221780709E+02  0.00000000000E+00 0. -1.
        -11    1    3    3    0    0  0.77597483475E+02  0.10236974563E+03  0.20194328961E+03  0.23933663840E+03  0.00000000000E+00 0. -1.
         11    1    3    3    0    0  0.21709883304E+02 -0.18065832028E+02  0.27403455572E+02  0.39352797832E+02  0.00000000000E+00 0.  1.
          1    1    1    2  501    0 -0.65414371013E+02 -0.37442500856E+02  0.94258785076E+02  0.12068843925E+03  0.00000000000E+00 0. -1.
<scales pt_clust_5="13000.00000" pt_clust_6="13000.00000" pt_clust_7="13000.00000" pt_clust_8="13000.00000" pt_clust_9="75.37232"></scales>
<clustering>
<clus scale="   75.372">  2  9  1 -1</clus>
<clus scale="   80.567">  5  6 -1 -1</clus>
<clus scale="   89.993">  7  8 -1 -1</clus>
<clus scale="  128.073">  2  5  1 -1</clus>
<clus scale="   75.372">  2  5  1 -1</clus>
</clustering>
</event>
<event>
 9    2  0.4653788E-005  0.8609678E+02  0.7546771E-02  0.1316670E+00
          4   -1    0    0  502    0 -0.00000000000E+00  0.00000000000E+00  0.50265755008E+02  0.50265755008E+02  0.00000000000E+00 0. -1.
         21   -1    0    0  501  502  0.00000000000E+00 -0.00000000000E+00 -0.21168348700E+03  0.21168348700E+03  0.00000000000E+00 0. -1.
         23    2    1    2    0    0 -0.88776446427E+01 -0.16321373174E+02 -0.69491873984E+02  0.11193387460E+03  0.85760550000E+02 0.  0.
         24    2    1    2    0    0  0.36153165229E+01 -0.10623694859E+02 -0.92481278280E+02  0.12255562815E+03  0.79631411853E+02 0.  0.
        -11    1    4    4    0    0  0.12671915862E+02 -0.24628355567E+02  0.88515918184E+00  0.27711312786E+02  0.00000000000E+00 0.  1.
         12    1    4    4    0    0 -0.90565993387E+01  0.14004660708E+02 -0.93366437462E+02  0.94844315367E+02  0.00000000000E+00 0. -1.
        -13    1    3    3    0    0 -0.51529016481E+00 -0.46226921794E+02 -0.66148029755E+02  0.80701645974E+02  0.00000000000E+00 0. -1.
         13    1    3    3    0    0 -0.83623544779E+01  0.29905548620E+02 -0.33438442290E+01  0.31232228625E+02  0.00000000000E+00 0.  1.
          3    1    1    2  501    0  0.52623281198E+01  0.26945068033E+02  0.55542026752E+00  0.27459739260E+02  0.00000000000E+00 0. -1.
<scales pt_clust_5="13000.00000" pt_clust_6="13000.00000" pt_clust_7="13000.00000" pt_clust_8="13000.00000" pt_clust_9="27.45414"></scales>
<clustering>
<clus scale="   27.454">  2  9  1 -1</clus>
<clus scale="   79.631">  5  6 -1 -1</clus>
<clus scale="   79.993">  2  5  1 -1</clus>
<clus scale="   85.761">  7  8 -1 -1</clus>
<clus scale="   27.454">  2  5  1 -1</clus>
</clustering>
</event>
<event>
 9    2  0.4653788E-005  0.8488623E+02  0.7546771E-02  0.1317218E+00
         21   -1    0    0  501  502  0.00000000000E+00  0.00000000000E+00  0.22269010433E+03  0.22269010433E+03  0.00000000000E+00 0. -1.
         -1   -1    0    0    0  501 -0.00000000000E+00 -0.00000000000E+00 -0.55180811265E+02  0.55180811265E+02  0.00000000000E+00 0.  1.
         23    2    1    2    0    0  0.13806445352E+02  0.18327872153E+02  0.73993865841E+01  0.86482397617E+02  0.83053749734E+02 0.  0.
         24    2    1    2    0    0  0.51142698843E+01 -0.72604514157E+01  0.11054214000E+03  0.13719031930E+03  0.80763538066E+02 0.  0.
        -13    1    4    4    0    0 -0.15850997394E+02  0.27140274689E+02  0.82003003968E+02  0.87819936736E+02  0.00000000000E+00 0.  1.
         14    1    4    4    0    0  0.20965267278E+02 -0.34400726104E+02  0.28539136036E+02  0.49370382561E+02  0.00000000000E+00 0. -1.
        -13    1    3    3    0    0  0.44260111700E+02  0.23816400275E+02  0.18572400403E+02  0.53582762774E+02  0.00000000000E+00 0. -1.
         13    1    3    3    0    0 -0.30453666349E+02 -0.54885281214E+01 -0.11173013819E+02  0.32899634843E+02  0.00000000000E+00 0.  1.
         -2    1    1    2    0  502 -0.18920715236E+02 -0.11067420738E+02  0.49567766476E+02  0.54198198681E+02  0.00000000000E+00 0.  1.
<scales pt_clust_5="13000.00000" pt_clust_6="13000.00000" pt_clust_7="13000.00000" pt_clust_8="13000.00000" pt_clust_9="21.91988"></scales>
<clustering>
<clus scale="   21.920">  1  9  2 -1</clus>
<clus scale="   80.764">  5  6 -1 -1</clus>
<clus scale="   82.647">  1  5  2 -1</clus>
<clus scale="   83.054">  7  8 -1 -1</clus>
<clus scale="   21.920">  1  5  2 -1</clus>
</clustering>
</event>
<event>
 9    2  0.4653788E-005  0.9607371E+02  0.7546771E-02  0.1293879E+00
         21   -1    0    0  501  502  0.00000000000E+00  0.00000000000E+00  0.37003555455E+02  0.37003555455E+02  0.00000000000E+00 0. -1.
          2   -1    0    0  502    0 -0.00000000000E+00 -0.00000000000E+00 -0.89600166105E+03  0.89600166105E+03  0.00000000000E+00 0. -1.
         24    2    1    2    0    0 -0.19301722665E+02 -0.26143072504E+02 -0.78587334611E+03  0.79079878755E+03  0.81913304930E+02 0.  0.
         23    2    1    2    0    0  0.30628628724E+01  0.30905175411E+01 -0.42854674539E+02  0.10083737168E+03  0.91174118964E+02 0.  0.
        -13    1    3    3    0    0  0.23262944784E+02 -0.52283146677E+01 -0.83815230502E+02  0.87140649174E+02  0.00000000000E+00 0.  1.
         14    1    3    3    0    0 -0.42564667449E+02 -0.20914757836E+02 -0.70205811561E+03  0.70365813838E+03  0.00000000000E+00 0. -1.
        -13    1    4    4    0    0  0.17372862092E+02 -0.39205682595E+02 -0.35318577494E+02  0.55554511979E+02  0.00000000000E+00 0. -1.
         13    1    4    4    0    0 -0.14309999220E+02  0.42296200136E+02 -0.75360970445E+01  0.45282859696E+02  0.00000000000E+00 0.  1.
          1    1    1    2  501    0  0.16238859793E+02  0.23052554963E+02 -0.30270084943E+02  0.41369057279E+02  0.00000000000E+00 0. -1.
<scales pt_clust_5="13000.00000" pt_clust_6="13000.00000" pt_clust_7="13000.00000" pt_clust_8="13000.00000" pt_clust_9="28.19789"></scales>
<clustering>
<clus scale="   28.198">  1  9  2 -1</clus>
<clus scale="   81.913">  5  6 -1 -1</clus>
<clus scale="   87.334">  2  5  1 -1</clus>
<clus scale="   91.174">  7  8 -1 -1</clus>
<clus scale="   28.198">  1  5  2 -1</clus>
</clustering>
</event>
<event>
 9    2  0.4653788E-005  0.2164281E+03  0.7546771E-02  0.1153933E+00
         -3   -1    0    0    0  501 -0.00000000000E+00  0.00000000000E+00  0.61212797923E+03  0.61212797923E+03  0.00000000000E+00 0.  1.
         21   -1    0    0  501  502  0.00000000000E+00 -0.00000000000E+00 -0.13980493933E+03  0.13980493933E+03  0.00000000000E+00 0.  1.
         24    2    1    2    0    0  0.75776968374E+02  0.87592026425E+02  0.76048553790E+02  0.16191449202E+03  0.83775940235E+02 0.  0.
         23    2    1    2    0    0 -0.23470456207E+03  0.15247974481E+01  0.26015517253E+03  0.36257996043E+03  0.93246755702E+02 0.  0.
        -13    1    3    3    0    0  0.32815122289E+02  0.88466751725E+02  0.72124253975E+02  0.11876492084E+03  0.00000000000E+00 0.  1.
         14    1    3    3    0    0  0.42961846085E+02 -0.87472529939E+00  0.39242998149E+01  0.43149571173E+02  0.00000000000E+00 0. -1.
        -11    1    4    4    0    0 -0.19594024184E+02  0.28968679513E+02  0.27133674767E+02  0.44264505903E+02  0.00000000000E+00 0. -1.
         11    1    4    4    0    0 -0.21511053788E+03 -0.27443882065E+02  0.23302149777E+03  0.31831545453E+03  0.00000000000E+00 0.  1.
         -4    1    1    2    0  502  0.15892759370E+03 -0.89116823873E+02  0.13611931358E+03  0.22743846611E+03  0.00000000000E+00 0.  1.
<scales pt_clust_5="13000.00000" pt_clust_6="13000.00000" pt_clust_7="13000.00000" pt_clust_8="13000.00000" pt_clust_9="195.31043"></scales>
<clustering>
<clus scale="   83.776">  5  6 -1 -1</clus>
<clus scale="   93.247">  7  8 -1 -1</clus>
<clus scale="  142.944">  1  5  2 -1</clus>
<clus scale="  195.310">  2  9  1 -1</clus>
<clus scale="  195.310">  2  5  1 -1</clus>
</clustering>
</event>
<event>
 9    2  0.4653788E-005  0.1396372E+03  0.7546771E-02  0.1228979E+00
         -1   -1    0    0    0  501 -0.00000000000E+00  0.00000000000E+00  0.24663943573E+03  0.24663943573E+03  0.00000000000E+00 0.  1.
         21   -1    0    0  501  502  0.00000000000E+00 -0.00000000000E+00 -0.15262691546E+03  0.15262691546E+03  0.00000000000E+00 0. -1.
         23    2    1    2    0    0 -0.46504639735E+02  0.29634581801E+02 -0.32236384112E+02  0.10662969794E+03  0.85380431406E+02 0.  0.
         24    2    1    2    0    0  0.13095479898E+03  0.33792460048E+02  0.87961186221E+02  0.18029445996E+03  0.80484981696E+02 0.  0.
        -11    1    4    4    0    0  0.40595584409E+02  0.51202138232E+02  0.37858692469E+02  0.75517819278E+02  0.00000000000E+00 0.  1.
         12    1    4    4    0    0  0.90359214567E+02 -0.17409678184E+02  0.50102493752E+02  0.10477664068E+03  0.00000000000E+00 0. -1.
        -11    1    3    3    0    0 -0.29095489882E+02  0.59512899672E+02 -0.27503474210E+02  0.71727078934E+02  0.00000000000E+00 0. -1.
         11    1    3    3    0    0 -0.17409149853E+02 -0.29878317871E+02 -0.47329099025E+01  0.34902619007E+02  0.00000000000E+00 0.  1.
         -2    1    1    2    0  502 -0.84450159241E+02 -0.63427041849E+02  0.38287718159E+02  0.11234219330E+03  0.00000000000E+00 0.  1.
<scales pt_clust_5="13000.00000" pt_clust_6="13000.00000" pt_clust_7="13000.00000" pt_clust_8="13000.00000" pt_clust_9="114.10838"></scales>
<clustering>
<clus scale="   80.485">  5  6 -1 -1</clus>
<clus scale="   85.380">  7  8 -1 -1</clus>
<clus scale="  101.640">  1  7  2 -1</clus>
<clus scale="  114.108">  2  9  1 -1</clus>
<clus scale="  114.108">  2  5  1 -1</clus>
</clustering>
</event>
<event>
 9    2  0.4653788E-005  0.1228429E+03  0.7546771E-02  0.1240328E+00
         21   -1    0    0  501  502  0.00000000000E+00  0.00000000000E+00  0.80840344742E+02  0.80840344742E+02  0.00000000000E+00 0. -1.
          2   -1    0    0  502    0 -0.00000000000E+00 -0.00000000000E+00 -0.46571066517E+03  0.46571066517E+03  0.00000000000E+00 0. -1.
         24    2    1    2    0    0  0.70203819404E+02 -0.58731051216E+02 -0.25315210739E+03  0.28230127239E+03  0.85030031630E+02 0.  0.
         23    2    1    2    0    0 -0.66917693409E+02  0.28902513504E+02 -0.17572439784E+03  0.21098544754E+03  0.91227529273E+02 0.  0.
        -13    1    3    3    0    0  0.56282516443E+02 -0.60991047552E+02 -0.10672061952E+03  0.13519216016E+03  0.00000000000E+00 0.  1.
         14    1    3    3    0    0  0.13921302961E+02  0.22599963354E+01 -0.14643148787E+03  0.14710911222E+03  0.00000000000E+00 0. -1.
        -11    1    4    4    0    0 -0.26606064153E+02  0.17103003414E+02 -0.16449364806E+03  0.16750688233E+03  0.00000000000E+00 0. -1.
         11    1    4    4    0    0 -0.40311629255E+02  0.11799510090E+02 -0.11230749778E+02  0.43478565204E+02  0.00000000000E+00 0.  1.
          1    1    1    2  501    0 -0.32861259955E+01  0.29828537712E+02  0.44006184809E+02  0.53264289985E+02  0.00000000000E+00 0. -1.
<scales pt_clust_5="13000.00000" pt_clust_6="13000.00000" pt_clust_7="13000.00000" pt_clust_8="13000.00000" pt_clust_9="30.00900"></scales>
<clustering>
<clus scale="   30.009">  1  9  2 -1</clus>
<clus scale="   85.030">  5  6 -1 -1</clus>
<clus scale="   91.228">  7  8 -1 -1</clus>
<clus scale="  118.313">  2  5  1 -1</clus>
<clus scale="   30.009">  1  5  2 -1</clus>
</clustering>
</event>
<event>
 9    2  0.4653788E-005  0.1278809E+03  0.7546771E-02  0.1233017E+00
         21   -1    0    0  501  502  0.00000000000E+00  0.00000000000E+00  0.51310368444E+02  0.51310368444E+02  0.00000000000E+00 0.  1.
         -1   -1    0    0    0  501 -0.00000000000E+00 -0.00000000000E+00 -0.65614259111E+03  0.65614259111E+03  0.00000000000E+00 0.  1.
         24    2    1    2    0    0 -0.23299646003E+02  0.12326318480E+03 -0.37321537754E+03  0.40186339841E+03  0.80422551036E+02 0.  0.
         23    2    1    2    0    0  0.44686597441E+02 -0.31545609476E+02 -0.11300439459E+03  0.15413518274E+03  0.89418364419E+02 0.  0.
        -13    1    3    3    0    0 -0.48916498160E+02  0.73303112560E+02 -0.27449324631E+03  0.28829275463E+03  0.00000000000E+00 0.  1.
         14    1    3    3    0    0  0.25616852157E+02  0.49960072241E+02 -0.98722131229E+02  0.11357064377E+03  0.00000000000E+00 0. -1.
        -11    1    4    4    0    0  0.16172999494E+02 -0.22571366507E+02 -0.12021920410E+03  0.12338431640E+03  0.00000000000E+00 0. -1.
         11    1    4    4    0    0  0.28513597947E+02 -0.89742429685E+01  0.72148095118E+01  0.30750866346E+02  0.00000000000E+00 0.  1.
         -2    1    1    2    0  502 -0.21386951438E+02 -0.91717575325E+02 -0.11861245054E+03  0.15145437841E+03  0.00000000000E+00 0.  1.
<scales pt_clust_5="13000.00000" pt_clust_6="13000.00000" pt_clust_7="13000.00000" pt_clust_8="13000.00000" pt_clust_9="94.17810"></scales>
<clustering>
<clus scale="   80.423">  5  6 -1 -1</clus>
<clus scale="   89.418">  7  8 -1 -1</clus>
<clus scale="   94.178">  1  9  2 -1</clus>
<clus scale="  121.761">  2  5  1 -1</clus>
<clus scale="   94.178">  1  5  2 -1</clus>
</clustering>
</event>
<event>
 9    2  0.4653788E-005  0.1196067E+03  0.7546771E-02  0.1255045E+00
         21   -1    0    0  501  502  0.00000000000E+00  0.00000000000E+00  0.12462911792E+03  0.12462911792E+03  0.00000000000E+00 0. -1.
         -1   -1    0    0    0  501 -0.00000000000E+00 -0.00000000000E+00 -0.23930971260E+03  0.23930971260E+03  0.00000000000E+00 0.  1.
         23    2    1    2    0    0  0.21817269149E+02  0.80904292078E+01  0.17369154148E+02  0.96986228567E+02  0.92537520703E+02 0.  0.
         24    2    1    2    0    0  0.52927734639E+02  0.60629495710E+02 -0.20866631568E+02  0.11638391584E+03  0.81440276951E+02 0.  0.
        -13    1    4    4    0    0  0.52097987797E+02  0.73455001967E+02  0.20850253840E+01  0.90078770958E+02  0.00000000000E+00 0.  1.
         14    1    4    4    0    0  0.82974684152E+00 -0.12825506256E+02 -0.22951656952E+02  0.26305144885E+02  0.00000000000E+00 0. -1.
        -11    1    3    3    0    0 -0.18129461817E+02 -0.12826696782E+02 -0.26157684553E+02  0.34313641562E+02  0.00000000000E+00 0.  1.
         11    1    3    3    0    0  0.39946730966E+02  0.20917125990E+02  0.43526838701E+02  0.62672587004E+02  0.00000000000E+00 0. -1.
         -2    1    1    2    0  502 -0.74745003788E+02 -0.68719924918E+02 -0.11118311726E+03  0.15056868611E+03  0.00000000000E+00 0.  1.
<scales pt_clust_5="13000.00000" pt_clust_6="13000.00000" pt_clust_7="13000.00000" pt_clust_8="13000.00000" pt_clust_9="87.59704"></scales>
<clustering>
<clus scale="   81.440">  5  6 -1 -1</clus>
<clus scale="   92.538">  7  8 -1 -1</clus>
<clus scale="   95.418">  2  7  1 -1</clus>
<clus scale="   87.597">  1  9  2 -1</clus>
<clus scale="   87.597">  1  5  2 -1</clus>
</clustering>
</event>
<event>
 9    2  0.4653788E-005  0.1169051E+03  0.7546771E-02  0.1252120E+00
         21   -1    0    0  501  502  0.00000000000E+00  0.00000000000E+00  0.68794012375E+02  0.68794012375E+02  0.00000000000E+00 0. -1.
         -1   -1    0    0    0  501 -0.00000000000E+00 -0.00000000000E+00 -0.40995777848E+03  0.40995777848E+03  0.00000000000E+00 0.  1.
         24    2    1    2    0    0  0.13015276702E+02 -0.75769451515E+02 -0.23318584555E+03  0.25718927143E+03  0.76552436684E+02 0.  0.
         23    2    1    2    0    0 -0.33120034386E+02  0.70525584650E+02 -0.14027727285E+03  0.18315747314E+03  0.88307145362E+02 0.  0.
        -13    1    3    3    0    0  0.35174682596E+02 -0.38923002794E+02 -0.64663678972E+02  0.83268540400E+02  0.00000000000E+00 0.  1.
         14    1    3    3    0    0 -0.22159405894E+02 -0.36846448721E+02 -0.16852216658E+03  0.17392073103E+03  0.00000000000E+00 0. -1.
        -13    1    4    4    0    0 -0.63499668237E+02  0.49185975684E+02 -0.89518741113E+02  0.12027083221E+03  0.00000000000E+00 0.  1.
         13    1    4    4    0    0  0.30379633850E+02  0.21339608966E+02 -0.50758531738E+02  0.62886640933E+02  0.00000000000E+00 0. -1.
         -2    1    1    2    0  502  0.20104757685E+02  0.52438668658E+01  0.32299352296E+02  0.38405046283E+02  0.00000000000E+00 0.  1.
<scales pt_clust_5="13000.00000" pt_clust_6="13000.00000" pt_clust_7="13000.00000" pt_clust_8="13000.00000" pt_clust_9="20.77738"></scales>
<clustering>
<clus scale="   20.777">  1  9  2 -1</clus>
<clus scale="   76.552">  5  6 -1 -1</clus>
<clus scale="   88.307">  7  8 -1 -1</clus>
<clus scale="  108.300">  2  5  1 -1</clus>
<clus scale="   20.777">  1  5  2 -1</clus>
</clustering>
</event>
<event>
 9    2  0.9698118E-005  0.3543843E+03  0.7546771E-02  0.1081371E+00
          2   -1    0    0  502    0 -0.00000000000E+00  0.00000000000E+00  0.26073852479E+04  0.26073852479E+04  0.00000000000E+00 0. -1.
         21   -1    0    0  501  502  0.00000000000E+00 -0.00000000000E+00 -0.33300325096E+03  0.33300325096E+03  0.00000000000E+00 0. -1.
         23    2    1    2    0    0 -0.17415164046E+03  0.43378870144E+02 -0.50908255784E+02  0.20817782586E+03  0.92389590445E+02 0.  0.
         24    2    1    2    0    0  0.50685506685E+03 -0.70465681935E+02  0.23413734617E+04  0.23980192085E+04  0.81234021905E+02 0.  0.
        -13    1    4    4    0    0  0.14695179515E+03 -0.52220031955E+02  0.61825311710E+03  0.63761954066E+03  0.00000000000E+00 0.  1.
         14    1    4    4    0    0  0.35990327170E+03 -0.18245649981E+02  0.17231203446E+04  0.17603996679E+04  0.00000000000E+00 0. -1.
        -11    1    3    3    0    0 -0.10964813374E+03 -0.16162515761E+02 -0.98575279482E+01  0.11127044085E+03  0.00000000000E+00 0.  1.
         11    1    3    3    0    0 -0.64503506721E+02  0.59541385905E+02 -0.41050727835E+02  0.96907385015E+02  0.00000000000E+00 0. -1.
          1    1    1    2  501    0 -0.33270342639E+03  0.27086811791E+02 -0.16083208971E+02  0.33419146445E+03  0.00000000000E+00 0. -1.
<scales pt_clust_5="13000.00000" pt_clust_6="13000.00000" pt_clust_7="13000.00000" pt_clust_8="13000.00000" pt_clust_9="344.94821"></scales>
<clustering>
<clus scale="   81.234">  5  6 -1 -1</clus>
<clus scale="   92.390">  7  8 -1 -1</clus>
<clus scale="  201.857">  1  7  2 -1</clus>
<clus scale="  344.948">  2  9  1 -1</clus>
<clus scale="  344.948">  2  5  1 -1</clus>
</clustering>
</event>
<event>
 9    2  0.4653788E-005  0.9050760E+02  0.7546771E-02  0.1307410E+00
         -3   -1    0    0    0  501 -0.00000000000E+00  0.00000000000E+00  0.66597154906E+02  0.66597154906E+02  0.00000000000E+00 0.  1.
         21   -1    0    0  501  502  0.00000000000E+00 -0.00000000000E+00 -0.27251410891E+03  0.27251410891E+03  0.00000000000E+00 0.  1.
         23    2    1    2    0    0 -0.71778516400E+01 -0.78586869549E+01 -0.54709779177E+01  0.90783411375E+02  0.89991197718E+02 0.  0.
         24    2    1    2    0    0 -0.12863345461E+02  0.12333497005E+02 -0.50473429644E+02  0.96955998411E+02  0.80841311982E+02 0.  0.
        -13    1    4    4    0    0 -0.17254635326E+02  0.16423340982E+02 -0.71356601682E+02  0.75227742043E+02  0.00000000000E+00 0.  1.
         14    1    4    4    0    0  0.43912898646E+01 -0.40898439766E+01  0.20883172038E+02  0.21728256368E+02  0.00000000000E+00 0. -1.
        -11    1    3    3    0    0  0.78574274859E+01  0.38545122573E+02 -0.12992941104E+02  0.41428035910E+02  0.00000000000E+00 0. -1.
         11    1    3    3    0    0 -0.15035279126E+02 -0.46403809528E+02  0.75219631859E+01  0.49355375465E+02  0.00000000000E+00 0.  1.
         -4    1    1    2    0  502  0.20041197101E+02 -0.44748100504E+01 -0.14997254644E+03  0.15137185403E+03  0.00000000000E+00 0.  1.
<scales pt_clust_5="13000.00000" pt_clust_6="13000.00000" pt_clust_7="13000.00000" pt_clust_8="13000.00000" pt_clust_9="20.53469"></scales>
<clustering>
<clus scale="   20.535">  2  9  1 -1</clus>
<clus scale="   80.841">  5  6 -1 -1</clus>
<clus scale="   81.416">  2  5  1 -1</clus>
<clus scale="   89.991">  7  8 -1 -1</clus>
<clus scale="   20.535">  2  5  1 -1</clus>
</clustering>
</event>
<event>
 9    2  0.4653788E-005  0.1579486E+03  0.7546771E-02  0.1192758E+00
          2   -1    0    0  502    0 -0.00000000000E+00  0.00000000000E+00  0.76099039622E+03  0.76099039622E+03  0.00000000000E+00 0. -1.
         21   -1    0    0  501  502  0.00000000000E+00 -0.00000000000E+00 -0.48488637897E+02  0.48488637897E+02  0.00000000000E+00 0.  1.
         24    2    1    2    0    0  0.10094869504E+03  0.95438467070E+02  0.39885279830E+03  0.42996392697E+03  0.80537468048E+02 0.  0.
         23    2    1    2    0    0 -0.80779541103E+02 -0.72786754487E+02  0.12704466409E+03  0.19046205080E+03  0.91171268676E+02 0.  0.
        -11    1    3    3    0    0  0.61499309823E+02  0.98710504990E+02  0.24659474952E+03  0.27264427262E+03  0.00000000000E+00 0.  1.
         12    1    3    3    0    0  0.39449385212E+02 -0.32720379199E+01  0.15225804878E+03  0.15731965435E+03  0.00000000000E+00 0. -1.
        -11    1    4    4    0    0 -0.12347225773E+02 -0.53250184842E+02  0.10069279001E+03  0.11457344426E+03  0.00000000000E+00 0.  1.
         11    1    4    4    0    0 -0.68432315330E+02 -0.19536569645E+02  0.26351874082E+02  0.75888606540E+02  0.00000000000E+00 0. -1.
          1    1    1    2  501    0 -0.20169153932E+02 -0.22651712582E+02  0.18660429593E+03  0.18905305635E+03  0.00000000000E+00 0. -1.
<scales pt_clust_5="13000.00000" pt_clust_6="13000.00000" pt_clust_7="13000.00000" pt_clust_8="13000.00000" pt_clust_9="30.32978"></scales>
<clustering>
<clus scale="   30.330">  2  9  1 -1</clus>
<clus scale="   80.537">  5  6 -1 -1</clus>
<clus scale="   91.171">  7  8 -1 -1</clus>
<clus scale="  152.059">  1  5  2 -1</clus>
<clus scale="   30.330">  2  5  1 -1</clus>
</clustering>
</event>
<event>
 9    2  0.4653788E-005  0.1162939E+03  0.7546771E-02  0.1256528E+00
         21   -1    0    0  501  502  0.00000000000E+00  0.00000000000E+00  0.64505336194E+03  0.64505336194E+03  0.00000000000E+00 0. -1.
          2   -1    0    0  502    0 -0.00000000000E+00 -0.00000000000E+00 -0.81104115455E+02  0.81104115455E+02  0.00000000000E+00 0. -1.
         23    2    1    2    0    0  0.39828342952E+02 -0.37715706623E+02 -0.22684093992E+02  0.10800939728E+03  0.90236856952E+02 0.  0.
         24    2    1    2    0    0  0.29078588692E+02 -0.16925030638E+01  0.27616061379E+03  0.29768827572E+03  0.10726227670E+03 0.  0.
        -11    1    4    4    0    0 -0.33665120798E+01  0.48220692076E+02  0.88889087049E+02  0.10118220369E+03  0.00000000000E+00 0.  1.
         12    1    4    4    0    0  0.32445100772E+02 -0.49913195140E+02  0.18727152674E+03  0.19650607202E+03  0.00000000000E+00 0. -1.
        -13    1    3    3    0    0 -0.19017296729E+02 -0.16709291394E+02  0.20064695693E+02  0.32302476794E+02  0.00000000000E+00 0.  1.
         13    1    3    3    0    0  0.58845639681E+02 -0.21006415229E+02 -0.42748789684E+02  0.75706920488E+02  0.00000000000E+00 0. -1.
          1    1    1    2  501    0 -0.68906931645E+02  0.39408209687E+02  0.31047272669E+03  0.32045980440E+03  0.00000000000E+00 0. -1.
<scales pt_clust_5="13000.00000" pt_clust_6="13000.00000" pt_clust_7="13000.00000" pt_clust_8="13000.00000" pt_clust_9="79.37992"></scales>
<clustering>
<clus scale="   79.380">  1  9  2 -1</clus>
<clus scale="   90.237">  7  8 -1 -1</clus>
<clus scale="  100.806">  2  7  1 -1</clus>
<clus scale="  107.262">  5  6 -1 -1</clus>
<clus scale="   79.380">  1  5  2 -1</clus>
</clustering>
</event>
<event>
 9    2  0.4653788E-005  0.1477693E+03  0.7546771E-02  0.1205439E+00
          2   -1    0    0  502    0 -0.00000000000E+00  0.00000000000E+00  0.13587913932E+04  0.13587913932E+04  0.00000000000E+00 0. -1.
         21   -1    0    0  501  502  0.00000000000E+00 -0.00000000000E+00 -0.24311907993E+02  0.24311907993E+02  0.00000000000E+00 0. -1.
         23    2    1    2    0    0 -0.11235466808E+03  0.78964509186E+02  0.83292384155E+03  0.84911545267E+03  0.91520276374E+02 0.  0.
         24    2    1    2    0    0  0.50740709854E+02 -0.76145312726E+02  0.32792915209E+03  0.34973154256E+03  0.80011841487E+02 0.  0.
        -13    1    4    4    0    0  0.19071548449E+02  0.14097034128E+02  0.42019272851E+02  0.48250073807E+02  0.00000000000E+00 0.  1.
         14    1    4    4    0    0  0.31669161405E+02 -0.90242346854E+02  0.28590987924E+03  0.30148146875E+03  0.00000000000E+00 0. -1.
        -13    1    3    3    0    0 -0.50619969952E+02  0.89087923828E+02  0.52068420565E+03  0.53067040764E+03  0.00000000000E+00 0. -1.
         13    1    3    3    0    0 -0.61734698130E+02 -0.10123414643E+02  0.31223963590E+03  0.31844504503E+03  0.00000000000E+00 0.  1.
          1    1    1    2  501    0  0.61613958228E+02 -0.28191964597E+01  0.17362649157E+03  0.18425630598E+03  0.00000000000E+00 0. -1.
<scales pt_clust_5="13000.00000" pt_clust_6="13000.00000" pt_clust_7="13000.00000" pt_clust_8="13000.00000" pt_clust_9="61.67842"></scales>
<clustering>
<clus scale="   61.678">  2  9  1 -1</clus>
<clus scale="   80.012">  5  6 -1 -1</clus>
<clus scale="   91.520">  7  8 -1 -1</clus>
<clus scale="  140.932">  2  5  1 -1</clus>
<clus scale="   61.678">  2  5  1 -1</clus>
</clustering>
</event>
<event>
 9    2  0.4653788E-005  0.9348983E+02  0.7546771E-02  0.1299986E+00
         -1   -1    0    0    0  501 -0.00000000000E+00  0.00000000000E+00  0.30468417581E+03  0.30468417581E+03  0.00000000000E+00 0.  1.
         21   -1    0    0  501  502  0.00000000000E+00 -0.00000000000E+00 -0.16657053136E+03  0.16657053136E+03  0.00000000000E+00 0.  1.
         23    2    1    2    0    0 -0.11072268033E+02 -0.17181063207E+02  0.20911692878E+03  0.22856259029E+03  0.89962123841E+02 0.  0.
         24    2    1    2    0    0  0.55828495262E+02 -0.15299224125E+01  0.51558941967E+02  0.11087891506E+03  0.80725756500E+02 0.  0.
        -11    1    4    4    0    0  0.52099645663E+02 -0.82041759884E+01 -0.57573704778E+01  0.53054961094E+02  0.00000000000E+00 0.  1.
         12    1    4    4    0    0  0.37288495997E+01  0.66742535759E+01  0.57316312445E+02  0.57823953967E+02  0.00000000000E+00 0. -1.
        -11    1    3    3    0    0 -0.50016550836E+02 -0.14645804813E+02  0.10170853044E+03  0.11428377015E+03  0.00000000000E+00 0.  1.
         11    1    3    3    0    0  0.38944282803E+02 -0.25352583935E+01  0.10740839835E+03  0.11427882014E+03  0.00000000000E+00 0. -1.
         -2    1    1    2    0  502 -0.44756227229E+02  0.18710985619E+02 -0.12256222629E+03  0.13181320181E+03  0.00000000000E+00 0.  1.
<scales pt_clust_5="13000.00000" pt_clust_6="13000.00000" pt_clust_7="13000.00000" pt_clust_8="13000.00000" pt_clust_9="48.51001"></scales>
<clustering>
<clus scale="   48.510">  2  9  1 -1</clus>
<clus scale="   80.726">  5  6 -1 -1</clus>
<clus scale="   84.639">  2  5  1 -1</clus>
<clus scale="   89.962">  7  8 -1 -1</clus>
<clus scale="   48.510">  2  5  1 -1</clus>
</clustering>
</event>
<event>
 9    2  0.4653788E-005  0.9594657E+02  0.7546771E-02  0.1293457E+00
         21   -1    0    0  501  502  0.00000000000E+00  0.00000000000E+00  0.18981580193E+03  0.18981580193E+03  0.00000000000E+00 0.  1.
          2   -1    0    0  502    0 -0.00000000000E+00 -0.00000000000E+00 -0.12133789499E+03  0.12133789499E+03  0.00000000000E+00 0. -1.
         24    2    1    2    0    0 -0.14274897919E+02 -0.34993822142E+02  0.36081083590E+01  0.89678613421E+02  0.81245891961E+02 0.  0.
         23    2    1    2    0    0 -0.45407313404E+02  0.33992623825E+02  0.10533259765E+03  0.14936262373E+03  0.89425469831E+02 0.  0.
        -11    1    3    3    0    0 -0.14570215609E+02 -0.57722581199E+02 -0.13723302904E+02  0.61094325479E+02  0.00000000000E+00 0.  1.
         12    1    3    3    0    0  0.29531769047E+00  0.22728759056E+02  0.17331411263E+02  0.28584287942E+02  0.00000000000E+00 0. -1.
        -13    1    4    4    0    0 -0.11025724985E+02 -0.30553180008E+02  0.37549082798E+02  0.49648736530E+02  0.00000000000E+00 0. -1.
         13    1    4    4    0    0 -0.34381588419E+02  0.64545803833E+02  0.67783514849E+02  0.99713887197E+02  0.00000000000E+00 0.  1.
          1    1    1    2  501    0  0.59682211323E+02  0.10011983176E+01 -0.40462799069E+02  0.72112459777E+02  0.00000000000E+00 0. -1.
<scales pt_clust_5="13000.00000" pt_clust_6="13000.00000" pt_clust_7="13000.00000" pt_clust_8="13000.00000" pt_clust_9="59.69064"></scales>
<clustering>
<clus scale="   59.691">  1  9  2 -1</clus>
<clus scale="   81.246">  5  6 -1 -1</clus>
<clus scale="   88.373">  2  5  1 -1</clus>
<clus scale="   89.425">  7  8 -1 -1</clus>
<clus scale="   59.691">  1  5  2 -1</clus>
</clustering>
</event>
<event>
 9    2  0.4653788E-005  0.1664877E+03  0.7546771E-02  0.1183157E+00
          2   -1    0    0  502    0 -0.00000000000E+00  0.00000000000E+00  0.74844610828E+03  0.74844610828E+03  0.00000000000E+00 0. -1.
         21   -1    0    0  501  502  0.00000000000E+00 -0.00000000000E+00 -0.84361797737E+02  0.84361797737E+02  0.00000000000E+00 0.  1.
         24    2    1    2    0    0  0.12841676184E+01  0.11746010342E+03  0.19619986668E+03  0.24262105552E+03  0.81068266988E+02 0.  0.
         23    2    1    2    0    0  0.13539417025E+03 -0.14676321343E+03  0.29073261212E+03  0.36452690326E+03  0.92105316327E+02 0.  0.
        -13    1    3    3    0    0  0.17269521508E+02  0.40494565336E+02  0.17459951675E+02  0.47359224100E+02  0.00000000000E+00 0.  1.
         14    1    3    3    0    0 -0.15985353890E+02  0.76965538081E+02  0.17873991501E+03  0.19526183142E+03  0.00000000000E+00 0. -1.
        -11    1    4    4    0    0  0.81295484612E+02 -0.22535914317E+02  0.10821431840E+03  0.13721210573E+03  0.00000000000E+00 0.  1.
         11    1    4    4    0    0  0.54098685639E+02 -0.12422729912E+03  0.18251829372E+03  0.22731479753E+03  0.00000000000E+00 0. -1.
          1    1    1    2  501    0 -0.13667833787E+03  0.29303110016E+02  0.17715183174E+03  0.22565994724E+03  0.00000000000E+00 0. -1.
<scales pt_clust_5="13000.00000" pt_clust_6="13000.00000" pt_clust_7="13000.00000" pt_clust_8="13000.00000" pt_clust_9="139.78426"></scales>
<clustering>
<clus scale="   81.068">  5  6 -1 -1</clus>
<clus scale="   92.105">  7  8 -1 -1</clus>
<clus scale="  139.784">  2  9  1 -1</clus>
<clus scale="  160.645">  1  5  2 -1</clus>
<clus scale="  139.784">  2  5  1 -1</clus>
</clustering>
</event>
<event>
 9    2  0.4653788E-005  0.1889674E+03  0.7546771E-02  0.1161207E+00
          2   -1    0    0  502    0 -0.00000000000E+00  0.00000000000E+00  0.10005690637E+04  0.10005690637E+04  0.00000000000E+00 0. -1.
         21   -1    0    0  501  502  0.00000000000E+00 -0.00000000000E+00 -0.90988968038E+02  0.90988968038E+02  0.00000000000E+00 0. -1.
         24    2    1    2    0    0 -0.18328370781E+03 -0.38427401552E+02  0.71955055505E+03  0.74785794059E+03  0.80429567264E+02 0.  0.
         23    2    1    2    0    0  0.11080528747E+03  0.47286662704E+02  0.21655159184E+03  0.26601465411E+03  0.96723131010E+02 0.  0.
        -11    1    3    3    0    0 -0.68925086798E+02 -0.54549291439E+02  0.28736641919E+03  0.30050915404E+03  0.00000000000E+00 0.  1.
         12    1    3    3    0    0 -0.11435862101E+03  0.16121889887E+02  0.43218413587E+03  0.44734878655E+03  0.00000000000E+00 0. -1.
        -13    1    4    4    0    0  0.28398964499E+01  0.31243132325E+02  0.10935709153E+02  0.33223306037E+02  0.00000000000E+00 0. -1.
         13    1    4    4    0    0  0.10796539102E+03  0.16043530379E+02  0.20561588268E+03  0.23279134807E+03  0.00000000000E+00 0.  1.
          1    1    1    2  501    0  0.72478420338E+02 -0.88592611525E+01 -0.26522051244E+02  0.77685437020E+02  0.00000000000E+00 0. -1.
<scales pt_clust_5="13000.00000" pt_clust_6="13000.00000" pt_clust_7="13000.00000" pt_clust_8="13000.00000" pt_clust_9="73.01786"></scales>
<clustering>
<clus scale="   73.018">  2  9  1 -1</clus>
<clus scale="   80.430">  5  6 -1 -1</clus>
<clus scale="   96.723">  7  8 -1 -1</clus>
<clus scale="  181.169">  1  5  2 -1</clus>
<clus scale="   73.018">  2  5  1 -1</clus>
</clustering>
</event>
<event>
 9    2  0.4653788E-005  0.1110340E+03  0.7546771E-02  0.1260983E+00
         21   -1    0    0  501  502  0.00000000000E+00  0.00000000000E+00  0.29524088735E+03  0.29524088735E+03  0.00000000000E+00 0.  1.
          2   -1    0    0  502    0 -0.00000000000E+00 -0.00000000000E+00 -0.81256734583E+02  0.81256734583E+02  0.00000000000E+00 0. -1.
         23    2    1    2    0    0 -0.73137322143E+02 -0.18529173607E+02  0.44660412158E+01  0.11446804743E+03  0.85968541879E+02 0.  0.
         24    2    1    2    0    0  0.39564114753E+02  0.50797325603E+02  0.17958091590E+03  0.20667047795E+03  0.79483920622E+02 0.  0.
        -11    1    4    4    0    0  0.29348118792E+02  0.39483587968E+02  0.18426827969E+03  0.19072248083E+03  0.00000000000E+00 0.  1.
         12    1    4    4    0    0  0.10215995962E+02  0.11313737635E+02 -0.46873637921E+01  0.15947997118E+02  0.00000000000E+00 0. -1.
        -13    1    3    3    0    0 -0.98677592189E+00 -0.33345005306E+02  0.20407515228E+02  0.39106646281E+02  0.00000000000E+00 0.  1.
         13    1    3    3    0    0 -0.72150546221E+02  0.14815831699E+02 -0.15941474012E+02  0.75361401145E+02  0.00000000000E+00 0. -1.
          1    1    1    2  501    0  0.33573207390E+02 -0.32268151996E+02  0.29937195651E+02  0.55359096552E+02  0.00000000000E+00 0. -1.
<scales pt_clust_5="13000.00000" pt_clust_6="13000.00000" pt_clust_7="13000.00000" pt_clust_8="13000.00000" pt_clust_9="46.56604"></scales>
<clustering>
<clus scale="   46.566">  1  9  2 -1</clus>
<clus scale="   79.484">  5  6 -1 -1</clus>
<clus scale="   85.969">  7  8 -1 -1</clus>
<clus scale="  106.093">  1  5  2 -1</clus>
<clus scale="   46.566">  1  5  2 -1</clus>
</clustering>
</event>
<event>
 9    2  0.4653788E-005  0.3267922E+03  0.7546771E-02  0.1073266E+00
         -3   -1    0    0    0  501 -0.00000000000E+00  0.00000000000E+00  0.74861742367E+03  0.74861742367E+03  0.00000000000E+00 0.  1.
         21   -1    0    0  501  502  0.00000000000E+00 -0.00000000000E+00 -0.18413830859E+03  0.18413830859E+03  0.00000000000E+00 0. -1.
         24    2    1    2    0    0  0.15518385819E+03 -0.28839574172E+03  0.42792029087E+03  0.54501732896E+03  0.81694429736E+02 0.  0.
         23    2    1    2    0    0 -0.14542128244E+03  0.23447800088E+03  0.72463272249E+02  0.30341361190E+03  0.10335188328E+03 0.  0.
        -11    1    3    3    0    0  0.50000293902E+02 -0.17565216432E+03  0.24957707251E+03  0.30926109899E+03  0.00000000000E+00 0.  1.
         12    1    3    3    0    0  0.10518356429E+03 -0.11274357740E+03  0.17834321835E+03  0.23575622998E+03  0.00000000000E+00 0. -1.
        -11    1    4    4    0    0  0.13553913371E+02  0.31518921242E+02  0.21869944142E+02  0.40687165307E+02  0.00000000000E+00 0.  1.
         11    1    4    4    0    0 -0.15897519581E+03  0.20295907964E+03  0.50593328107E+02  0.26272644659E+03  0.00000000000E+00 0. -1.
         -4    1    1    2    0  502 -0.97625757480E+01  0.53917740841E+02  0.64095551971E+02  0.84324791402E+02  0.00000000000E+00 0.  1.
<scales pt_clust_5="13000.00000" pt_clust_6="13000.00000" pt_clust_7="13000.00000" pt_clust_8="13000.00000" pt_clust_9="54.79447"></scales>
<clustering>
<clus scale="   54.794">  2  9  1 -1</clus>
<clus scale="   81.694">  5  6 -1 -1</clus>
<clus scale="  103.352">  7  8 -1 -1</clus>
<clus scale="  320.602">  1  5  2 -1</clus>
<clus scale="   54.794">  2  5  1 -1</clus>
</clustering>
</event>
<event>
 9    2  0.4653788E-005  0.1260267E+03  0.7546771E-02  0.1249586E+00
         21   -1    0    0  501  502  0.00000000000E+00  0.00000000000E+00  0.74410939075E+02  0.74410939075E+02  0.00000000000E+00 0.  1.
         -1   -1    0    0    0  501 -0.00000000000E+00 -0.00000000000E+00 -0.35881027733E+03  0.35881027733E+03  0.00000000000E+00 0.  1.
         24    2    1    2    0    0 -0.43170185169E+02  0.15689979801E+02 -0.15374895722E+03  0.17862426733E+03  0.78473222672E+02 0.  0.
         23    2    1    2    0    0 -0.54673441420E+02  0.14679188354E+01 -0.10772254324E+03  0.15264865583E+03  0.93306622615E+02 0.  0.
        -13    1    3    3    0    0 -0.62969622378E+02  0.26239547289E+02 -0.12146556174E+03  0.13931105438E+03  0.00000000000E+00 0.  1.
         14    1    3    3    0    0  0.19799437209E+02 -0.10549567488E+02 -0.32283395485E+02  0.39313212944E+02  0.00000000000E+00 0. -1.
        -13    1    4    4    0    0 -0.71884151272E+01 -0.40938320754E+02 -0.25891889004E+02  0.48969473495E+02  0.00000000000E+00 0.  1.
         13    1    4    4    0    0 -0.47485026293E+02  0.42406239589E+02 -0.81830654235E+02  0.10367918234E+03  0.00000000000E+00 0. -1.
         -2    1    1    2    0  502  0.97843626589E+02 -0.17157898637E+02 -0.22927837793E+02  0.10194829324E+03  0.00000000000E+00 0.  1.
<scales pt_clust_5="13000.00000" pt_clust_6="13000.00000" pt_clust_7="13000.00000" pt_clust_8="13000.00000" pt_clust_9="84.71477"></scales>
<clustering>
<clus scale="   78.473">  5  6 -1 -1</clus>
<clus scale="   90.928">  2  5  1 -1</clus>
<clus scale="   84.715">  1  9  2 -1</clus>
<clus scale="   93.307">  7  8 -1 -1</clus>
<clus scale="   84.715">  1  5  2 -1</clus>
</clustering>
</event>
<event>
 9    2  0.4653788E-005  0.1011609E+03  0.7546771E-02  0.1282652E+00
         21   -1    0    0  501  502  0.00000000000E+00  0.00000000000E+00  0.16343846709E+04  0.16343846709E+04  0.00000000000E+00 0. -1.
          4   -1    0    0  502    0 -0.00000000000E+00 -0.00000000000E+00 -0.30647132440E+02  0.30647132440E+02  0.00000000000E+00 0. -1.
         23    2    1    2    0    0  0.85452748511E+01  0.44324166590E+02  0.65274758863E+02  0.12043194180E+03  0.90583690555E+02 0.  0.
         24    2    1    2    0    0 -0.37055510521E+02 -0.36495735056E+02  0.13846380539E+04  0.13879596237E+04  0.80649408883E+02 0.  0.
        -13    1    4    4    0    0 -0.88446660748E+01  0.19406420678E+02  0.12816894446E+03  0.12993119566E+03  0.00000000000E+00 0.  1.
         14    1    4    4    0    0 -0.28210844446E+02 -0.55902155734E+02  0.12564691094E+04  0.12580284280E+04  0.00000000000E+00 0. -1.
        -11    1    3    3    0    0 -0.20498094888E+02 -0.15276623450E+02  0.43845784451E+02  0.50754309494E+02  0.00000000000E+00 0.  1.
         11    1    3    3    0    0  0.29043369739E+02  0.59600790040E+02  0.21428974411E+02  0.69677632304E+02  0.00000000000E+00 0. -1.
          3    1    1    2  501    0  0.28510235670E+02 -0.78284315342E+01  0.15382472576E+03  0.15664023791E+03  0.00000000000E+00 0. -1.
<scales pt_clust_5="13000.00000" pt_clust_6="13000.00000" pt_clust_7="13000.00000" pt_clust_8="13000.00000" pt_clust_9="29.56548"></scales>
<clustering>
<clus scale="   29.565">  1  9  2 -1</clus>
<clus scale="   80.649">  5  6 -1 -1</clus>
<clus scale="   90.584">  7  8 -1 -1</clus>
<clus scale="   92.371">  1  5  2 -1</clus>
<clus scale="   29.565">  1  5  2 -1</clus>
</clustering>
</event>
<event>
 9    2  0.4653788E-005  0.9890629E+02  0.7546771E-02  0.1286469E+00
         -1   -1    0    0    0  501 -0.00000000000E+00  0.00000000000E+00  0.42592624137E+02  0.42592624137E+02  0.00000000000E+00 0.  1.
         21   -1    0    0  501  502  0.00000000000E+00 -0.00000000000E+00 -0.66076563314E+03  0.66076563314E+03  0.00000000000E+00 0. -1.
         23    2    1    2    0    0  0.45799632728E+02 -0.58872787196E+00 -0.32089422005E+02  0.10475266141E+03  0.88574466463E+02 0.  0.
         24    2    1    2    0    0 -0.30448847062E+02 -0.23984404945E+02 -0.49460075037E+03  0.50264417199E+03  0.80739565217E+02 0.  0.
        -13    1    4    4    0    0 -0.34533712843E+02  0.10882224457E+02 -0.97692560487E+02  0.10418654667E+03  0.00000000000E+00 0.  1.
         14    1    4    4    0    0  0.40848657810E+01 -0.34866629403E+02 -0.39690818989E+03  0.39845762532E+03  0.00000000000E+00 0. -1.
        -11    1    3    3    0    0  0.64344957901E+01  0.24237085638E+02 -0.49155665902E+02  0.55182592786E+02  0.00000000000E+00 0. -1.
         11    1    3    3    0    0  0.39365136938E+02 -0.24825813510E+02  0.17066243897E+02  0.49570068624E+02  0.00000000000E+00 0.  1.
         -2    1    1    2    0  502 -0.15350785666E+02  0.24573132817E+02 -0.91482836623E+02  0.95961423883E+02  0.00000000000E+00 0.  1.
<scales pt_clust_5="13000.00000" pt_clust_6="13000.00000" pt_clust_7="13000.00000" pt_clust_8="13000.00000" pt_clust_9="28.97388"></scales>
<clustering>
<clus scale="   28.974">  2  9  1 -1</clus>
<clus scale="   80.740">  5  6 -1 -1</clus>
<clus scale="   88.574">  7  8 -1 -1</clus>
<clus scale="   91.956">  2  5  1 -1</clus>
<clus scale="   28.974">  2  5  1 -1</clus>
</clustering>
</event>
<event>
 9    2  0.5748045E-005  0.9510996E+02  0.7546771E-02  0.1294333E+00
          2   -1    0    0  502    0 -0.00000000000E+00  0.00000000000E+00  0.13522249482E+04  0.13522249482E+04  0.00000000000E+00 0. -1.
         21   -1    0    0  501  502  0.00000000000E+00 -0.00000000000E+00 -0.39240658277E+02  0.39240658277E+02  0.00000000000E+00 0. -1.
         24    2    1    2    0    0  0.41005700344E+02 -0.82548078144E+01  0.11693836651E+04  0.11729846598E+04  0.81763358372E+02 0.  0.
         23    2    1    2    0    0  0.60691115766E+01  0.27898849477E+01  0.14640574259E+03  0.17100703820E+03  0.88114403339E+02 0.  0.
        -13    1    3    3    0    0 -0.11279171645E+02 -0.19495998823E+02  0.11161539303E+03  0.11386531362E+03  0.00000000000E+00 0.  1.
         14    1    3    3    0    0  0.52284871989E+02  0.11241191009E+02  0.10577682720E+04  0.10591193462E+04  0.00000000000E+00 0. -1.
        -13    1    4    4    0    0  0.42881502108E+02  0.19586433526E+02  0.67522937088E+02  0.82351676572E+02  0.00000000000E+00 0.  1.
         13    1    4    4    0    0 -0.36812390531E+02 -0.16796548578E+02  0.78882805502E+02  0.88655361623E+02  0.00000000000E+00 0. -1.
          1    1    1    2  501    0 -0.47074811921E+02  0.54649228666E+01 -0.28051177160E+01  0.47473908463E+02  0.00000000000E+00 0. -1.
<scales pt_clust_5="13000.00000" pt_clust_6="13000.00000" pt_clust_7="13000.00000" pt_clust_8="13000.00000" pt_clust_9="47.39096"></scales>
<clustering>
<clus scale="   47.391">  2  9  1 -1</clus>
<clus scale="   81.763">  5  6 -1 -1</clus>
<clus scale="   88.114">  7  8 -1 -1</clus>
<clus scale="   89.258">  1  5  2 -1</clus>
<clus scale="   47.391">  2  5  1 -1</clus>
</clustering>
</event>
<event>
 9    2  0.4653788E-005  0.1533351E+03  0.7546771E-02  0.1213088E+00
          2   -1    0    0  502    0 -0.00000000000E+00  0.00000000000E+00  0.17738073404E+04  0.17738073404E+04  0.00000000000E+00 0. -1.
         21   -1    0    0  501  502  0.00000000000E+00 -0.00000000000E+00 -0.45537404543E+02  0.45537404543E+02  0.00000000000E+00 0. -1.
         24    2    1    2    0    0  0.61585011168E+02 -0.51481784486E+02  0.15553521667E+03  0.18884553213E+03  0.70910814737E+02 0.  0.
         23    2    1    2    0    0 -0.31629491484E+01 -0.11740491326E+03  0.21194630495E+03  0.25802664029E+03  0.88671263738E+02 0.  0.
        -11    1    3    3    0    0  0.56535425195E+02 -0.21230979778E+02  0.48356523868E+02  0.77365122664E+02  0.00000000000E+00 0.  1.
         12    1    3    3    0    0  0.50495859730E+01 -0.30250804708E+02  0.10717869280E+03  0.11148040946E+03  0.00000000000E+00 0. -1.
        -11    1    4    4    0    0  0.35043705649E+02 -0.89862636639E+02  0.16739296862E+03  0.19319358352E+03  0.00000000000E+00 0.  1.
         11    1    4    4    0    0 -0.38206654797E+02 -0.27542276618E+02  0.44553336329E+02  0.64833056770E+02  0.00000000000E+00 0. -1.
          1    1    1    2  501    0 -0.58422062020E+02  0.16888669774E+03  0.13607884142E+04  0.13724725725E+04  0.00000000000E+00 0. -1.
<scales pt_clust_5="13000.00000" pt_clust_6="13000.00000" pt_clust_7="13000.00000" pt_clust_8="13000.00000" pt_clust_9="125.09622"></scales>
<clustering>
<clus scale="   70.911">  5  6 -1 -1</clus>
<clus scale="   88.671">  7  8 -1 -1</clus>
<clus scale="  107.105">  1  5  2 -1</clus>
<clus scale="  125.096">  2  9  1 -1</clus>
<clus scale="  125.096">  2  5  1 -1</clus>
</clustering>
</event>
<event>
 9    2  0.4653788E-005  0.9743412E+02  0.7546771E-02  0.1291970E+00
          2   -1    0    0  502    0 -0.00000000000E+00  0.00000000000E+00  0.10176191695E+04  0.10176191695E+04  0.00000000000E+00 0. -1.
         21   -1    0    0  501  502  0.00000000000E+00 -0.00000000000E+00 -0.22124909262E+02  0.22124909262E+02  0.00000000000E+00 0. -1.
         24    2    1    2    0    0 -0.41435839811E+01 -0.25109771037E+02  0.63764433867E+03  0.64317189140E+03  0.80200432417E+02 0.  0.
         23    2    1    2    0    0  0.15229056491E+02  0.53434813798E+02  0.34871709336E+03  0.36481365627E+03  0.91641634140E+02 0.  0.
        -13    1    3    3    0    0  0.13905186941E+02 -0.33712929560E+02  0.12689312599E+03  0.13202947121E+03  0.00000000000E+00 0.  1.
         14    1    3    3    0    0 -0.18048770922E+02  0.86031585228E+01  0.51075121268E+03  0.51114242019E+03  0.00000000000E+00 0. -1.
        -11    1    4    4    0    0  0.33317826252E+02  0.73145850187E+02  0.25723964403E+03  0.26950441073E+03  0.00000000000E+00 0. -1.
         11    1    4    4    0    0 -0.18088769761E+02 -0.19711036390E+02  0.91477449336E+02  0.95309245533E+02  0.00000000000E+00 0.  1.
          1    1    1    2  501    0 -0.11085472510E+02 -0.28325042760E+02  0.91328282466E+01  0.31758531136E+02  0.00000000000E+00 0. -1.
<scales pt_clust_5="13000.00000" pt_clust_6="13000.00000" pt_clust_7="13000.00000" pt_clust_8="13000.00000" pt_clust_9="30.41703"></scales>
<clustering>
<clus scale="   30.417">  2  9  1 -1</clus>
<clus scale="   80.200">  5  6 -1 -1</clus>
<clus scale="   86.760">  1  5  2 -1</clus>
<clus scale="   91.642">  7  8 -1 -1</clus>
<clus scale="   30.417">  2  5  1 -1</clus>
</clustering>
</event>
<event>
 9    2  0.4653788E-005  0.1023244E+03  0.7546771E-02  0.1279922E+00
          2   -1    0    0  502    0 -0.00000000000E+00  0.00000000000E+00  0.51732415114E+03  0.51732415114E+03  0.00000000000E+00 0. -1.
         21   -1    0    0  501  502  0.00000000000E+00 -0.00000000000E+00 -0.36230807918E+02  0.36230807918E+02  0.00000000000E+00 0.  1.
         23    2    1    2    0    0  0.30990783307E+02  0.40074375312E+02  0.36611393820E+03  0.38058005512E+03  0.90748985675E+02 0.  0.
         24    2    1    2    0    0 -0.38003039792E+02 -0.13548948726E+02  0.52688173410E+02  0.10490899814E+03  0.81252995200E+02 0.  0.
        -13    1    4    4    0    0 -0.15871459353E+02 -0.25838272013E+02 -0.14131549845E+02  0.33454748896E+02  0.00000000000E+00 0.  1.
         14    1    4    4    0    0 -0.22131580438E+02  0.12289323287E+02  0.66819723255E+02  0.71454249247E+02  0.00000000000E+00 0. -1.
        -11    1    3    3    0    0  0.53436541897E+02  0.44727033829E+02  0.33358468956E+03  0.34078544082E+03  0.00000000000E+00 0.  1.
         11    1    3    3    0    0 -0.22445758591E+02 -0.46526585170E+01  0.32529248640E+02  0.39794614298E+02  0.00000000000E+00 0. -1.
          1    1    1    2  501    0  0.70122564851E+01 -0.26525426586E+02  0.62291231608E+02  0.68065905796E+02  0.00000000000E+00 0. -1.
<scales pt_clust_5="13000.00000" pt_clust_6="13000.00000" pt_clust_7="13000.00000" pt_clust_8="13000.00000" pt_clust_9="27.43667"></scales>
<clustering>
<clus scale="   27.437">  2  9  1 -1</clus>
<clus scale="   81.253">  5  6 -1 -1</clus>
<clus scale="   90.749">  7  8 -1 -1</clus>
<clus scale="   94.005">  2  5  1 -1</clus>
<clus scale="   27.437">  2  5  1 -1</clus>
</clustering>
</event>
<event>
 9    2  0.4653788E-005  0.2473757E+03  0.7546771E-02  0.1114975E+00
         -3   -1    0    0    0  501 -0.00000000000E+00  0.00000000000E+00  0.11119098940E+03  0.11119098940E+03  0.00000000000E+00 0.  1.
         21   -1    0    0  501  502  0.00000000000E+00 -0.00000000000E+00 -0.37818863779E+03  0.37818863779E+03  0.00000000000E+00 0.  1.
         24    2    1    2    0    0  0.48362790405E+02 -0.10637996644E+03 -0.70677493102E+02  0.15870523131E+03  0.80847916846E+02 0.  0.
         23    2    1    2    0    0  0.14287115926E+01 -0.48546986124E+02 -0.87985415745E+02  0.13518022693E+03  0.90406909524E+02 0.  0.
        -13    1    3    3    0    0  0.61259309725E+02 -0.48887848727E+02 -0.19750716436E+02  0.80825834860E+02  0.00000000000E+00 0.  1.
         14    1    3    3    0    0 -0.12896519320E+02 -0.57492117717E+02 -0.50926776666E+02  0.77879396452E+02  0.00000000000E+00 0. -1.
        -11    1    4    4    0    0 -0.39446285298E+02 -0.47228280156E+02 -0.56911111527E+02  0.83817626342E+02  0.00000000000E+00 0.  1.
         11    1    4    4    0    0  0.40874996890E+02 -0.13187059675E+01 -0.31074304218E+02  0.51362600585E+02  0.00000000000E+00 0. -1.
         -4    1    1    2    0  502 -0.49791501998E+02  0.15492695257E+03 -0.10833473954E+03  0.19549416895E+03  0.00000000000E+00 0.  1.
<scales pt_clust_5="13000.00000" pt_clust_6="13000.00000" pt_clust_7="13000.00000" pt_clust_8="13000.00000" pt_clust_9="162.73154"></scales>
<clustering>
<clus scale="   80.848">  5  6 -1 -1</clus>
<clus scale="   90.407">  7  8 -1 -1</clus>
<clus scale="   95.679">  5  7 -1 -1</clus>
<clus scale="  162.732">  2  9  1 -1</clus>
<clus scale="  162.732">  2  5  1 -1</clus>
</clustering>
</event>
<event>
 9    2  0.4653788E-005  0.1029840E+03  0.7546771E-02  0.1279854E+00
         21   -1    0    0  501  502  0.00000000000E+00  0.00000000000E+00  0.95174276986E+02  0.95174276986E+02  0.00000000000E+00 0.  1.
          2   -1    0    0  502    0 -0.00000000000E+00 -0.00000000000E+00 -0.50944424169E+03  0.50944424169E+03  0.00000000000E+00 0. -1.
         24    2    1    2    0    0  0.62808440968E+02  0.74426148308E+01 -0.38612988790E+03  0.39895182463E+03  0.77884371151E+02 0.  0.
         23    2    1    2    0    0  0.15417720112E+02 -0.35786134976E+02 -0.61569035888E+02  0.11599962809E+03  0.90259703005E+02 0.  0.
        -13    1    3    3    0    0  0.38702366182E+01  0.35035316978E+02 -0.13756008113E+03  0.14200432419E+03  0.00000000000E+00 0.  1.
         14    1    3    3    0    0  0.58938204350E+02 -0.27592702147E+02 -0.24856980677E+03  0.25694750044E+03  0.00000000000E+00 0. -1.
        -11    1    4    4    0    0  0.48274355726E+02 -0.96337619060E+01 -0.54455565468E+02  0.73407298000E+02  0.00000000000E+00 0.  1.
         11    1    4    4    0    0 -0.32856635613E+02 -0.26152373070E+02 -0.71134704208E+01  0.42592330090E+02  0.00000000000E+00 0. -1.
          1    1    1    2  501    0 -0.78226161080E+02  0.28343520146E+02  0.33428959089E+02  0.89667065957E+02  0.00000000000E+00 0. -1.
<scales pt_clust_5="13000.00000" pt_clust_6="13000.00000" pt_clust_7="13000.00000" pt_clust_8="13000.00000" pt_clust_9="83.20269"></scales>
<clustering>
<clus scale="   77.884">  5  6 -1 -1</clus>
<clus scale="   83.203">  1  9  2 -1</clus>
<clus scale="   90.260">  7  8 -1 -1</clus>
<clus scale="   92.330">  2  5  1 -1</clus>
<clus scale="   83.203">  1  5  2 -1</clus>
</clustering>
</event>
<event>
 9    2  0.4653788E-005  0.1476711E+03  0.7546771E-02  0.1220863E+00
         21   -1    0    0  501  502  0.00000000000E+00  0.00000000000E+00  0.13570733344E+03  0.13570733344E+03  0.00000000000E+00 0. -1.
          4   -1    0    0  502    0 -0.00000000000E+00 -0.00000000000E+00 -0.42596629898E+03  0.42596629898E+03  0.00000000000E+00 0. -1.
         24    2    1    2    0    0  0.15339823403E+02 -0.62796668991E+02 -0.71358491283E+02  0.12428879079E+03  0.78593494768E+02 0.  0.
         23    2    1    2    0    0  0.22017891797E+02 -0.55686159875E+02 -0.27898037265E+03  0.29938711044E+03  0.90646884176E+02 0.  0.
        -11    1    3    3    0    0 -0.19924702422E+02 -0.39698355744E+02 -0.36999004869E+01  0.44571767735E+02  0.00000000000E+00 0.  1.
         12    1    3    3    0    0  0.35264525826E+02 -0.23098313247E+02 -0.67658590796E+02  0.79717023057E+02  0.00000000000E+00 0. -1.
        -13    1    4    4    0    0 -0.17803567982E+02 -0.52638124631E+02 -0.86524939668E+02  0.10283143674E+03  0.00000000000E+00 0.  1.
         13    1    4    4    0    0  0.39821459779E+02 -0.30480352443E+01 -0.19245543298E+03  0.19655567370E+03  0.00000000000E+00 0. -1.
          3    1    1    2  501    0 -0.37357715200E+02  0.11848282887E+03  0.60079898404E+02  0.13799773119E+03  0.00000000000E+00 0. -1.
<scales pt_clust_5="13000.00000" pt_clust_6="13000.00000" pt_clust_7="13000.00000" pt_clust_8="13000.00000" pt_clust_9="116.57570"></scales>
<clustering>
<clus scale="   78.593">  5  6 -1 -1</clus>
<clus scale="   90.647">  7  8 -1 -1</clus>
<clus scale="  101.763">  2  5  1 -1</clus>
<clus scale="  116.576">  1  9  2 -1</clus>
<clus scale="  116.576">  1  5  2 -1</clus>
</clustering>
</event>
<event>
 9    2  0.5242478E-005  0.1155155E+03  0.7546771E-02  0.1272054E+00
         21   -1    0    0  501  502  0.00000000000E+00  0.00000000000E+00  0.50325102330E+03  0.50325102330E+03  0.00000000000E+00 0.  1.
         -3   -1    0    0    0  501 -0.00000000000E+00 -0.00000000000E+00 -0.65218546521E+02  0.65218546521E+02  0.00000000000E+00 0.  1.
         24    2    1    2    0    0  0.98058297315E+01 -0.22555289389E+02 -0.10850190476E+02  0.76736287296E+02  0.71873748882E+02 0.  0.
         23    2    1    2    0    0  0.76154317842E+02 -0.43243476272E+00  0.21989721496E+03  0.24606700524E+03  0.79965735128E+02 0.  0.
        -11    1    3    3    0    0  0.53416046553E+01 -0.28038168608E+02 -0.38652619051E+02  0.48048897997E+02  0.00000000000E+00 0.  1.
         12    1    3    3    0    0  0.44642250761E+01  0.54828792189E+01  0.27802428576E+02  0.28687389299E+02  0.00000000000E+00 0. -1.
        -11    1    4    4    0    0  0.53033443483E+02 -0.24930490966E+02  0.64858991568E+02  0.87411465465E+02  0.00000000000E+00 0.  1.
         11    1    4    4    0    0  0.23120874359E+02  0.24498056203E+02  0.15503822339E+03  0.15865553977E+03  0.00000000000E+00 0. -1.
         -4    1    1    2    0  502 -0.85960147574E+02  0.22987724152E+02  0.22898545230E+03  0.24566627729E+03  0.00000000000E+00 0.  1.
<scales pt_clust_5="13000.00000" pt_clust_6="13000.00000" pt_clust_7="13000.00000" pt_clust_8="13000.00000" pt_clust_9="83.36255"></scales>
<clustering>
<clus scale="   71.874">  5  6 -1 -1</clus>
<clus scale="   75.965">  2  5  1 -1</clus>
<clus scale="   79.966">  7  8 -1 -1</clus>
<clus scale="   83.363">  1  9  2 -1</clus>
<clus scale="   83.363">  1  5  2 -1</clus>
</clustering>
</event>
<event>
 9    2  0.5637626E-005  0.1573404E+03  0.7546771E-02  0.1209581E+00
         21   -1    0    0  501  502  0.00000000000E+00  0.00000000000E+00  0.35437470475E+03  0.35437470475E+03  0.00000000000E+00 0.  1.
         -3   -1    0    0    0  501 -0.00000000000E+00 -0.00000000000E+00 -0.25795140089E+03  0.25795140089E+03  0.00000000000E+00 0.  1.
         23    2    1    2    0    0 -0.29994984958E+02  0.47965537818E+02  0.36262638909E+02  0.11280897680E+03  0.90611778076E+02 0.  0.
         24    2    1    2    0    0  0.14131901940E+03  0.29978757200E+02 -0.16705970614E+03  0.23475789707E+03  0.79577218443E+02 0.  0.
        -13    1    4    4    0    0  0.76987577626E+02 -0.55515481163E+01 -0.13296034363E+03  0.15374121040E+03  0.00000000000E+00 0.  1.
         14    1    4    4    0    0  0.64331441772E+02  0.35530305316E+02 -0.34099362504E+02  0.81016686673E+02  0.00000000000E+00 0. -1.
        -11    1    3    3    0    0  0.29686946615E+02  0.76814915227E+01  0.25746445685E+02  0.40039974735E+02  0.00000000000E+00 0.  1.
         11    1    3    3    0    0 -0.59681931574E+02  0.40284046296E+02  0.10516193224E+02  0.72769002070E+02  0.00000000000E+00 0. -1.
         -4    1    1    2    0  502 -0.11132403444E+03 -0.77944295018E+02  0.22722037108E+03  0.26475923176E+03  0.00000000000E+00 0.  1.
<scales pt_clust_5="13000.00000" pt_clust_6="13000.00000" pt_clust_7="13000.00000" pt_clust_8="13000.00000" pt_clust_9="135.73302"></scales>
<clustering>
<clus scale="   79.577">  5  6 -1 -1</clus>
<clus scale="   90.612">  7  8 -1 -1</clus>
<clus scale="  106.822">  2  7  1 -1</clus>
<clus scale="  135.733">  1  9  2 -1</clus>
<clus scale="  135.733">  1  5  2 -1</clus>
</clustering>
</event>
<event>
 9    2  0.4653788E-005  0.1090805E+03  0.7546771E-02  0.1266393E+00
          2   -1    0    0  502    0 -0.00000000000E+00  0.00000000000E+00  0.60481517428E+03  0.60481517428E+03  0.00000000000E+00 0. -1.
         21   -1    0    0  501  502  0.00000000000E+00 -0.00000000000E+00 -0.46636071081E+02  0.46636071081E+02  0.00000000000E+00 0. -1.
         24    2    1    2    0    0 -0.37695999172E+02  0.62315641862E+02  0.30615186053E+03  0.32518091225E+03  0.81911149492E+02 0.  0.
         23    2    1    2    0    0  0.56211657226E+02  0.21712298527E+02  0.87390069529E+02  0.14050455817E+03  0.92050705046E+02 0.  0.
        -11    1    3    3    0    0 -0.43957426343E+02  0.18865177758E+02  0.68747205776E+02  0.83751588430E+02  0.00000000000E+00 0.  1.
         12    1    3    3    0    0  0.62614271703E+01  0.43450464104E+02  0.23740465475E+03  0.24142932382E+03  0.00000000000E+00 0. -1.
        -13    1    4    4    0    0  0.79130964185E+02  0.30660400963E+02  0.73393285906E+02  0.11219779007E+03  0.00000000000E+00 0. -1.
         13    1    4    4    0    0 -0.22919306959E+02 -0.89481024361E+01  0.13996783622E+02  0.28306768104E+02  0.00000000000E+00 0.  1.
          1    1    1    2  501    0 -0.18515658054E+02 -0.84027940389E+02  0.16463717314E+03  0.18576577494E+03  0.00000000000E+00 0. -1.
<scales pt_clust_5="13000.00000" pt_clust_6="13000.00000" pt_clust_7="13000.00000" pt_clust_8="13000.00000" pt_clust_9="86.04378"></scales>
<clustering>
<clus scale="   81.911">  5  6 -1 -1</clus>
<clus scale="   86.044">  2  9  1 -1</clus>
<clus scale="   92.051">  7  8 -1 -1</clus>
<clus scale="  100.671">  1  5  2 -1</clus>
<clus scale="   86.044">  2  5  1 -1</clus>
</clustering>
</event>
<event>
 9    2  0.4653788E-005  0.1422467E+03  0.7546771E-02  0.1212099E+00
         -1   -1    0    0    0  501 -0.00000000000E+00  0.00000000000E+00  0.24025195894E+03  0.24025195894E+03  0.00000000000E+00 0.  1.
         21   -1    0    0  501  502  0.00000000000E+00 -0.00000000000E+00 -0.11975548209E+03  0.11975548209E+03  0.00000000000E+00 0.  1.
         24    2    1    2    0    0  0.46596905630E+02 -0.87762359674E+02  0.59204868638E+02  0.14047067931E+03  0.79707539701E+02 0.  0.
         23    2    1    2    0    0 -0.22304467250E+02  0.13169857259E+03  0.40702012645E+02  0.16527402300E+03  0.88412926442E+02 0.  0.
        -13    1    3    3    0    0  0.59130674954E+02 -0.92196157685E+02  0.38961980323E+02  0.11625232954E+03  0.00000000000E+00 0.  1.
         14    1    3    3    0    0 -0.12533769324E+02  0.44337980111E+01  0.20242888315E+02  0.24218349770E+02  0.00000000000E+00 0. -1.
        -13    1    4    4    0    0 -0.52588188622E+02  0.10717681349E+03  0.19668311042E+02  0.12099268322E+03  0.00000000000E+00 0.  1.
         13    1    4    4    0    0  0.30283721372E+02  0.24521759099E+02  0.21033701603E+02  0.44281339779E+02  0.00000000000E+00 0. -1.
         -2    1    1    2    0  502 -0.24292438380E+02 -0.43936212917E+02  0.20589595573E+02  0.54262738724E+02  0.00000000000E+00 0.  1.
<scales pt_clust_5="13000.00000" pt_clust_6="13000.00000" pt_clust_7="13000.00000" pt_clust_8="13000.00000" pt_clust_9="50.20474"></scales>
<clustering>
<clus scale="   50.205">  2  9  1 -1</clus>
<clus scale="   79.708">  5  6 -1 -1</clus>
<clus scale="   88.413">  7  8 -1 -1</clus>
<clus scale="  137.006">  1  5  2 -1</clus>
<clus scale="   50.205">  2  5  1 -1</clus>
</clustering>
</event>
<event>
 9    2  0.4653788E-005  0.1099659E+03  0.7546771E-02  0.1264495E+00
         21   -1    0    0  501  502  0.00000000000E+00  0.00000000000E+00  0.76331109313E+03  0.76331109313E+03  0.00000000000E+00 0. -1.
         -1   -1    0    0    0  501 -0.00000000000E+00 -0.00000000000E+00 -0.53116534686E+02  0.53116534686E+02  0.00000000000E+00 0.  1.
         24    2    1    2    0    0  0.70037239203E+02 -0.44534416896E+01  0.68692812008E+02  0.12728705280E+03  0.80982981987E+02 0.  0.
         23    2    1    2    0    0 -0.14509224210E+02 -0.69443061316E+02  0.53869280149E+03  0.55088815093E+03  0.90856832984E+02 0.  0.
        -11    1    3    3    0    0  0.77048421594E+02 -0.27680438937E+02  0.60049574528E+02  0.10153136151E+03  0.00000000000E+00 0.  1.
         12    1    3    3    0    0 -0.70111823910E+01  0.23226997247E+02  0.86432374805E+01  0.25755691289E+02  0.00000000000E+00 0. -1.
        -11    1    4    4    0    0 -0.52029140715E+02 -0.31814535068E+02  0.32621238767E+03  0.33186400527E+03  0.00000000000E+00 0. -1.
         11    1    4    4    0    0  0.37519916506E+02 -0.37628526249E+02  0.21248041382E+03  0.21902414566E+03  0.00000000000E+00 0.  1.
         -2    1    1    2    0  502 -0.55528014993E+02  0.73896503006E+02  0.10280894494E+03  0.13825242409E+03  0.00000000000E+00 0.  1.
<scales pt_clust_5="13000.00000" pt_clust_6="13000.00000" pt_clust_7="13000.00000" pt_clust_8="13000.00000" pt_clust_9="92.43410"></scales>
<clustering>
<clus scale="   80.983">  5  6 -1 -1</clus>
<clus scale="   90.857">  7  8 -1 -1</clus>
<clus scale="   92.434">  1  9  2 -1</clus>
<clus scale="  101.960">  2  5  1 -1</clus>
<clus scale="   92.434">  1  5  2 -1</clus>
</clustering>
</event>
<event>
 9    2  0.4653788E-005  0.8762963E+02  0.7546771E-02  0.1311021E+00
         21   -1    0    0  501  502  0.00000000000E+00  0.00000000000E+00  0.31436728702E+02  0.31436728702E+02  0.00000000000E+00 0. -1.
          2   -1    0    0  502    0 -0.00000000000E+00 -0.00000000000E+00 -0.82781493135E+03  0.82781493135E+03  0.00000000000E+00 0. -1.
         24    2    1    2    0    0  0.11189758619E+02 -0.37152707835E+02 -0.36842232185E+03  0.37914665255E+03  0.80694748907E+02 0.  0.
         23    2    1    2    0    0 -0.37912461926E+02 -0.37957220175E+02 -0.36516337409E+03  0.37862346704E+03  0.84459071032E+02 0.  0.
        -11    1    3    3    0    0  0.33276767462E+02  0.11122879483E+02 -0.18002872033E+03  0.18341592582E+03  0.00000000000E+00 0.  1.
         12    1    3    3    0    0 -0.22087008843E+02 -0.48275587318E+02 -0.18839360152E+03  0.19573072672E+03  0.00000000000E+00 0. -1.
        -11    1    4    4    0    0 -0.16605274093E+02  0.24313493332E+02 -0.65429899320E+02  0.71749235611E+02  0.00000000000E+00 0.  1.
         11    1    4    4    0    0 -0.21307187833E+02 -0.62270713507E+02 -0.29973347477E+03  0.30687423142E+03  0.00000000000E+00 0. -1.
          1    1    1    2  501    0  0.26722703308E+02  0.75109928010E+02 -0.62792506702E+02  0.10148154047E+03  0.00000000000E+00 0. -1.
<scales pt_clust_5="13000.00000" pt_clust_6="13000.00000" pt_clust_7="13000.00000" pt_clust_8="13000.00000" pt_clust_9="79.72204"></scales>
<clustering>
<clus scale="   79.722">  1  9  2 -1</clus>
<clus scale="   80.695">  5  6 -1 -1</clus>
<clus scale="   84.008">  2  5  1 -1</clus>
<clus scale="   84.459">  7  8 -1 -1</clus>
<clus scale="   79.722">  1  5  2 -1</clus>
</clustering>
</event>
<event>
 9    2  0.4653788E-005  0.1052075E+03  0.7546771E-02  0.1275018E+00
          4   -1    0    0  502    0 -0.00000000000E+00  0.00000000000E+00  0.80483324263E+02  0.80483324263E+02  0.00000000000E+00 0. -1.
         21   -1    0    0  501  502  0.00000000000E+00 -0.00000000000E+00 -0.42243784883E+03  0.42243784883E+03  0.00000000000E+00 0.  1.
         23    2    1    2    0    0 -0.40050613540E+02 -0.22748915205E+02  0.12969883881E+02  0.10325930185E+03  0.91502463043E+02 0.  0.
         24    2    1    2    0    0  0.88580288750E+02 -0.72920773949E+01 -0.18233089233E+03  0.21787597404E+03  0.79534544832E+02 0.  0.
        -11    1    4    4    0    0  0.96649855839E+00 -0.27796868748E+02 -0.58812335176E+02  0.65057596025E+02  0.00000000000E+00 0.  1.
         12    1    4    4    0    0  0.87613790192E+02  0.20504791353E+02 -0.12351855715E+03  0.15281837802E+03  0.00000000000E+00 0. -1.
        -11    1    3    3    0    0 -0.23039832747E+02  0.32609959090E+02  0.20457630773E+02  0.44863771372E+02  0.00000000000E+00 0. -1.
         11    1    3    3    0    0 -0.17010780793E+02 -0.55358874295E+02 -0.74877468917E+01  0.58395530479E+02  0.00000000000E+00 0.  1.
          3    1    1    2  501    0 -0.48529675210E+02  0.30040992600E+02 -0.17259351612E+03  0.18178589720E+03  0.00000000000E+00 0. -1.
<scales pt_clust_5="13000.00000" pt_clust_6="13000.00000" pt_clust_7="13000.00000" pt_clust_8="13000.00000" pt_clust_9="57.07531"></scales>
<clustering>
<clus scale="   57.075">  2  9  1 -1</clus>
<clus scale="   79.535">  5  6 -1 -1</clus>
<clus scale="   91.502">  7  8 -1 -1</clus>
<clus scale="   94.982">  2  5  1 -1</clus>
<clus scale="   57.075">  2  5  1 -1</clus>
</clustering>
</event>
<event>
 9    2  0.4653788E-005  0.2190741E+03  0.7546771E-02  0.1167822E+00
         21   -1    0    0  501  502  0.00000000000E+00  0.00000000000E+00  0.73954296359E+03  0.73954296359E+03  0.00000000000E+00 0. -1.
          2   -1    0    0  502    0 -0.00000000000E+00 -0.00000000000E+00 -0.96608836649E+03  0.96608836649E+03  0.00000000000E+00 0. -1.
         23    2    1    2    0    0  0.33480005321E+02 -0.86300322555E+00 -0.26979860267E+03  0.28766539114E+03  0.94012955095E+02 0.  0.
         24    2    1    2    0    0  0.22324279132E+02 -0.20113255960E+03  0.69745401153E+03  0.73101977826E+03  0.83636941773E+02 0.  0.
        -13    1    4    4    0    0  0.43275172274E+02 -0.50771598628E+02  0.23491389347E+03  0.24420285237E+03  0.00000000000E+00 0.  1.
         14    1    4    4    0    0 -0.20950893141E+02 -0.15036096097E+03  0.46254011807E+03  0.48681692589E+03  0.00000000000E+00 0. -1.
        -11    1    3    3    0    0  0.42937213140E+02 -0.40386389468E+02 -0.16886477759E+03  0.17885742321E+03  0.00000000000E+00 0.  1.
         11    1    3    3    0    0 -0.94572078186E+01  0.39523386243E+02 -0.10093382509E+03  0.10880796794E+03  0.00000000000E+00 0. -1.
          1    1    1    2  501    0 -0.55804284454E+02  0.20199556283E+03 -0.65420081175E+03  0.68694616068E+03  0.00000000000E+00 0. -1.
<scales pt_clust_5="13000.00000" pt_clust_6="13000.00000" pt_clust_7="13000.00000" pt_clust_8="13000.00000" pt_clust_9="202.48053"></scales>
<clustering>
<clus scale="   83.637">  5  6 -1 -1</clus>
<clus scale="   94.013">  7  8 -1 -1</clus>
<clus scale="   99.800">  2  7  1 -1</clus>
<clus scale="  202.481">  1  9  2 -1</clus>
<clus scale="  202.481">  1  5  2 -1</clus>
</clustering>
</event>
<event>
 9    2  0.4653788E-005  0.3435960E+03  0.7546771E-02  0.1065570E+00
         21   -1    0    0  501  502  0.00000000000E+00  0.00000000000E+00  0.98778950382E+03  0.98778950382E+03  0.00000000000E+00 0. -1.
          4   -1    0    0  502    0 -0.00000000000E+00 -0.00000000000E+00 -0.20036621625E+03  0.20036621625E+03  0.00000000000E+00 0. -1.
         23    2    1    2    0    0 -0.16444028767E+03  0.31251258514E+03  0.83731606474E+02  0.37424542886E+03  0.91345142264E+02 0.  0.
         24    2    1    2    0    0  0.60454608389E+02 -0.28205903673E+03  0.48780028990E+03  0.57235381149E+03  0.80172955687E+02 0.  0.
        -13    1    4    4    0    0  0.51526697231E+02 -0.12827946845E+03  0.16938718489E+03  0.21863815074E+03  0.00000000000E+00 0.  1.
         14    1    4    4    0    0  0.89279111581E+01 -0.15377956828E+03  0.31841310502E+03  0.35371566075E+03  0.00000000000E+00 0. -1.
        -13    1    3    3    0    0 -0.56016845512E+02  0.34808163840E+02  0.24127868745E+02  0.70225702568E+02  0.00000000000E+00 0.  1.
         13    1    3    3    0    0 -0.10842344216E+03  0.27770442130E+03  0.59603737729E+02  0.30401972629E+03  0.00000000000E+00 0. -1.
          3    1    1    2  501    0  0.10398567928E+03 -0.30453548417E+02  0.21589139119E+03  0.24155647973E+03  0.00000000000E+00 0. -1.
<scales pt_clust_5="13000.00000" pt_clust_6="13000.00000" pt_clust_7="13000.00000" pt_clust_8="13000.00000" pt_clust_9="108.35331"></scales>
<clustering>
<clus scale="   80.173">  5  6 -1 -1</clus>
<clus scale="   91.345">  7  8 -1 -1</clus>
<clus scale="  108.353">  1  9  2 -1</clus>
<clus scale="  340.796">  1  5  2 -1</clus>
<clus scale="  108.353">  1  5  2 -1</clus>
</clustering>
</event>
<event>
 9    2  0.4653788E-005  0.1306494E+03  0.7546771E-02  0.1229661E+00
         21   -1    0    0  501  502  0.00000000000E+00  0.00000000000E+00  0.15494742702E+03  0.15494742702E+03  0.00000000000E+00 0.  1.
         -1   -1    0    0    0  501 -0.00000000000E+00 -0.00000000000E+00 -0.15204385009E+03  0.15204385009E+03  0.00000000000E+00 0.  1.
         24    2    1    2    0    0 -0.15058348367E+02 -0.10706261989E+03 -0.14626487619E+02  0.13615698408E+03  0.81459387059E+02 0.  0.
         23    2    1    2    0    0 -0.14380757316E+02  0.71296287597E+02  0.31337264675E+02  0.12249662402E+03  0.93452832670E+02 0.  0.
        -13    1    3    3    0    0 -0.36735861676E+02 -0.62814777913E+02 -0.37467591569E+02  0.81847665057E+02  0.00000000000E+00 0.  1.
         14    1    3    3    0    0  0.21677513309E+02 -0.44247841979E+02  0.22841103950E+02  0.54309319022E+02  0.00000000000E+00 0. -1.
        -11    1    4    4    0    0  0.20293165514E+02  0.28369505318E+02 -0.25554468673E+02  0.43239707073E+02  0.00000000000E+00 0. -1.
         11    1    4    4    0    0 -0.34673922830E+02  0.42926782279E+02  0.56891733349E+02  0.79256916952E+02  0.00000000000E+00 0.  1.
         -2    1    1    2    0  502  0.29439105683E+02  0.35766332294E+02 -0.13807200131E+02  0.48337669004E+02  0.00000000000E+00 0.  1.
<scales pt_clust_5="13000.00000" pt_clust_6="13000.00000" pt_clust_7="13000.00000" pt_clust_8="13000.00000" pt_clust_9="46.32379"></scales>
<clustering>
<clus scale="   46.324">  1  9  2 -1</clus>
<clus scale="   81.459">  5  6 -1 -1</clus>
<clus scale="   93.453">  7  8 -1 -1</clus>
<clus scale="  122.358">  2  5  1 -1</clus>
<clus scale="   46.324">  1  5  2 -1</clus>
</clustering>
</event>
<event>
 9    2  0.4653788E-005  0.1167684E+03  0.7546771E-02  0.1254638E+00
         21   -1    0    0  501  502  0.00000000000E+00  0.00000000000E+00  0.53501033665E+02  0.53501033665E+02  0.00000000000E+00 0.  1.
          2   -1    0    0  502    0 -0.00000000000E+00 -0.00000000000E+00 -0.44389570954E+03  0.44389570954E+03  0.00000000000E+00 0. -1.
         23    2    1    2    0    0  0.22823655702E+02 -0.78490030957E+02 -0.30523893453E+03  0.32933688285E+03  0.92792084982E+02 0.  0.
         24    2    1    2    0    0 -0.21066207320E+02  0.34653959770E+02 -0.17232679561E+02  0.87200525181E+02  0.75248151662E+02 0.  0.
        -13    1    4    4    0    0 -0.34421871275E+02  0.69260896392E+01  0.18787890801E+02  0.39822365330E+02  0.00000000000E+00 0.  1.
         14    1    4    4    0    0  0.13355663955E+02  0.27727870131E+02 -0.36020570362E+02  0.47378159851E+02  0.00000000000E+00 0. -1.
        -13    1    3    3    0    0  0.39025991844E+01 -0.96810010831E+02 -0.25072349035E+03  0.26879300045E+03  0.00000000000E+00 0. -1.
         13    1    3    3    0    0  0.18921056518E+02  0.18319979874E+02 -0.54515444176E+02  0.60543882400E+02  0.00000000000E+00 0.  1.
          1    1    1    2  501    0 -0.17574483820E+01  0.43836071187E+02 -0.67923061785E+02  0.80859335170E+02  0.00000000000E+00 0. -1.
<scales pt_clust_5="13000.00000" pt_clust_6="13000.00000" pt_clust_7="13000.00000" pt_clust_8="13000.00000" pt_clust_9="43.87131"></scales>
<clustering>
<clus scale="   43.871">  1  9  2 -1</clus>
<clus scale="   75.248">  5  6 -1 -1</clus>
<clus scale="   92.792">  7  8 -1 -1</clus>
<clus scale="  103.377">  1  5  2 -1</clus>
<clus scale="   43.871">  1  5  2 -1</clus>
</clustering>
</event>
<event>
 9    2  0.4653788E-005  0.1059039E+03  0.7546771E-02  0.1283284E+00
         21   -1    0    0  501  502  0.00000000000E+00  0.00000000000E+00  0.11792156638E+03  0.11792156638E+03  0.00000000000E+00 0.  1.
         -3   -1    0    0    0  501 -0.00000000000E+00 -0.00000000000E+00 -0.12314116767E+03  0.12314116767E+03  0.00000000000E+00 0.  1.
         24    2    1    2    0    0  0.21664573966E+01  0.42300348318E+01 -0.30154813697E+02  0.84629663063E+02  0.78932124948E+02 0.  0.
         23    2    1    2    0    0 -0.22536437814E+02  0.31891221622E+02  0.23896914734E+02  0.11495103473E+03  0.10544067909E+03 0.  0.
        -11    1    3    3    0    0 -0.28111282425E+02 -0.82675915426E+01 -0.40760573097E+02  0.50199816620E+02  0.00000000000E+00 0.  1.
         12    1    3    3    0    0  0.30277739821E+02  0.12497626374E+02  0.10605759400E+02  0.34429846444E+02  0.00000000000E+00 0. -1.
        -11    1    4    4    0    0  0.21205602718E+02 -0.29944727789E+02  0.73733385191E+01  0.37426333375E+02  0.00000000000E+00 0. -1.
         11    1    4    4    0    0 -0.43742040532E+02  0.61835949411E+02  0.16523576215E+02  0.77524701356E+02  0.00000000000E+00 0.  1.
         -4    1    1    2    0  502  0.20369980417E+02 -0.36121256454E+02  0.10382976680E+01  0.41482036257E+02  0.00000000000E+00 0.  1.
<scales pt_clust_5="13000.00000" pt_clust_6="13000.00000" pt_clust_7="13000.00000" pt_clust_8="13000.00000" pt_clust_9="41.46904"></scales>
<clustering>
<clus scale="   41.469">  1  9  2 -1</clus>
<clus scale="   78.932">  5  6 -1 -1</clus>
<clus scale="   79.550">  2  5  1 -1</clus>
<clus scale="  105.441">  7  8 -1 -1</clus>
<clus scale="   41.469">  1  5  2 -1</clus>
</clustering>
</event>
<event>
 9    2  0.4653788E-005  0.1089982E+03  0.7546771E-02  0.1266592E+00
          2   -1    0    0  502    0 -0.00000000000E+00  0.00000000000E+00  0.31875440554E+03  0.31875440554E+03  0.00000000000E+00 0. -1.
         21   -1    0    0  501  502  0.00000000000E+00 -0.00000000000E+00 -0.74660315232E+02  0.74660315232E+02  0.00000000000E+00 0. -1.
         23    2    1    2    0    0 -0.32797405402E+02  0.62802467750E+02  0.14682059835E+03  0.18674827392E+03  0.91097804341E+02 0.  0.
         24    2    1    2    0    0  0.38655255139E+02 -0.14584217468E+02 -0.76697079624E+01  0.91027399496E+02  0.80747971428E+02 0.  0.
        -11    1    4    4    0    0 -0.20056280728E+02 -0.91554649197E+01 -0.21141777067E+02  0.30545894521E+02  0.00000000000E+00 0.  1.
         12    1    4    4    0    0  0.58711535867E+02 -0.54287525487E+01  0.13472069105E+02  0.60481504975E+02  0.00000000000E+00 0. -1.
        -11    1    3    3    0    0  0.26207348362E+02 -0.36063668407E+01  0.30235746501E+02  0.40175009103E+02  0.00000000000E+00 0.  1.
         11    1    3    3    0    0 -0.59004753764E+02  0.66408834591E+02  0.11658485185E+03  0.14657326481E+03  0.00000000000E+00 0. -1.
          1    1    1    2  501    0 -0.58578497375E+01 -0.48218250281E+02  0.10494319992E+03  0.11563904736E+03  0.00000000000E+00 0. -1.
<scales pt_clust_5="13000.00000" pt_clust_6="13000.00000" pt_clust_7="13000.00000" pt_clust_8="13000.00000" pt_clust_9="48.57280"></scales>
<clustering>
<clus scale="   48.573">  2  9  1 -1</clus>
<clus scale="   80.748">  5  6 -1 -1</clus>
<clus scale="   91.098">  7  8 -1 -1</clus>
<clus scale="  100.509">  2  5  1 -1</clus>
<clus scale="   48.573">  2  5  1 -1</clus>
</clustering>
</event>
<event>
 9    2  0.4653788E-005  0.2728630E+03  0.7546771E-02  0.1144565E+00
         21   -1    0    0  501  502  0.00000000000E+00  0.00000000000E+00  0.11396777299E+04  0.11396777299E+04  0.00000000000E+00 0. -1.
          2   -1    0    0  502    0 -0.00000000000E+00 -0.00000000000E+00 -0.15161155345E+03  0.15161155345E+03  0.00000000000E+00 0. -1.
         24    2    1    2    0    0  0.17637958850E+02  0.36640738731E+02 -0.67452089973E+02  0.11173858435E+03  0.79259608016E+02 0.  0.
         23    2    1    2    0    0  0.24200668051E+03 -0.15052526813E+01  0.49642779687E+03  0.56211082803E+03  0.10468297995E+03 0.  0.
        -13    1    3    3    0    0 -0.33466108693E+01  0.56786757645E+02 -0.29984364386E+02  0.64303948213E+02  0.00000000000E+00 0.  1.
         14    1    3    3    0    0  0.20984569720E+02 -0.20146018914E+02 -0.37467725587E+02  0.47434636133E+02  0.00000000000E+00 0. -1.
        -11    1    4    4    0    0  0.20183778916E+03  0.11103953237E+02  0.47193138145E+03  0.51340142161E+03  0.00000000000E+00 0. -1.
         11    1    4    4    0    0  0.40168891344E+02 -0.12609205919E+02  0.24496415417E+02  0.48709406422E+02  0.00000000000E+00 0.  1.
          1    1    1    2  501    0 -0.25964463936E+03 -0.35135486050E+02  0.55909046954E+03  0.61743987096E+03  0.00000000000E+00 0. -1.
<scales pt_clust_5="13000.00000" pt_clust_6="13000.00000" pt_clust_7="13000.00000" pt_clust_8="13000.00000" pt_clust_9="251.98356"></scales>
<clustering>
<clus scale="   79.260">  5  6 -1 -1</clus>
<clus scale="   89.083">  2  5  1 -1</clus>
<clus scale="  104.683">  7  8 -1 -1</clus>
<clus scale="  251.984">  1  9  2 -1</clus>
<clus scale="  251.984">  1  5  2 -1</clus>
</clustering>
</event>
<event>
 9    2  0.4653788E-005  0.1391140E+03  0.7546771E-02  0.1229151E+00
         -1   -1    0    0    0  501 -0.00000000000E+00  0.00000000000E+00  0.52369536197E+03  0.52369536197E+03  0.00000000000E+00 0.  1.
         21   -1    0    0  501  502  0.00000000000E+00 -0.00000000000E+00 -0.72619780619E+02  0.72619780619E+02  0.00000000000E+00 0.  1.
         23    2    1    2    0    0  0.43286729990E+02  0.30366115392E+00  0.75960358566E+02  0.12751993244E+03  0.92830619376E+02 0.  0.
         24    2    1    2    0    0 -0.74997246954E+02  0.10504711327E+03  0.29767154774E+03  0.33425203729E+03  0.80352915596E+02 0.  0.
        -13    1    4    4    0    0 -0.67280522932E+02  0.11083544957E+03  0.29758598774E+03  0.32460527683E+03  0.00000000000E+00 0.  1.
         14    1    4    4    0    0 -0.77167240228E+01 -0.57883363040E+01  0.85559994336E-01  0.96467604575E+01  0.00000000000E+00 0. -1.
        -13    1    3    3    0    0  0.55465404188E+01  0.33471804546E+02 -0.28588359720E+01  0.34048476520E+02  0.00000000000E+00 0.  1.
         13    1    3    3    0    0  0.37740189571E+02 -0.33168143392E+02  0.78819194538E+02  0.93471455924E+02  0.00000000000E+00 0. -1.
         -2    1    1    2    0  502  0.31710516965E+02 -0.10535077442E+03  0.77443675048E+02  0.13454317285E+03  0.00000000000E+00 0.  1.
<scales pt_clust_5="13000.00000" pt_clust_6="13000.00000" pt_clust_7="13000.00000" pt_clust_8="13000.00000" pt_clust_9="113.56106"></scales>
<clustering>
<clus scale="   80.353">  5  6 -1 -1</clus>
<clus scale="   92.831">  7  8 -1 -1</clus>
<clus scale="  102.427">  1  7  2 -1</clus>
<clus scale="  113.561">  2  9  1 -1</clus>
<clus scale="  113.561">  2  5  1 -1</clus>
</clustering>
</event>
<event>
 9    2  0.4653788E-005  0.3288467E+03  0.7546771E-02  0.1111581E+00
          2   -1    0    0  502    0 -0.00000000000E+00  0.00000000000E+00  0.23807520820E+03  0.23807520820E+03  0.00000000000E+00 0. -1.
         21   -1    0    0  501  502  0.00000000000E+00 -0.00000000000E+00 -0.80829841163E+03  0.80829841163E+03  0.00000000000E+00 0. -1.
         23    2    1    2    0    0  0.67545292261E+02 -0.21096679380E+02  0.60094439326E+00  0.11475448978E+03  0.90337120854E+02 0.  0.
         24    2    1    2    0    0  0.24899523781E+03 -0.16843932210E+03 -0.44286419174E+03  0.54111233959E+03  0.79394194030E+02 0.  0.
        -11    1    4    4    0    0  0.65871475672E+02 -0.29799279807E+02 -0.57015977438E+02  0.92075349945E+02  0.00000000000E+00 0.  1.
         12    1    4    4    0    0  0.18312376214E+03 -0.13864004229E+03 -0.38584821430E+03  0.44903698964E+03  0.00000000000E+00 0. -1.
        -11    1    3    3    0    0 -0.22008035702E+02 -0.25532717008E+01 -0.63215056573E+01  0.23039840833E+02  0.00000000000E+00 0.  1.
         11    1    3    3    0    0  0.89553327963E+02 -0.18543407679E+02  0.69224500505E+01  0.91714648952E+02  0.00000000000E+00 0. -1.
          1    1    1    2  501    0 -0.31654053007E+03  0.18953600148E+03 -0.12795995609E+03  0.39050679046E+03  0.00000000000E+00 0. -1.
<scales pt_clust_5="13000.00000" pt_clust_6="13000.00000" pt_clust_7="13000.00000" pt_clust_8="13000.00000" pt_clust_9="319.11885"></scales>
<clustering>
<clus scale="   79.394">  5  6 -1 -1</clus>
<clus scale="   90.337">  7  8 -1 -1</clus>
<clus scale="  114.753">  1  7  2 -1</clus>
<clus scale="  319.119">  2  9  1 -1</clus>
<clus scale="  319.119">  2  5  1 -1</clus>
</clustering>
</event>
<event>
 9    2  0.4653788E-005  0.2667066E+03  0.7546771E-02  0.1155900E+00
          2   -1    0    0  502    0 -0.00000000000E+00  0.00000000000E+00  0.66836906006E+03  0.66836906006E+03  0.00000000000E+00 0. -1.
         21   -1    0    0  501  502  0.00000000000E+00 -0.00000000000E+00 -0.14635288180E+03  0.14635288180E+03  0.00000000000E+00 0. -1.
         23    2    1    2    0    0 -0.13322045429E+02  0.94902217553E-01  0.16257734203E+03  0.17818772129E+03  0.71707642386E+02 0.  0.
         24    2    1    2    0    0 -0.18746836687E+03  0.16224799516E+03  0.22881886479E+03  0.34716666375E+03  0.81840204220E+02 0.  0.
        -13    1    4    4    0    0 -0.67518096928E+02  0.11255072756E+03  0.11479697298E+03  0.17436944885E+03  0.00000000000E+00 0.  1.
         14    1    4    4    0    0 -0.11995026994E+03  0.49697267600E+02  0.11402189181E+03  0.17279721490E+03  0.00000000000E+00 0. -1.
        -13    1    3    3    0    0 -0.41710487961E+02  0.89015184201E+01  0.10644811495E+03  0.11467433459E+03  0.00000000000E+00 0. -1.
         13    1    3    3    0    0  0.28388442531E+02 -0.88066162025E+01  0.56129227077E+02  0.63513386703E+02  0.00000000000E+00 0.  1.
          1    1    1    2  501    0  0.20079041230E+03 -0.16234289738E+03  0.13061997145E+03  0.28936755682E+03  0.00000000000E+00 0. -1.
<scales pt_clust_5="13000.00000" pt_clust_6="13000.00000" pt_clust_7="13000.00000" pt_clust_8="13000.00000" pt_clust_9="253.83973"></scales>
<clustering>
<clus scale="   71.708">  7  8 -1 -1</clus>
<clus scale="   72.935">  1  7  2 -1</clus>
<clus scale="   81.840">  5  6 -1 -1</clus>
<clus scale="  253.840">  2  9  1 -1</clus>
<clus scale="  253.840">  2  5  1 -1</clus>
</clustering>
</event>
<event>
 9    2  0.4653788E-005  0.1340277E+03  0.7546771E-02  0.1225035E+00
         -1   -1    0    0    0  501 -0.00000000000E+00  0.00000000000E+00  0.57596570086E+02  0.57596570086E+02  0.00000000000E+00 0.  1.
         21   -1    0    0  501  502  0.00000000000E+00 -0.00000000000E+00 -0.63391415640E+03  0.63391415640E+03  0.00000000000E+00 0.  1.
         23    2    1    2    0    0  0.10770538045E+03 -0.12557601090E+02 -0.63426738216E+02  0.15576340927E+03  0.92093138859E+02 0.  0.
         24    2    1    2    0    0 -0.69553561500E+02 -0.24884673675E+01 -0.27197410998E+03  0.29136478885E+03  0.77972003273E+02 0.  0.
        -11    1    4    4    0    0 -0.19766444105E+01 -0.28485418369E+02 -0.46668574830E+02  0.54710895254E+02  0.00000000000E+00 0.  1.
         12    1    4    4    0    0 -0.67576917090E+02  0.25996951002E+02 -0.22530553515E+03  0.23665389359E+03  0.00000000000E+00 0. -1.
        -11    1    3    3    0    0  0.85948546302E+02  0.51747175864E+01  0.32690016842E+00  0.86104803451E+02  0.00000000000E+00 0.  1.
         11    1    3    3    0    0  0.21756834144E+02 -0.17732318677E+02 -0.63753638385E+02  0.69658605821E+02  0.00000000000E+00 0. -1.
         -2    1    1    2    0  502 -0.38151818946E+02  0.15046068458E+02 -0.24091673812E+03  0.24438252836E+03  0.00000000000E+00 0.  1.
<scales pt_clust_5="13000.00000" pt_clust_6="13000.00000" pt_clust_7="13000.00000" pt_clust_8="13000.00000" pt_clust_9="41.01153"></scales>
<clustering>
<clus scale="   41.012">  2  9  1 -1</clus>
<clus scale="   77.972">  5  6 -1 -1</clus>
<clus scale="   92.093">  7  8 -1 -1</clus>
<clus scale="  124.747">  2  5  1 -1</clus>
<clus scale="   41.012">  2  5  1 -1</clus>
</clustering>
</event>
<event>
 9    2  0.4653788E-005  0.1014966E+03  0.7546771E-02  0.1284431E+00
         -1   -1    0    0    0  501 -0.00000000000E+00  0.00000000000E+00  0.34111524205E+02  0.34111524205E+02  0.00000000000E+00 0.  1.
         21   -1    0    0  501  502  0.00000000000E+00 -0.00000000000E+00 -0.71441756279E+03  0.71441756279E+03  0.00000000000E+00 0.  1.
         23    2    1    2    0    0 -0.26762175413E+02 -0.23684570589E+02 -0.13752345863E+03  0.16847989571E+03  0.90529556866E+02 0.  0.
         24    2    1    2    0    0 -0.34590708202E+02  0.87367405882E+02 -0.28159242784E+03  0.30429572277E+03  0.66873094551E+02 0.  0.
        -13    1    4    4    0    0  0.10542363259E+02  0.26354224455E+02 -0.14759186135E+03  0.15029652061E+03  0.00000000000E+00 0.  1.
         14    1    4    4    0    0 -0.45133071461E+02  0.61013181427E+02 -0.13400056649E+03  0.15399920216E+03  0.00000000000E+00 0. -1.
        -13    1    3    3    0    0 -0.42082654240E+02  0.11081782902E+02 -0.26069458396E+02  0.50728417690E+02  0.00000000000E+00 0.  1.
         13    1    3    3    0    0  0.15320478827E+02 -0.34766353491E+02 -0.11145400024E+03  0.11775147802E+03  0.00000000000E+00 0. -1.
         -2    1    1    2    0  502  0.61352883615E+02 -0.63682835293E+02 -0.26119015211E+03  0.27575346852E+03  0.00000000000E+00 0.  1.
<scales pt_clust_5="13000.00000" pt_clust_6="13000.00000" pt_clust_7="13000.00000" pt_clust_8="13000.00000" pt_clust_9="88.42895"></scales>
<clustering>
<clus scale="   66.873">  5  6 -1 -1</clus>
<clus scale="   88.429">  2  9  1 -1</clus>
<clus scale="   88.429">  2  5  1 -1</clus>
<clus scale="   90.530">  7  8 -1 -1</clus>
<clus scale="   88.429">  2  5  1 -1</clus>
</clustering>
</event>
<event>
 9    2  0.4653788E-005  0.1417579E+03  0.7546771E-02  0.1235824E+00
          2   -1    0    0  502    0 -0.00000000000E+00  0.00000000000E+00  0.77271852302E+03  0.77271852302E+03  0.00000000000E+00 0. -1.
         21   -1    0    0  501  502  0.00000000000E+00 -0.00000000000E+00 -0.21847436073E+03  0.21847436073E+03  0.00000000000E+00 0. -1.
         24    2    1    2    0    0 -0.26376822203E+02 -0.81345637665E+01  0.61675121010E+03  0.62249798314E+03  0.79748203635E+02 0.  0.
         23    2    1    2    0    0 -0.47408600826E+02  0.89331882327E+02  0.10254732037E+03  0.17050247479E+03  0.91254481336E+02 0.  0.
        -11    1    3    3    0    0 -0.14393580774E+02 -0.40505418053E+02  0.21427848901E+03  0.21854778634E+03  0.00000000000E+00 0.  1.
         12    1    3    3    0    0 -0.11983241430E+02  0.32370854286E+02  0.40247272108E+03  0.40395019680E+03  0.00000000000E+00 0. -1.
        -11    1    4    4    0    0 -0.26773423462E+02  0.65382630529E+02  0.83521062994E+01  0.71143954476E+02  0.00000000000E+00 0. -1.
         11    1    4    4    0    0 -0.20635177364E+02  0.23949251798E+02  0.94195214068E+02  0.99358520318E+02  0.00000000000E+00 0.  1.
          1    1    1    2  501    0  0.73785423030E+02 -0.81197318561E+02 -0.16505436818E+03  0.19819242581E+03  0.00000000000E+00 0. -1.
<scales pt_clust_5="13000.00000" pt_clust_6="13000.00000" pt_clust_7="13000.00000" pt_clust_8="13000.00000" pt_clust_9="108.48003"></scales>
<clustering>
<clus scale="   79.748">  5  6 -1 -1</clus>
<clus scale="   84.390">  1  5  2 -1</clus>
<clus scale="   91.254">  7  8 -1 -1</clus>
<clus scale="  108.480">  2  9  1 -1</clus>
<clus scale="  108.480">  2  5  1 -1</clus>
</clustering>
</event>
<event>
 9    2  0.4653788E-005  0.9115373E+02  0.7546771E-02  0.1305366E+00
          2   -1    0    0  502    0 -0.00000000000E+00  0.00000000000E+00  0.82457936012E+02  0.82457936012E+02  0.00000000000E+00 0. -1.
         21   -1    0    0  501  502  0.00000000000E+00 -0.00000000000E+00 -0.15134886056E+03  0.15134886056E+03  0.00000000000E+00 0.  1.
         23    2    1    2    0    0  0.13325463117E+01 -0.94339613713E+01 -0.17813774684E+00  0.90512499691E+02  0.90009474837E+02 0.  0.
         24    2    1    2    0    0 -0.27715105095E+02  0.11208220467E+01 -0.21704859938E+02  0.88751718271E+02  0.81463999771E+02 0.  0.
        -13    1    4    4    0    0 -0.56533411861E+01 -0.31941887473E+02 -0.34150815837E+02  0.47101195996E+02  0.00000000000E+00 0.  1.
         14    1    4    4    0    0 -0.22061763909E+02  0.33062709520E+02  0.12445955899E+02  0.41650522275E+02  0.00000000000E+00 0. -1.
        -13    1    3    3    0    0 -0.14405339442E+02  0.37843217220E+02 -0.30121788705E+01  0.40604139143E+02  0.00000000000E+00 0. -1.
         13    1    3    3    0    0  0.15737885753E+02 -0.47277178591E+02  0.28340411237E+01  0.49908360548E+02  0.00000000000E+00 0.  1.
          1    1    1    2  501    0  0.26382558783E+02  0.83131393246E+01 -0.47007926864E+02  0.54542578610E+02  0.00000000000E+00 0. -1.
<scales pt_clust_5="13000.00000" pt_clust_6="13000.00000" pt_clust_7="13000.00000" pt_clust_8="13000.00000" pt_clust_9="27.66130"></scales>
<clustering>
<clus scale="   27.661">  2  9  1 -1</clus>
<clus scale="   81.464">  5  6 -1 -1</clus>
<clus scale="   82.727">  2  5  1 -1</clus>
<clus scale="   90.009">  7  8 -1 -1</clus>
<clus scale="   27.661">  2  5  1 -1</clus>
</clustering>
</event>
<event>
 9    2  0.4653788E-005  0.2620866E+03  0.7546771E-02  0.1149429E+00
          2   -1    0    0  502    0 -0.00000000000E+00  0.00000000000E+00  0.11920402536E+04  0.11920402536E+04  0.00000000000E+00 0. -1.
         21   -1    0    0  501  502  0.00000000000E+00 -0.00000000000E+00 -0.11709611485E+03  0.11709611485E+03  0.00000000000E+00 0. -1.
         24    2    1    2    0    0  0.13542378017E+02  0.32368171347E+02  0.12587189265E+02  0.90412958833E+02  0.82370937063E+02 0.  0.
         23    2    1    2    0    0 -0.79483161060E+02  0.22522944048E+03  0.22715006012E+03  0.34221028107E+03  0.92004635232E+02 0.  0.
        -13    1    3    3    0    0 -0.26813454912E+02  0.28432139057E+02  0.26865938755E+02  0.47424957152E+02  0.00000000000E+00 0.  1.
         14    1    3    3    0    0  0.40355832929E+02  0.39360322894E+01 -0.14278749490E+02  0.42988001681E+02  0.00000000000E+00 0. -1.
        -11    1    4    4    0    0 -0.39992453674E+02  0.13347053868E+03  0.69827294770E+02  0.15585131421E+03  0.00000000000E+00 0.  1.
         11    1    4    4    0    0 -0.39490707386E+02  0.91758901793E+02  0.15732276535E+03  0.18635896685E+03  0.00000000000E+00 0. -1.
          1    1    1    2  501    0  0.65940783043E+02 -0.25759761182E+03  0.83520688934E+03  0.87651312853E+03  0.00000000000E+00 0. -1.
<scales pt_clust_5="13000.00000" pt_clust_6="13000.00000" pt_clust_7="13000.00000" pt_clust_8="13000.00000" pt_clust_9="245.40703"></scales>
<clustering>
<clus scale="   82.371">  5  6 -1 -1</clus>
<clus scale="   89.533">  1  5  2 -1</clus>
<clus scale="   92.005">  7  8 -1 -1</clus>
<clus scale="  245.407">  2  9  1 -1</clus>
<clus scale="  245.407">  2  5  1 -1</clus>
</clustering>
</event>
<event>
 9    2  0.4653788E-005  0.9493982E+02  0.7546771E-02  0.1298507E+00
         -3   -1    0    0    0  501 -0.00000000000E+00  0.00000000000E+00  0.43452143305E+03  0.43452143305E+03  0.00000000000E+00 0.  1.
         21   -1    0    0  501  502  0.00000000000E+00 -0.00000000000E+00 -0.51822134104E+02  0.51822134104E+02  0.00000000000E+00 0. -1.
         24    2    1    2    0    0  0.66480973689E+00  0.20547075419E+02  0.83753717574E+02  0.11778268036E+03  0.80221258434E+02 0.  0.
         23    2    1    2    0    0 -0.53892648387E+02  0.41177609936E+02  0.94942245352E+02  0.14887815944E+03  0.92469796671E+02 0.  0.
        -13    1    3    3    0    0 -0.28569076568E+02 -0.14731238897E+02  0.15776090373E+02  0.35806236368E+02  0.00000000000E+00 0.  1.
         14    1    3    3    0    0  0.29233886304E+02  0.35278314316E+02  0.67977627202E+02  0.81976443991E+02  0.00000000000E+00 0. -1.
        -13    1    4    4    0    0 -0.33283999650E+02  0.36638849175E+02 -0.21231865313E+01  0.49545310804E+02  0.00000000000E+00 0.  1.
         13    1    4    4    0    0 -0.20608648737E+02  0.45387607610E+01  0.97065431883E+02  0.99332848639E+02  0.00000000000E+00 0. -1.
         -4    1    1    2    0  502  0.53227838650E+02 -0.61724685356E+02  0.20400333602E+03  0.21968272735E+03  0.00000000000E+00 0.  1.
<scales pt_clust_5="13000.00000" pt_clust_6="13000.00000" pt_clust_7="13000.00000" pt_clust_8="13000.00000" pt_clust_9="81.50550"></scales>
<clustering>
<clus scale="   80.221">  5  6 -1 -1</clus>
<clus scale="   81.505">  2  9  1 -1</clus>
<clus scale="   83.056">  1  5  2 -1</clus>
<clus scale="   92.470">  7  8 -1 -1</clus>
<clus scale="   81.505">  2  5  1 -1</clus>
</clustering>
</event>
<event>
 9    2  0.4653788E-005  0.8605279E+02  0.7546771E-02  0.1314987E+00
         21   -1    0    0  501  502  0.00000000000E+00  0.00000000000E+00  0.11340518248E+03  0.11340518248E+03  0.00000000000E+00 0.  1.
          2   -1    0    0  502    0 -0.00000000000E+00 -0.00000000000E+00 -0.24890775017E+03  0.24890775017E+03  0.00000000000E+00 0. -1.
         23    2    1    2    0    0 -0.27127175019E+02  0.11330294772E+02 -0.38890806249E+02  0.97160180358E+02  0.84043718578E+02 0.  0.
         24    2    1    2    0    0 -0.12879540685E+02  0.78145874914E+00  0.61181346477E+02  0.10191704302E+03  0.80482502791E+02 0.  0.
        -13    1    4    4    0    0 -0.22221078949E+02  0.31869984341E+02  0.57292051419E+02  0.69223199922E+02  0.00000000000E+00 0.  1.
         14    1    4    4    0    0  0.93415382646E+01 -0.31088525592E+02  0.38892950583E+01  0.32693843100E+02  0.00000000000E+00 0. -1.
        -11    1    3    3    0    0 -0.14378278057E+02  0.32614507775E+02 -0.56452625164E+02  0.66763312419E+02  0.00000000000E+00 0. -1.
         11    1    3    3    0    0 -0.12748896962E+02 -0.21284213003E+02  0.17561818915E+02  0.30396867939E+02  0.00000000000E+00 0.  1.
          1    1    1    2  501    0  0.40006715703E+02 -0.12111753521E+02 -0.15779310792E+03  0.16323570927E+03  0.00000000000E+00 0. -1.
<scales pt_clust_5="13000.00000" pt_clust_6="13000.00000" pt_clust_7="13000.00000" pt_clust_8="13000.00000" pt_clust_9="41.79992"></scales>
<clustering>
<clus scale="   41.800">  1  9  2 -1</clus>
<clus scale="   80.483">  5  6 -1 -1</clus>
<clus scale="   82.578">  1  5  2 -1</clus>
<clus scale="   84.044">  7  8 -1 -1</clus>
<clus scale="   41.800">  1  5  2 -1</clus>
</clustering>
</event>
<event>
 9    2  0.4653788E-005  0.1363339E+03  0.7546771E-02  0.1220858E+00
          2   -1    0    0  502    0 -0.00000000000E+00  0.00000000000E+00  0.55707797346E+03  0.55707797346E+03  0.00000000000E+00 0. -1.
         21   -1    0    0  501  502  0.00000000000E+00 -0.00000000000E+00 -0.59046688746E+02  0.59046688746E+02  0.00000000000E+00 0.  1.
         23    2    1    2    0    0  0.10778530544E+03  0.10804722691E+02  0.22141494802E+03  0.26259992756E+03  0.90552353084E+02 0.  0.
         24    2    1    2    0    0 -0.85830943383E+02 -0.36341576365E+02  0.64055632963E+02  0.13831279799E+03  0.79621887431E+02 0.  0.
        -13    1    4    4    0    0 -0.57737522634E+02  0.15694172000E+02  0.15526625808E+02  0.61814275565E+02  0.00000000000E+00 0.  1.
         14    1    4    4    0    0 -0.28093420749E+02 -0.52035748365E+02  0.48529007155E+02  0.76498522422E+02  0.00000000000E+00 0. -1.
        -11    1    3    3    0    0  0.89537996989E+02 -0.30453938896E+02  0.13120436192E+03  0.16173768851E+03  0.00000000000E+00 0.  1.
         11    1    3    3    0    0  0.18247308448E+02  0.41258661587E+02  0.90210586100E+02  0.10086223905E+03  0.00000000000E+00 0. -1.
          1    1    1    2  501    0 -0.21954362054E+02  0.25536853674E+02  0.21256070373E+03  0.21521193665E+03  0.00000000000E+00 0. -1.
<scales pt_clust_5="13000.00000" pt_clust_6="13000.00000" pt_clust_7="13000.00000" pt_clust_8="13000.00000" pt_clust_9="33.67679"></scales>
<clustering>
<clus scale="   33.677">  2  9  1 -1</clus>
<clus scale="   79.622">  5  6 -1 -1</clus>
<clus scale="   90.552">  7  8 -1 -1</clus>
<clus scale="  129.332">  2  5  1 -1</clus>
<clus scale="   33.677">  2  5  1 -1</clus>
</clustering>
</event>
<event>
 9    2  0.4653788E-005  0.1178791E+03  0.7546771E-02  0.1251120E+00
         -3   -1    0    0    0  501 -0.00000000000E+00  0.00000000000E+00  0.45983362856E+03  0.45983362856E+03  0.00000000000E+00 0.  1.
         21   -1    0    0  501  502  0.00000000000E+00 -0.00000000000E+00 -0.80662868337E+02  0.80662868337E+02  0.00000000000E+00 0.  1.
         24    2    1    2    0    0 -0.31711459797E+02  0.60683073404E+02  0.28786221041E+03  0.30661883976E+03  0.80389107652E+02 0.  0.
         23    2    1    2    0    0  0.64657501095E+02 -0.55176686962E+02  0.13098813469E+03  0.18201021662E+03  0.93513465836E+02 0.  0.
        -13    1    3    3    0    0 -0.39164106156E+01  0.71176923246E+02  0.23927637307E+03  0.24966913182E+03  0.00000000000E+00 0.  1.
         14    1    3    3    0    0 -0.27795049181E+02 -0.10493849842E+02  0.48585837345E+02  0.56949707936E+02  0.00000000000E+00 0. -1.
        -11    1    4    4    0    0  0.27906744971E+02  0.21539842126E+02  0.15337821936E+02  0.38444765514E+02  0.00000000000E+00 0.  1.
         11    1    4    4    0    0  0.36750756124E+02 -0.76716529088E+02  0.11565031276E+03  0.14356545111E+03  0.00000000000E+00 0. -1.
         -4    1    1    2    0  502 -0.32946041298E+02 -0.55063864417E+01 -0.39679584886E+02  0.51867440515E+02  0.00000000000E+00 0.  1.
<scales pt_clust_5="13000.00000" pt_clust_6="13000.00000" pt_clust_7="13000.00000" pt_clust_8="13000.00000" pt_clust_9="33.40302"></scales>
<clustering>
<clus scale="   33.403">  2  9  1 -1</clus>
<clus scale="   80.389">  5  6 -1 -1</clus>
<clus scale="   93.513">  7  8 -1 -1</clus>
<clus scale="  107.764">  1  5  2 -1</clus>
<clus scale="   33.403">  2  5  1 -1</clus>
</clustering>
</event>
<event>
 9    2  0.4653788E-005  0.1049845E+03  0.7546771E-02  0.1277962E+00
         -1   -1    0    0    0  501 -0.00000000000E+00  0.00000000000E+00  0.59491166945E+02  0.59491166945E+02  0.00000000000E+00 0.  1.
         21   -1    0    0  501  502  0.00000000000E+00 -0.00000000000E+00 -0.34033899847E+03  0.34033899847E+03  0.00000000000E+00 0. -1.
         23    2    1    2    0    0  0.34588290561E+02 -0.32461778777E+02 -0.19590466441E+02  0.10886058201E+03  0.96003765626E+02 0.  0.
         24    2    1    2    0    0 -0.10784455503E+02  0.33524279890E+02 -0.12349385020E+03  0.15116065128E+03  0.79741016001E+02 0.  0.
        -13    1    4    4    0    0  0.28707587352E+02 -0.65239308334E+01 -0.29857392515E+02  0.41930312817E+02  0.00000000000E+00 0.  1.
         14    1    4    4    0    0 -0.39492042856E+02  0.40048210723E+02 -0.93636457690E+02  0.10923033846E+03  0.00000000000E+00 0. -1.
        -11    1    3    3    0    0 -0.17646276623E+02 -0.46395225620E+02 -0.22968316366E+02  0.54694164183E+02  0.00000000000E+00 0.  1.
         11    1    3    3    0    0  0.52234567184E+02  0.13933446842E+02  0.33778499253E+01  0.54166417825E+02  0.00000000000E+00 0. -1.
         -2    1    1    2    0  502 -0.23803835058E+02 -0.10625011121E+01 -0.13776351488E+03  0.13980893214E+03  0.00000000000E+00 0.  1.
<scales pt_clust_5="13000.00000" pt_clust_6="13000.00000" pt_clust_7="13000.00000" pt_clust_8="13000.00000" pt_clust_9="23.82754"></scales>
<clustering>
<clus scale="   23.828">  2  9  1 -1</clus>
<clus scale="   79.741">  5  6 -1 -1</clus>
<clus scale="   90.353">  2  5  1 -1</clus>
<clus scale="   96.004">  7  8 -1 -1</clus>
<clus scale="   23.828">  2  5  1 -1</clus>
</clustering>
</event>
<event>
 9    2  0.4653788E-005  0.2234800E+03  0.7546771E-02  0.1150096E+00
          2   -1    0    0  502    0 -0.00000000000E+00  0.00000000000E+00  0.22246926060E+03  0.22246926060E+03  0.00000000000E+00 0. -1.
         21   -1    0    0  501  502  0.00000000000E+00 -0.00000000000E+00 -0.78231802541E+03  0.78231802541E+03  0.00000000000E+00 0. -1.
         24    2    1    2    0    0  0.11457211637E+03  0.15220980608E+02  0.12488328759E+03  0.18921162655E+03  0.82745126762E+02 0.  0.
         23    2    1    2    0    0  0.12520811142E+03  0.71700140747E+02 -0.16957735122E+03  0.24074159199E+03  0.91553562031E+02 0.  0.
        -11    1    3    3    0    0  0.43143180237E+02 -0.31331539124E+02  0.28245021346E+02  0.60338881127E+02  0.00000000000E+00 0.  1.
         12    1    3    3    0    0  0.71428936130E+02  0.46552519732E+02  0.96638266248E+02  0.12887274543E+03  0.00000000000E+00 0. -1.
        -13    1    4    4    0    0  0.77520833259E+02  0.11975114428E+02 -0.13656464478E+03  0.15748900012E+03  0.00000000000E+00 0. -1.
         13    1    4    4    0    0  0.47687278159E+02  0.59725026319E+02 -0.33012706438E+02  0.83252591872E+02  0.00000000000E+00 0.  1.
          1    1    1    2  501    0 -0.23978022779E+03 -0.86921121355E+02 -0.51515470118E+03  0.57483406747E+03  0.00000000000E+00 0. -1.
<scales pt_clust_5="13000.00000" pt_clust_6="13000.00000" pt_clust_7="13000.00000" pt_clust_8="13000.00000" pt_clust_9="203.86581"></scales>
<clustering>
<clus scale="   82.745">  5  6 -1 -1</clus>
<clus scale="   91.554">  7  8 -1 -1</clus>
<clus scale="  142.145">  1  5  2 -1</clus>
<clus scale="  203.866">  2  9  1 -1</clus>
<clus scale="  203.866">  2  5  1 -1</clus>
</clustering>
</event>
<event>
 9    2  0.4653788E-005  0.9683798E+02  0.7546771E-02  0.1293986E+00
         -1   -1    0    0    0  501 -0.00000000000E+00  0.00000000000E+00  0.21519129900E+03  0.21519129900E+03  0.00000000000E+00 0.  1.
         21   -1    0    0  501  502  0.00000000000E+00 -0.00000000000E+00 -0.21620743926E+03  0.21620743926E+03  0.00000000000E+00 0.  1.
         23    2    1    2    0    0 -0.19494011377E+02  0.24463496527E+02  0.16630910858E+03  0.19246766587E+03  0.91687532787E+02 0.  0.
         24    2    1    2    0    0  0.26771315050E+01 -0.35465517863E+02 -0.18520174259E+02  0.88775146293E+02  0.79202649920E+02 0.  0.
        -13    1    4    4    0    0 -0.26454093425E+02  0.12133957182E+02  0.23388740978E+01  0.29197984655E+02  0.00000000000E+00 0.  1.
         14    1    4    4    0    0  0.29131224930E+02 -0.47599475045E+02 -0.20859048357E+02  0.59577161638E+02  0.00000000000E+00 0. -1.
        -13    1    3    3    0    0 -0.70815011448E+01  0.52060479646E+02  0.14811881366E+03  0.15716114074E+03  0.00000000000E+00 0.  1.
         13    1    3    3    0    0 -0.12412510232E+02 -0.27596983119E+02  0.18190294919E+02  0.35306525131E+02  0.00000000000E+00 0. -1.
         -2    1    1    2    0  502  0.16816879872E+02  0.11002021336E+02 -0.14880507458E+03  0.15015592610E+03  0.00000000000E+00 0.  1.
<scales pt_clust_5="13000.00000" pt_clust_6="13000.00000" pt_clust_7="13000.00000" pt_clust_8="13000.00000" pt_clust_9="20.09607"></scales>
<clustering>
<clus scale="   20.096">  2  9  1 -1</clus>
<clus scale="   79.203">  5  6 -1 -1</clus>
<clus scale="   85.112">  2  5  1 -1</clus>
<clus scale="   91.688">  7  8 -1 -1</clus>
<clus scale="   20.096">  2  5  1 -1</clus>
</clustering>
</event>
<event>
 9    2  0.4653788E-005  0.1433505E+03  0.7546771E-02  0.1211579E+00
         21   -1    0    0  501  502  0.00000000000E+00  0.00000000000E+00  0.14259168565E+03  0.14259168565E+03  0.00000000000E+00 0.  1.
         -3   -1    0    0    0  501 -0.00000000000E+00 -0.00000000000E+00 -0.27610290791E+03  0.27610290791E+03  0.00000000000E+00 0.  1.
         23    2    1    2    0    0  0.95000570603E+02  0.88307354661E+02 -0.18152579214E+03  0.24071525312E+03  0.90382092073E+02 0.  0.
         24    2    1    2    0    0 -0.42006306664E+02 -0.62866825659E+02  0.11037734902E+02  0.10853224654E+03  0.77075608205E+02 0.  0.
        -11    1    4    4    0    0 -0.20567033006E+02  0.12190713196E+02 -0.12529581119E+02  0.26992716386E+02  0.00000000000E+00 0.  1.
         12    1    4    4    0    0 -0.21439273659E+02 -0.75057538855E+02  0.23567316021E+02  0.81539530158E+02  0.00000000000E+00 0. -1.
        -13    1    3    3    0    0  0.73631841667E+02  0.43307311031E+02 -0.16897866866E+03  0.18934350202E+03  0.00000000000E+00 0.  1.
         13    1    3    3    0    0  0.21368728936E+02  0.45000043629E+02 -0.12547123487E+02  0.51371751097E+02  0.00000000000E+00 0. -1.
         -4    1    1    2    0  502 -0.52994263939E+02 -0.25440529002E+02  0.36976834982E+02  0.69447093903E+02  0.00000000000E+00 0.  1.
<scales pt_clust_5="13000.00000" pt_clust_6="13000.00000" pt_clust_7="13000.00000" pt_clust_8="13000.00000" pt_clust_9="58.78446"></scales>
<clustering>
<clus scale="   58.784">  1  9  2 -1</clus>
<clus scale="   77.076">  5  6 -1 -1</clus>
<clus scale="   90.382">  7  8 -1 -1</clus>
<clus scale="  135.355">  1  5  2 -1</clus>
<clus scale="   58.784">  1  5  2 -1</clus>
</clustering>
</event>
<event>
 9    2  0.4653788E-005  0.9550574E+02  0.7546771E-02  0.1299549E+00
         21   -1    0    0  501  502  0.00000000000E+00  0.00000000000E+00  0.60028513898E+03  0.60028513898E+03  0.00000000000E+00 0.  1.
         -3   -1    0    0    0  501 -0.00000000000E+00 -0.00000000000E+00 -0.26401841809E+02  0.26401841809E+02  0.00000000000E+00 0.  1.
         24    2    1    2    0    0  0.12700519812E+02  0.32308404587E+02  0.73205939451E+02  0.11024669425E+03  0.74766889812E+02 0.  0.
         23    2    1    2    0    0 -0.25233813645E+01 -0.83449185774E+01  0.28867347094E+03  0.30284377247E+03  0.91137108709E+02 0.  0.
        -13    1    3    3    0    0  0.16673826609E+02 -0.22150834297E+02  0.22064214153E+02  0.35433113044E+02  0.00000000000E+00 0.  1.
         14    1    3    3    0    0 -0.39733067962E+01  0.54459238884E+02  0.51141725298E+02  0.74813581208E+02  0.00000000000E+00 0. -1.
        -13    1    4    4    0    0 -0.50756073742E+01 -0.48246275583E+02  0.11869674623E+03  0.12822785369E+03  0.00000000000E+00 0. -1.
         13    1    4    4    0    0  0.25522260096E+01  0.39901357006E+02  0.16997672471E+03  0.17461591878E+03  0.00000000000E+00 0.  1.
         -4    1    1    2    0  502 -0.10177138448E+02 -0.23963486010E+02  0.21200388678E+03  0.21359651406E+03  0.00000000000E+00 0.  1.
<scales pt_clust_5="13000.00000" pt_clust_6="13000.00000" pt_clust_7="13000.00000" pt_clust_8="13000.00000" pt_clust_9="26.03503"></scales>
<clustering>
<clus scale="   26.035">  1  9  2 -1</clus>
<clus scale="   74.767">  5  6 -1 -1</clus>
<clus scale="   80.034">  2  5  1 -1</clus>
<clus scale="   91.137">  7  8 -1 -1</clus>
<clus scale="   26.035">  1  5  2 -1</clus>
</clustering>
</event>
<event>
 9    2  0.4653788E-005  0.2440181E+03  0.7546771E-02  0.1157077E+00
         21   -1    0    0  501  502  0.00000000000E+00  0.00000000000E+00  0.74144726881E+02  0.74144726881E+02  0.00000000000E+00 0. -1.
          2   -1    0    0  502    0 -0.00000000000E+00 -0.00000000000E+00 -0.12089241898E+04  0.12089241898E+04  0.00000000000E+00 0. -1.
         23    2    1    2    0    0 -0.34987497886E+01  0.23843071067E+02 -0.14058281953E+03  0.16836225506E+03  0.89451587428E+02 0.  0.
         24    2    1    2    0    0  0.19533455254E+03 -0.13297177891E+03 -0.32206915622E+03  0.40727086305E+03  0.79397311677E+02 0.  0.
        -11    1    4    4    0    0 -0.17114700837E+01 -0.21144092162E+02 -0.16526893263E+02  0.26891261854E+02  0.00000000000E+00 0.  1.
         12    1    4    4    0    0  0.19704602263E+03 -0.11182768674E+03 -0.30554226295E+03  0.38037960120E+03  0.00000000000E+00 0. -1.
        -13    1    3    3    0    0 -0.33391689402E+02  0.10799819300E+02 -0.12910024584E+03  0.13378532989E+03  0.00000000000E+00 0. -1.
         13    1    3    3    0    0  0.29892939614E+02  0.13043251767E+02 -0.11482573688E+02  0.34576925165E+02  0.00000000000E+00 0.  1.
          1    1    1    2  501    0 -0.19183580275E+03  0.10912870784E+03 -0.67212748722E+03  0.70743579862E+03  0.00000000000E+00 0. -1.
<scales pt_clust_5="13000.00000" pt_clust_6="13000.00000" pt_clust_7="13000.00000" pt_clust_8="13000.00000" pt_clust_9="230.74001"></scales>
<clustering>
<clus scale="   79.397">  5  6 -1 -1</clus>
<clus scale="   89.452">  7  8 -1 -1</clus>
<clus scale="   92.641">  2  7  1 -1</clus>
<clus scale="  230.740">  1  9  2 -1</clus>
<clus scale="  230.740">  1  5  2 -1</clus>
</clustering>
</event>
<event>
 9    2  0.4653788E-005  0.9765344E+02  0.7546771E-02  0.1290330E+00
         21   -1    0    0  501  502  0.00000000000E+00  0.00000000000E+00  0.24170726199E+02  0.24170726199E+02  0.00000000000E+00 0.  1.
          2   -1    0    0  502    0 -0.00000000000E+00 -0.00000000000E+00 -0.68123871407E+03  0.68123871407E+03  0.00000000000E+00 0. -1.
         24    2    1    2    0    0  0.16098043504E+02  0.34785147703E+02 -0.29436554260E+03  0.30773762603E+03  0.81130883780E+02 0.  0.
         23    2    1    2    0    0 -0.51530189940E+02 -0.11717347393E+00 -0.17676767235E+03  0.20524248897E+03  0.90676871845E+02 0.  0.
        -11    1    3    3    0    0  0.40527198112E+02  0.42338183243E+02 -0.24755829376E+03  0.25440142365E+03  0.00000000000E+00 0.  1.
         12    1    3    3    0    0 -0.24429154608E+02 -0.75530355407E+01 -0.46807248839E+02  0.53336202383E+02  0.00000000000E+00 0. -1.
        -13    1    4    4    0    0  0.14264604099E+02 -0.28200402714E+02 -0.68990149021E+02  0.75884005596E+02  0.00000000000E+00 0.  1.
         13    1    4    4    0    0 -0.65794794039E+02  0.28083229240E+02 -0.10777752333E+03  0.12935848338E+03  0.00000000000E+00 0. -1.
          1    1    1    2  501    0  0.35432146435E+02 -0.34667974229E+02 -0.18593477292E+03  0.19242932526E+03  0.00000000000E+00 0. -1.
<scales pt_clust_5="13000.00000" pt_clust_6="13000.00000" pt_clust_7="13000.00000" pt_clust_8="13000.00000" pt_clust_9="49.57124"></scales>
<clustering>
<clus scale="   49.571">  1  9  2 -1</clus>
<clus scale="   81.131">  5  6 -1 -1</clus>
<clus scale="   88.860">  2  5  1 -1</clus>
<clus scale="   90.677">  7  8 -1 -1</clus>
<clus scale="   49.571">  1  5  2 -1</clus>
</clustering>
</event>
<event>
 9    2  0.4653788E-005  0.9416263E+02  0.7546771E-02  0.1306395E+00
          2   -1    0    0  502    0 -0.00000000000E+00  0.00000000000E+00  0.14366548729E+04  0.14366548729E+04  0.00000000000E+00 0. -1.
         21   -1    0    0  501  502  0.00000000000E+00 -0.00000000000E+00 -0.21429756246E+02  0.21429756246E+02  0.00000000000E+00 0.  1.
         24    2    1    2    0    0 -0.30070249560E+02 -0.26451830344E+01  0.12486679367E+04  0.12508730000E+04  0.67826462266E+02 0.  0.
         23    2    1    2    0    0  0.87940478235E+01  0.19509596510E+02  0.14784651214E+03  0.17423930304E+03  0.89681569662E+02 0.  0.
        -13    1    3    3    0    0 -0.47898296536E+01 -0.20172727893E+02  0.11944576250E+03  0.12123189184E+03  0.00000000000E+00 0.  1.
         14    1    3    3    0    0 -0.25280419906E+02  0.17527544859E+02  0.11292221742E+04  0.11296411081E+04  0.00000000000E+00 0. -1.
        -13    1    4    4    0    0 -0.35037449749E+02  0.10569189803E+02  0.27292560288E+02  0.45653198192E+02  0.00000000000E+00 0. -1.
         13    1    4    4    0    0  0.43831497573E+02  0.89404067072E+01  0.12055395185E+03  0.12858610485E+03  0.00000000000E+00 0.  1.
          1    1    1    2  501    0  0.21276201736E+02 -0.16864413476E+02  0.18710667829E+02  0.32972326167E+02  0.00000000000E+00 0. -1.
<scales pt_clust_5="13000.00000" pt_clust_6="13000.00000" pt_clust_7="13000.00000" pt_clust_8="13000.00000" pt_clust_9="27.14931"></scales>
<clustering>
<clus scale="   27.149">  2  9  1 -1</clus>
<clus scale="   67.826">  5  6 -1 -1</clus>
<clus scale="   73.649">  1  5  2 -1</clus>
<clus scale="   89.682">  7  8 -1 -1</clus>
<clus scale="   27.149">  2  5  1 -1</clus>
</clustering>
</event>
<event>
 9    2  0.4653788E-005  0.3533814E+03  0.7546771E-02  0.1105383E+00
         21   -1    0    0  501  502  0.00000000000E+00  0.00000000000E+00  0.25782961833E+03  0.25782961833E+03  0.00000000000E+00 0. -1.
          2   -1    0    0  502    0 -0.00000000000E+00 -0.00000000000E+00 -0.81105813923E+03  0.81105813923E+03  0.00000000000E+00 0. -1.
         23    2    1    2    0    0 -0.12355265278E+02  0.56396443696E+02 -0.13008800512E+02  0.10911325136E+03  0.91669303965E+02 0.  0.
         24    2    1    2    0    0 -0.31691994360E+03 -0.15249950108E+03 -0.49706852014E+03  0.61405787816E+03  0.79344915065E+02 0.  0.
        -11    1    4    4    0    0 -0.11940548880E+03 -0.40522915555E+02 -0.12096467401E+03  0.17473474125E+03  0.00000000000E+00 0.  1.
         12    1    4    4    0    0 -0.19751445480E+03 -0.11197658552E+03 -0.37610384613E+03  0.43932313692E+03  0.00000000000E+00 0. -1.
        -11    1    3    3    0    0 -0.27997756579E+02  0.73499674345E+02  0.63595003310E+01  0.78908299606E+02  0.00000000000E+00 0. -1.
         11    1    3    3    0    0  0.15642491300E+02 -0.17103230650E+02 -0.19368300843E+02  0.30204951751E+02  0.00000000000E+00 0.  1.
          1    1    1    2  501    0  0.32927520888E+03  0.96103057381E+02 -0.43151200252E+02  0.34571662804E+03  0.00000000000E+00 0. -1.
<scales pt_clust_5="13000.00000" pt_clust_6="13000.00000" pt_clust_7="13000.00000" pt_clust_8="13000.00000" pt_clust_9="344.35849"></scales>
<clustering>
<clus scale="   79.345">  5  6 -1 -1</clus>
<clus scale="   91.669">  7  8 -1 -1</clus>
<clus scale="  108.335">  2  7  1 -1</clus>
<clus scale="  344.358">  1  9  2 -1</clus>
<clus scale="  344.358">  1  5  2 -1</clus>
</clustering>
</event>
<event>
 9    2  0.4653788E-005  0.2200515E+03  0.7546771E-02  0.1133845E+00
         21   -1    0    0  501  502  0.00000000000E+00  0.00000000000E+00  0.42643164334E+03  0.42643164334E+03  0.00000000000E+00 0.  1.
         -3   -1    0    0    0  501 -0.00000000000E+00 -0.00000000000E+00 -0.73261799741E+02  0.73261799741E+02  0.00000000000E+00 0.  1.
         24    2    1    2    0    0  0.75541919018E+02  0.14810989467E+02  0.16440981606E+03  0.19587308915E+03  0.73550883742E+02 0.  0.
         23    2    1    2    0    0  0.48658497147E+02  0.25511945619E+02  0.87241119653E+02  0.13841850652E+03  0.92358872200E+02 0.  0.
        -11    1    3    3    0    0  0.67406080934E+02  0.26582323737E+02  0.71249824167E+02  0.10162055464E+03  0.00000000000E+00 0.  1.
         12    1    3    3    0    0  0.81358380838E+01 -0.11771334271E+02  0.93159991894E+02  0.94252534510E+02  0.00000000000E+00 0. -1.
        -11    1    4    4    0    0  0.85174295466E+01  0.56244237419E+02  0.44713934330E+02  0.72355350682E+02  0.00000000000E+00 0.  1.
         11    1    4    4    0    0  0.40141067601E+02 -0.30732291800E+02  0.42527185323E+02  0.66063155835E+02  0.00000000000E+00 0. -1.
         -4    1    1    2    0  502 -0.12420041617E+03 -0.40322935086E+02  0.10151890789E+03  0.16540184741E+03  0.00000000000E+00 0.  1.
<scales pt_clust_5="13000.00000" pt_clust_6="13000.00000" pt_clust_7="13000.00000" pt_clust_8="13000.00000" pt_clust_9="130.58216"></scales>
<clustering>
<clus scale="   73.551">  5  6 -1 -1</clus>
<clus scale="   92.359">  7  8 -1 -1</clus>
<clus scale="  102.277">  5  7 -1 -1</clus>
<clus scale="  130.582">  1  9  2 -1</clus>
<clus scale="  130.582">  1  5  2 -1</clus>
</clustering>
</event>
<event>
 9    2  0.4653788E-005  0.9142058E+02  0.7546771E-02  0.1306356E+00
         21   -1    0    0  501  502  0.00000000000E+00  0.00000000000E+00  0.11614528241E+04  0.11614528241E+04  0.00000000000E+00 0.  1.
         -1   -1    0    0    0  501 -0.00000000000E+00 -0.00000000000E+00 -0.18245781153E+02  0.18245781153E+02  0.00000000000E+00 0.  1.
         24    2    1    2    0    0  0.23235746013E+02 -0.42384560352E+02  0.23039757968E+03  0.24821169945E+03  0.78674342543E+02 0.  0.
         23    2    1    2    0    0  0.18726895385E+01 -0.29632903221E+02  0.31668671194E+03  0.33050497326E+03  0.89785566253E+02 0.  0.
        -13    1    3    3    0    0  0.14438288866E+01 -0.23480643614E+02  0.93908764255E+01  0.25330097245E+02  0.00000000000E+00 0.  1.
         14    1    3    3    0    0  0.21791917126E+02 -0.18903916737E+02  0.22100670325E+03  0.22288160221E+03  0.00000000000E+00 0. -1.
        -11    1    4    4    0    0 -0.29096479874E+02  0.13562045652E+02  0.56844775165E+02  0.65282943307E+02  0.00000000000E+00 0. -1.
         11    1    4    4    0    0  0.30969169413E+02 -0.43194948873E+02  0.25984193678E+03  0.26522202995E+03  0.00000000000E+00 0.  1.
         -2    1    1    2    0  502 -0.25108435551E+02  0.72017463573E+02  0.59612275130E+03  0.60098193252E+03  0.00000000000E+00 0.  1.
<scales pt_clust_5="13000.00000" pt_clust_6="13000.00000" pt_clust_7="13000.00000" pt_clust_8="13000.00000" pt_clust_9="76.26892"></scales>
<clustering>
<clus scale="   76.269">  1  9  2 -1</clus>
<clus scale="   78.674">  5  6 -1 -1</clus>
<clus scale="   80.535">  2  5  1 -1</clus>
<clus scale="   89.786">  7  8 -1 -1</clus>
<clus scale="   76.269">  1  5  2 -1</clus>
</clustering>
</event>
<event>
 9    2  0.4653788E-005  0.2951605E+03  0.7546771E-02  0.1120028E+00
         -3   -1    0    0    0  501 -0.00000000000E+00  0.00000000000E+00  0.43870128025E+03  0.43870128025E+03  0.00000000000E+00 0.  1.
         21   -1    0    0  501  502  0.00000000000E+00 -0.00000000000E+00 -0.46294169605E+03  0.46294169605E+03  0.00000000000E+00 0.  1.
         23    2    1    2    0    0  0.22842867876E+02  0.86157972746E+02  0.22840520856E+03  0.26195739354E+03  0.92237431952E+02 0.  0.
         24    2    1    2    0    0  0.94502433507E+02  0.22319302978E+03 -0.85430927135E+02  0.26897178819E+03  0.79382246418E+02 0.  0.
        -11    1    4    4    0    0  0.72326469744E+02  0.13645041522E+03 -0.15199129666E+02  0.15518004892E+03  0.00000000000E+00 0.  1.
         12    1    4    4    0    0  0.22175963763E+02  0.86742614559E+02 -0.70231797469E+02  0.11379173927E+03  0.00000000000E+00 0. -1.
        -11    1    3    3    0    0  0.26525610795E+02  0.94992652564E+01  0.90959907158E+01  0.29607112584E+02  0.00000000000E+00 0. -1.
         11    1    3    3    0    0 -0.36827429191E+01  0.76658707490E+02  0.21930921784E+03  0.23235028096E+03  0.00000000000E+00 0.  1.
         -4    1    1    2    0  502 -0.11734530138E+03 -0.30935100253E+03 -0.16721469723E+03  0.37071379458E+03  0.00000000000E+00 0.  1.
<scales pt_clust_5="13000.00000" pt_clust_6="13000.00000" pt_clust_7="13000.00000" pt_clust_8="13000.00000" pt_clust_9="284.28549"></scales>
<clustering>
<clus scale="   79.382">  5  6 -1 -1</clus>
<clus scale="   92.237">  7  8 -1 -1</clus>
<clus scale="  128.268">  1  7  2 -1</clus>
<clus scale="  284.285">  2  9  1 -1</clus>
<clus scale="  284.285">  2  5  1 -1</clus>
</clustering>
</event>
<event>
 9    2  0.4653788E-005  0.1055395E+03  0.7546771E-02  0.1272240E+00
         21   -1    0    0  501  502  0.00000000000E+00  0.00000000000E+00  0.75701755140E+03  0.75701755140E+03  0.00000000000E+00 0.  1.
         -3   -1    0    0    0  501 -0.00000000000E+00 -0.00000000000E+00 -0.10928058939E+03  0.10928058939E+03  0.00000000000E+00 0.  1.
         23    2    1    2    0    0  0.24586756384E+02 -0.51033313477E+02 -0.64458554343E+02  0.12221075333E+03  0.87015259166E+02 0.  0.
         24    2    1    2    0    0  0.69921258833E+01  0.10722912164E+03  0.32178551806E+03  0.34839159340E+03  0.79270476027E+02 0.  0.
        -13    1    4    4    0    0  0.41557943755E+02  0.38756422545E+02  0.13563220185E+03  0.14705515005E+03  0.00000000000E+00 0.  1.
         14    1    4    4    0    0 -0.34565817872E+02  0.68472699091E+02  0.18615331620E+03  0.20133644335E+03  0.00000000000E+00 0. -1.
        -13    1    3    3    0    0 -0.13898553592E+02 -0.53275295058E+02 -0.10748326600E+02  0.56097712789E+02  0.00000000000E+00 0. -1.
         13    1    3    3    0    0  0.38485309976E+02  0.22419815815E+01 -0.53710227743E+02  0.66113040541E+02  0.00000000000E+00 0.  1.
         -4    1    1    2    0  502 -0.31578882267E+02 -0.56195808159E+02  0.39040999830E+03  0.39569579405E+03  0.00000000000E+00 0.  1.
<scales pt_clust_5="13000.00000" pt_clust_6="13000.00000" pt_clust_7="13000.00000" pt_clust_8="13000.00000" pt_clust_9="64.46080"></scales>
<clustering>
<clus scale="   64.461">  1  9  2 -1</clus>
<clus scale="   79.270">  5  6 -1 -1</clus>
<clus scale="   87.015">  7  8 -1 -1</clus>
<clus scale="   99.251">  1  5  2 -1</clus>
<clus scale="   64.461">  1  5  2 -1</clus>
</clustering>
</event>
<event>
 9    2  0.4653788E-005  0.1361646E+03  0.7546771E-02  0.1220676E+00
          4   -1    0    0  502    0 -0.00000000000E+00  0.00000000000E+00  0.30166509046E+03  0.30166509046E+03  0.00000000000E+00 0. -1.
         21   -1    0    0  501  502  0.00000000000E+00 -0.00000000000E+00 -0.74826240188E+02  0.74826240188E+02  0.00000000000E+00 0.  1.
         24    2    1    2    0    0  0.54526790592E+02 -0.92325319810E+02  0.16262559973E+03  0.21152047236E+03  0.82442033987E+02 0.  0.
         23    2    1    2    0    0 -0.33697692002E+02  0.84574553562E+02  0.60270860791E+02  0.14239945686E+03  0.91414654718E+02 0.  0.
        -13    1    3    3    0    0  0.60882192204E+02 -0.42841215448E+02  0.53943625440E+02  0.91934355897E+02  0.00000000000E+00 0.  1.
         14    1    3    3    0    0 -0.63554016118E+01 -0.49484104362E+02  0.10868197429E+03  0.11958611646E+03  0.00000000000E+00 0. -1.
        -13    1    4    4    0    0 -0.27534904491E+02  0.15897160625E+02 -0.19233387578E+02  0.37159304070E+02  0.00000000000E+00 0.  1.
         13    1    4    4    0    0 -0.61627875111E+01  0.68677392937E+02  0.79504248369E+02  0.10524015279E+03  0.00000000000E+00 0. -1.
          3    1    1    2  501    0 -0.20829098590E+02  0.77507662480E+01  0.39423897480E+01  0.22571401428E+02  0.00000000000E+00 0. -1.
<scales pt_clust_5="13000.00000" pt_clust_6="13000.00000" pt_clust_7="13000.00000" pt_clust_8="13000.00000" pt_clust_9="22.22444"></scales>
<clustering>
<clus scale="   22.224">  2  9  1 -1</clus>
<clus scale="   82.442">  5  6 -1 -1</clus>
<clus scale="   91.415">  7  8 -1 -1</clus>
<clus scale="  130.311">  1  5  2 -1</clus>
<clus scale="   22.224">  2  5  1 -1</clus>
</clustering>
</event>
<event>
 9    2  0.4653788E-005  0.1026145E+03  0.7546771E-02  0.1279593E+00
          2   -1    0    0  502    0 -0.00000000000E+00  0.00000000000E+00  0.77112444685E+03  0.77112444685E+03  0.00000000000E+00 0. -1.
         21   -1    0    0  501  502  0.00000000000E+00 -0.00000000000E+00 -0.30653047616E+02  0.30653047616E+02  0.00000000000E+00 0. -1.
         24    2    1    2    0    0 -0.32452460745E+02 -0.69772863307E+02  0.37844451273E+03  0.39454906142E+03  0.80791695086E+02 0.  0.
         23    2    1    2    0    0  0.35568645997E+02 -0.17179788949E+02  0.20548475145E+03  0.22813093336E+03  0.90881604024E+02 0.  0.
        -13    1    3    3    0    0  0.65459167132E+01 -0.64576249232E+02  0.16130742128E+03  0.17387646520E+03  0.00000000000E+00 0.  1.
         14    1    3    3    0    0 -0.38998377458E+02 -0.51966140757E+01  0.21713709145E+03  0.22067259622E+03  0.00000000000E+00 0. -1.
        -11    1    4    4    0    0  0.11226138049E+02  0.28892555439E+02  0.23682501741E+02  0.39008548089E+02  0.00000000000E+00 0.  1.
         11    1    4    4    0    0  0.24342507948E+02 -0.46072344388E+02  0.18180224971E+03  0.18912238527E+03  0.00000000000E+00 0. -1.
          1    1    1    2  501    0 -0.31161852522E+01  0.86952652256E+02  0.15654213506E+03  0.17909749968E+03  0.00000000000E+00 0. -1.
<scales pt_clust_5="13000.00000" pt_clust_6="13000.00000" pt_clust_7="13000.00000" pt_clust_8="13000.00000" pt_clust_9="87.00847"></scales>
<clustering>
<clus scale="   80.792">  5  6 -1 -1</clus>
<clus scale="   87.008">  2  9  1 -1</clus>
<clus scale="   90.882">  7  8 -1 -1</clus>
<clus scale="   93.795">  1  5  2 -1</clus>
<clus scale="   87.008">  2  5  1 -1</clus>
</clustering>
</event>
<event>
 9    2  0.4653788E-005  0.9463379E+02  0.7546771E-02  0.1299268E+00
          2   -1    0    0  502    0 -0.00000000000E+00  0.00000000000E+00  0.25707315684E+03  0.25707315684E+03  0.00000000000E+00 0. -1.
         21   -1    0    0  501  502  0.00000000000E+00 -0.00000000000E+00 -0.42085938570E+02  0.42085938570E+02  0.00000000000E+00 0.  1.
         24    2    1    2    0    0 -0.19352794844E+02 -0.17546679209E+02  0.12659822463E+03  0.15220719208E+03  0.80358585249E+02 0.  0.
         23    2    1    2    0    0 -0.39233715179E+01  0.13582051582E+02  0.73136975754E+02  0.11884279017E+03  0.92599819570E+02 0.  0.
        -11    1    3    3    0    0  0.99519998953E+00 -0.47888386687E+02  0.68819623526E+02  0.83847651039E+02  0.00000000000E+00 0.  1.
         12    1    3    3    0    0 -0.20347994834E+02  0.30341707478E+02  0.57778601104E+02  0.68359541046E+02  0.00000000000E+00 0. -1.
        -11    1    4    4    0    0 -0.26388600113E+02  0.31617152095E+02  0.79323771783E+02  0.89377084828E+02  0.00000000000E+00 0. -1.
         11    1    4    4    0    0  0.22465228595E+02 -0.18035100513E+02 -0.61867960293E+01  0.29465705344E+02  0.00000000000E+00 0.  1.
          1    1    1    2  501    0  0.23276166362E+02  0.39646276274E+01  0.15252017891E+02  0.28109113157E+02  0.00000000000E+00 0. -1.
<scales pt_clust_5="13000.00000" pt_clust_6="13000.00000" pt_clust_7="13000.00000" pt_clust_8="13000.00000" pt_clust_9="23.61140"></scales>
<clustering>
<clus scale="   23.611">  2  9  1 -1</clus>
<clus scale="   80.359">  5  6 -1 -1</clus>
<clus scale="   82.694">  1  5  2 -1</clus>
<clus scale="   92.600">  7  8 -1 -1</clus>
<clus scale="   23.611">  2  5  1 -1</clus>
</clustering>
</event>
<event>
 9    2  0.4653788E-005  0.9420732E+02  0.7546771E-02  0.1299920E+00
         21   -1    0    0  501  502  0.00000000000E+00  0.00000000000E+00  0.20757068296E+02  0.20757068296E+02  0.00000000000E+00 0.  1.
          2   -1    0    0  502    0 -0.00000000000E+00 -0.00000000000E+00 -0.80862187630E+03  0.80862187630E+03  0.00000000000E+00 0. -1.
         24    2    1    2    0    0  0.27479886268E+02 -0.45520348030E+00 -0.39018602609E+03  0.39952665175E+03  0.81369890916E+02 0.  0.
         23    2    1    2    0    0  0.23334311494E+02 -0.34093419276E+02 -0.25110178793E+03  0.27091675498E+03  0.92935078940E+02 0.  0.
        -11    1    3    3    0    0  0.54024179232E+02  0.38566460160E+01 -0.19090889568E+03  0.19844317098E+03  0.00000000000E+00 0.  1.
         12    1    3    3    0    0 -0.26544292963E+02 -0.43118494963E+01 -0.19927713041E+03  0.20108348078E+03  0.00000000000E+00 0. -1.
        -11    1    4    4    0    0 -0.19859672639E+02 -0.51333860066E+02 -0.12861391010E+03  0.13989678216E+03  0.00000000000E+00 0.  1.
         11    1    4    4    0    0  0.43193984133E+02  0.17240440790E+02 -0.12248787782E+03  0.13101997282E+03  0.00000000000E+00 0. -1.
          1    1    1    2  501    0 -0.50814197763E+02  0.34548622756E+02 -0.14657699398E+03  0.15893553786E+03  0.00000000000E+00 0. -1.
<scales pt_clust_5="13000.00000" pt_clust_6="13000.00000" pt_clust_7="13000.00000" pt_clust_8="13000.00000" pt_clust_9="61.44664"></scales>
<clustering>
<clus scale="   61.447">  1  9  2 -1</clus>
<clus scale="   81.370">  5  6 -1 -1</clus>
<clus scale="   82.820">  2  5  1 -1</clus>
<clus scale="   92.935">  7  8 -1 -1</clus>
<clus scale="   61.447">  1  5  2 -1</clus>
</clustering>
</event>
<event>
 9    2  0.4653788E-005  0.1976837E+03  0.7546771E-02  0.1154230E+00
         21   -1    0    0  501  502  0.00000000000E+00  0.00000000000E+00  0.12088994909E+03  0.12088994909E+03  0.00000000000E+00 0.  1.
          2   -1    0    0  502    0 -0.00000000000E+00 -0.00000000000E+00 -0.57571453905E+03  0.57571453905E+03  0.00000000000E+00 0. -1.
         24    2    1    2    0    0  0.16248980540E+03 -0.26120977991E+02 -0.28137331999E+03  0.33577392053E+03  0.80547738354E+02 0.  0.
         23    2    1    2    0    0 -0.17357778331E+03  0.48320946492E+01 -0.22574857892E+03  0.30328781539E+03  0.10425201236E+03 0.  0.
        -11    1    3    3    0    0  0.13050964372E+03  0.13135402163E+02 -0.22082460711E+03  0.25684394678E+03  0.00000000000E+00 0.  1.
         12    1    3    3    0    0  0.31980161681E+02 -0.39256380154E+02 -0.60548712883E+02  0.78929973747E+02  0.00000000000E+00 0. -1.
        -13    1    4    4    0    0 -0.48969766795E+02 -0.24461981527E+02 -0.13698695832E+03  0.14751899319E+03  0.00000000000E+00 0. -1.
         13    1    4    4    0    0 -0.12460801652E+03  0.29294076176E+02 -0.88761620596E+02  0.15576882220E+03  0.00000000000E+00 0.  1.
          1    1    1    2  501    0  0.11087977912E+02  0.21288883341E+02  0.52297308956E+02  0.57542752212E+02  0.00000000000E+00 0. -1.
<scales pt_clust_5="13000.00000" pt_clust_6="13000.00000" pt_clust_7="13000.00000" pt_clust_8="13000.00000" pt_clust_9="24.00333"></scales>
<clustering>
<clus scale="   24.003">  1  9  2 -1</clus>
<clus scale="   80.548">  5  6 -1 -1</clus>
<clus scale="  104.252">  7  8 -1 -1</clus>
<clus scale="  186.275">  2  5  1 -1</clus>
<clus scale="   24.003">  1  5  2 -1</clus>
</clustering>
</event>
<event>
 9    2  0.4653788E-005  0.9862897E+02  0.7546771E-02  0.1288213E+00
         21   -1    0    0  501  502  0.00000000000E+00  0.00000000000E+00  0.14102894619E+03  0.14102894619E+03  0.00000000000E+00 0.  1.
         -1   -1    0    0    0  501 -0.00000000000E+00 -0.00000000000E+00 -0.43539158135E+03  0.43539158135E+03  0.00000000000E+00 0.  1.
         23    2    1    2    0    0  0.35978766964E+02  0.15468178980E+02 -0.33172783379E+03  0.34546230219E+03  0.88131210655E+02 0.  0.
         24    2    1    2    0    0 -0.59426887827E+02 -0.24424418976E+02 -0.68524940155E+02  0.12213382506E+03  0.78057008413E+02 0.  0.
        -11    1    4    4    0    0  0.90375045641E+00 -0.37863773936E+02 -0.36156353058E+02  0.52361856422E+02  0.00000000000E+00 0.  1.
         12    1    4    4    0    0 -0.60330638283E+02  0.13439354960E+02 -0.32368587097E+02  0.69771968641E+02  0.00000000000E+00 0. -1.
        -13    1    3    3    0    0  0.32325493038E+01  0.46323417186E+02 -0.11326388530E+03  0.12241330021E+03  0.00000000000E+00 0. -1.
         13    1    3    3    0    0  0.32746217660E+02 -0.30855238206E+02 -0.21846394849E+03  0.22304900198E+03  0.00000000000E+00 0.  1.
         -2    1    1    2    0  502  0.23448120863E+02  0.89562399951E+01  0.10589013878E+03  0.10882440028E+03  0.00000000000E+00 0.  1.
<scales pt_clust_5="13000.00000" pt_clust_6="13000.00000" pt_clust_7="13000.00000" pt_clust_8="13000.00000" pt_clust_9="25.10037"></scales>
<clustering>
<clus scale="   25.100">  1  9  2 -1</clus>
<clus scale="   78.057">  5  6 -1 -1</clus>
<clus scale="   88.131">  7  8 -1 -1</clus>
<clus scale="   89.741">  1  5  2 -1</clus>
<clus scale="   25.100">  1  5  2 -1</clus>
</clustering>
</event>
<event>
 9    2  0.4653788E-005  0.1152915E+03  0.7546771E-02  0.1255415E+00
          2   -1    0    0  502    0 -0.00000000000E+00  0.00000000000E+00  0.15531632326E+04  0.15531632326E+04  0.00000000000E+00 0. -1.
         21   -1    0    0  501  502  0.00000000000E+00 -0.00000000000E+00 -0.11541984955E+02  0.11541984955E+02  0.00000000000E+00 0. -1.
         24    2    1    2    0    0 -0.68640888518E+02  0.25943350466E+02  0.80257487104E+03  0.80999948341E+03  0.81167176207E+02 0.  0.
         23    2    1    2    0    0  0.41075186407E+02 -0.47802631216E+02  0.46582367936E+03  0.47922735319E+03  0.93246411699E+02 0.  0.
        -13    1    3    3    0    0 -0.28682600552E+02  0.49223065311E+01  0.67088546904E+02  0.73128611376E+02  0.00000000000E+00 0.  1.
         14    1    3    3    0    0 -0.39958287966E+02  0.21021043935E+02  0.73548632413E+03  0.73687087203E+03  0.00000000000E+00 0. -1.
        -11    1    4    4    0    0 -0.22843605757E+02 -0.42696308185E+02  0.20210924257E+03  0.20782913893E+03  0.00000000000E+00 0.  1.
         11    1    4    4    0    0  0.63918792164E+02 -0.51063230313E+01  0.26371443679E+03  0.27139821425E+03  0.00000000000E+00 0. -1.
          1    1    1    2  501    0  0.27565702111E+02  0.21859280751E+02  0.27322269726E+03  0.27547838097E+03  0.00000000000E+00 0. -1.
<scales pt_clust_5="13000.00000" pt_clust_6="13000.00000" pt_clust_7="13000.00000" pt_clust_8="13000.00000" pt_clust_9="35.18092"></scales>
<clustering>
<clus scale="   35.181">  2  9  1 -1</clus>
<clus scale="   81.167">  5  6 -1 -1</clus>
<clus scale="   93.246">  7  8 -1 -1</clus>
<clus scale="  105.761">  1  5  2 -1</clus>
<clus scale="   35.181">  2  5  1 -1</clus>
</clustering>
</event>
<event>
 9    2  0.4653788E-005  0.1455704E+03  0.7546771E-02  0.1206293E+00
         -1   -1    0    0    0  501 -0.00000000000E+00  0.00000000000E+00  0.35090820140E+03  0.35090820140E+03  0.00000000000E+00 0.  1.
         21   -1    0    0  501  502  0.00000000000E+00 -0.00000000000E+00 -0.12197512088E+03  0.12197512088E+03  0.00000000000E+00 0.  1.
         24    2    1    2    0    0  0.95369690336E+02  0.46562136644E+02  0.13403604621E+03  0.18832104363E+03  0.78966723301E+02 0.  0.
         23    2    1    2    0    0 -0.16763707603E+03 -0.85584093307E+01  0.58203494043E+02  0.19504538515E+03  0.80496086355E+02 0.  0.
        -11    1    3    3    0    0  0.80512333254E+02  0.52943965318E+02  0.14094570543E+03  0.17073661338E+03  0.00000000000E+00 0.  1.
         12    1    3    3    0    0  0.14857357083E+02 -0.63818286742E+01 -0.69096592243E+01  0.17584430252E+02  0.00000000000E+00 0. -1.
        -13    1    4    4    0    0 -0.12074943737E+03 -0.26995728470E+02  0.71545430961E+02  0.14292636101E+03  0.00000000000E+00 0. -1.
         13    1    4    4    0    0 -0.46887638660E+02  0.18437319139E+02 -0.13341936918E+02  0.52119024136E+02  0.00000000000E+00 0.  1.
         -2    1    1    2    0  502  0.72267385695E+02 -0.38003727313E+02  0.36693540274E+02  0.89516893505E+02  0.00000000000E+00 0.  1.
<scales pt_clust_5="13000.00000" pt_clust_6="13000.00000" pt_clust_7="13000.00000" pt_clust_8="13000.00000" pt_clust_9="81.65083"></scales>
<clustering>
<clus scale="   78.967">  5  6 -1 -1</clus>
<clus scale="   80.496">  7  8 -1 -1</clus>
<clus scale="   81.651">  2  9  1 -1</clus>
<clus scale="  144.730">  1  5  2 -1</clus>
<clus scale="   81.651">  2  5  1 -1</clus>
</clustering>
</event>
<event>
 9    2  0.4653788E-005  0.1174252E+03  0.7546771E-02  0.1251133E+00
         -1   -1    0    0    0  501 -0.00000000000E+00  0.00000000000E+00  0.77143257326E+02  0.77143257326E+02  0.00000000000E+00 0.  1.
         21   -1    0    0  501  502  0.00000000000E+00 -0.00000000000E+00 -0.68897110089E+03  0.68897110089E+03  0.00000000000E+00 0.  1.
         23    2    1    2    0    0  0.22552163494E+02 -0.59154354127E+02 -0.12638621161E+02  0.11140635779E+03  0.90795397023E+02 0.  0.
         24    2    1    2    0    0 -0.82188018971E+01  0.15093785209E+03 -0.37873414904E+03  0.41547987682E+03  0.79587615221E+02 0.  0.
        -11    1    4    4    0    0  0.32970430710E+02  0.43885442805E+02 -0.10014767882E+03  0.11420393585E+03  0.00000000000E+00 0.  1.
         12    1    4    4    0    0 -0.41189232607E+02  0.10705240928E+03 -0.27858647023E+03  0.30127594097E+03  0.00000000000E+00 0. -1.
        -11    1    3    3    0    0  0.30910210798E+02  0.93397365289E+01 -0.25587885958E+02  0.41199656768E+02  0.00000000000E+00 0. -1.
         11    1    3    3    0    0 -0.83580473046E+01 -0.68494090656E+02  0.12949264796E+02  0.70206701021E+02  0.00000000000E+00 0.  1.
         -2    1    1    2    0  502 -0.14333361597E+02 -0.91783497961E+02 -0.22045507336E+03  0.23922812361E+03  0.00000000000E+00 0.  1.
<scales pt_clust_5="13000.00000" pt_clust_6="13000.00000" pt_clust_7="13000.00000" pt_clust_8="13000.00000" pt_clust_9="92.89594"></scales>
<clustering>
<clus scale="   79.588">  5  6 -1 -1</clus>
<clus scale="   90.795">  7  8 -1 -1</clus>
<clus scale="   92.896">  2  9  1 -1</clus>
<clus scale="  108.991">  2  5  1 -1</clus>
<clus scale="   92.896">  2  5  1 -1</clus>
</clustering>
</event>
<event>
 9    2  0.4653788E-005  0.9448059E+02  0.7546771E-02  0.1299105E+00
         21   -1    0    0  501  502  0.00000000000E+00  0.00000000000E+00  0.10221970560E+03  0.10221970560E+03  0.00000000000E+00 0. -1.
         -3   -1    0    0    0  501 -0.00000000000E+00 -0.00000000000E+00 -0.23706669377E+03  0.23706669377E+03  0.00000000000E+00 0.  1.
         24    2    1    2    0    0  0.24393882750E+02 -0.10050775589E+02 -0.18430172967E+01  0.83821190110E+02  0.79539396485E+02 0.  0.
         23    2    1    2    0    0 -0.25651352784E+02 -0.15656189774E+02  0.21904099287E+02  0.98433558000E+02  0.91138727207E+02 0.  0.
        -11    1    3    3    0    0 -0.18343511354E+02 -0.29814343809E+02 -0.91257660429E+01  0.36175393728E+02  0.00000000000E+00 0.  1.
         12    1    3    3    0    0  0.42737394104E+02  0.19763568220E+02  0.72827487462E+01  0.47645796382E+02  0.00000000000E+00 0. -1.
        -13    1    4    4    0    0 -0.40121504191E+02  0.26085141395E+02  0.25287197655E+02  0.54125890897E+02  0.00000000000E+00 0.  1.
         13    1    4    4    0    0  0.14470151406E+02 -0.41741331169E+02 -0.33830983675E+01  0.44307667103E+02  0.00000000000E+00 0. -1.
         -4    1    1    2    0  502  0.12574700347E+01  0.25706965363E+02 -0.15490807016E+03  0.15703165127E+03  0.00000000000E+00 0.  1.
<scales pt_clust_5="13000.00000" pt_clust_6="13000.00000" pt_clust_7="13000.00000" pt_clust_8="13000.00000" pt_clust_9="25.73771"></scales>
<clustering>
<clus scale="   25.738">  1  9  2 -1</clus>
<clus scale="   79.539">  5  6 -1 -1</clus>
<clus scale="   83.348">  2  5  1 -1</clus>
<clus scale="   91.139">  7  8 -1 -1</clus>
<clus scale="   25.738">  1  5  2 -1</clus>
</clustering>
</event>
<event>
 9    2  0.4653788E-005  0.8914710E+02  0.7546771E-02  0.1308337E+00
         21   -1    0    0  501  502  0.00000000000E+00  0.00000000000E+00  0.82821611052E+03  0.82821611052E+03  0.00000000000E+00 0.  1.
         -3   -1    0    0    0  501 -0.00000000000E+00 -0.00000000000E+00 -0.83102501625E+02  0.83102501625E+02  0.00000000000E+00 0.  1.
         23    2    1    2    0    0  0.22709635810E+02 -0.66137988324E+01 -0.47287194505E+02  0.10072774674E+03  0.85735233745E+02 0.  0.
         24    2    1    2    0    0 -0.28986824896E+02  0.54422654495E+02  0.69042252568E+03  0.69778723554E+03  0.80135515140E+02 0.  0.
        -13    1    4    4    0    0 -0.55319179591E+02  0.28545991291E+02  0.36412438307E+03  0.36940716235E+03  0.00000000000E+00 0.  1.
         14    1    4    4    0    0  0.26332354695E+02  0.25876663204E+02  0.32629814261E+03  0.32838007320E+03  0.00000000000E+00 0. -1.
        -13    1    3    3    0    0  0.41857334795E+02 -0.26239490332E+02 -0.53282787576E+02  0.72660875172E+02  0.00000000000E+00 0. -1.
         13    1    3    3    0    0 -0.19147698985E+02  0.19625691500E+02  0.59955930710E+01  0.28066871566E+02  0.00000000000E+00 0.  1.
         -4    1    1    2    0  502  0.62771890859E+01 -0.47808855663E+02  0.10197827772E+03  0.11280362986E+03  0.00000000000E+00 0.  1.
<scales pt_clust_5="13000.00000" pt_clust_6="13000.00000" pt_clust_7="13000.00000" pt_clust_8="13000.00000" pt_clust_9="48.21918"></scales>
<clustering>
<clus scale="   48.219">  1  9  2 -1</clus>
<clus scale="   80.136">  5  6 -1 -1</clus>
<clus scale="   83.776">  1  5  2 -1</clus>
<clus scale="   85.735">  7  8 -1 -1</clus>
<clus scale="   48.219">  1  5  2 -1</clus>
</clustering>
</event>
<event>
 9    2  0.4653788E-005  0.2636592E+03  0.7546771E-02  0.1141924E+00
          2   -1    0    0  502    0 -0.00000000000E+00  0.00000000000E+00  0.94719750393E+03  0.94719750393E+03  0.00000000000E+00 0. -1.
         21   -1    0    0  501  502  0.00000000000E+00 -0.00000000000E+00 -0.15623125172E+03  0.15623125172E+03  0.00000000000E+00 0. -1.
         24    2    1    2    0    0 -0.13623741327E+02  0.66002326763E+02  0.36975695358E+03  0.38443052731E+03  0.80775690287E+02 0.  0.
         23    2    1    2    0    0  0.72571710887E+02 -0.28851025997E+03  0.36932410981E+03  0.48303908723E+03  0.91769485003E+02 0.  0.
        -13    1    3    3    0    0  0.30216498378E+02  0.16204455016E+02  0.77639392655E+02  0.84873414143E+02  0.00000000000E+00 0.  1.
         14    1    3    3    0    0 -0.43840239705E+02  0.49797871747E+02  0.29211756092E+03  0.29955711316E+03  0.00000000000E+00 0. -1.
        -11    1    4    4    0    0 -0.19927778916E+02 -0.84281174593E+02  0.90609731507E+02  0.12534175764E+03  0.00000000000E+00 0.  1.
         11    1    4    4    0    0  0.92499489802E+02 -0.20422908538E+03  0.27871437831E+03  0.35769732960E+03  0.00000000000E+00 0. -1.
          1    1    1    2  501    0 -0.58947969559E+02  0.22250793320E+03  0.51885188827E+02  0.23595914111E+03  0.00000000000E+00 0. -1.
<scales pt_clust_5="13000.00000" pt_clust_6="13000.00000" pt_clust_7="13000.00000" pt_clust_8="13000.00000" pt_clust_9="247.17309"></scales>
<clustering>
<clus scale="   80.776">  5  6 -1 -1</clus>
<clus scale="   91.769">  7  8 -1 -1</clus>
<clus scale="  105.198">  1  5  2 -1</clus>
<clus scale="  247.173">  2  9  1 -1</clus>
<clus scale="  247.173">  2  5  1 -1</clus>
</clustering>
</event>
<event>
 9    2  0.4653788E-005  0.8626173E+02  0.7546771E-02  0.1313601E+00
          2   -1    0    0  502    0 -0.00000000000E+00  0.00000000000E+00  0.10497421921E+03  0.10497421921E+03  0.00000000000E+00 0. -1.
         21   -1    0    0  501  502  0.00000000000E+00 -0.00000000000E+00 -0.19759765605E+03  0.19759765605E+03  0.00000000000E+00 0. -1.
         24    2    1    2    0    0  0.70960193746E+01  0.19834135289E+02  0.56414565301E+02  0.10107791347E+03  0.81181247830E+02 0.  0.
         23    2    1    2    0    0 -0.42195286523E+02 -0.51910778769E+01 -0.82338147712E+02  0.12471344171E+03  0.83465456804E+02 0.  0.
        -11    1    3    3    0    0  0.14664156993E+02 -0.25797171192E+02  0.21162794727E+01  0.29749120669E+02  0.00000000000E+00 0.  1.
         12    1    3    3    0    0 -0.75681376181E+01  0.45631306481E+02  0.54298285828E+02  0.71328792798E+02  0.00000000000E+00 0. -1.
        -11    1    4    4    0    0  0.69010392073E+01 -0.31375749639E+02 -0.52568831503E+02  0.61607986927E+02  0.00000000000E+00 0.  1.
         11    1    4    4    0    0 -0.49096325730E+02  0.26184671762E+02 -0.29769316208E+02  0.63105454780E+02  0.00000000000E+00 0. -1.
          1    1    1    2  501    0  0.35099267148E+02 -0.14643057412E+02 -0.66699854424E+02  0.76780520087E+02  0.00000000000E+00 0. -1.
<scales pt_clust_5="13000.00000" pt_clust_6="13000.00000" pt_clust_7="13000.00000" pt_clust_8="13000.00000" pt_clust_9="38.03127"></scales>
<clustering>
<clus scale="   38.031">  2  9  1 -1</clus>
<clus scale="   81.181">  5  6 -1 -1</clus>
<clus scale="   83.465">  7  8 -1 -1</clus>
<clus scale="   84.054">  1  5  2 -1</clus>
<clus scale="   38.031">  2  5  1 -1</clus>
</clustering>
</event>
<event>
 9    2  0.4653788E-005  0.1329132E+03  0.7546771E-02  0.1234811E+00
         21   -1    0    0  501  502  0.00000000000E+00  0.00000000000E+00  0.24605732241E+02  0.24605732241E+02  0.00000000000E+00 0.  1.
          2   -1    0    0  502    0 -0.00000000000E+00 -0.00000000000E+00 -0.10150932411E+04  0.10150932411E+04  0.00000000000E+00 0. -1.
         24    2    1    2    0    0 -0.67999113596E+02  0.16604872277E+02 -0.74473275521E+03  0.75241214006E+03  0.81225307563E+02 0.  0.
         23    2    1    2    0    0  0.47055228422E+02 -0.50577306948E+01 -0.20929567328E+03  0.24368353815E+03  0.11548685098E+03 0.  0.
        -11    1    3    3    0    0 -0.72081664097E+02  0.24309322778E+02 -0.37813748046E+03  0.38571318827E+03  0.00000000000E+00 0.  1.
         12    1    3    3    0    0  0.40825505008E+01 -0.77044505010E+01 -0.36659527474E+03  0.36669895179E+03  0.00000000000E+00 0. -1.
        -13    1    4    4    0    0  0.76028764414E+02  0.14459326635E+02 -0.86741856307E+02  0.11624798829E+03  0.00000000000E+00 0.  1.
         13    1    4    4    0    0 -0.28973535991E+02 -0.19517057330E+02 -0.12255381697E+03  0.12743554986E+03  0.00000000000E+00 0. -1.
          1    1    1    2  501    0  0.20943885174E+02 -0.11547141582E+02 -0.36459080348E+02  0.43603295113E+02  0.00000000000E+00 0. -1.
<scales pt_clust_5="13000.00000" pt_clust_6="13000.00000" pt_clust_7="13000.00000" pt_clust_8="13000.00000" pt_clust_9="23.91616"></scales>
<clustering>
<clus scale="   23.916">  1  9  2 -1</clus>
<clus scale="   81.225">  5  6 -1 -1</clus>
<clus scale="  104.529">  2  5  1 -1</clus>
<clus scale="  115.487">  7  8 -1 -1</clus>
<clus scale="   23.916">  1  5  2 -1</clus>
</clustering>
</event>
<event>
 9    2  0.4653788E-005  0.9883759E+02  0.7546771E-02  0.1292925E+00
          4   -1    0    0  502    0 -0.00000000000E+00  0.00000000000E+00  0.71544547301E+02  0.71544547301E+02  0.00000000000E+00 0. -1.
         21   -1    0    0  501  502  0.00000000000E+00 -0.00000000000E+00 -0.27176907317E+03  0.27176907317E+03  0.00000000000E+00 0.  1.
         24    2    1    2    0    0  0.17363002189E+02 -0.63176377423E+01 -0.37097873446E+01  0.82179993373E+02  0.79990014358E+02 0.  0.
         23    2    1    2    0    0  0.29369653313E+01  0.18974099804E+02 -0.21096490881E+03  0.23318578041E+03  0.97471909842E+02 0.  0.
        -13    1    3    3    0    0  0.38680660466E+02 -0.87702627382E+01  0.24588505461E+02  0.46665893363E+02  0.00000000000E+00 0.  1.
         14    1    3    3    0    0 -0.21317658277E+02  0.24526249959E+01 -0.28298292805E+02  0.35514100009E+02  0.00000000000E+00 0. -1.
        -13    1    4    4    0    0 -0.40426615158E+02 -0.58119922836E+01 -0.49512639025E+02  0.64184047010E+02  0.00000000000E+00 0. -1.
         13    1    4    4    0    0  0.43363580489E+02  0.24786092088E+02 -0.16145226978E+03  0.16900173340E+03  0.00000000000E+00 0.  1.
          3    1    1    2  501    0 -0.20299967521E+02 -0.12656462062E+02  0.14450170283E+02  0.27947846688E+02  0.00000000000E+00 0. -1.
<scales pt_clust_5="13000.00000" pt_clust_6="13000.00000" pt_clust_7="13000.00000" pt_clust_8="13000.00000" pt_clust_9="23.92228"></scales>
<clustering>
<clus scale="   23.922">  2  9  1 -1</clus>
<clus scale="   79.990">  5  6 -1 -1</clus>
<clus scale="   81.649">  1  5  2 -1</clus>
<clus scale="   97.472">  7  8 -1 -1</clus>
<clus scale="   23.922">  2  5  1 -1</clus>
</clustering>
</event>
<event>
 9    2  0.4653788E-005  0.9216388E+02  0.7546771E-02  0.1306103E+00
         21   -1    0    0  501  502  0.00000000000E+00  0.00000000000E+00  0.93274276078E+03  0.93274276078E+03  0.00000000000E+00 0.  1.
         -1   -1    0    0    0  501 -0.00000000000E+00 -0.00000000000E+00 -0.24279984360E+02  0.24279984360E+02  0.00000000000E+00 0.  1.
         23    2    1    2    0    0  0.66517066835E+01  0.28193436482E+02  0.14891897977E+03  0.17739047581E+03  0.91931514235E+02 0.  0.
         24    2    1    2    0    0  0.22937838560E+02  0.32446604195E+02  0.23912707600E+03  0.25485963394E+03  0.78694014860E+02 0.  0.
        -11    1    4    4    0    0 -0.22367179549E+02  0.31161183889E+02  0.15055999102E+03  0.15536930520E+03  0.00000000000E+00 0.  1.
         12    1    4    4    0    0  0.45305018109E+02  0.12854203061E+01  0.88567084978E+02  0.99490328740E+02  0.00000000000E+00 0. -1.
        -11    1    3    3    0    0 -0.21018058293E+02 -0.26776512894E+02  0.42422679735E+02  0.54391397969E+02  0.00000000000E+00 0. -1.
         11    1    3    3    0    0  0.27669764977E+02  0.54969949376E+02  0.10649630003E+03  0.12299907784E+03  0.00000000000E+00 0.  1.
         -2    1    1    2    0  502 -0.29589545244E+02 -0.60640040677E+02  0.52041672065E+03  0.52477263539E+03  0.00000000000E+00 0.  1.
<scales pt_clust_5="13000.00000" pt_clust_6="13000.00000" pt_clust_7="13000.00000" pt_clust_8="13000.00000" pt_clust_9="67.47411"></scales>
<clustering>
<clus scale="   67.474">  1  9  2 -1</clus>
<clus scale="   78.694">  5  6 -1 -1</clus>
<clus scale="   78.965">  1  5  2 -1</clus>
<clus scale="   91.932">  7  8 -1 -1</clus>
<clus scale="   67.474">  1  5  2 -1</clus>
</clustering>
</event>
<event>
 9    2  0.4653788E-005  0.1723878E+03  0.7546771E-02  0.1197753E+00
         21   -1    0    0  501  502  0.00000000000E+00  0.00000000000E+00  0.10776993436E+03  0.10776993436E+03  0.00000000000E+00 0. -1.
          2   -1    0    0  502    0 -0.00000000000E+00 -0.00000000000E+00 -0.91711260087E+03  0.91711260087E+03  0.00000000000E+00 0. -1.
         24    2    1    2    0    0  0.19057821168E+02 -0.64452567576E+02 -0.26292741225E+03  0.28306032152E+03  0.80467306974E+02 0.  0.
         23    2    1    2    0    0  0.22951042015E+02 -0.79401821621E+02 -0.57545022689E+03  0.58917274758E+03  0.95656485659E+02 0.  0.
        -11    1    3    3    0    0 -0.90330419362E+01 -0.61402388353E+02 -0.99948338407E+02  0.11764998722E+03  0.00000000000E+00 0.  1.
         12    1    3    3    0    0  0.28090863104E+02 -0.30501792236E+01 -0.16297907384E+03  0.16541033430E+03  0.00000000000E+00 0. -1.
        -13    1    4    4    0    0 -0.35485971731E+02 -0.49088380288E+02 -0.28029616784E+03  0.28676622008E+03  0.00000000000E+00 0.  1.
         13    1    4    4    0    0  0.58437013747E+02 -0.30313441333E+02 -0.29515405905E+03  0.30240652750E+03  0.00000000000E+00 0. -1.
          1    1    1    2  501    0 -0.42008863183E+02  0.14385438920E+03  0.29034972633E+02  0.15264946614E+03  0.00000000000E+00 0. -1.
<scales pt_clust_5="13000.00000" pt_clust_6="13000.00000" pt_clust_7="13000.00000" pt_clust_8="13000.00000" pt_clust_9="143.41341"></scales>
<clustering>
<clus scale="   80.467">  5  6 -1 -1</clus>
<clus scale="   95.656">  7  8 -1 -1</clus>
<clus scale="  104.844">  2  5  1 -1</clus>
<clus scale="  143.413">  1  9  2 -1</clus>
<clus scale="  143.413">  1  5  2 -1</clus>
</clustering>
</event>
<event>
 9    2  0.4653788E-005  0.1538584E+03  0.7546771E-02  0.1198265E+00
         -1   -1    0    0    0  501 -0.00000000000E+00  0.00000000000E+00  0.36276094394E+03  0.36276094394E+03  0.00000000000E+00 0.  1.
         21   -1    0    0  501  502  0.00000000000E+00 -0.00000000000E+00 -0.10696864383E+03  0.10696864383E+03  0.00000000000E+00 0.  1.
         24    2    1    2    0    0  0.11853804393E+03 -0.13452980361E+02  0.16888549113E+03  0.22199499581E+03  0.80791203183E+02 0.  0.
         23    2    1    2    0    0 -0.12815334703E+03 -0.47431884288E+02  0.41722982350E+02  0.17130816337E+03  0.94512515458E+02 0.  0.
        -13    1    3    3    0    0  0.98993423839E+02  0.21844941446E+02  0.10150449611E+03  0.14345752737E+03  0.00000000000E+00 0.  1.
         14    1    3    3    0    0  0.19544620089E+02 -0.35297921807E+02  0.67380995016E+02  0.78537468432E+02  0.00000000000E+00 0. -1.
        -11    1    4    4    0    0 -0.90091220112E+02 -0.26902424272E+02 -0.19821778553E+02  0.96088871770E+02  0.00000000000E+00 0. -1.
         11    1    4    4    0    0 -0.38062126921E+02 -0.20529460016E+02  0.61544760903E+02  0.75219291601E+02  0.00000000000E+00 0.  1.
         -2    1    1    2    0  502  0.96153031046E+01  0.60884864649E+02  0.45183826641E+02  0.76426428590E+02  0.00000000000E+00 0.  1.
<scales pt_clust_5="13000.00000" pt_clust_6="13000.00000" pt_clust_7="13000.00000" pt_clust_8="13000.00000" pt_clust_9="61.63947"></scales>
<clustering>
<clus scale="   61.639">  2  9  1 -1</clus>
<clus scale="   80.791">  5  6 -1 -1</clus>
<clus scale="   94.513">  7  8 -1 -1</clus>
<clus scale="  145.832">  1  5  2 -1</clus>
<clus scale="   61.639">  2  5  1 -1</clus>
</clustering>
</event>
<event>
 9    2  0.4653788E-005  0.9743131E+02  0.7546771E-02  0.1294229E+00
          4   -1    0    0  502    0 -0.00000000000E+00  0.00000000000E+00  0.21985084455E+03  0.21985084455E+03  0.00000000000E+00 0. -1.
         21   -1    0    0  501  502  0.00000000000E+00 -0.00000000000E+00 -0.73486000040E+02  0.73486000040E+02  0.00000000000E+00 0.  1.
         23    2    1    2    0    0 -0.28427348791E+02 -0.27838194878E+02  0.11891777447E+03  0.15662047268E+03  0.93837391936E+02 0.  0.
         24    2    1    2    0    0 -0.20405197724E+02  0.15014572820E+02  0.11146853639E+02  0.83662060710E+02  0.78951115034E+02 0.  0.
        -11    1    4    4    0    0 -0.34854888223E+02  0.27261627163E+02 -0.18920856946E+02  0.48125444166E+02  0.00000000000E+00 0.  1.
         12    1    4    4    0    0  0.14449690499E+02 -0.12247054343E+02  0.30067710584E+02  0.35536616544E+02  0.00000000000E+00 0. -1.
        -11    1    3    3    0    0 -0.47292808898E+02 -0.15639921783E+02  0.12396191234E+03  0.13359555621E+03  0.00000000000E+00 0. -1.
         11    1    3    3    0    0  0.18865460106E+02 -0.12198273096E+02 -0.50441378795E+01  0.23024916471E+02  0.00000000000E+00 0.  1.
          3    1    1    2  501    0  0.48832546515E+02  0.12823622059E+02  0.16300216405E+02  0.53054311198E+02  0.00000000000E+00 0. -1.
<scales pt_clust_5="13000.00000" pt_clust_6="13000.00000" pt_clust_7="13000.00000" pt_clust_8="13000.00000" pt_clust_9="50.48824"></scales>
<clustering>
<clus scale="   50.488">  2  9  1 -1</clus>
<clus scale="   78.951">  5  6 -1 -1</clus>
<clus scale="   83.191">  2  5  1 -1</clus>
<clus scale="   93.837">  7  8 -1 -1</clus>
<clus scale="   50.488">  2  5  1 -1</clus>
</clustering>
</event>
<event>
 9    2  0.4653788E-005  0.9132110E+02  0.7546771E-02  0.1305766E+00
         21   -1    0    0  501  502  0.00000000000E+00  0.00000000000E+00  0.22429723382E+03  0.22429723382E+03  0.00000000000E+00 0.  1.
          2   -1    0    0  502    0 -0.00000000000E+00 -0.00000000000E+00 -0.91393544515E+02  0.91393544515E+02  0.00000000000E+00 0. -1.
         24    2    1    2    0    0 -0.68253255236E+01  0.50493578828E+01 -0.52244693446E+02  0.96812993494E+02  0.81062732697E+02 0.  0.
         23    2    1    2    0    0  0.29957301069E+01 -0.25943051322E+02  0.13877264091E+03  0.16786874978E+03  0.90774748566E+02 0.  0.
        -13    1    3    3    0    0 -0.27922769401E+02 -0.27138678781E+02 -0.11133521592E+02  0.40498694300E+02  0.00000000000E+00 0.  1.
         14    1    3    3    0    0  0.21097443877E+02  0.32188036663E+02 -0.41111171855E+02  0.56314299194E+02  0.00000000000E+00 0. -1.
        -11    1    4    4    0    0 -0.43028156136E+02 -0.21640689591E+02  0.67614993725E+02  0.83015233800E+02  0.00000000000E+00 0. -1.
         11    1    4    4    0    0  0.46023886243E+02 -0.43023617308E+01  0.71157647189E+02  0.84853515984E+02  0.00000000000E+00 0.  1.
          1    1    1    2  501    0  0.38295954166E+01  0.20893693439E+02  0.46375741842E+02  0.51009035062E+02  0.00000000000E+00 0. -1.
<scales pt_clust_5="13000.00000" pt_clust_6="13000.00000" pt_clust_7="13000.00000" pt_clust_8="13000.00000" pt_clust_9="21.24176"></scales>
<clustering>
<clus scale="   21.242">  1  9  2 -1</clus>
<clus scale="   81.063">  5  6 -1 -1</clus>
<clus scale="   81.674">  2  5  1 -1</clus>
<clus scale="   90.775">  7  8 -1 -1</clus>
<clus scale="   21.242">  1  5  2 -1</clus>
</clustering>
</event>
<event>
 9    2  0.4653788E-005  0.1203105E+03  0.7546771E-02  0.1244987E+00
          2   -1    0    0  502    0 -0.00000000000E+00  0.00000000000E+00  0.85276609319E+03  0.85276609319E+03  0.00000000000E+00 0. -1.
         21   -1    0    0  501  502  0.00000000000E+00 -0.00000000000E+00 -0.19219982896E+02  0.19219982896E+02  0.00000000000E+00 0. -1.
         24    2    1    2    0    0 -0.89096286677E+01 -0.75989659275E+02  0.37245022108E+03  0.38928618972E+03  0.83491080519E+02 0.  0.
         23    2    1    2    0    0  0.28972776093E+02  0.76648592897E+02  0.40363807551E+03  0.42183639621E+03  0.91147246898E+02 0.  0.
        -13    1    3    3    0    0 -0.42636957781E+02 -0.18389933987E+02  0.15927864499E+03  0.16590897080E+03  0.00000000000E+00 0.  1.
         14    1    3    3    0    0  0.33727329114E+02 -0.57599725287E+02  0.21317157609E+03  0.22337721893E+03  0.00000000000E+00 0. -1.
        -13    1    4    4    0    0 -0.29128317882E+02  0.41377085633E+02  0.22702217770E+03  0.23259318840E+03  0.00000000000E+00 0.  1.
         13    1    4    4    0    0  0.58101093976E+02  0.35271507264E+02  0.17661589781E+03  0.18924320782E+03  0.00000000000E+00 0. -1.
          1    1    1    2  501    0 -0.20063147425E+02 -0.65893362273E+00  0.57457813700E+02  0.60863490150E+02  0.00000000000E+00 0. -1.
<scales pt_clust_5="13000.00000" pt_clust_6="13000.00000" pt_clust_7="13000.00000" pt_clust_8="13000.00000" pt_clust_9="20.07397"></scales>
<clustering>
<clus scale="   20.074">  2  9  1 -1</clus>
<clus scale="   83.491">  5  6 -1 -1</clus>
<clus scale="   91.147">  7  8 -1 -1</clus>
<clus scale="  114.619">  1  5  2 -1</clus>
<clus scale="   20.074">  2  5  1 -1</clus>
</clustering>
</event>
<event>
 9    2  0.4653788E-005  0.1421125E+03  0.7546771E-02  0.1230294E+00
         21   -1    0    0  501  502  0.00000000000E+00  0.00000000000E+00  0.10709718134E+03  0.10709718134E+03  0.00000000000E+00 0. -1.
          2   -1    0    0  502    0 -0.00000000000E+00 -0.00000000000E+00 -0.31772631647E+03  0.31772631647E+03  0.00000000000E+00 0. -1.
         23    2    1    2    0    0 -0.97928228362E+01  0.24280958737E+02 -0.10751975381E+02  0.94451975263E+02  0.90111632547E+02 0.  0.
         24    2    1    2    0    0 -0.11277358300E+03 -0.90840833260E+01 -0.90887015330E+02  0.16565260912E+03  0.79874500056E+02 0.  0.
        -11    1    4    4    0    0 -0.50751118557E+02 -0.40458423116E+02 -0.63929060766E+02  0.91101508474E+02  0.00000000000E+00 0.  1.
         12    1    4    4    0    0 -0.62022464442E+02  0.31374339790E+02 -0.26957954564E+02  0.74551100643E+02  0.00000000000E+00 0. -1.
        -11    1    3    3    0    0  0.10111658629E+02 -0.19310562183E+02 -0.34624143216E+02  0.40914236465E+02  0.00000000000E+00 0.  1.
         11    1    3    3    0    0 -0.19904481466E+02  0.43591520920E+02  0.23872167835E+02  0.53537738798E+02  0.00000000000E+00 0. -1.
          1    1    1    2  501    0  0.12256640584E+03 -0.15196875411E+02 -0.10899014442E+03  0.16471891343E+03  0.00000000000E+00 0. -1.
<scales pt_clust_5="13000.00000" pt_clust_6="13000.00000" pt_clust_7="13000.00000" pt_clust_8="13000.00000" pt_clust_9="117.54168"></scales>
<clustering>
<clus scale="   79.875">  5  6 -1 -1</clus>
<clus scale="   90.112">  7  8 -1 -1</clus>
<clus scale="   93.838">  2  7  1 -1</clus>
<clus scale="  117.542">  1  9  2 -1</clus>
<clus scale="  117.542">  1  5  2 -1</clus>
</clustering>
</event>
<event>
 9    2  0.4653788E-005  0.2950895E+03  0.7546771E-02  0.1102742E+00
          2   -1    0    0  502    0 -0.00000000000E+00  0.00000000000E+00  0.91644106779E+03  0.91644106779E+03  0.00000000000E+00 0. -1.
         21   -1    0    0  501  502  0.00000000000E+00 -0.00000000000E+00 -0.19675057600E+03  0.19675057600E+03  0.00000000000E+00 0. -1.
         23    2    1    2    0    0 -0.16678919094E+03  0.59421282754E+02  0.28770637696E+03  0.34990759523E+03  0.91163823961E+02 0.  0.
         24    2    1    2    0    0  0.33813815940E+03 -0.20426395335E+03  0.28924363288E+03  0.49736166626E+03  0.87438952550E+02 0.  0.
        -13    1    4    4    0    0  0.21335122036E+02 -0.10351034902E+02 -0.40900047767E+01  0.24063655061E+02  0.00000000000E+00 0.  1.
         14    1    4    4    0    0  0.31680303736E+03 -0.19391291845E+03  0.29333363766E+03  0.47329801120E+03  0.00000000000E+00 0. -1.
        -11    1    3    3    0    0 -0.86663496644E+02  0.28412035281E+02  0.22720448091E+03  0.24482581878E+03  0.00000000000E+00 0.  1.
         11    1    3    3    0    0 -0.80125694296E+02  0.31009247472E+02  0.60501896051E+02  0.10508177645E+03  0.00000000000E+00 0. -1.
          1    1    1    2  501    0 -0.17134896846E+03  0.14484267060E+03  0.14274048195E+03  0.26592238230E+03  0.00000000000E+00 0. -1.
<scales pt_clust_5="13000.00000" pt_clust_6="13000.00000" pt_clust_7="13000.00000" pt_clust_8="13000.00000" pt_clust_9="281.83729"></scales>
<clustering>
<clus scale="   87.439">  5  6 -1 -1</clus>
<clus scale="   91.164">  7  8 -1 -1</clus>
<clus scale="  199.149">  1  7  2 -1</clus>
<clus scale="  281.837">  2  9  1 -1</clus>
<clus scale="  281.837">  2  5  1 -1</clus>
</clustering>
</event>
<event>
 9    2  0.4653788E-005  0.1015061E+03  0.7546771E-02  0.1287714E+00
          2   -1    0    0  502    0 -0.00000000000E+00  0.00000000000E+00  0.40795257186E+03  0.40795257186E+03  0.00000000000E+00 0. -1.
         21   -1    0    0  501  502  0.00000000000E+00 -0.00000000000E+00 -0.48408232429E+02  0.48408232429E+02  0.00000000000E+00 0.  1.
         23    2    1    2    0    0  0.49681528565E+02  0.50301869236E+01  0.16199546846E+03  0.19616931731E+03  0.98723412589E+02 0.  0.
         24    2    1    2    0    0  0.14198512412E+02  0.20200963211E+02  0.49526307180E+02  0.97010759056E+02  0.79677823767E+02 0.  0.
        -11    1    4    4    0    0  0.21725759381E+02  0.36584548302E+02 -0.18227594098E+01  0.42588264193E+02  0.00000000000E+00 0.  1.
         12    1    4    4    0    0 -0.75272469683E+01 -0.16383585091E+02  0.51349066590E+02  0.54422494862E+02  0.00000000000E+00 0. -1.
        -11    1    3    3    0    0 -0.25938461903E+02 -0.99706334358E+01  0.18834354738E+02  0.33570079765E+02  0.00000000000E+00 0. -1.
         11    1    3    3    0    0  0.75619990468E+02  0.15000820359E+02  0.14316111372E+03  0.16259923755E+03  0.00000000000E+00 0.  1.
          1    1    1    2  501    0 -0.63880040977E+02 -0.25231150135E+02  0.14802256379E+03  0.16318072791E+03  0.00000000000E+00 0. -1.
<scales pt_clust_5="13000.00000" pt_clust_6="13000.00000" pt_clust_7="13000.00000" pt_clust_8="13000.00000" pt_clust_9="68.68242"></scales>
<clustering>
<clus scale="   68.682">  2  9  1 -1</clus>
<clus scale="   79.678">  5  6 -1 -1</clus>
<clus scale="   83.101">  2  5  1 -1</clus>
<clus scale="   98.723">  7  8 -1 -1</clus>
<clus scale="   68.682">  2  5  1 -1</clus>
</clustering>
</event>
<event>
 9    2  0.4653788E-005  0.1983319E+03  0.7546771E-02  0.1158488E+00
         21   -1    0    0  501  502  0.00000000000E+00  0.00000000000E+00  0.94132418044E+02  0.94132418044E+02  0.00000000000E+00 0. -1.
          2   -1    0    0  502    0 -0.00000000000E+00 -0.00000000000E+00 -0.91755344271E+03  0.91755344271E+03  0.00000000000E+00 0. -1.
         23    2    1    2    0    0  0.66847207208E+02  0.97864339238E+02 -0.24771624537E+03  0.29871908146E+03  0.11757454403E+03 0.  0.
         24    2    1    2    0    0  0.88863034155E+02 -0.17666596489E+03 -0.17541933171E+03  0.27629319981E+03  0.80364720700E+02 0.  0.
        -13    1    4    4    0    0  0.16048455190E+01 -0.63167656131E+02 -0.23160356417E+02  0.67298814399E+02  0.00000000000E+00 0.  1.
         14    1    4    4    0    0  0.87258188636E+02 -0.11349830876E+03 -0.15225897530E+03  0.20899438541E+03  0.00000000000E+00 0. -1.
        -13    1    3    3    0    0  0.88984182719E+02  0.98243385293E+02 -0.24188640263E+03  0.27582418188E+03  0.00000000000E+00 0. -1.
         13    1    3    3    0    0 -0.22136975510E+02 -0.37904605458E+00 -0.58298427331E+01  0.22894899584E+02  0.00000000000E+00 0.  1.
          1    1    1    2  501    0 -0.15571024136E+03  0.78801625651E+02 -0.40028544759E+03  0.43667357949E+03  0.00000000000E+00 0. -1.
<scales pt_clust_5="13000.00000" pt_clust_6="13000.00000" pt_clust_7="13000.00000" pt_clust_8="13000.00000" pt_clust_9="181.32035"></scales>
<clustering>
<clus scale="   80.365">  5  6 -1 -1</clus>
<clus scale="  117.575">  7  8 -1 -1</clus>
<clus scale="  166.942">  2  7  1 -1</clus>
<clus scale="  181.320">  1  9  2 -1</clus>
<clus scale="  181.320">  1  5  2 -1</clus>
</clustering>
</event>
<event>
 9    2  0.4653788E-005  0.1184755E+03  0.7546771E-02  0.1247461E+00
          2   -1    0    0  502    0 -0.00000000000E+00  0.00000000000E+00  0.98503120297E+02  0.98503120297E+02  0.00000000000E+00 0. -1.
         21   -1    0    0  501  502  0.00000000000E+00 -0.00000000000E+00 -0.24362060328E+03  0.24362060328E+03  0.00000000000E+00 0.  1.
         24    2    1    2    0    0 -0.83634761834E+02  0.30811905698E+02 -0.71316811970E+02  0.14267458024E+03  0.85590894718E+02 0.  0.
         23    2    1    2    0    0  0.42271049228E+02 -0.49830294475E+02 -0.97030112412E+02  0.14833884320E+03  0.91212224167E+02 0.  0.
        -13    1    3    3    0    0 -0.44973564133E+02  0.58650747740E+02 -0.55671104210E+02  0.92530014186E+02  0.00000000000E+00 0.  1.
         14    1    3    3    0    0 -0.38661197701E+02 -0.27838842042E+02 -0.15645707760E+02  0.50144566059E+02  0.00000000000E+00 0. -1.
        -13    1    4    4    0    0  0.48610744664E+02  0.24791390253E+01 -0.15164438958E+02  0.50981475420E+02  0.00000000000E+00 0. -1.
         13    1    4    4    0    0 -0.63396954360E+01 -0.52309433500E+02 -0.81865673454E+02  0.97357367782E+02  0.00000000000E+00 0.  1.
          1    1    1    2  501    0  0.41363712606E+02  0.19018388777E+02  0.23229441396E+02  0.51110300134E+02  0.00000000000E+00 0. -1.
<scales pt_clust_5="13000.00000" pt_clust_6="13000.00000" pt_clust_7="13000.00000" pt_clust_8="13000.00000" pt_clust_9="45.52645"></scales>
<clustering>
<clus scale="   45.526">  2  9  1 -1</clus>
<clus scale="   85.591">  5  6 -1 -1</clus>
<clus scale="   91.212">  7  8 -1 -1</clus>
<clus scale="  114.204">  1  5  2 -1</clus>
<clus scale="   45.526">  2  5  1 -1</clus>
</clustering>
</event>
<event>
 9    2  0.5123863E-005  0.1581470E+03  0.7546771E-02  0.1211220E+00
         -3   -1    0    0    0  501 -0.00000000000E+00  0.00000000000E+00  0.32827418721E+03  0.32827418721E+03  0.00000000000E+00 0.  1.
         21   -1    0    0  501  502  0.00000000000E+00 -0.00000000000E+00 -0.83207393886E+03  0.83207393886E+03  0.00000000000E+00 0.  1.
         24    2    1    2    0    0  0.99927794566E+01  0.56775165771E+02  0.21148654350E+03  0.23461693378E+03  0.83637745349E+02 0.  0.
         23    2    1    2    0    0 -0.13334982590E+03 -0.94537167063E+02  0.12372318352E+02  0.18672511149E+03  0.89407723247E+02 0.  0.
        -11    1    3    3    0    0 -0.29572927522E+02  0.10706548377E+02  0.12528725067E+03  0.12917462367E+03  0.00000000000E+00 0.  1.
         12    1    3    3    0    0  0.39565706978E+02  0.46068617394E+02  0.86199292828E+02  0.10544231011E+03  0.00000000000E+00 0. -1.
        -11    1    4    4    0    0 -0.13878287189E+03 -0.64269625869E+02 -0.15951897235E+01  0.15295036767E+03  0.00000000000E+00 0.  1.
         11    1    4    4    0    0  0.54330459880E+01 -0.30267541194E+02  0.13967508076E+02  0.33774743825E+02  0.00000000000E+00 0. -1.
         -4    1    1    2    0  502  0.12335704645E+03  0.37762001291E+02 -0.72765861351E+03  0.73900608080E+03  0.00000000000E+00 0.  1.
<scales pt_clust_5="13000.00000" pt_clust_6="13000.00000" pt_clust_7="13000.00000" pt_clust_8="13000.00000" pt_clust_9="130.44821"></scales>
<clustering>
<clus scale="   83.638">  5  6 -1 -1</clus>
<clus scale="   89.408">  7  8 -1 -1</clus>
<clus scale="  101.580">  1  5  2 -1</clus>
<clus scale="  130.448">  2  9  1 -1</clus>
<clus scale="  130.448">  2  5  1 -1</clus>
</clustering>
</event>
<event>
 9    2  0.4653788E-005  0.1112768E+03  0.7546771E-02  0.1265430E+00
          2   -1    0    0  502    0 -0.00000000000E+00  0.00000000000E+00  0.12766524654E+04  0.12766524654E+04  0.00000000000E+00 0. -1.
         21   -1    0    0  501  502  0.00000000000E+00 -0.00000000000E+00 -0.54482736038E+02  0.54482736038E+02  0.00000000000E+00 0.  1.
         24    2    1    2    0    0 -0.44481711160E+02  0.25934958198E+02  0.10360284151E+04  0.10405241785E+04  0.81758452163E+02 0.  0.
         23    2    1    2    0    0 -0.28120151228E+02  0.43572286661E+02  0.35169570041E+02  0.10924191016E+03  0.89485245760E+02 0.  0.
        -13    1    3    3    0    0 -0.42393420885E+02 -0.98865319452E+01  0.25629120461E+03  0.25996178028E+03  0.00000000000E+00 0.  1.
         14    1    3    3    0    0 -0.20882902753E+01  0.35821490143E+02  0.77973721047E+03  0.78056239821E+03  0.00000000000E+00 0. -1.
        -11    1    4    4    0    0 -0.26568552743E+01  0.46621452704E+02  0.58307173506E+02  0.74701708243E+02  0.00000000000E+00 0. -1.
         11    1    4    4    0    0 -0.25463295954E+02 -0.30491660436E+01 -0.23137603465E+02  0.34540201918E+02  0.00000000000E+00 0.  1.
          1    1    1    2  501    0  0.72601862389E+02 -0.69507244858E+02  0.15097174422E+03  0.18136911276E+03  0.00000000000E+00 0. -1.
<scales pt_clust_5="13000.00000" pt_clust_6="13000.00000" pt_clust_7="13000.00000" pt_clust_8="13000.00000" pt_clust_9="66.14316"></scales>
<clustering>
<clus scale="   81.758">  5  6 -1 -1</clus>
<clus scale="   89.485">  7  8 -1 -1</clus>
<clus scale="   96.621">  1  5  2 -1</clus>
<clus scale="   66.143">  2  9  1 -1</clus>
<clus scale="   66.143">  2  5  1 -1</clus>
</clustering>
</event>
<event>
 9    2  0.4653788E-005  0.1000287E+03  0.7546771E-02  0.1285046E+00
         21   -1    0    0  501  502  0.00000000000E+00  0.00000000000E+00  0.74505823797E+02  0.74505823797E+02  0.00000000000E+00 0. -1.
         -1   -1    0    0    0  501 -0.00000000000E+00 -0.00000000000E+00 -0.31614433899E+03  0.31614433899E+03  0.00000000000E+00 0.  1.
         24    2    1    2    0    0 -0.25821272582E+02 -0.34424828474E+02 -0.21032692929E+03  0.22963849063E+03  0.81514491110E+02 0.  0.
         23    2    1    2    0    0  0.37851028437E+02  0.14650175332E+02 -0.65755826971E+02  0.11951278452E+03  0.91170987112E+02 0.  0.
        -11    1    3    3    0    0 -0.23730204656E+02 -0.51723696595E+01 -0.85605442630E+01  0.25751872533E+02  0.00000000000E+00 0.  1.
         12    1    3    3    0    0 -0.20910679258E+01 -0.29252458814E+02 -0.20176638503E+03  0.20388661810E+03  0.00000000000E+00 0. -1.
        -13    1    4    4    0    0  0.43731289191E+02  0.37664464366E+02 -0.74464976107E+02  0.94212898251E+02  0.00000000000E+00 0.  1.
         13    1    4    4    0    0 -0.58802607540E+01 -0.23014289035E+02  0.87091491361E+01  0.25299886264E+02  0.00000000000E+00 0. -1.
         -2    1    1    2    0  502 -0.12029755855E+02  0.19774653142E+02  0.34444241068E+02  0.41498887643E+02  0.00000000000E+00 0.  1.
<scales pt_clust_5="13000.00000" pt_clust_6="13000.00000" pt_clust_7="13000.00000" pt_clust_8="13000.00000" pt_clust_9="23.14632"></scales>
<clustering>
<clus scale="   23.146">  1  9  2 -1</clus>
<clus scale="   81.514">  5  6 -1 -1</clus>
<clus scale="   91.171">  7  8 -1 -1</clus>
<clus scale="   91.314">  2  5  1 -1</clus>
<clus scale="   23.146">  1  5  2 -1</clus>
</clustering>
</event>
<event>
 9    2  0.4653788E-005  0.1446085E+03  0.7546771E-02  0.1207627E+00
         21   -1    0    0  501  502  0.00000000000E+00  0.00000000000E+00  0.52353984301E+02  0.52353984301E+02  0.00000000000E+00 0.  1.
          2   -1    0    0  502    0 -0.00000000000E+00 -0.00000000000E+00 -0.84581868196E+03  0.84581868196E+03  0.00000000000E+00 0. -1.
         24    2    1    2    0    0  0.18458234431E+02 -0.13026386130E+03 -0.48711206823E+03  0.51236169271E+03  0.89033460904E+02 0.  0.
         23    2    1    2    0    0  0.63675977079E+02  0.80868556737E+02 -0.20068499663E+03  0.24315203259E+03  0.90852020110E+02 0.  0.
        -11    1    3    3    0    0  0.15135955101E+02 -0.44461548011E+02 -0.57458607555E+02  0.74211979966E+02  0.00000000000E+00 0.  1.
         12    1    3    3    0    0  0.33222793302E+01 -0.85802313288E+02 -0.42965346068E+03  0.43814971275E+03  0.00000000000E+00 0. -1.
        -11    1    4    4    0    0  0.35729677314E+02  0.71566935292E+01 -0.11517879338E+02  0.38216353144E+02  0.00000000000E+00 0.  1.
         11    1    4    4    0    0  0.27946299765E+02  0.73711863208E+02 -0.18916711729E+03  0.20493567945E+03  0.00000000000E+00 0. -1.
          1    1    1    2  501    0 -0.82134211510E+02  0.49395304562E+02 -0.10566763280E+03  0.14265894096E+03  0.00000000000E+00 0. -1.
<scales pt_clust_5="13000.00000" pt_clust_6="13000.00000" pt_clust_7="13000.00000" pt_clust_8="13000.00000" pt_clust_9="95.84323"></scales>
<clustering>
<clus scale="   89.033">  5  6 -1 -1</clus>
<clus scale="   90.852">  7  8 -1 -1</clus>
<clus scale="   95.843">  1  9  2 -1</clus>
<clus scale="  143.473">  2  5  1 -1</clus>
<clus scale="   95.843">  1  5  2 -1</clus>
</clustering>
</event>
<event>
 9    2  0.4653788E-005  0.2460804E+03  0.7546771E-02  0.1116044E+00
         21   -1    0    0  501  502  0.00000000000E+00  0.00000000000E+00  0.10944235568E+03  0.10944235568E+03  0.00000000000E+00 0.  1.
         -1   -1    0    0    0  501 -0.00000000000E+00 -0.00000000000E+00 -0.11100919520E+04  0.11100919520E+04  0.00000000000E+00 0.  1.
         23    2    1    2    0    0 -0.60098677879E+02 -0.21653884777E+03 -0.82245522789E+03  0.85679709859E+03  0.84662521753E+02 0.  0.
         24    2    1    2    0    0  0.49157612984E+02  0.25704676135E+03 -0.14960611972E+03  0.31196432333E+03  0.80313383317E+02 0.  0.
        -13    1    4    4    0    0  0.13654528765E+02  0.21615239396E+03 -0.10012254971E+03  0.23860601109E+03  0.00000000000E+00 0.  1.
         14    1    4    4    0    0  0.35503084220E+02  0.40894367392E+02 -0.49483570014E+02  0.73358312241E+02  0.00000000000E+00 0. -1.
        -13    1    3    3    0    0 -0.42987085361E+02 -0.15114776732E+03 -0.41464238889E+03  0.44342062169E+03  0.00000000000E+00 0.  1.
         13    1    3    3    0    0 -0.17111592518E+02 -0.65391080445E+02 -0.40781283900E+03  0.41337647689E+03  0.00000000000E+00 0. -1.
         -2    1    1    2    0  502  0.10941064895E+02 -0.40507913579E+02 -0.28588248707E+02  0.50772885753E+02  0.00000000000E+00 0.  1.
<scales pt_clust_5="13000.00000" pt_clust_6="13000.00000" pt_clust_7="13000.00000" pt_clust_8="13000.00000" pt_clust_9="41.95948"></scales>
<clustering>
<clus scale="   41.959">  1  9  2 -1</clus>
<clus scale="   80.313">  5  6 -1 -1</clus>
<clus scale="   84.663">  7  8 -1 -1</clus>
<clus scale="  244.618">  1  5  2 -1</clus>
<clus scale="   41.959">  1  5  2 -1</clus>
</clustering>
</event>
<event>
 9    2  0.4653788E-005  0.1015665E+03  0.7546771E-02  0.1282419E+00
         21   -1    0    0  501  502  0.00000000000E+00  0.00000000000E+00  0.63529793836E+02  0.63529793836E+02  0.00000000000E+00 0. -1.
         -3   -1    0    0    0  501 -0.00000000000E+00 -0.00000000000E+00 -0.25608572619E+03  0.25608572619E+03  0.00000000000E+00 0.  1.
         24    2    1    2    0    0 -0.29893244933E+02  0.38878101603E+02 -0.16486882840E+03  0.19018167216E+03  0.81130912553E+02 0.  0.
         23    2    1    2    0    0  0.20044201360E+02 -0.11262122141E+02 -0.10805007588E+02  0.95601154229E+02  0.92164131297E+02 0.  0.
        -13    1    3    3    0    0  0.24637319682E+02  0.28371197202E+02 -0.49533946053E+02  0.62173420071E+02  0.00000000000E+00 0.  1.
         14    1    3    3    0    0 -0.54530564616E+02  0.10506904400E+02 -0.11533488234E+03  0.12800825209E+03  0.00000000000E+00 0. -1.
        -13    1    4    4    0    0 -0.31127007457E+02 -0.38616919100E+01 -0.27036279538E+02  0.41409705009E+02  0.00000000000E+00 0.  1.
         13    1    4    4    0    0  0.51171208818E+02 -0.74004302305E+01  0.16231271950E+02  0.54191449220E+02  0.00000000000E+00 0. -1.
         -4    1    1    2    0  502  0.98490435732E+01 -0.27615979462E+02 -0.16882096371E+02  0.33832693639E+02  0.00000000000E+00 0.  1.
<scales pt_clust_5="13000.00000" pt_clust_6="13000.00000" pt_clust_7="13000.00000" pt_clust_8="13000.00000" pt_clust_9="29.31972"></scales>
<clustering>
<clus scale="   29.320">  1  9  2 -1</clus>
<clus scale="   81.131">  5  6 -1 -1</clus>
<clus scale="   91.672">  2  5  1 -1</clus>
<clus scale="   92.164">  7  8 -1 -1</clus>
<clus scale="   29.320">  1  5  2 -1</clus>
</clustering>
</event>
<event>
 9    2  0.4653788E-005  0.9094360E+02  0.7546771E-02  0.1301105E+00
         21   -1    0    0  501  502  0.00000000000E+00  0.00000000000E+00  0.36536609305E+02  0.36536609305E+02  0.00000000000E+00 0.  1.
          2   -1    0    0  502    0 -0.00000000000E+00 -0.00000000000E+00 -0.52391212869E+03  0.52391212869E+03  0.00000000000E+00 0. -1.
         23    2    1    2    0    0 -0.17383369296E+02 -0.45769074738E+02 -0.24341145413E+03  0.26382058676E+03  0.89191794818E+02 0.  0.
         24    2    1    2    0    0 -0.22229387536E+02 -0.14432174649E+02 -0.16981541419E+03  0.19322900528E+03  0.88304814408E+02 0.  0.
        -13    1    4    4    0    0 -0.20096758910E+02 -0.32622440592E+02 -0.21797142996E+02  0.44081955397E+02  0.00000000000E+00 0.  1.
         14    1    4    4    0    0 -0.21326286264E+01  0.18190265942E+02 -0.14801827120E+03  0.14914704988E+03  0.00000000000E+00 0. -1.
        -13    1    3    3    0    0  0.22995877788E+02 -0.52367572373E+02 -0.10598135342E+03  0.12042931663E+03  0.00000000000E+00 0.  1.
         13    1    3    3    0    0 -0.40379247083E+02  0.65984976357E+01 -0.13743010072E+03  0.14339127013E+03  0.00000000000E+00 0. -1.
          1    1    1    2  501    0  0.39612756832E+02  0.60201249387E+02 -0.74148651059E+02  0.10339914596E+03  0.00000000000E+00 0. -1.
<scales pt_clust_5="13000.00000" pt_clust_6="13000.00000" pt_clust_7="13000.00000" pt_clust_8="13000.00000" pt_clust_9="72.06498"></scales>
<clustering>
<clus scale="   72.065">  1  9  2 -1</clus>
<clus scale="   88.305">  5  6 -1 -1</clus>
<clus scale="   89.192">  7  8 -1 -1</clus>
<clus scale="   90.074">  1  5  2 -1</clus>
<clus scale="   72.065">  1  5  2 -1</clus>
</clustering>
</event>
<event>
 9    2  0.4653788E-005  0.1448244E+03  0.7546771E-02  0.1228758E+00
         -3   -1    0    0    0  501 -0.00000000000E+00  0.00000000000E+00  0.55016915720E+03  0.55016915720E+03  0.00000000000E+00 0.  1.
         21   -1    0    0  501  502  0.00000000000E+00 -0.00000000000E+00 -0.13821942921E+03  0.13821942921E+03  0.00000000000E+00 0.  1.
         24    2    1    2    0    0 -0.42758213420E+02  0.25641200265E+02  0.13454108795E+03  0.16271985969E+03  0.76750976706E+02 0.  0.
         23    2    1    2    0    0 -0.78746722207E+02 -0.29431420804E+01  0.35973160928E+03  0.37715703529E+03  0.81430278230E+02 0.  0.
        -11    1    3    3    0    0 -0.49614777649E+02 -0.75437506437E+01  0.10991793427E+03  0.12083247332E+03  0.00000000000E+00 0.  1.
         12    1    3    3    0    0  0.68565642290E+01  0.33184950908E+02  0.24623153684E+02  0.41887386373E+02  0.00000000000E+00 0. -1.
        -11    1    4    4    0    0  0.46126030728E+01  0.23830841240E+02  0.55459724189E+02  0.60538963556E+02  0.00000000000E+00 0. -1.
         11    1    4    4    0    0 -0.83359325280E+02 -0.26773983321E+02  0.30427188509E+03  0.31661807174E+03  0.00000000000E+00 0.  1.
         -4    1    1    2    0  502  0.12150493563E+03 -0.22698058184E+02 -0.82322969242E+02  0.14851169143E+03  0.00000000000E+00 0.  1.
<scales pt_clust_5="13000.00000" pt_clust_6="13000.00000" pt_clust_7="13000.00000" pt_clust_8="13000.00000" pt_clust_9="119.76315"></scales>
<clustering>
<clus scale="   76.751">  5  6 -1 -1</clus>
<clus scale="   81.430">  7  8 -1 -1</clus>
<clus scale="   91.523">  1  5  2 -1</clus>
<clus scale="  119.763">  2  9  1 -1</clus>
<clus scale="  119.763">  2  5  1 -1</clus>
</clustering>
</event>
<event>
 9    2  0.4653788E-005  0.9055178E+02  0.7546771E-02  0.1302285E+00
         21   -1    0    0  501  502  0.00000000000E+00  0.00000000000E+00  0.46513508471E+02  0.46513508471E+02  0.00000000000E+00 0.  1.
         -1   -1    0    0    0  501 -0.00000000000E+00 -0.00000000000E+00 -0.46863543194E+03  0.46863543194E+03  0.00000000000E+00 0.  1.
         23    2    1    2    0    0 -0.30405329290E+02 -0.13942125131E+02 -0.26402779247E+03  0.27910208978E+03  0.84073981835E+02 0.  0.
         24    2    1    2    0    0  0.20134516741E+02  0.31336264601E+02 -0.18283858215E+03  0.20410419043E+03  0.82711626656E+02 0.  0.
        -13    1    4    4    0    0 -0.16959250130E+02  0.35808916629E+02 -0.39391269533E+02  0.55870983440E+02  0.00000000000E+00 0.  1.
         14    1    4    4    0    0  0.37093766872E+02 -0.44726520281E+01 -0.14344731262E+03  0.14823320699E+03  0.00000000000E+00 0. -1.
        -11    1    3    3    0    0 -0.21686250578E+02 -0.46834325249E+02 -0.11210522153E+03  0.12341526721E+03  0.00000000000E+00 0.  1.
         11    1    3    3    0    0 -0.87190787123E+01  0.32892200118E+02 -0.15192257094E+03  0.15568682257E+03  0.00000000000E+00 0. -1.
         -2    1    1    2    0  502  0.10270812549E+02 -0.17394139470E+02  0.24744451148E+02  0.31942660204E+02  0.00000000000E+00 0.  1.
<scales pt_clust_5="13000.00000" pt_clust_6="13000.00000" pt_clust_7="13000.00000" pt_clust_8="13000.00000" pt_clust_9="20.20014"></scales>
<clustering>
<clus scale="   20.200">  1  9  2 -1</clus>
<clus scale="   82.712">  5  6 -1 -1</clus>
<clus scale="   84.074">  7  8 -1 -1</clus>
<clus scale="   89.288">  1  5  2 -1</clus>
<clus scale="   20.200">  1  5  2 -1</clus>
</clustering>
</event>
<event>
 9    2  0.6334168E-005  0.1109559E+03  0.7546771E-02  0.1264828E+00
         -1   -1    0    0    0  501 -0.00000000000E+00  0.00000000000E+00  0.40036248843E+03  0.40036248843E+03  0.00000000000E+00 0.  1.
         21   -1    0    0  501  502  0.00000000000E+00 -0.00000000000E+00 -0.79864821848E+02  0.79864821848E+02  0.00000000000E+00 0. -1.
         24    2    1    2    0    0 -0.53841277322E+02  0.13101247974E+02  0.31786717401E+03  0.33286397130E+03  0.81782377296E+02 0.  0.
         23    2    1    2    0    0  0.46082304140E+02 -0.33335498907E+02  0.26684565907E+02  0.11498703561E+03  0.96307414351E+02 0.  0.
        -13    1    3    3    0    0 -0.71749643864E+02  0.73759107801E+01  0.29266118546E+03  0.30141828897E+03  0.00000000000E+00 0.  1.
         14    1    3    3    0    0  0.17908366542E+02  0.57253371944E+01  0.25205988550E+02  0.31445682327E+02  0.00000000000E+00 0. -1.
        -13    1    4    4    0    0 -0.10408887545E+02  0.23476384344E+02  0.23493835537E+02  0.34805830977E+02  0.00000000000E+00 0.  1.
         13    1    4    4    0    0  0.56491191685E+02 -0.56811883250E+02  0.31907303694E+01  0.80181204635E+02  0.00000000000E+00 0. -1.
         -2    1    1    2    0  502  0.77589731815E+01  0.20234250932E+02 -0.24054073334E+02  0.32376303365E+02  0.00000000000E+00 0.  1.
<scales pt_clust_5="13000.00000" pt_clust_6="13000.00000" pt_clust_7="13000.00000" pt_clust_8="13000.00000" pt_clust_9="21.67087"></scales>
<clustering>
<clus scale="   21.671">  2  9  1 -1</clus>
<clus scale="   81.782">  5  6 -1 -1</clus>
<clus scale="   96.307">  7  8 -1 -1</clus>
<clus scale="   98.613">  1  5  2 -1</clus>
<clus scale="   21.671">  2  5  1 -1</clus>
</clustering>
</event>
<event>
 9    2  0.4653788E-005  0.1632896E+03  0.7546771E-02  0.1209681E+00
         -1   -1    0    0    0  501 -0.00000000000E+00  0.00000000000E+00  0.14425007675E+03  0.14425007675E+03  0.00000000000E+00 0.  1.
         21   -1    0    0  501  502  0.00000000000E+00 -0.00000000000E+00 -0.13219812511E+04  0.13219812511E+04  0.00000000000E+00 0.  1.
         24    2    1    2    0    0 -0.33340594923E+02  0.38317056255E+02 -0.19772620265E+03  0.21952177625E+03  0.80711628427E+02 0.  0.
         23    2    1    2    0    0 -0.10142389490E+03 -0.52697238767E+02  0.87208865549E+02  0.17092442817E+03  0.92444407536E+02 0.  0.
        -11    1    3    3    0    0 -0.58053852689E+02  0.39730169904E+02 -0.13885306661E+03  0.15565638542E+03  0.00000000000E+00 0.  1.
         12    1    3    3    0    0  0.24713257766E+02 -0.14131136489E+01 -0.58873136036E+02  0.63865390833E+02  0.00000000000E+00 0. -1.
        -13    1    4    4    0    0 -0.40650268441E+02  0.10266329449E+02  0.70215600994E+02  0.81780636263E+02  0.00000000000E+00 0.  1.
         13    1    4    4    0    0 -0.60773626455E+02 -0.62963568216E+02  0.16993264555E+02  0.89143791905E+02  0.00000000000E+00 0. -1.
         -2    1    1    2    0  502  0.13476448982E+03  0.14380182512E+02 -0.10672138372E+04  0.10757851234E+04  0.00000000000E+00 0.  1.
<scales pt_clust_5="13000.00000" pt_clust_6="13000.00000" pt_clust_7="13000.00000" pt_clust_8="13000.00000" pt_clust_9="134.60141"></scales>
<clustering>
<clus scale="   80.712">  5  6 -1 -1</clus>
<clus scale="   92.444">  7  8 -1 -1</clus>
<clus scale="   95.363">  1  5  2 -1</clus>
<clus scale="  134.601">  2  9  1 -1</clus>
<clus scale="  134.601">  2  5  1 -1</clus>
</clustering>
</event>
<event>
 9    2  0.4653788E-005  0.1672091E+03  0.7546771E-02  0.1182114E+00
         21   -1    0    0  501  502  0.00000000000E+00  0.00000000000E+00  0.39447353956E+03  0.39447353956E+03  0.00000000000E+00 0.  1.
          4   -1    0    0  502    0 -0.00000000000E+00 -0.00000000000E+00 -0.34013405615E+03  0.34013405615E+03  0.00000000000E+00 0. -1.
         23    2    1    2    0    0  0.13536310774E+03  0.25509265211E+02 -0.15531856670E+03  0.22634380439E+03  0.90187399765E+02 0.  0.
         24    2    1    2    0    0 -0.17234538845E+03 -0.10230728411E+02  0.33019513769E+03  0.38125862507E+03  0.80757101941E+02 0.  0.
        -11    1    4    4    0    0 -0.14061027687E+03 -0.37919516218E+02  0.28100984240E+03  0.31650540468E+03  0.00000000000E+00 0.  1.
         12    1    4    4    0    0 -0.31735111585E+02  0.27688787807E+02  0.49185295291E+02  0.64753220387E+02  0.00000000000E+00 0. -1.
        -11    1    3    3    0    0  0.64193622615E+02 -0.28320431270E+02 -0.97102249271E+02  0.11979864284E+03  0.00000000000E+00 0.  1.
         11    1    3    3    0    0  0.71169485125E+02  0.53829696481E+02 -0.58216317432E+02  0.10654516156E+03  0.00000000000E+00 0. -1.
          3    1    1    2  501    0  0.36982280713E+02 -0.15278536800E+02 -0.12053708757E+03  0.12700516625E+03  0.00000000000E+00 0. -1.
<scales pt_clust_5="13000.00000" pt_clust_6="13000.00000" pt_clust_7="13000.00000" pt_clust_8="13000.00000" pt_clust_9="40.01405"></scales>
<clustering>
<clus scale="   40.014">  1  9  2 -1</clus>
<clus scale="   80.757">  5  6 -1 -1</clus>
<clus scale="   90.187">  7  8 -1 -1</clus>
<clus scale="  162.317">  1  5  2 -1</clus>
<clus scale="   40.014">  1  5  2 -1</clus>
</clustering>
</event>
<event>
 9    2  0.4653788E-005  0.1311465E+03  0.7546771E-02  0.1249132E+00
          2   -1    0    0  502    0 -0.00000000000E+00  0.00000000000E+00  0.97034994039E+03  0.97034994039E+03  0.00000000000E+00 0. -1.
         21   -1    0    0  501  502  0.00000000000E+00 -0.00000000000E+00 -0.29131748495E+02  0.29131748495E+02  0.00000000000E+00 0.  1.
         24    2    1    2    0    0  0.62395245543E+00  0.14382357554E+02  0.44706448765E+03  0.45441902065E+03  0.80142053124E+02 0.  0.
         23    2    1    2    0    0 -0.12395620893E+02  0.87963134870E+02  0.24669407582E+03  0.27701521032E+03  0.89377263279E+02 0.  0.
        -13    1    3    3    0    0 -0.32158001779E+02 -0.71363185865E+00  0.90760116096E+02  0.96291458721E+02  0.00000000000E+00 0.  1.
         14    1    3    3    0    0  0.32781954234E+02  0.15095989413E+02  0.35630437156E+03  0.35812756193E+03  0.00000000000E+00 0. -1.
        -11    1    4    4    0    0 -0.41014337781E+02  0.89668149470E+01  0.80548522228E+02  0.90833056246E+02  0.00000000000E+00 0. -1.
         11    1    4    4    0    0  0.28618716888E+02  0.78996319923E+02  0.16614555359E+03  0.18618215408E+03  0.00000000000E+00 0.  1.
          1    1    1    2  501    0  0.11771668438E+02 -0.10234549242E+03  0.24745962842E+03  0.26804745792E+03  0.00000000000E+00 0. -1.
<scales pt_clust_5="13000.00000" pt_clust_6="13000.00000" pt_clust_7="13000.00000" pt_clust_8="13000.00000" pt_clust_9="95.97454"></scales>
<clustering>
<clus scale="   80.142">  5  6 -1 -1</clus>
<clus scale="   81.425">  1  5  2 -1</clus>
<clus scale="   89.377">  7  8 -1 -1</clus>
<clus scale="   95.975">  2  9  1 -1</clus>
<clus scale="   95.975">  2  5  1 -1</clus>
</clustering>
</event>
<event>
 9    2  0.4653788E-005  0.1062568E+03  0.7546771E-02  0.1271165E+00
         -1   -1    0    0    0  501 -0.00000000000E+00  0.00000000000E+00  0.20377487554E+03  0.20377487554E+03  0.00000000000E+00 0.  1.
         21   -1    0    0  501  502  0.00000000000E+00 -0.00000000000E+00 -0.12495829639E+03  0.12495829639E+03  0.00000000000E+00 0. -1.
         24    2    1    2    0    0 -0.25455760480E+02 -0.59459279282E+02  0.11649764457E+03  0.15723629315E+03  0.83475439840E+02 0.  0.
         23    2    1    2    0    0  0.14426240133E+02  0.27906091739E+01 -0.58965504056E+02  0.10996626999E+03  0.91650128000E+02 0.  0.
        -11    1    3    3    0    0 -0.29944649911E+02 -0.33562140797E+02  0.12230980529E+03  0.13031802570E+03  0.00000000000E+00 0.  1.
         12    1    3    3    0    0  0.44888894314E+01 -0.25897138485E+02 -0.58121607130E+01  0.26918267445E+02  0.00000000000E+00 0. -1.
        -11    1    4    4    0    0 -0.11566807286E+02  0.37132236374E+02 -0.25308691677E+01  0.38974341658E+02  0.00000000000E+00 0.  1.
         11    1    4    4    0    0  0.25993047419E+02 -0.34341627200E+02 -0.56434634889E+02  0.70991928329E+02  0.00000000000E+00 0. -1.
         -2    1    1    2    0  502  0.11029520346E+02  0.56668670108E+02  0.21284438627E+02  0.61530608794E+02  0.00000000000E+00 0.  1.
<scales pt_clust_5="13000.00000" pt_clust_6="13000.00000" pt_clust_7="13000.00000" pt_clust_8="13000.00000" pt_clust_9="57.73207"></scales>
<clustering>
<clus scale="   57.732">  2  9  1 -1</clus>
<clus scale="   83.475">  5  6 -1 -1</clus>
<clus scale="   91.650">  7  8 -1 -1</clus>
<clus scale="   99.292">  1  5  2 -1</clus>
<clus scale="   57.732">  2  5  1 -1</clus>
</clustering>
</event>
<event>
 9    2  0.4653788E-005  0.1200077E+03  0.7546771E-02  0.1247346E+00
          4   -1    0    0  502    0 -0.00000000000E+00  0.00000000000E+00  0.80310531873E+03  0.80310531873E+03  0.00000000000E+00 0. -1.
         21   -1    0    0  501  502  0.00000000000E+00 -0.00000000000E+00 -0.43774858667E+02  0.43774858667E+02  0.00000000000E+00 0.  1.
         24    2    1    2    0    0  0.39812296024E+02  0.58609730183E+02  0.58603321451E+03  0.59569714435E+03  0.80000249279E+02 0.  0.
         23    2    1    2    0    0 -0.71083887814E+02 -0.73082773570E+02  0.16607257438E+03  0.21597540161E+03  0.93119617915E+02 0.  0.
        -11    1    3    3    0    0  0.24443147811E+02 -0.94186499250E+01  0.66003560346E+02  0.71011607640E+02  0.00000000000E+00 0.  1.
         12    1    3    3    0    0  0.15369148213E+02  0.68028380108E+02  0.52002965417E+03  0.52468553671E+03  0.00000000000E+00 0. -1.
        -11    1    4    4    0    0 -0.90459355446E+02 -0.53947243355E+02  0.15305262787E+03  0.18579103033E+03  0.00000000000E+00 0.  1.
         11    1    4    4    0    0  0.19375467632E+02 -0.19135530215E+02  0.13019946510E+02  0.30184371282E+02  0.00000000000E+00 0. -1.
          3    1    1    2  501    0  0.31271591791E+02  0.14473043387E+02  0.72246711729E+01  0.35207631439E+02  0.00000000000E+00 0. -1.
<scales pt_clust_5="13000.00000" pt_clust_6="13000.00000" pt_clust_7="13000.00000" pt_clust_8="13000.00000" pt_clust_9="34.45840"></scales>
<clustering>
<clus scale="   34.458">  2  9  1 -1</clus>
<clus scale="   80.000">  5  6 -1 -1</clus>
<clus scale="   93.120">  7  8 -1 -1</clus>
<clus scale="  110.139">  1  5  2 -1</clus>
<clus scale="   34.458">  2  5  1 -1</clus>
</clustering>
</event>
<event>
 9    2  0.4653788E-005  0.1270889E+03  0.7546771E-02  0.1234061E+00
         21   -1    0    0  501  502  0.00000000000E+00  0.00000000000E+00  0.23882937903E+03  0.23882937903E+03  0.00000000000E+00 0.  1.
          2   -1    0    0  502    0 -0.00000000000E+00 -0.00000000000E+00 -0.15799692723E+03  0.15799692723E+03  0.00000000000E+00 0. -1.
         23    2    1    2    0    0 -0.32833133988E+02  0.82427723039E+02 -0.89420432625E+02  0.15689277340E+03  0.93525314008E+02 0.  0.
         24    2    1    2    0    0  0.44964166921E+02 -0.65606835140E+02  0.67241636723E+02  0.13485536490E+03  0.85665037268E+02 0.  0.
        -13    1    4    4    0    0 -0.18060231493E+02 -0.14051840817E+02  0.44942001140E+02  0.50432228370E+02  0.00000000000E+00 0.  1.
         14    1    4    4    0    0  0.63024398413E+02 -0.51554994323E+02  0.22299635583E+02  0.84423136533E+02  0.00000000000E+00 0. -1.
        -11    1    3    3    0    0  0.17498504788E+02  0.42549079440E+02 -0.79588906415E+02  0.91929406913E+02  0.00000000000E+00 0. -1.
         11    1    3    3    0    0 -0.50331638777E+02  0.39878643600E+02 -0.98315262098E+01  0.64963366484E+02  0.00000000000E+00 0.  1.
          1    1    1    2  501    0 -0.12131032932E+02 -0.16820887899E+02  0.10301124770E+03  0.10507816797E+03  0.00000000000E+00 0. -1.
<scales pt_clust_5="13000.00000" pt_clust_6="13000.00000" pt_clust_7="13000.00000" pt_clust_8="13000.00000" pt_clust_9="20.73895"></scales>
<clustering>
<clus scale="   20.739">  1  9  2 -1</clus>
<clus scale="   85.665">  5  6 -1 -1</clus>
<clus scale="   93.525">  7  8 -1 -1</clus>
<clus scale="  121.421">  1  5  2 -1</clus>
<clus scale="   20.739">  1  5  2 -1</clus>
</clustering>
</event>
<event>
 9    2  0.4653788E-005  0.1245310E+03  0.7546771E-02  0.1244463E+00
         21   -1    0    0  501  502  0.00000000000E+00  0.00000000000E+00  0.25259896904E+03  0.25259896904E+03  0.00000000000E+00 0.  1.
         -3   -1    0    0    0  501 -0.00000000000E+00 -0.00000000000E+00 -0.83788657524E+02  0.83788657524E+02  0.00000000000E+00 0.  1.
         23    2    1    2    0    0 -0.26872213585E+02  0.54705745121E+02  0.74494008207E+01  0.12111450253E+03  0.10439537700E+03 0.  0.
         24    2    1    2    0    0  0.27329670944E+02 -0.80695950742E+02  0.13421541222E+03  0.17768884351E+03  0.79377584043E+02 0.  0.
        -13    1    4    4    0    0 -0.24054428612E+01 -0.82378114374E+02  0.75117123881E+02  0.11151018870E+03  0.00000000000E+00 0.  1.
         14    1    4    4    0    0  0.29735113805E+02  0.16821636314E+01  0.59098288342E+02  0.66178654810E+02  0.00000000000E+00 0. -1.
        -13    1    3    3    0    0  0.91082072805E+01  0.77625367034E+02  0.28906784598E+01  0.78211335937E+02  0.00000000000E+00 0.  1.
         13    1    3    3    0    0 -0.35980420865E+02 -0.22919621913E+02  0.45587223609E+01  0.42903166594E+02  0.00000000000E+00 0. -1.
         -4    1    1    2    0  502 -0.45745735938E+00  0.25990205621E+02  0.27145498477E+02  0.37584280531E+02  0.00000000000E+00 0.  1.
<scales pt_clust_5="13000.00000" pt_clust_6="13000.00000" pt_clust_7="13000.00000" pt_clust_8="13000.00000" pt_clust_9="25.99423"></scales>
<clustering>
<clus scale="   25.994">  1  9  2 -1</clus>
<clus scale="   79.378">  5  6 -1 -1</clus>
<clus scale="  104.395">  7  8 -1 -1</clus>
<clus scale="  104.453">  1  5  2 -1</clus>
<clus scale="   25.994">  1  5  2 -1</clus>
</clustering>
</event>
<event>
 9    2  0.4653788E-005  0.1044431E+03  0.7546771E-02  0.1277753E+00
          2   -1    0    0  502    0 -0.00000000000E+00  0.00000000000E+00  0.82638497751E+03  0.82638497751E+03  0.00000000000E+00 0. -1.
         21   -1    0    0  501  502  0.00000000000E+00 -0.00000000000E+00 -0.29097377626E+02  0.29097377626E+02  0.00000000000E+00 0. -1.
         24    2    1    2    0    0  0.59990539675E+02 -0.15495825736E+01  0.46489029575E+03  0.47541104665E+03  0.79318409839E+02 0.  0.
         23    2    1    2    0    0 -0.24656677301E+01 -0.48856763331E+02  0.16149236680E+03  0.19283240172E+03  0.93335351175E+02 0.  0.
        -11    1    3    3    0    0  0.33814075558E+02 -0.39879129942E+02  0.21674806481E+03  0.22296515493E+03  0.00000000000E+00 0.  1.
         12    1    3    3    0    0  0.26176464118E+02  0.38329547368E+02  0.24814223094E+03  0.25244589173E+03  0.00000000000E+00 0. -1.
        -13    1    4    4    0    0 -0.21209324702E+02  0.98338904645E+01  0.11023676250E+03  0.11268844068E+03  0.00000000000E+00 0.  1.
         13    1    4    4    0    0  0.18743656972E+02 -0.58690653795E+02  0.51255604297E+02  0.80143961042E+02  0.00000000000E+00 0. -1.
          1    1    1    2  501    0 -0.57524871945E+02  0.50406345905E+02  0.17090493733E+03  0.18723890676E+03  0.00000000000E+00 0. -1.
<scales pt_clust_5="13000.00000" pt_clust_6="13000.00000" pt_clust_7="13000.00000" pt_clust_8="13000.00000" pt_clust_9="76.48471"></scales>
<clustering>
<clus scale="   76.485">  2  9  1 -1</clus>
<clus scale="   79.318">  5  6 -1 -1</clus>
<clus scale="   92.132">  1  5  2 -1</clus>
<clus scale="   93.335">  7  8 -1 -1</clus>
<clus scale="   76.485">  2  5  1 -1</clus>
</clustering>
</event>
<event>
 9    2  0.4653788E-005  0.3696674E+03  0.7546771E-02  0.1054829E+00
          2   -1    0    0  502    0 -0.00000000000E+00  0.00000000000E+00  0.59592024340E+03  0.59592024340E+03  0.00000000000E+00 0. -1.
         21   -1    0    0  501  502  0.00000000000E+00 -0.00000000000E+00 -0.43922990878E+03  0.43922990878E+03  0.00000000000E+00 0. -1.
         23    2    1    2    0    0 -0.19504121561E+03  0.17560214695E+03 -0.66378653884E+02  0.28407293842E+03  0.86105277708E+02 0.  0.
         24    2    1    2    0    0  0.43406394032E+03 -0.17920209526E+03  0.13368158953E+03  0.49586175646E+03  0.86505600449E+02 0.  0.
        -13    1    4    4    0    0  0.19372867083E+03 -0.11356476672E+03  0.94617853577E+02  0.24368071807E+03  0.00000000000E+00 0.  1.
         14    1    4    4    0    0  0.24033526949E+03 -0.65637328539E+02  0.39063735952E+02  0.25218103839E+03  0.00000000000E+00 0. -1.
        -11    1    3    3    0    0 -0.11513116094E+03  0.14785395167E+03 -0.68324781090E+02  0.19945989811E+03  0.00000000000E+00 0. -1.
         11    1    3    3    0    0 -0.79910054666E+02  0.27748195279E+02  0.19461272060E+01  0.84613040301E+02  0.00000000000E+00 0.  1.
          1    1    1    2  501    0 -0.23902272471E+03  0.35999483126E+01  0.89387398969E+02  0.25521545731E+03  0.00000000000E+00 0. -1.
<scales pt_clust_5="13000.00000" pt_clust_6="13000.00000" pt_clust_7="13000.00000" pt_clust_8="13000.00000" pt_clust_9="239.04995"></scales>
<clustering>
<clus scale="   86.105">  7  8 -1 -1</clus>
<clus scale="   86.506">  5  6 -1 -1</clus>
<clus scale="  239.050">  2  9  1 -1</clus>
<clus scale="  369.574">  1  7  2 -1</clus>
<clus scale="  239.050">  2  5  1 -1</clus>
</clustering>
</event>
<event>
 9    2  0.4653788E-005  0.1196512E+03  0.7546771E-02  0.1247315E+00
          2   -1    0    0  502    0 -0.00000000000E+00  0.00000000000E+00  0.71371466338E+03  0.71371466338E+03  0.00000000000E+00 0. -1.
         21   -1    0    0  501  502  0.00000000000E+00 -0.00000000000E+00 -0.58110723568E+02  0.58110723568E+02  0.00000000000E+00 0.  1.
         23    2    1    2    0    0 -0.26856004591E+02  0.75405525373E+02  0.30767354853E+03  0.33084974505E+03  0.91604056118E+02 0.  0.
         24    2    1    2    0    0  0.11474695605E+03 -0.11827563526E+02  0.10657842246E+03  0.17636696964E+03  0.80247072609E+02 0.  0.
        -13    1    4    4    0    0  0.10360794056E+03 -0.33921816446E+02  0.62090930116E+02  0.12546146253E+03  0.00000000000E+00 0.  1.
         14    1    4    4    0    0  0.11139015490E+02  0.22094252920E+02  0.44487492347E+02  0.50905507104E+02  0.00000000000E+00 0. -1.
        -11    1    3    3    0    0  0.29101756139E+02  0.31306101965E+01  0.93852893015E+02  0.98311130895E+02  0.00000000000E+00 0.  1.
         11    1    3    3    0    0 -0.55957760730E+02  0.72274915177E+02  0.21382065551E+03  0.23253861416E+03  0.00000000000E+00 0. -1.
          1    1    1    2  501    0 -0.87890951460E+02 -0.63577961847E+02  0.24135196882E+03  0.26460867226E+03  0.00000000000E+00 0. -1.
<scales pt_clust_5="13000.00000" pt_clust_6="13000.00000" pt_clust_7="13000.00000" pt_clust_8="13000.00000" pt_clust_9="108.47575"></scales>
<clustering>
<clus scale="   80.247">  5  6 -1 -1</clus>
<clus scale="   91.604">  7  8 -1 -1</clus>
<clus scale="  108.476">  2  9  1 -1</clus>
<clus scale="  111.197">  2  5  1 -1</clus>
<clus scale="  108.476">  2  5  1 -1</clus>
</clustering>
</event>
<event>
 9    2  0.4653788E-005  0.1150256E+03  0.7546771E-02  0.1255142E+00
         21   -1    0    0  501  502  0.00000000000E+00  0.00000000000E+00  0.22489398683E+03  0.22489398683E+03  0.00000000000E+00 0. -1.
         -3   -1    0    0    0  501 -0.00000000000E+00 -0.00000000000E+00 -0.96701454113E+02  0.96701454113E+02  0.00000000000E+00 0.  1.
         23    2    1    2    0    0  0.23871666869E+02  0.76494492625E+02 -0.10772108214E+02  0.12139851386E+03  0.90555491117E+02 0.  0.
         24    2    1    2    0    0 -0.34742211483E+02 -0.46827812332E+02  0.61884937029E+02  0.11689289709E+03  0.80214329715E+02 0.  0.
        -13    1    4    4    0    0 -0.16728778236E+02 -0.19018804977E+02 -0.17556444640E+02  0.30818755854E+02  0.00000000000E+00 0.  1.
         14    1    4    4    0    0 -0.18013433247E+02 -0.27809007356E+02  0.79441381669E+02  0.86074141232E+02  0.00000000000E+00 0. -1.
        -13    1    3    3    0    0  0.20798702222E+02  0.30301967470E+02 -0.49075552100E+02  0.61312356508E+02  0.00000000000E+00 0.  1.
         13    1    3    3    0    0  0.30729646462E+01  0.46192525155E+02  0.38303443886E+02  0.60086157353E+02  0.00000000000E+00 0. -1.
         -4    1    1    2    0  502  0.10870544615E+02 -0.29666680293E+02  0.77079703898E+02  0.83304029992E+02  0.00000000000E+00 0.  1.
<scales pt_clust_5="13000.00000" pt_clust_6="13000.00000" pt_clust_7="13000.00000" pt_clust_8="13000.00000" pt_clust_9="31.59558"></scales>
<clustering>
<clus scale="   31.596">  1  9  2 -1</clus>
<clus scale="   80.214">  5  6 -1 -1</clus>
<clus scale="   90.555">  7  8 -1 -1</clus>
<clus scale="  107.074">  1  5  2 -1</clus>
<clus scale="   31.596">  1  5  2 -1</clus>
</clustering>
</event>
<event>
 9    2  0.4653788E-005  0.8708169E+02  0.7546771E-02  0.1313591E+00
         21   -1    0    0  501  502  0.00000000000E+00  0.00000000000E+00  0.32411112490E+03  0.32411112490E+03  0.00000000000E+00 0. -1.
          2   -1    0    0  502    0 -0.00000000000E+00 -0.00000000000E+00 -0.24801837691E+03  0.24801837691E+03  0.00000000000E+00 0. -1.
         23    2    1    2    0    0 -0.77520294955E+01  0.14372477323E+02 -0.22232580567E+03  0.23882024460E+03  0.85671951635E+02 0.  0.
         24    2    1    2    0    0 -0.25706231449E+02 -0.17725149057E+02  0.99481933006E+02  0.13155080096E+03  0.80212012783E+02 0.  0.
        -11    1    4    4    0    0 -0.90009791184E+01 -0.19907565980E+02  0.10969507031E+03  0.11184961895E+03  0.00000000000E+00 0.  1.
         12    1    4    4    0    0 -0.16705252331E+02  0.21824169229E+01 -0.10213137306E+02  0.19701182013E+02  0.00000000000E+00 0. -1.
        -13    1    3    3    0    0 -0.24631576037E+02  0.43304886673E+02 -0.96362337485E+02  0.10847915852E+03  0.00000000000E+00 0. -1.
         13    1    3    3    0    0  0.16879546542E+02 -0.28932409351E+02 -0.12596346819E+03  0.13034108608E+03  0.00000000000E+00 0.  1.
          1    1    1    2  501    0  0.33458260945E+02  0.33526717346E+01  0.19893662065E+03  0.20175845626E+03  0.00000000000E+00 0. -1.
<scales pt_clust_5="13000.00000" pt_clust_6="13000.00000" pt_clust_7="13000.00000" pt_clust_8="13000.00000" pt_clust_9="33.62582"></scales>
<clustering>
<clus scale="   33.626">  1  9  2 -1</clus>
<clus scale="   80.212">  5  6 -1 -1</clus>
<clus scale="   81.716">  1  5  2 -1</clus>
<clus scale="   85.672">  7  8 -1 -1</clus>
<clus scale="   33.626">  1  5  2 -1</clus>
</clustering>
</event>
<event>
 9    2  0.4653788E-005  0.1870638E+03  0.7546771E-02  0.1162232E+00
          4   -1    0    0  502    0 -0.00000000000E+00  0.00000000000E+00  0.15136462123E+03  0.15136462123E+03  0.00000000000E+00 0. -1.
         21   -1    0    0  501  502  0.00000000000E+00 -0.00000000000E+00 -0.27619690487E+03  0.27619690487E+03  0.00000000000E+00 0.  1.
         23    2    1    2    0    0  0.43916941444E+02  0.14519294889E+03 -0.34241767155E+02  0.18008043288E+03  0.90811747794E+02 0.  0.
         24    2    1    2    0    0 -0.45618930323E+02 -0.17483609704E+03 -0.90945096418E+02  0.21778700751E+03  0.80693385381E+02 0.  0.
        -13    1    4    4    0    0 -0.35859416106E+02 -0.18920558682E+02 -0.28444920376E+02  0.49527757465E+02  0.00000000000E+00 0.  1.
         14    1    4    4    0    0 -0.97595142167E+01 -0.15591553836E+03 -0.62500176042E+02  0.16825925004E+03  0.00000000000E+00 0. -1.
        -11    1    3    3    0    0  0.51533680427E+02  0.58338013853E+02 -0.48530261670E+02  0.91729114116E+02  0.00000000000E+00 0.  1.
         11    1    3    3    0    0 -0.76167389835E+01  0.86854935035E+02  0.14288494515E+02  0.88351318769E+02  0.00000000000E+00 0. -1.
          3    1    1    2  501    0  0.17019888792E+01  0.29643148155E+02  0.35457992782E+00  0.29694085701E+02  0.00000000000E+00 0. -1.
<scales pt_clust_5="13000.00000" pt_clust_6="13000.00000" pt_clust_7="13000.00000" pt_clust_8="13000.00000" pt_clust_9="29.69198"></scales>
<clustering>
<clus scale="   29.692">  2  9  1 -1</clus>
<clus scale="   80.693">  5  6 -1 -1</clus>
<clus scale="   90.812">  7  8 -1 -1</clus>
<clus scale="  182.366">  2  5  1 -1</clus>
<clus scale="   29.692">  2  5  1 -1</clus>
</clustering>
</event>
<event>
 9    2  0.4653788E-005  0.1020003E+03  0.7546771E-02  0.1281171E+00
         21   -1    0    0  501  502  0.00000000000E+00  0.00000000000E+00  0.55673654454E+02  0.55673654454E+02  0.00000000000E+00 0. -1.
          4   -1    0    0  502    0 -0.00000000000E+00 -0.00000000000E+00 -0.39303168072E+03  0.39303168072E+03  0.00000000000E+00 0. -1.
         24    2    1    2    0    0 -0.16183462461E+02 -0.51504645837E+02 -0.23082162989E+03  0.25060564241E+03  0.81301477124E+02 0.  0.
         23    2    1    2    0    0 -0.30217495330E+02  0.16953992978E+02 -0.30870028421E+02  0.10285161805E+03  0.91787590551E+02 0.  0.
        -13    1    3    3    0    0  0.83500281915E+01 -0.67556254532E+02 -0.16860061489E+03  0.18182336989E+03  0.00000000000E+00 0.  1.
         14    1    3    3    0    0 -0.24533490652E+02  0.16051608695E+02 -0.62221014999E+02  0.68782272518E+02  0.00000000000E+00 0. -1.
        -11    1    4    4    0    0 -0.29782845398E+02 -0.16663248844E+02  0.21705922422E+02  0.40445380580E+02  0.00000000000E+00 0. -1.
         11    1    4    4    0    0 -0.43464993212E+00  0.33617241822E+02 -0.52575950843E+02  0.62406237471E+02  0.00000000000E+00 0.  1.
          3    1    1    2  501    0  0.46400957791E+02  0.34550652859E+02 -0.75666367956E+02  0.95248074713E+02  0.00000000000E+00 0. -1.
<scales pt_clust_5="13000.00000" pt_clust_6="13000.00000" pt_clust_7="13000.00000" pt_clust_8="13000.00000" pt_clust_9="57.85153"></scales>
<clustering>
<clus scale="   57.852">  1  9  2 -1</clus>
<clus scale="   81.301">  5  6 -1 -1</clus>
<clus scale="   91.788">  7  8 -1 -1</clus>
<clus scale="   92.677">  2  5  1 -1</clus>
<clus scale="   57.852">  1  5  2 -1</clus>
</clustering>
</event>
<event>
 9    2  0.4653788E-005  0.1171286E+03  0.7546771E-02  0.1251397E+00
         -3   -1    0    0    0  501 -0.00000000000E+00  0.00000000000E+00  0.87504237802E+02  0.87504237802E+02  0.00000000000E+00 0.  1.
         21   -1    0    0  501  502  0.00000000000E+00 -0.00000000000E+00 -0.21491283640E+03  0.21491283640E+03  0.00000000000E+00 0. -1.
         23    2    1    2    0    0  0.30661880148E+02 -0.81383392999E+02 -0.12028206124E+02  0.12612850498E+03  0.90555587766E+02 0.  0.
         24    2    1    2    0    0 -0.27554148917E+02  0.46115842153E+02 -0.95308264810E+02  0.13559030826E+03  0.80094721009E+02 0.  0.
        -11    1    4    4    0    0 -0.20580231957E+02  0.40549867235E+02 -0.60349534747E+01  0.45872195758E+02  0.00000000000E+00 0.  1.
         12    1    4    4    0    0 -0.69739169594E+01  0.55659749184E+01 -0.89273311336E+02  0.89718112505E+02  0.00000000000E+00 0. -1.
        -13    1    3    3    0    0 -0.27554333457E+02 -0.46550172656E+01  0.48043445572E+01  0.28354756296E+02  0.00000000000E+00 0. -1.
         13    1    3    3    0    0  0.58216213605E+02 -0.76728375734E+02 -0.16832550681E+02  0.97773748684E+02  0.00000000000E+00 0.  1.
         -4    1    1    2    0  502 -0.31077312317E+01  0.35267550846E+02 -0.20072127662E+02  0.40698260957E+02  0.00000000000E+00 0.  1.
<scales pt_clust_5="13000.00000" pt_clust_6="13000.00000" pt_clust_7="13000.00000" pt_clust_8="13000.00000" pt_clust_9="35.40421"></scales>
<clustering>
<clus scale="   35.404">  2  9  1 -1</clus>
<clus scale="   80.095">  5  6 -1 -1</clus>
<clus scale="   90.556">  7  8 -1 -1</clus>
<clus scale="  109.243">  2  5  1 -1</clus>
<clus scale="   35.404">  2  5  1 -1</clus>
</clustering>
</event>
<event>
 9    2  0.4653788E-005  0.9521709E+02  0.7546771E-02  0.1297848E+00
         21   -1    0    0  501  502  0.00000000000E+00  0.00000000000E+00  0.13894637660E+03  0.13894637660E+03  0.00000000000E+00 0.  1.
         -3   -1    0    0    0  501 -0.00000000000E+00 -0.00000000000E+00 -0.16403072986E+03  0.16403072986E+03  0.00000000000E+00 0.  1.
         23    2    1    2    0    0  0.55905476208E+02 -0.14603404548E+01 -0.64028642108E+02  0.12591621929E+03  0.92885264744E+02 0.  0.
         24    2    1    2    0    0  0.26718365606E+02  0.40705526785E+01 -0.13777767936E+01  0.85085991563E+02  0.80667758315E+02 0.  0.
        -13    1    4    4    0    0  0.36048525875E+02  0.36506401467E+02 -0.17023903333E+01  0.51333339057E+02  0.00000000000E+00 0.  1.
         14    1    4    4    0    0 -0.93301602693E+01 -0.32435848788E+02  0.32461353967E+00  0.33752652507E+02  0.00000000000E+00 0. -1.
        -13    1    3    3    0    0  0.11133753849E+02 -0.44407244710E+02 -0.20700889182E+02  0.50244309831E+02  0.00000000000E+00 0. -1.
         13    1    3    3    0    0  0.44771722358E+02  0.42946904255E+02 -0.43327752926E+02  0.75671909462E+02  0.00000000000E+00 0.  1.
         -4    1    1    2    0  502 -0.82623841814E+02 -0.26102122237E+01  0.40322065638E+02  0.91974895603E+02  0.00000000000E+00 0.  1.
<scales pt_clust_5="13000.00000" pt_clust_6="13000.00000" pt_clust_7="13000.00000" pt_clust_8="13000.00000" pt_clust_9="82.66506"></scales>
<clustering>
<clus scale="   80.668">  5  6 -1 -1</clus>
<clus scale="   82.665">  1  9  2 -1</clus>
<clus scale="   83.342">  1  5  2 -1</clus>
<clus scale="   92.885">  7  8 -1 -1</clus>
<clus scale="   82.665">  1  5  2 -1</clus>
</clustering>
</event>
<event>
 9    2  0.4653788E-005  0.9232168E+02  0.7546771E-02  0.1310571E+00
         -3   -1    0    0    0  501 -0.00000000000E+00  0.00000000000E+00  0.41831879348E+03  0.41831879348E+03  0.00000000000E+00 0.  1.
         21   -1    0    0  501  502  0.00000000000E+00 -0.00000000000E+00 -0.10513602667E+03  0.10513602667E+03  0.00000000000E+00 0.  1.
         23    2    1    2    0    0 -0.21151278385E+02  0.26265374428E+01  0.37646686877E+03  0.38748780247E+03  0.89248072858E+02 0.  0.
         24    2    1    2    0    0  0.43884942632E+02 -0.59944944839E+01 -0.15584595364E+02  0.83019821773E+02  0.68465969946E+02 0.  0.
        -11    1    4    4    0    0  0.12619649362E+02  0.27584682597E+02  0.80846112861E+01  0.31393171290E+02  0.00000000000E+00 0.  1.
         12    1    4    4    0    0  0.31265293270E+02 -0.33579177081E+02 -0.23669206650E+02  0.51626650483E+02  0.00000000000E+00 0. -1.
        -11    1    3    3    0    0 -0.40639042303E+02  0.32990240881E+02  0.16945113141E+03  0.17735155395E+03  0.00000000000E+00 0.  1.
         11    1    3    3    0    0  0.19487763918E+02 -0.30363703438E+02  0.20701573736E+03  0.21013624852E+03  0.00000000000E+00 0. -1.
         -4    1    1    2    0  502 -0.22733664247E+02  0.33679570411E+01 -0.47699506599E+02  0.52947195908E+02  0.00000000000E+00 0.  1.
<scales pt_clust_5="13000.00000" pt_clust_6="13000.00000" pt_clust_7="13000.00000" pt_clust_8="13000.00000" pt_clust_9="22.98179"></scales>
<clustering>
<clus scale="   22.982">  2  9  1 -1</clus>
<clus scale="   68.466">  5  6 -1 -1</clus>
<clus scale="   72.427">  2  5  1 -1</clus>
<clus scale="   89.248">  7  8 -1 -1</clus>
<clus scale="   22.982">  2  5  1 -1</clus>
</clustering>
</event>
<event>
 9    2  0.4653788E-005  0.5358077E+03  0.7546771E-02  0.1004833E+00
         21   -1    0    0  501  502  0.00000000000E+00  0.00000000000E+00  0.28285356129E+03  0.28285356129E+03  0.00000000000E+00 0.  1.
          2   -1    0    0  502    0 -0.00000000000E+00 -0.00000000000E+00 -0.10727731479E+04  0.10727731479E+04  0.00000000000E+00 0. -1.
         24    2    1    2    0    0 -0.33058716370E+03  0.27370775379E+02 -0.13701237555E+03  0.36919467044E+03  0.86575293691E+02 0.  0.
         23    2    1    2    0    0 -0.15811924953E+03  0.40749517052E+02 -0.30553512429E+02  0.19220382294E+03  0.96677671785E+02 0.  0.
        -11    1    3    3    0    0 -0.28854662570E+03  0.26361067450E+02 -0.14852095157E+03  0.32559566050E+03  0.00000000000E+00 0.  1.
         12    1    3    3    0    0 -0.42040537998E+02  0.10097079292E+01  0.11508576025E+02  0.43599009935E+02  0.00000000000E+00 0. -1.
        -13    1    4    4    0    0 -0.10903008518E+03 -0.19497033847E+02 -0.69175506665E+01  0.11097543111E+03  0.00000000000E+00 0.  1.
         13    1    4    4    0    0 -0.49089164350E+02  0.60246550899E+02 -0.23635961762E+02  0.81228391835E+02  0.00000000000E+00 0. -1.
          1    1    1    2  501    0  0.48870641323E+03 -0.68120292431E+02 -0.62235369859E+03  0.79422821577E+03  0.00000000000E+00 0. -1.
<scales pt_clust_5="13000.00000" pt_clust_6="13000.00000" pt_clust_7="13000.00000" pt_clust_8="13000.00000" pt_clust_9="493.43143"></scales>
<clustering>
<clus scale="   86.575">  5  6 -1 -1</clus>
<clus scale="   96.678">  7  8 -1 -1</clus>
<clus scale="  111.554">  5  7 -1 -1</clus>
<clus scale="  493.431">  1  9  2 -1</clus>
<clus scale="  493.431">  1  5  2 -1</clus>
</clustering>
</event>
<event>
 9    2  0.4653788E-005  0.1174898E+03  0.7546771E-02  0.1251111E+00
         21   -1    0    0  501  502  0.00000000000E+00  0.00000000000E+00  0.39355801049E+03  0.39355801049E+03  0.00000000000E+00 0.  1.
          4   -1    0    0  502    0 -0.00000000000E+00 -0.00000000000E+00 -0.12595277745E+03  0.12595277745E+03  0.00000000000E+00 0. -1.
         23    2    1    2    0    0 -0.67655867814E+02 -0.19141520388E+02 -0.75739042259E+02  0.13853777550E+03  0.92263744048E+02 0.  0.
         24    2    1    2    0    0  0.90345004353E+02  0.39733683820E+02  0.31214004706E+03  0.33724043909E+03  0.80985920622E+02 0.  0.
        -13    1    4    4    0    0  0.97167730348E+02  0.14367168398E+02  0.27272774971E+03  0.28987654064E+03  0.00000000000E+00 0.  1.
         14    1    4    4    0    0 -0.68227259947E+01  0.25366515421E+02  0.39412297348E+02  0.47363898455E+02  0.00000000000E+00 0. -1.
        -11    1    3    3    0    0 -0.23201236709E+02 -0.43997940653E+01  0.20651641073E+02  0.31371098987E+02  0.00000000000E+00 0.  1.
         11    1    3    3    0    0 -0.44454631105E+02 -0.14741726323E+02 -0.96390683332E+02  0.10716667651E+03  0.00000000000E+00 0. -1.
          3    1    1    2  501    0 -0.22689136539E+02 -0.20592163432E+02  0.31204228246E+02  0.43732573353E+02  0.00000000000E+00 0. -1.
<scales pt_clust_5="13000.00000" pt_clust_6="13000.00000" pt_clust_7="13000.00000" pt_clust_8="13000.00000" pt_clust_9="30.64040"></scales>
<clustering>
<clus scale="   30.640">  1  9  2 -1</clus>
<clus scale="   80.986">  5  6 -1 -1</clus>
<clus scale="   92.264">  7  8 -1 -1</clus>
<clus scale="  108.858">  1  5  2 -1</clus>
<clus scale="   30.640">  1  5  2 -1</clus>
</clustering>
</event>
<event>
 9    2  0.4653788E-005  0.1489159E+03  0.7546771E-02  0.1202335E+00
         21   -1    0    0  501  502  0.00000000000E+00  0.00000000000E+00  0.33238316865E+02  0.33238316865E+02  0.00000000000E+00 0. -1.
          2   -1    0    0  502    0 -0.00000000000E+00 -0.00000000000E+00 -0.13047874990E+04  0.13047874990E+04  0.00000000000E+00 0. -1.
         24    2    1    2    0    0  0.60303050815E+01 -0.13089262812E+03 -0.98016851505E+03  0.99213782897E+03  0.80236582111E+02 0.  0.
         23    2    1    2    0    0  0.32103720030E+02  0.10456979164E+03 -0.17265678310E+03  0.21844209163E+03  0.77078482596E+02 0.  0.
        -11    1    3    3    0    0 -0.23981694265E+02 -0.94909237137E+02 -0.48653056866E+03  0.49628104860E+03  0.00000000000E+00 0.  1.
         12    1    3    3    0    0  0.30011999346E+02 -0.35983390986E+02 -0.49363794638E+03  0.49585678037E+03  0.00000000000E+00 0. -1.
        -13    1    4    4    0    0 -0.21119940768E+02  0.85040638416E+01 -0.19488467058E+02  0.29969506972E+02  0.00000000000E+00 0.  1.
         13    1    4    4    0    0  0.53223660799E+02  0.96065727802E+02 -0.15316831604E+03  0.18847258466E+03  0.00000000000E+00 0. -1.
          1    1    1    2  501    0 -0.38134025112E+02  0.26322836479E+02 -0.11872388399E+03  0.12744589527E+03  0.00000000000E+00 0. -1.
<scales pt_clust_5="13000.00000" pt_clust_6="13000.00000" pt_clust_7="13000.00000" pt_clust_8="13000.00000" pt_clust_9="46.33676"></scales>
<clustering>
<clus scale="   46.337">  1  9  2 -1</clus>
<clus scale="   77.078">  7  8 -1 -1</clus>
<clus scale="   80.237">  5  6 -1 -1</clus>
<clus scale="  147.238">  1  7  2 -1</clus>
<clus scale="   46.337">  1  5  2 -1</clus>
</clustering>
</event>
<event>
 9    2  0.4653788E-005  0.1152756E+03  0.7546771E-02  0.1260537E+00
         21   -1    0    0  501  502  0.00000000000E+00  0.00000000000E+00  0.68424867085E+02  0.68424867085E+02  0.00000000000E+00 0. -1.
         -3   -1    0    0    0  501 -0.00000000000E+00 -0.00000000000E+00 -0.22795674086E+03  0.22795674086E+03  0.00000000000E+00 0.  1.
         24    2    1    2    0    0 -0.60965201535E+01  0.23840782836E+02 -0.11133956644E+03  0.14620828314E+03  0.91514001761E+02 0.  0.
         23    2    1    2    0    0 -0.13091645031E+02 -0.37449155343E+02 -0.39738896475E+02  0.12517665222E+03  0.11187575234E+03 0.  0.
        -11    1    3    3    0    0  0.38569048540E+02  0.30035352724E+01 -0.22881668107E+02  0.44946228593E+02  0.00000000000E+00 0.  1.
         12    1    3    3    0    0 -0.44665568693E+02  0.20837247564E+02 -0.88457898335E+02  0.10126205454E+03  0.00000000000E+00 0. -1.
        -13    1    4    4    0    0 -0.10735877371E+02 -0.59234216253E+02 -0.67084603743E+02  0.90134873924E+02  0.00000000000E+00 0.  1.
         13    1    4    4    0    0 -0.23557676594E+01  0.21785060909E+02  0.27345707268E+02  0.35041778295E+02  0.00000000000E+00 0. -1.
         -4    1    1    2    0  502  0.19188165184E+02  0.13608372507E+02 -0.84534108607E+01  0.24996672591E+02  0.00000000000E+00 0.  1.
<scales pt_clust_5="13000.00000" pt_clust_6="13000.00000" pt_clust_7="13000.00000" pt_clust_8="13000.00000" pt_clust_9="23.52389"></scales>
<clustering>
<clus scale="   23.524">  1  9  2 -1</clus>
<clus scale="   91.514">  5  6 -1 -1</clus>
<clus scale="   95.640">  2  5  1 -1</clus>
<clus scale="  111.876">  7  8 -1 -1</clus>
<clus scale="   23.524">  1  5  2 -1</clus>
</clustering>
</event>
<event>
 9    2  0.4653788E-005  0.1694872E+03  0.7546771E-02  0.1179856E+00
          2   -1    0    0  502    0 -0.00000000000E+00  0.00000000000E+00  0.44063749151E+03  0.44063749151E+03  0.00000000000E+00 0. -1.
         21   -1    0    0  501  502  0.00000000000E+00 -0.00000000000E+00 -0.13670343668E+03  0.13670343668E+03  0.00000000000E+00 0. -1.
         24    2    1    2    0    0 -0.84316250580E+02  0.80719714586E+02  0.90133045602E+02  0.16784457524E+03  0.80143203663E+02 0.  0.
         23    2    1    2    0    0  0.46121642597E+02 -0.19929248389E+03  0.12372374645E+03  0.25576853188E+03  0.90913565614E+02 0.  0.
        -11    1    3    3    0    0  0.14033126312E+02  0.20759391278E+02  0.25558224585E+02  0.35792510449E+02  0.00000000000E+00 0.  1.
         12    1    3    3    0    0 -0.98349376891E+02  0.59960323308E+02  0.64574821018E+02  0.13205206479E+03  0.00000000000E+00 0. -1.
        -13    1    4    4    0    0  0.63742598108E+02 -0.10381987005E+03  0.41991157541E+02  0.12886016274E+03  0.00000000000E+00 0. -1.
         13    1    4    4    0    0 -0.17620955511E+02 -0.95472613846E+02  0.81732588911E+02  0.12690836914E+03  0.00000000000E+00 0.  1.
          1    1    1    2  501    0  0.38194607983E+02  0.11857276931E+03  0.90077262770E+02  0.15372782106E+03  0.00000000000E+00 0. -1.
<scales pt_clust_5="13000.00000" pt_clust_6="13000.00000" pt_clust_7="13000.00000" pt_clust_8="13000.00000" pt_clust_9="124.57265"></scales>
<clustering>
<clus scale="   80.143">  5  6 -1 -1</clus>
<clus scale="   90.914">  7  8 -1 -1</clus>
<clus scale="  124.573">  2  9  1 -1</clus>
<clus scale="  163.962">  1  5  2 -1</clus>
<clus scale="  124.573">  2  5  1 -1</clus>
</clustering>
</event>
<event>
 9    2  0.4653788E-005  0.9722039E+02  0.7546771E-02  0.1300273E+00
         21   -1    0    0  501  502  0.00000000000E+00  0.00000000000E+00  0.98187684011E+02  0.98187684011E+02  0.00000000000E+00 0.  1.
          2   -1    0    0  502    0 -0.00000000000E+00 -0.00000000000E+00 -0.19681770737E+03  0.19681770737E+03  0.00000000000E+00 0. -1.
         24    2    1    2    0    0  0.36163062400E+02  0.18049246253E+02 -0.50863637602E+02  0.93927766454E+02  0.67836371575E+02 0.  0.
         23    2    1    2    0    0  0.84742448914E+01 -0.19413287730E+02  0.40115310592E+02  0.10250002928E+03  0.91914793644E+02 0.  0.
        -11    1    3    3    0    0  0.37751990785E+02  0.36098548725E+02 -0.15986630769E+02  0.54624997864E+02  0.00000000000E+00 0.  1.
         12    1    3    3    0    0 -0.15889283852E+01 -0.18049302473E+02 -0.34877006833E+02  0.39302768589E+02  0.00000000000E+00 0. -1.
        -13    1    4    4    0    0  0.43237731900E+02 -0.17285880299E+02 -0.34866544963E+01  0.46695394603E+02  0.00000000000E+00 0. -1.
         13    1    4    4    0    0 -0.34763487009E+02 -0.21274074311E+01  0.43601965089E+02  0.55804634673E+02  0.00000000000E+00 0.  1.
          1    1    1    2  501    0 -0.44637307291E+02  0.13640414774E+01 -0.87881696352E+02  0.98577595655E+02  0.00000000000E+00 0. -1.
<scales pt_clust_5="13000.00000" pt_clust_6="13000.00000" pt_clust_7="13000.00000" pt_clust_8="13000.00000" pt_clust_9="44.65817"></scales>
<clustering>
<clus scale="   44.658">  1  9  2 -1</clus>
<clus scale="   67.836">  5  6 -1 -1</clus>
<clus scale="   74.868">  2  5  1 -1</clus>
<clus scale="   91.915">  7  8 -1 -1</clus>
<clus scale="   44.658">  1  5  2 -1</clus>
</clustering>
</event>
<event>
 9    2  0.4653788E-005  0.9490373E+02  0.7546771E-02  0.1298177E+00
         21   -1    0    0  501  502  0.00000000000E+00  0.00000000000E+00  0.36717618387E+03  0.36717618387E+03  0.00000000000E+00 0. -1.
          2   -1    0    0  502    0 -0.00000000000E+00 -0.00000000000E+00 -0.23234140215E+03  0.23234140215E+03  0.00000000000E+00 0. -1.
         23    2    1    2    0    0 -0.13088047392E+02 -0.24007921427E+02 -0.13281509866E+03  0.16526557886E+03  0.94473191163E+02 0.  0.
         24    2    1    2    0    0 -0.21369135587E+01 -0.18411713938E+02 -0.59552871266E+02  0.10395991584E+03  0.83171882356E+02 0.  0.
        -11    1    4    4    0    0  0.92211376581E+01 -0.30189897445E+02  0.95235030021E+01  0.32972054787E+02  0.00000000000E+00 0.  1.
         12    1    4    4    0    0 -0.11358051217E+02  0.11778183507E+02 -0.69076374268E+02  0.70987861048E+02  0.00000000000E+00 0. -1.
        -13    1    3    3    0    0  0.12035899733E+02 -0.36852453295E+02 -0.13141480677E+03  0.13701393227E+03  0.00000000000E+00 0.  1.
         13    1    3    3    0    0 -0.25123947125E+02  0.12844531869E+02 -0.14002918910E+01  0.28251646597E+02  0.00000000000E+00 0. -1.
          1    1    1    2  501    0  0.15224960951E+02  0.42419635365E+02  0.32720275165E+03  0.33029209132E+03  0.00000000000E+00 0. -1.
<scales pt_clust_5="13000.00000" pt_clust_6="13000.00000" pt_clust_7="13000.00000" pt_clust_8="13000.00000" pt_clust_9="45.06911"></scales>
<clustering>
<clus scale="   45.069">  1  9  2 -1</clus>
<clus scale="   83.172">  5  6 -1 -1</clus>
<clus scale="   83.661">  1  5  2 -1</clus>
<clus scale="   94.473">  7  8 -1 -1</clus>
<clus scale="   45.069">  1  5  2 -1</clus>
</clustering>
</event>
<event>
 9    2  0.4653788E-005  0.5393666E+03  0.7546771E-02  0.1054349E+00
         21   -1    0    0  501  502  0.00000000000E+00  0.00000000000E+00  0.62486967494E+03  0.62486967494E+03  0.00000000000E+00 0. -1.
          2   -1    0    0  502    0 -0.00000000000E+00 -0.00000000000E+00 -0.10400343406E+04  0.10400343406E+04  0.00000000000E+00 0. -1.
         23    2    1    2    0    0 -0.63303854139E+02  0.15318221135E+02 -0.17695533709E+03  0.21414932942E+03  0.10151215749E+03 0.  0.
         24    2    1    2    0    0 -0.31281627076E+03 -0.40116904961E+03 -0.60831299347E+03  0.79705450036E+03  0.80377564694E+02 0.  0.
        -11    1    4    4    0    0 -0.16179600068E+03 -0.26382518761E+03 -0.33740075301E+03  0.45784379824E+03  0.00000000000E+00 0.  1.
         12    1    4    4    0    0 -0.15102027009E+03 -0.13734386200E+03 -0.27091224046E+03  0.33921070213E+03  0.00000000000E+00 0. -1.
        -11    1    3    3    0    0 -0.51479923514E+02 -0.39268363312E+02 -0.96397239576E+02  0.11612327364E+03  0.00000000000E+00 0.  1.
         11    1    3    3    0    0 -0.11823930625E+02  0.54586584446E+02 -0.80558097511E+02  0.98026055779E+02  0.00000000000E+00 0. -1.
          1    1    1    2  501    0  0.37612012490E+03  0.38585082848E+03  0.37010366485E+03  0.65370018581E+03  0.00000000000E+00 0. -1.
<scales pt_clust_5="13000.00000" pt_clust_6="13000.00000" pt_clust_7="13000.00000" pt_clust_8="13000.00000" pt_clust_9="533.34399"></scales>
<clustering>
<clus scale="   80.378">  5  6 -1 -1</clus>
<clus scale="  101.512">  7  8 -1 -1</clus>
<clus scale="  120.610">  2  7  1 -1</clus>
<clus scale="  533.344">  1  9  2 -1</clus>
<clus scale="  533.344">  1  5  2 -1</clus>
</clustering>
</event>
<event>
 9    2  0.4653788E-005  0.1528746E+03  0.7546771E-02  0.1220517E+00
          4   -1    0    0  502    0 -0.00000000000E+00  0.00000000000E+00  0.14221912981E+03  0.14221912981E+03  0.00000000000E+00 0. -1.
         21   -1    0    0  501  502  0.00000000000E+00 -0.00000000000E+00 -0.28161922991E+03  0.28161922991E+03  0.00000000000E+00 0. -1.
         23    2    1    2    0    0  0.13721908555E+02  0.14512831050E+02  0.13597297236E+02  0.93383635340E+02  0.90203679624E+02 0.  0.
         24    2    1    2    0    0  0.90548479811E+02 -0.92673951353E+02 -0.39803004043E+02  0.15784404890E+03  0.80888665377E+02 0.  0.
        -13    1    4    4    0    0  0.95346005107E+02 -0.97284316135E+02 -0.50474699787E+02  0.14526800809E+03  0.00000000000E+00 0.  1.
         14    1    4    4    0    0 -0.47975252956E+01  0.46103647827E+01  0.10671695743E+02  0.12576040809E+02  0.00000000000E+00 0. -1.
        -11    1    3    3    0    0 -0.31108265518E+02 -0.18123472537E+02  0.11857036572E+02  0.37904798596E+02  0.00000000000E+00 0.  1.
         11    1    3    3    0    0  0.44830174073E+02  0.32636303587E+02  0.17402606645E+01  0.55478836744E+02  0.00000000000E+00 0. -1.
          3    1    1    2  501    0 -0.10427038837E+03  0.78161120303E+02 -0.11319439329E+03  0.17261067548E+03  0.00000000000E+00 0. -1.
<scales pt_clust_5="13000.00000" pt_clust_6="13000.00000" pt_clust_7="13000.00000" pt_clust_8="13000.00000" pt_clust_9="129.72155"></scales>
<clustering>
<clus scale="   80.889">  5  6 -1 -1</clus>
<clus scale="   90.204">  7  8 -1 -1</clus>
<clus scale="   92.388">  1  7  2 -1</clus>
<clus scale="  129.722">  2  9  1 -1</clus>
<clus scale="  129.722">  2  5  1 -1</clus>
</clustering>
</event>
<event>
 9    2  0.4653788E-005  0.1074570E+03  0.7546771E-02  0.1269740E+00
         21   -1    0    0  501  502  0.00000000000E+00  0.00000000000E+00  0.83401048055E+02  0.83401048055E+02  0.00000000000E+00 0. -1.
         -1   -1    0    0    0  501 -0.00000000000E+00 -0.00000000000E+00 -0.37244655730E+03  0.37244655730E+03  0.00000000000E+00 0.  1.
         23    2    1    2    0    0  0.34249171342E+02  0.43786641449E+02 -0.29262293467E+03  0.31216959575E+03  0.93441954746E+02 0.  0.
         24    2    1    2    0    0  0.83226225092E+01 -0.53017217023E+02  0.10527277834E+02  0.99566088247E+02  0.83201508424E+02 0.  0.
        -11    1    4    4    0    0  0.94974666579E+01 -0.54260478289E+02 -0.27453015985E+02  0.61547294528E+02  0.00000000000E+00 0.  1.
         12    1    4    4    0    0 -0.11748441486E+01  0.12432612658E+01  0.37980293819E+02  0.38018793720E+02  0.00000000000E+00 0. -1.
        -13    1    3    3    0    0 -0.47923766386E+01  0.49461670317E+02 -0.24657437385E+03  0.25153199705E+03  0.00000000000E+00 0. -1.
         13    1    3    3    0    0  0.39041547980E+02 -0.56750288684E+01 -0.46048560829E+02  0.60637598697E+02  0.00000000000E+00 0.  1.
         -2    1    1    2    0  502 -0.42571793851E+02  0.92305755740E+01 -0.69498524005E+01  0.44111921353E+02  0.00000000000E+00 0.  1.
<scales pt_clust_5="13000.00000" pt_clust_6="13000.00000" pt_clust_7="13000.00000" pt_clust_8="13000.00000" pt_clust_9="43.56101"></scales>
<clustering>
<clus scale="   43.561">  1  9  2 -1</clus>
<clus scale="   83.202">  5  6 -1 -1</clus>
<clus scale="   93.442">  7  8 -1 -1</clus>
<clus scale="   98.682">  1  5  2 -1</clus>
<clus scale="   43.561">  1  5  2 -1</clus>
</clustering>
</event>
<event>
 9    2  0.4653788E-005  0.3308066E+03  0.7546771E-02  0.1106539E+00
         21   -1    0    0  501  502  0.00000000000E+00  0.00000000000E+00  0.23950360144E+03  0.23950360144E+03  0.00000000000E+00 0.  1.
         -1   -1    0    0    0  501 -0.00000000000E+00 -0.00000000000E+00 -0.91371160770E+03  0.91371160770E+03  0.00000000000E+00 0.  1.
         23    2    1    2    0    0  0.78601032403E+02  0.41907940223E+02 -0.42444881087E+03  0.44338761396E+03  0.92202957726E+02 0.  0.
         24    2    1    2    0    0 -0.35822849136E+03 -0.96037754273E+02 -0.14825269311E+03  0.40746171983E+03  0.80593361063E+02 0.  0.
        -11    1    4    4    0    0 -0.29106778944E+03 -0.45545114332E+02 -0.12682597512E+03  0.32074856734E+03  0.00000000000E+00 0.  1.
         12    1    4    4    0    0 -0.67160701923E+02 -0.50492639941E+02 -0.21426717986E+02  0.86713152489E+02  0.00000000000E+00 0. -1.
        -11    1    3    3    0    0  0.11456330535E+02  0.30966154878E+02 -0.35290569407E+02  0.48327782344E+02  0.00000000000E+00 0.  1.
         11    1    3    3    0    0  0.67144701868E+02  0.10941785345E+02 -0.38915824147E+03  0.39505983162E+03  0.00000000000E+00 0. -1.
         -2    1    1    2    0  502  0.27962745896E+03  0.54129814050E+02 -0.10150650228E+03  0.30236587535E+03  0.00000000000E+00 0.  1.
<scales pt_clust_5="13000.00000" pt_clust_6="13000.00000" pt_clust_7="13000.00000" pt_clust_8="13000.00000" pt_clust_9="320.83904"></scales>
<clustering>
<clus scale="   80.593">  5  6 -1 -1</clus>
<clus scale="   92.203">  7  8 -1 -1</clus>
<clus scale="  128.202">  2  7  1 -1</clus>
<clus scale="  320.839">  1  9  2 -1</clus>
<clus scale="  320.839">  1  5  2 -1</clus>
</clustering>
</event>
<event>
 9    2  0.4653788E-005  0.9232858E+02  0.7546771E-02  0.1297542E+00
         -1   -1    0    0    0  501 -0.00000000000E+00  0.00000000000E+00  0.39457400338E+02  0.39457400338E+02  0.00000000000E+00 0.  1.
         21   -1    0    0  501  502  0.00000000000E+00 -0.00000000000E+00 -0.55755244322E+03  0.55755244322E+03  0.00000000000E+00 0. -1.
         23    2    1    2    0    0 -0.82775764026E+01  0.45158080962E+02 -0.20994404808E+03  0.23313288794E+03  0.90369627463E+02 0.  0.
         24    2    1    2    0    0  0.28946466877E+02  0.38446785540E+02 -0.20880489577E+03  0.23239834851E+03  0.89963629460E+02 0.  0.
        -13    1    4    4    0    0 -0.14757638487E+02  0.53700311302E+02 -0.11053442290E+03  0.12377144248E+03  0.00000000000E+00 0.  1.
         14    1    4    4    0    0  0.43704105364E+02 -0.15253525761E+02 -0.98270472871E+02  0.10862690602E+03  0.00000000000E+00 0. -1.
        -11    1    3    3    0    0 -0.36572020317E+02 -0.11223384178E+02 -0.81759179585E+02  0.90266496935E+02  0.00000000000E+00 0. -1.
         11    1    3    3    0    0  0.28294443915E+02  0.56381465140E+02 -0.12818486850E+03  0.14286639101E+03  0.00000000000E+00 0.  1.
         -2    1    1    2    0  502 -0.20668890474E+02 -0.83604866502E+02 -0.99346099028E+02  0.13147860711E+03  0.00000000000E+00 0.  1.
<scales pt_clust_5="13000.00000" pt_clust_6="13000.00000" pt_clust_7="13000.00000" pt_clust_8="13000.00000" pt_clust_9="86.12191"></scales>
<clustering>
<clus scale="   86.122">  2  9  1 -1</clus>
<clus scale="   89.964">  5  6 -1 -1</clus>
<clus scale="   90.370">  7  8 -1 -1</clus>
<clus scale="   91.931">  2  5  1 -1</clus>
<clus scale="   86.122">  2  5  1 -1</clus>
</clustering>
</event>
<event>
 9    2  0.4653788E-005  0.1281250E+03  0.7546771E-02  0.1232977E+00
         21   -1    0    0  501  502  0.00000000000E+00  0.00000000000E+00  0.30005235103E+03  0.30005235103E+03  0.00000000000E+00 0.  1.
          2   -1    0    0  502    0 -0.00000000000E+00 -0.00000000000E+00 -0.19500179363E+03  0.19500179363E+03  0.00000000000E+00 0. -1.
         23    2    1    2    0    0 -0.90870668488E+02 -0.13747681459E+02 -0.61655755871E+02  0.14376565645E+03  0.91764124823E+02 0.  0.
         24    2    1    2    0    0  0.77928703110E+02 -0.27859849029E+02  0.23960743554E+03  0.26635760638E+03  0.81765502244E+02 0.  0.
        -11    1    4    4    0    0  0.78367493216E+02 -0.45747907123E+02  0.22700944280E+03  0.24447417475E+03  0.00000000000E+00 0.  1.
         12    1    4    4    0    0 -0.43879010598E+00  0.17888058094E+02  0.12597992742E+02  0.21883431638E+02  0.00000000000E+00 0. -1.
        -13    1    3    3    0    0 -0.60482077145E+02 -0.52761710919E+02 -0.34671176952E+02  0.87429802162E+02  0.00000000000E+00 0. -1.
         13    1    3    3    0    0 -0.30388591343E+02  0.39014029460E+02 -0.26984578919E+02  0.56335854284E+02  0.00000000000E+00 0.  1.
          1    1    1    2  501    0  0.12941965378E+02  0.41607530488E+02 -0.72901122268E+02  0.84930881834E+02  0.00000000000E+00 0. -1.
<scales pt_clust_5="13000.00000" pt_clust_6="13000.00000" pt_clust_7="13000.00000" pt_clust_8="13000.00000" pt_clust_9="43.57388"></scales>
<clustering>
<clus scale="   43.574">  1  9  2 -1</clus>
<clus scale="   81.766">  5  6 -1 -1</clus>
<clus scale="   91.764">  7  8 -1 -1</clus>
<clus scale="  121.165">  1  5  2 -1</clus>
<clus scale="   43.574">  1  5  2 -1</clus>
</clustering>
</event>
<event>
 9    2  0.4653788E-005  0.1438125E+03  0.7546771E-02  0.1210382E+00
         21   -1    0    0  501  502  0.00000000000E+00  0.00000000000E+00  0.69566534428E+02  0.69566534428E+02  0.00000000000E+00 0. -1.
          2   -1    0    0  502    0 -0.00000000000E+00 -0.00000000000E+00 -0.98025354610E+03  0.98025354610E+03  0.00000000000E+00 0. -1.
         24    2    1    2    0    0 -0.97580822025E+02 -0.57030498841E+02 -0.81612806475E+03  0.82783871630E+03  0.80482467011E+02 0.  0.
         23    2    1    2    0    0  0.10668721238E+03  0.18986850420E+02 -0.11079529986E+03  0.17962732443E+03  0.90816933651E+02 0.  0.
        -13    1    3    3    0    0 -0.45538669434E+02 -0.59358398026E+02 -0.30411121204E+03  0.31317857385E+03  0.00000000000E+00 0.  1.
         14    1    3    3    0    0 -0.52042152591E+02  0.23278991850E+01 -0.51201685272E+03  0.51466014245E+03  0.00000000000E+00 0. -1.
        -11    1    4    4    0    0  0.35577319157E+02  0.17956228947E+02  0.84944119789E+01  0.40747108257E+02  0.00000000000E+00 0.  1.
         11    1    4    4    0    0  0.71109893221E+02  0.10306214736E+01 -0.11928971184E+03  0.13888021617E+03  0.00000000000E+00 0. -1.
          1    1    1    2  501    0 -0.91063903531E+01  0.38043648420E+02  0.16236352942E+02  0.42354039798E+02  0.00000000000E+00 0. -1.
<scales pt_clust_5="13000.00000" pt_clust_6="13000.00000" pt_clust_7="13000.00000" pt_clust_8="13000.00000" pt_clust_9="39.11835"></scales>
<clustering>
<clus scale="   39.118">  1  9  2 -1</clus>
<clus scale="   80.482">  5  6 -1 -1</clus>
<clus scale="   90.817">  7  8 -1 -1</clus>
<clus scale="  137.520">  2  5  1 -1</clus>
<clus scale="   39.118">  1  5  2 -1</clus>
</clustering>
</event>
<event>
 9    2  0.4653788E-005  0.1059499E+03  0.7546771E-02  0.1273004E+00
         -1   -1    0    0    0  501 -0.00000000000E+00  0.00000000000E+00  0.47055676360E+02  0.47055676360E+02  0.00000000000E+00 0.  1.
         21   -1    0    0  501  502  0.00000000000E+00 -0.00000000000E+00 -0.31960865063E+03  0.31960865063E+03  0.00000000000E+00 0. -1.
         23    2    1    2    0    0  0.14788246168E+02 -0.42371418674E+02 -0.96308247388E+02  0.14015004934E+03  0.91393262714E+02 0.  0.
         24    2    1    2    0    0  0.79180728446E+01  0.68535849769E+02 -0.14673020400E+03  0.18100316430E+03  0.80452061125E+02 0.  0.
        -11    1    4    4    0    0  0.22705762072E+02  0.54079089923E+01 -0.32661972659E+01  0.23568308287E+02  0.00000000000E+00 0.  1.
         12    1    4    4    0    0 -0.14787689227E+02  0.63127940777E+02 -0.14346400673E+03  0.15743485601E+03  0.00000000000E+00 0. -1.
        -13    1    3    3    0    0  0.16433720697E+02 -0.69895244355E+02 -0.54825877883E+02  0.90339854134E+02  0.00000000000E+00 0. -1.
         13    1    3    3    0    0 -0.16454745295E+01  0.27523825681E+02 -0.41482369505E+02  0.49810195204E+02  0.00000000000E+00 0.  1.
         -2    1    1    2    0  502 -0.22706319012E+02 -0.26164431095E+02 -0.29514522882E+02  0.45511113352E+02  0.00000000000E+00 0.  1.
<scales pt_clust_5="13000.00000" pt_clust_6="13000.00000" pt_clust_7="13000.00000" pt_clust_8="13000.00000" pt_clust_9="34.64326"></scales>
<clustering>
<clus scale="   34.643">  2  9  1 -1</clus>
<clus scale="   80.452">  5  6 -1 -1</clus>
<clus scale="   91.393">  7  8 -1 -1</clus>
<clus scale="   96.670">  2  5  1 -1</clus>
<clus scale="   34.643">  2  5  1 -1</clus>
</clustering>
</event>
<event>
 9    2  0.4653788E-005  0.1605687E+03  0.7546771E-02  0.1197084E+00
         21   -1    0    0  501  502  0.00000000000E+00  0.00000000000E+00  0.73623822857E+02  0.73623822857E+02  0.00000000000E+00 0. -1.
          2   -1    0    0  502    0 -0.00000000000E+00 -0.00000000000E+00 -0.71598669861E+03  0.71598669861E+03  0.00000000000E+00 0. -1.
         23    2    1    2    0    0 -0.85199490049E+02 -0.38561773308E+02 -0.28393451719E+03  0.31296936539E+03  0.92655545737E+02 0.  0.
         24    2    1    2    0    0 -0.84296286896E+02  0.62059802077E+02 -0.21930457054E+03  0.25610452839E+03  0.80856365142E+02 0.  0.
        -11    1    4    4    0    0 -0.56767010706E+02 -0.43405392715E+01 -0.68692818437E+02  0.89219039955E+02  0.00000000000E+00 0.  1.
         12    1    4    4    0    0 -0.27529276190E+02  0.66400341348E+02 -0.15061175210E+03  0.16688548844E+03  0.00000000000E+00 0. -1.
        -13    1    3    3    0    0 -0.25399633824E+02  0.62926506423E+00 -0.61637346117E+01  0.26144387490E+02  0.00000000000E+00 0.  1.
         13    1    3    3    0    0 -0.59799856225E+02 -0.39191038372E+02 -0.27777078258E+03  0.28682497790E+03  0.00000000000E+00 0. -1.
          1    1    1    2  501    0  0.16949577694E+03 -0.23498028769E+02 -0.13912378803E+03  0.22053662769E+03  0.00000000000E+00 0. -1.
<scales pt_clust_5="13000.00000" pt_clust_6="13000.00000" pt_clust_7="13000.00000" pt_clust_8="13000.00000" pt_clust_9="138.72479"></scales>
<clustering>
<clus scale="   80.856">  5  6 -1 -1</clus>
<clus scale="   92.656">  7  8 -1 -1</clus>
<clus scale="  131.647">  2  7  1 -1</clus>
<clus scale="  138.725">  1  9  2 -1</clus>
<clus scale="  138.725">  1  5  2 -1</clus>
</clustering>
</event>
<event>
 9    2  0.4653788E-005  0.9126148E+02  0.7546771E-02  0.1306578E+00
          2   -1    0    0  502    0 -0.00000000000E+00  0.00000000000E+00  0.55921553982E+02  0.55921553982E+02  0.00000000000E+00 0. -1.
         21   -1    0    0  501  502  0.00000000000E+00 -0.00000000000E+00 -0.20262712454E+03  0.20262712454E+03  0.00000000000E+00 0. -1.
         24    2    1    2    0    0 -0.58928361481E+01  0.99274458675E+01 -0.47907700649E+02  0.94399714299E+02  0.80516324922E+02 0.  0.
         23    2    1    2    0    0 -0.18523951749E+02  0.16294212854E+02 -0.79529862902E+02  0.12346713768E+03  0.91161926436E+02 0.  0.
        -13    1    3    3    0    0  0.34439654349E+02  0.79886010258E+00 -0.39116001381E+02  0.52122831209E+02  0.00000000000E+00 0.  1.
         14    1    3    3    0    0 -0.40332490497E+02  0.91285857649E+01 -0.87916992671E+01  0.42276883090E+02  0.00000000000E+00 0. -1.
        -11    1    4    4    0    0 -0.33248016005E+02  0.33643506849E+02 -0.87409116598E+02  0.99386466814E+02  0.00000000000E+00 0. -1.
         11    1    4    4    0    0  0.14724064256E+02 -0.17349293995E+02  0.78792536955E+01  0.24080670861E+02  0.00000000000E+00 0.  1.
          1    1    1    2  501    0  0.24416787897E+02 -0.26221658722E+02 -0.19268007009E+02  0.40681826550E+02  0.00000000000E+00 0. -1.
<scales pt_clust_5="13000.00000" pt_clust_6="13000.00000" pt_clust_7="13000.00000" pt_clust_8="13000.00000" pt_clust_9="35.82954"></scales>
<clustering>
<clus scale="   35.830">  2  9  1 -1</clus>
<clus scale="   80.516">  5  6 -1 -1</clus>
<clus scale="   80.629">  1  5  2 -1</clus>
<clus scale="   91.162">  7  8 -1 -1</clus>
<clus scale="   35.830">  2  5  1 -1</clus>
</clustering>
</event>
<event>
 9    2  0.4653788E-005  0.1119849E+03  0.7546771E-02  0.1257416E+00
          2   -1    0    0  502    0 -0.00000000000E+00  0.00000000000E+00  0.54627317614E+03  0.54627317614E+03  0.00000000000E+00 0. -1.
         21   -1    0    0  501  502  0.00000000000E+00 -0.00000000000E+00 -0.43557234175E+02  0.43557234175E+02  0.00000000000E+00 0. -1.
         24    2    1    2    0    0  0.57465126911E+02 -0.89811893510E+01  0.35295588511E+03  0.36892197725E+03  0.90236721405E+02 0.  0.
         23    2    1    2    0    0 -0.83116778955E+02 -0.11544447564E+01  0.14858918669E+03  0.19330210647E+03  0.91527188747E+02 0.  0.
        -13    1    3    3    0    0  0.67868487014E+02  0.21700110995E+02  0.19335015850E+03  0.20606142322E+03  0.00000000000E+00 0.  1.
         14    1    3    3    0    0 -0.10403360103E+02 -0.30681300346E+02  0.15960572660E+03  0.16286055402E+03  0.00000000000E+00 0. -1.
        -13    1    4    4    0    0 -0.58857962534E+02  0.12172503164E+02  0.22446050330E+02  0.64158045188E+02  0.00000000000E+00 0.  1.
         13    1    4    4    0    0 -0.24258816421E+02 -0.13326947920E+02  0.12614313636E+03  0.12914406129E+03  0.00000000000E+00 0. -1.
          1    1    1    2  501    0  0.25651652044E+02  0.10135634107E+02  0.11708701739E+01  0.27606326599E+02  0.00000000000E+00 0. -1.
<scales pt_clust_5="13000.00000" pt_clust_6="13000.00000" pt_clust_7="13000.00000" pt_clust_8="13000.00000" pt_clust_9="27.58149"></scales>
<clustering>
<clus scale="   27.581">  2  9  1 -1</clus>
<clus scale="   90.237">  5  6 -1 -1</clus>
<clus scale="   91.527">  7  8 -1 -1</clus>
<clus scale="  110.933">  1  5  2 -1</clus>
<clus scale="   27.581">  2  5  1 -1</clus>
</clustering>
</event>
<event>
 9    2  0.4653788E-005  0.9033744E+02  0.7546771E-02  0.1306973E+00
         21   -1    0    0  501  502  0.00000000000E+00  0.00000000000E+00  0.73194448945E+02  0.73194448945E+02  0.00000000000E+00 0. -1.
          2   -1    0    0  502    0 -0.00000000000E+00 -0.00000000000E+00 -0.15049230745E+03  0.15049230745E+03  0.00000000000E+00 0. -1.
         23    2    1    2    0    0  0.98468483182E+01 -0.18093761325E+02 -0.42588482941E+02  0.10156179346E+03  0.89870319855E+02 0.  0.
         24    2    1    2    0    0  0.65941447367E+01 -0.33674248721E+01 -0.58215813042E+01  0.82559909887E+02  0.82020885246E+02 0.  0.
        -13    1    4    4    0    0  0.41657636734E+02  0.32059059193E+01 -0.17100705368E+02  0.45144995903E+02  0.00000000000E+00 0.  1.
         14    1    4    4    0    0 -0.35063491997E+02 -0.65733307914E+01  0.11279124064E+02  0.37414913983E+02  0.00000000000E+00 0. -1.
        -13    1    3    3    0    0  0.27470931095E+02 -0.45642127397E+02 -0.43605370704E+02  0.68842459302E+02  0.00000000000E+00 0. -1.
         13    1    3    3    0    0 -0.17624082777E+02  0.27548366072E+02  0.10168877635E+01  0.32719334157E+02  0.00000000000E+00 0.  1.
          1    1    1    2  501    0 -0.16440993055E+02  0.21461186197E+02 -0.28887794262E+02  0.39565053051E+02  0.00000000000E+00 0. -1.
<scales pt_clust_5="13000.00000" pt_clust_6="13000.00000" pt_clust_7="13000.00000" pt_clust_8="13000.00000" pt_clust_9="27.03497"></scales>
<clustering>
<clus scale="   27.035">  1  9  2 -1</clus>
<clus scale="   82.021">  5  6 -1 -1</clus>
<clus scale="   82.532">  1  5  2 -1</clus>
<clus scale="   89.870">  7  8 -1 -1</clus>
<clus scale="   27.035">  1  5  2 -1</clus>
</clustering>
</event>
<event>
 9    2  0.4653788E-005  0.9754934E+02  0.7546771E-02  0.1292092E+00
         -3   -1    0    0    0  501 -0.00000000000E+00  0.00000000000E+00  0.62786621010E+02  0.62786621010E+02  0.00000000000E+00 0.  1.
         21   -1    0    0  501  502  0.00000000000E+00 -0.00000000000E+00 -0.34610012044E+03  0.34610012044E+03  0.00000000000E+00 0.  1.
         24    2    1    2    0    0  0.15708366670E+02  0.42790847083E+02 -0.33805891831E+02  0.97867312481E+02  0.79733074393E+02 0.  0.
         23    2    1    2    0    0  0.53443094218E+02 -0.60290821303E+01 -0.15904826141E+03  0.19136891615E+03  0.91832447749E+02 0.  0.
        -11    1    3    3    0    0  0.35005476240E+02 -0.63160787036E+01 -0.69782696638E+00  0.35577565676E+02  0.00000000000E+00 0.  1.
         12    1    3    3    0    0 -0.19297109569E+02  0.49106925787E+02 -0.33108064865E+02  0.62289746805E+02  0.00000000000E+00 0. -1.
        -11    1    4    4    0    0  0.61477925276E+02  0.22368485285E+02 -0.14416870941E+03  0.15831772233E+03  0.00000000000E+00 0.  1.
         11    1    4    4    0    0 -0.80348310585E+01 -0.28397567415E+02 -0.14879551998E+02  0.33051193820E+02  0.00000000000E+00 0. -1.
         -4    1    1    2    0  502 -0.69151460888E+02 -0.36761764953E+02 -0.90459346195E+02  0.11965051283E+03  0.00000000000E+00 0.  1.
<scales pt_clust_5="13000.00000" pt_clust_6="13000.00000" pt_clust_7="13000.00000" pt_clust_8="13000.00000" pt_clust_9="78.31572"></scales>
<clustering>
<clus scale="   78.316">  2  9  1 -1</clus>
<clus scale="   79.733">  5  6 -1 -1</clus>
<clus scale="   86.256">  1  5  2 -1</clus>
<clus scale="   91.832">  7  8 -1 -1</clus>
<clus scale="   78.316">  2  5  1 -1</clus>
</clustering>
</event>
<event>
 9    2  0.4653788E-005  0.1536815E+03  0.7546771E-02  0.1215411E+00
          2   -1    0    0  502    0 -0.00000000000E+00  0.00000000000E+00  0.32610984180E+03  0.32610984180E+03  0.00000000000E+00 0. -1.
         21   -1    0    0  501  502  0.00000000000E+00 -0.00000000000E+00 -0.15244866723E+03  0.15244866723E+03  0.00000000000E+00 0. -1.
         24    2    1    2    0    0 -0.50878065764E+02 -0.23347292842E+02 -0.38897636757E+02  0.10848272640E+03  0.84390770370E+02 0.  0.
         23    2    1    2    0    0 -0.25519816886E+02  0.12465569339E+03  0.50189303019E+02  0.16400810995E+03  0.90495254254E+02 0.  0.
        -11    1    3    3    0    0 -0.18109711449E+02  0.92599275902E+01 -0.55698948994E+02  0.59296549873E+02  0.00000000000E+00 0.  1.
         12    1    3    3    0    0 -0.32768354315E+02 -0.32607220432E+02  0.16801312237E+02  0.49186176530E+02  0.00000000000E+00 0. -1.
        -11    1    4    4    0    0 -0.50478226463E+02  0.11092035187E+03  0.57271235971E+02  0.13465277671E+03  0.00000000000E+00 0. -1.
         11    1    4    4    0    0  0.24958409577E+02  0.13735341526E+02 -0.70819329518E+01  0.29355333243E+02  0.00000000000E+00 0.  1.
          1    1    1    2  501    0  0.76397882649E+02 -0.10130840055E+03  0.16236950831E+03  0.20606767268E+03  0.00000000000E+00 0. -1.
<scales pt_clust_5="13000.00000" pt_clust_6="13000.00000" pt_clust_7="13000.00000" pt_clust_8="13000.00000" pt_clust_9="124.21197"></scales>
<clustering>
<clus scale="   84.391">  5  6 -1 -1</clus>
<clus scale="   90.495">  7  8 -1 -1</clus>
<clus scale="  101.269">  1  5  2 -1</clus>
<clus scale="  124.212">  2  9  1 -1</clus>
<clus scale="  124.212">  2  5  1 -1</clus>
</clustering>
</event>
<event>
 9    2  0.4653788E-005  0.1222431E+03  0.7546771E-02  0.1242022E+00
         -1   -1    0    0    0  501 -0.00000000000E+00  0.00000000000E+00  0.35540958871E+02  0.35540958871E+02  0.00000000000E+00 0.  1.
         21   -1    0    0  501  502  0.00000000000E+00 -0.00000000000E+00 -0.77336944264E+03  0.77336944264E+03  0.00000000000E+00 0.  1.
         23    2    1    2    0    0  0.17684956216E+02 -0.75516871244E+02 -0.11687645919E+03  0.16633035131E+03  0.89387490944E+02 0.  0.
         24    2    1    2    0    0 -0.73913457053E+01  0.10567887203E+03 -0.51552564764E+03  0.53244183855E+03  0.80653345145E+02 0.  0.
        -11    1    4    4    0    0  0.17712647539E+02  0.83421875320E+02 -0.45779321075E+03  0.46566894998E+03  0.00000000000E+00 0.  1.
         12    1    4    4    0    0 -0.25103993245E+02  0.22256996713E+02 -0.57732436886E+02  0.66772888572E+02  0.00000000000E+00 0. -1.
        -13    1    3    3    0    0  0.49418930764E+02 -0.17887512071E+02 -0.51978159792E+02  0.73918352940E+02  0.00000000000E+00 0.  1.
         13    1    3    3    0    0 -0.31733974547E+02 -0.57629359173E+02 -0.64898299396E+02  0.92411998375E+02  0.00000000000E+00 0. -1.
         -2    1    1    2    0  502 -0.10293610511E+02 -0.30162000790E+02 -0.10542637694E+03  0.11013821164E+03  0.00000000000E+00 0.  1.
<scales pt_clust_5="13000.00000" pt_clust_6="13000.00000" pt_clust_7="13000.00000" pt_clust_8="13000.00000" pt_clust_9="31.87012"></scales>
<clustering>
<clus scale="   31.870">  2  9  1 -1</clus>
<clus scale="   80.653">  5  6 -1 -1</clus>
<clus scale="   89.387">  7  8 -1 -1</clus>
<clus scale="  116.010">  2  5  1 -1</clus>
<clus scale="   31.870">  2  5  1 -1</clus>
</clustering>
</event>
<event>
 9    2  0.4653788E-005  0.9551379E+02  0.7546771E-02  0.1295468E+00
          2   -1    0    0  502    0 -0.00000000000E+00  0.00000000000E+00  0.47662844180E+03  0.47662844180E+03  0.00000000000E+00 0. -1.
         21   -1    0    0  501  502  0.00000000000E+00 -0.00000000000E+00 -0.61487223849E+02  0.61487223849E+02  0.00000000000E+00 0.  1.
         24    2    1    2    0    0  0.31335122518E+02 -0.25488876429E+02  0.17862861891E+03  0.20003121604E+03  0.80453285663E+02 0.  0.
         23    2    1    2    0    0  0.57219544806E+02  0.36327870095E+02  0.22011573700E+03  0.24737463771E+03  0.90274488409E+02 0.  0.
        -13    1    3    3    0    0  0.35393606832E+02 -0.49336200610E+02  0.93121881836E+02  0.11116857907E+03  0.00000000000E+00 0.  1.
         14    1    3    3    0    0 -0.40584843142E+01  0.23847324182E+02  0.85506737073E+02  0.88862636976E+02  0.00000000000E+00 0. -1.
        -13    1    4    4    0    0  0.24166696205E+02 -0.62414870806E+01  0.48009444676E+01  0.25417207443E+02  0.00000000000E+00 0.  1.
         13    1    4    4    0    0  0.33052848601E+02  0.42569357175E+02  0.21531479253E+03  0.22195743027E+03  0.00000000000E+00 0. -1.
          1    1    1    2  501    0 -0.88554667324E+02 -0.10838993666E+02  0.16396862047E+02  0.90709811892E+02  0.00000000000E+00 0. -1.
<scales pt_clust_5="13000.00000" pt_clust_6="13000.00000" pt_clust_7="13000.00000" pt_clust_8="13000.00000" pt_clust_9="89.21554"></scales>
<clustering>
<clus scale="   80.453">  5  6 -1 -1</clus>
<clus scale="   89.216">  2  9  1 -1</clus>
<clus scale="   86.291">  1  5  2 -1</clus>
<clus scale="   90.274">  7  8 -1 -1</clus>
<clus scale="   89.216">  2  5  1 -1</clus>
</clustering>
</event>
<event>
 9    2  0.4653788E-005  0.1372349E+03  0.7546771E-02  0.1235695E+00
          2   -1    0    0  502    0 -0.00000000000E+00  0.00000000000E+00  0.94785358646E+03  0.94785358646E+03  0.00000000000E+00 0. -1.
         21   -1    0    0  501  502  0.00000000000E+00 -0.00000000000E+00 -0.31671686737E+02  0.31671686737E+02  0.00000000000E+00 0.  1.
         23    2    1    2    0    0 -0.21227305549E+02  0.22260228581E+02  0.29563793697E+03  0.30999813842E+03  0.88039421700E+02 0.  0.
         24    2    1    2    0    0  0.11077264481E+03 -0.59974103921E+02  0.30992046997E+03  0.34406183947E+03  0.80376487207E+02 0.  0.
        -13    1    4    4    0    0  0.11747780137E+03 -0.68842007236E+02  0.26687595421E+03  0.29960479086E+03  0.00000000000E+00 0.  1.
         14    1    4    4    0    0 -0.67051565610E+01  0.88679033147E+01  0.43044515763E+02  0.44457048609E+02  0.00000000000E+00 0. -1.
        -11    1    3    3    0    0 -0.22781859640E+00  0.54346861516E+02  0.15627015370E+03  0.16545088152E+03  0.00000000000E+00 0.  1.
         11    1    3    3    0    0 -0.20999486952E+02 -0.32086632934E+02  0.13936778327E+03  0.14454725690E+03  0.00000000000E+00 0. -1.
          1    1    1    2  501    0 -0.89545339258E+02  0.37713875340E+02  0.31062349278E+03  0.32546529530E+03  0.00000000000E+00 0. -1.
<scales pt_clust_5="13000.00000" pt_clust_6="13000.00000" pt_clust_7="13000.00000" pt_clust_8="13000.00000" pt_clust_9="111.23420"></scales>
<clustering>
<clus scale="   80.376">  5  6 -1 -1</clus>
<clus scale="   88.039">  7  8 -1 -1</clus>
<clus scale="   93.258">  1  7  2 -1</clus>
<clus scale="  111.234">  2  9  1 -1</clus>
<clus scale="  111.234">  2  5  1 -1</clus>
</clustering>
</event>
<event>
 9    2  0.4653788E-005  0.1568185E+03  0.7546771E-02  0.1215701E+00
         -3   -1    0    0    0  501 -0.00000000000E+00  0.00000000000E+00  0.11575619933E+03  0.11575619933E+03  0.00000000000E+00 0.  1.
         21   -1    0    0  501  502  0.00000000000E+00 -0.00000000000E+00 -0.51591414349E+03  0.51591414349E+03  0.00000000000E+00 0. -1.
         23    2    1    2    0    0  0.15919862970E+02 -0.10323457380E+02  0.27071133410E+02  0.98523483585E+02  0.92811716633E+02 0.  0.
         24    2    1    2    0    0  0.12997315634E+03  0.15224586155E+01 -0.31147584839E+03  0.34670372922E+03  0.79315398769E+02 0.  0.
        -13    1    4    4    0    0  0.51601396606E+02  0.15729075912E+02 -0.50683929081E+02  0.74020055578E+02  0.00000000000E+00 0.  1.
         14    1    4    4    0    0  0.78371759732E+02 -0.14206617296E+02 -0.26079191931E+03  0.27268367365E+03  0.00000000000E+00 0. -1.
        -13    1    3    3    0    0 -0.86565734108E+01 -0.34851690179E+02  0.46486591318E+02  0.58741635523E+02  0.00000000000E+00 0.  1.
         13    1    3    3    0    0  0.24576436381E+02  0.24528232799E+02 -0.19415457908E+02  0.39781848062E+02  0.00000000000E+00 0. -1.
         -4    1    1    2    0  502 -0.14589301931E+03  0.88009987647E+01 -0.11575322918E+03  0.18644313001E+03  0.00000000000E+00 0.  1.
<scales pt_clust_5="13000.00000" pt_clust_6="13000.00000" pt_clust_7="13000.00000" pt_clust_8="13000.00000" pt_clust_9="135.28161"></scales>
<clustering>
<clus scale="   79.315">  5  6 -1 -1</clus>
<clus scale="   92.812">  7  8 -1 -1</clus>
<clus scale="   94.731">  1  7  2 -1</clus>
<clus scale="  135.282">  2  9  1 -1</clus>
<clus scale="  135.282">  2  5  1 -1</clus>
</clustering>
</event>
<event>
 9    2  0.4653788E-005  0.1718199E+03  0.7546771E-02  0.1189641E+00
         21   -1    0    0  501  502  0.00000000000E+00  0.00000000000E+00  0.79140476674E+02  0.79140476674E+02  0.00000000000E+00 0. -1.
          2   -1    0    0  502    0 -0.00000000000E+00 -0.00000000000E+00 -0.78587909599E+03  0.78587909599E+03  0.00000000000E+00 0. -1.
         23    2    1    2    0    0 -0.71875471481E+01 -0.84545190467E+02 -0.22876642537E+03  0.26142607632E+03  0.93861418784E+02 0.  0.
         24    2    1    2    0    0 -0.14477391742E+03  0.87721998969E+02 -0.37767940138E+03  0.42149181303E+03  0.79743225177E+02 0.  0.
        -11    1    4    4    0    0 -0.19351165539E+02  0.19812310353E+02 -0.15212916095E+03  0.15462948251E+03  0.00000000000E+00 0.  1.
         12    1    4    4    0    0 -0.12542275188E+03  0.67909688615E+02 -0.22555024043E+03  0.26686233052E+03  0.00000000000E+00 0. -1.
        -13    1    3    3    0    0  0.15931303112E+02 -0.89290892863E+02 -0.12165416858E+03  0.15174454422E+03  0.00000000000E+00 0. -1.
         13    1    3    3    0    0 -0.23118850260E+02  0.47457023959E+01 -0.10711225679E+03  0.10968153210E+03  0.00000000000E+00 0.  1.
          1    1    1    2  501    0  0.15196146456E+03 -0.31768085023E+01 -0.10029279256E+03  0.18210168331E+03  0.00000000000E+00 0. -1.
<scales pt_clust_5="13000.00000" pt_clust_6="13000.00000" pt_clust_7="13000.00000" pt_clust_8="13000.00000" pt_clust_9="152.19423"></scales>
<clustering>
<clus scale="   79.743">  5  6 -1 -1</clus>
<clus scale="   93.861">  7  8 -1 -1</clus>
<clus scale="  126.529">  2  7  1 -1</clus>
<clus scale="  152.194">  1  9  2 -1</clus>
<clus scale="  152.194">  1  5  2 -1</clus>
</clustering>
</event>
<event>
 9    2  0.4653788E-005  0.1060930E+03  0.7546771E-02  0.1269617E+00
          2   -1    0    0  502    0 -0.00000000000E+00  0.00000000000E+00  0.53093948274E+03  0.53093948274E+03  0.00000000000E+00 0. -1.
         21   -1    0    0  501  502  0.00000000000E+00 -0.00000000000E+00 -0.55102818613E+02  0.55102818613E+02  0.00000000000E+00 0.  1.
         24    2    1    2    0    0 -0.51663551497E+02 -0.42950500529E+02  0.42252995140E+03  0.43550357515E+03  0.81350698155E+02 0.  0.
         23    2    1    2    0    0  0.24190687023E+02  0.41472252885E+02  0.68021729019E+02  0.11933816205E+03  0.85495638517E+02 0.  0.
        -11    1    3    3    0    0 -0.53301799712E+02 -0.39709557278E+02  0.16412735591E+03  0.17707546343E+03  0.00000000000E+00 0.  1.
         12    1    3    3    0    0  0.16382482151E+01 -0.32409432504E+01  0.25840259549E+03  0.25842811172E+03  0.00000000000E+00 0. -1.
        -13    1    4    4    0    0  0.36827548572E+02  0.32517393616E+01  0.69861271053E+02  0.79040744783E+02  0.00000000000E+00 0. -1.
         13    1    4    4    0    0 -0.12636861548E+02  0.38220513523E+02 -0.18395420339E+01  0.40297417271E+02  0.00000000000E+00 0.  1.
          1    1    1    2  501    0  0.27472864474E+02  0.14782476439E+01 -0.14715016295E+02  0.31200564147E+02  0.00000000000E+00 0. -1.
<scales pt_clust_5="13000.00000" pt_clust_6="13000.00000" pt_clust_7="13000.00000" pt_clust_8="13000.00000" pt_clust_9="27.51261"></scales>
<clustering>
<clus scale="   27.513">  2  9  1 -1</clus>
<clus scale="   81.351">  5  6 -1 -1</clus>
<clus scale="   85.496">  7  8 -1 -1</clus>
<clus scale="  102.782">  1  5  2 -1</clus>
<clus scale="   27.513">  2  5  1 -1</clus>
</clustering>
</event>
<event>
 9    2  0.4653788E-005  0.9448907E+02  0.7546771E-02  0.1299948E+00
         21   -1    0    0  501  502  0.00000000000E+00  0.00000000000E+00  0.26548227293E+02  0.26548227293E+02  0.00000000000E+00 0. -1.
          2   -1    0    0  502    0 -0.00000000000E+00 -0.00000000000E+00 -0.54361425892E+03  0.54361425892E+03  0.00000000000E+00 0. -1.
         24    2    1    2    0    0 -0.33142376880E+01 -0.28235606316E+02 -0.31073194212E+03  0.32223818060E+03  0.80466586531E+02 0.  0.
         23    2    1    2    0    0  0.61183224591E+01 -0.13550280536E+02 -0.15766529890E+03  0.18371702868E+03  0.93126560006E+02 0.  0.
        -13    1    3    3    0    0 -0.41673728137E+02 -0.11239588170E+02 -0.14593932506E+03  0.15218841795E+03  0.00000000000E+00 0.  1.
         14    1    3    3    0    0  0.38359490449E+02 -0.16996018147E+02 -0.16479261706E+03  0.17004976266E+03  0.00000000000E+00 0. -1.
        -11    1    4    4    0    0 -0.11598877778E+02  0.34446398634E+02 -0.33524633956E+02  0.49446834342E+02  0.00000000000E+00 0.  1.
         11    1    4    4    0    0  0.17717200237E+02 -0.47996679171E+02 -0.12414066494E+03  0.13427019434E+03  0.00000000000E+00 0. -1.
          1    1    1    2  501    0 -0.28040847711E+01  0.41785886853E+02 -0.48668790607E+02  0.64207276929E+02  0.00000000000E+00 0. -1.
<scales pt_clust_5="13000.00000" pt_clust_6="13000.00000" pt_clust_7="13000.00000" pt_clust_8="13000.00000" pt_clust_9="41.87987"></scales>
<clustering>
<clus scale="   41.880">  1  9  2 -1</clus>
<clus scale="   80.467">  5  6 -1 -1</clus>
<clus scale="   82.040">  2  5  1 -1</clus>
<clus scale="   93.127">  7  8 -1 -1</clus>
<clus scale="   41.880">  1  5  2 -1</clus>
</clustering>
</event>
<event>
 9    2  0.4653788E-005  0.1201712E+03  0.7546771E-02  0.1251862E+00
         -3   -1    0    0    0  501 -0.00000000000E+00  0.00000000000E+00  0.14947963462E+03  0.14947963462E+03  0.00000000000E+00 0.  1.
         21   -1    0    0  501  502  0.00000000000E+00 -0.00000000000E+00 -0.14748581759E+03  0.14748581759E+03  0.00000000000E+00 0. -1.
         23    2    1    2    0    0  0.35484096967E+02 -0.44136208766E+02  0.67887819597E+02  0.13679284183E+03  0.10438582023E+03 0.  0.
         24    2    1    2    0    0 -0.12764997838E+02  0.72159416184E+02 -0.57257916318E+02  0.12307760256E+03  0.80620721632E+02 0.  0.
        -13    1    4    4    0    0  0.22771764625E+02  0.31389870547E+01  0.50483153539E+01  0.23534910065E+02  0.00000000000E+00 0.  1.
         14    1    4    4    0    0 -0.35536762463E+02  0.69020429129E+02 -0.62306231672E+02  0.99542692493E+02  0.00000000000E+00 0. -1.
        -11    1    3    3    0    0 -0.20647809573E+02 -0.14180504448E+02 -0.17318622492E+02  0.30452478251E+02  0.00000000000E+00 0. -1.
         11    1    3    3    0    0  0.56131906540E+02 -0.29955704318E+02  0.85206442089E+02  0.10634036358E+03  0.00000000000E+00 0.  1.
         -4    1    1    2    0  502 -0.22719099129E+02 -0.28023207418E+02 -0.86360862450E+01  0.37095007816E+02  0.00000000000E+00 0.  1.
<scales pt_clust_5="13000.00000" pt_clust_6="13000.00000" pt_clust_7="13000.00000" pt_clust_8="13000.00000" pt_clust_9="36.07572"></scales>
<clustering>
<clus scale="   36.076">  2  9  1 -1</clus>
<clus scale="   80.621">  5  6 -1 -1</clus>
<clus scale="  100.222">  2  5  1 -1</clus>
<clus scale="  104.386">  7  8 -1 -1</clus>
<clus scale="   36.076">  2  5  1 -1</clus>
</clustering>
</event>
<event>
 9    2  0.4653788E-005  0.1534387E+03  0.7546771E-02  0.1198572E+00
          2   -1    0    0  502    0 -0.00000000000E+00  0.00000000000E+00  0.22207446062E+03  0.22207446062E+03  0.00000000000E+00 0. -1.
         21   -1    0    0  501  502  0.00000000000E+00 -0.00000000000E+00 -0.56426582067E+03  0.56426582067E+03  0.00000000000E+00 0.  1.
         23    2    1    2    0    0  0.15411756195E+02  0.12079167007E+03  0.17025154786E+03  0.22795953935E+03  0.90287386961E+02 0.  0.
         24    2    1    2    0    0  0.22367306340E+01 -0.15290032197E+03 -0.32460489535E+03  0.36700270356E+03  0.77065783010E+02 0.  0.
        -13    1    4    4    0    0  0.20414852089E+02 -0.15129201976E+03 -0.28244447434E+03  0.32106217858E+03  0.00000000000E+00 0.  1.
         14    1    4    4    0    0 -0.18178121455E+02 -0.16083022124E+01 -0.42160421010E+02  0.45940524979E+02  0.00000000000E+00 0. -1.
        -11    1    3    3    0    0 -0.21328194132E+02  0.84989307963E+02  0.14810284256E+03  0.17208290534E+03  0.00000000000E+00 0. -1.
         11    1    3    3    0    0  0.36739950327E+02  0.35802362107E+02  0.22148705297E+02  0.55876634015E+02  0.00000000000E+00 0.  1.
          1    1    1    2  501    0 -0.17648486829E+02  0.32108651902E+02 -0.18783801255E+03  0.19137803838E+03  0.00000000000E+00 0. -1.
<scales pt_clust_5="13000.00000" pt_clust_6="13000.00000" pt_clust_7="13000.00000" pt_clust_8="13000.00000" pt_clust_9="36.63925"></scales>
<clustering>
<clus scale="   36.639">  2  9  1 -1</clus>
<clus scale="   77.066">  5  6 -1 -1</clus>
<clus scale="   90.287">  7  8 -1 -1</clus>
<clus scale="  146.050">  2  5  1 -1</clus>
<clus scale="   36.639">  2  5  1 -1</clus>
</clustering>
</event>
<event>
 9    2  0.4653788E-005  0.9841558E+02  0.7546771E-02  0.1285863E+00
         21   -1    0    0  501  502  0.00000000000E+00  0.00000000000E+00  0.77841257539E+02  0.77841257539E+02  0.00000000000E+00 0.  1.
          2   -1    0    0  502    0 -0.00000000000E+00 -0.00000000000E+00 -0.43408964545E+03  0.43408964545E+03  0.00000000000E+00 0. -1.
         23    2    1    2    0    0  0.20750246210E+02 -0.63662812031E+02 -0.21301010281E+03  0.23830648485E+03  0.83265541900E+02 0.  0.
         24    2    1    2    0    0 -0.36879585858E+02 -0.24680077917E+02  0.15263941304E+02  0.91449838199E+02  0.78491240934E+02 0.  0.
        -11    1    4    4    0    0 -0.36014957438E+02 -0.48546914371E+02  0.25320578908E+02  0.65536339312E+02  0.00000000000E+00 0.  1.
         12    1    4    4    0    0 -0.86462841983E+00  0.23866836454E+02 -0.10056637604E+02  0.25913498886E+02  0.00000000000E+00 0. -1.
        -11    1    3    3    0    0  0.15608755529E+02  0.13819243035E+02 -0.15198439717E+02  0.25799172410E+02  0.00000000000E+00 0.  1.
         11    1    3    3    0    0  0.51414906809E+01 -0.77482055066E+02 -0.19781166309E+03  0.21250731244E+03  0.00000000000E+00 0. -1.
          1    1    1    2  501    0  0.16129339648E+02  0.88342889948E+02 -0.15850222640E+03  0.18217457994E+03  0.00000000000E+00 0. -1.
<scales pt_clust_5="13000.00000" pt_clust_6="13000.00000" pt_clust_7="13000.00000" pt_clust_8="13000.00000" pt_clust_9="89.80328"></scales>
<clustering>
<clus scale="   78.491">  5  6 -1 -1</clus>
<clus scale="   83.266">  7  8 -1 -1</clus>
<clus scale="   89.803">  1  9  2 -1</clus>
<clus scale="   94.411">  1  5  2 -1</clus>
<clus scale="   89.803">  1  5  2 -1</clus>
</clustering>
</event>
<event>
 9    2  0.4653788E-005  0.1349435E+03  0.7546771E-02  0.1223394E+00
         21   -1    0    0  501  502  0.00000000000E+00  0.00000000000E+00  0.11081801042E+03  0.11081801042E+03  0.00000000000E+00 0.  1.
          2   -1    0    0  502    0 -0.00000000000E+00 -0.00000000000E+00 -0.53405589157E+03  0.53405589157E+03  0.00000000000E+00 0. -1.
         23    2    1    2    0    0  0.93651999837E+02  0.31607688917E+02 -0.44673989413E+03  0.46668235282E+03  0.91902896310E+02 0.  0.
         24    2    1    2    0    0 -0.10552012394E+03  0.77605408672E+01  0.25444698112E+01  0.13204040075E+03  0.78952330886E+02 0.  0.
        -13    1    4    4    0    0 -0.75034821933E+02 -0.28670441471E+02  0.17555460216E+02  0.82221730097E+02  0.00000000000E+00 0.  1.
         14    1    4    4    0    0 -0.30485302003E+02  0.36430982338E+02 -0.15010990405E+02  0.49818670649E+02  0.00000000000E+00 0. -1.
        -13    1    3    3    0    0 -0.16559927813E+02  0.12222234344E+02 -0.42220154829E+02  0.46969731694E+02  0.00000000000E+00 0.  1.
         13    1    3    3    0    0  0.11021192765E+03  0.19385454572E+02 -0.40451973930E+03  0.41971262112E+03  0.00000000000E+00 0. -1.
          1    1    1    2  501    0  0.11868124098E+02 -0.39368229784E+02  0.20957543172E+02  0.46151148433E+02  0.00000000000E+00 0. -1.
<scales pt_clust_5="13000.00000" pt_clust_6="13000.00000" pt_clust_7="13000.00000" pt_clust_8="13000.00000" pt_clust_9="41.11824"></scales>
<clustering>
<clus scale="   41.118">  1  9  2 -1</clus>
<clus scale="   78.952">  5  6 -1 -1</clus>
<clus scale="   91.903">  7  8 -1 -1</clus>
<clus scale="  126.480">  1  5  2 -1</clus>
<clus scale="   41.118">  1  5  2 -1</clus>
</clustering>
</event>
<event>
 9    2  0.4653788E-005  0.2936676E+03  0.7546771E-02  0.1088914E+00
          2   -1    0    0  502    0 -0.00000000000E+00  0.00000000000E+00  0.19709727901E+03  0.19709727901E+03  0.00000000000E+00 0. -1.
         21   -1    0    0  501  502  0.00000000000E+00 -0.00000000000E+00 -0.79114630122E+03  0.79114630122E+03  0.00000000000E+00 0. -1.
         23    2    1    2    0    0 -0.88334189767E+02 -0.24312128255E+03 -0.64154007303E+02  0.28201947926E+03  0.92240787713E+02 0.  0.
         24    2    1    2    0    0  0.10575875758E+03  0.32755698082E+03 -0.50521109684E+03  0.61654523770E+03  0.80070514391E+02 0.  0.
        -13    1    4    4    0    0  0.22835279441E+02  0.13673122135E+02 -0.59010399525E+02  0.64735087149E+02  0.00000000000E+00 0.  1.
         14    1    4    4    0    0  0.82923478139E+02  0.31388385869E+03 -0.44620069731E+03  0.55181015055E+03  0.00000000000E+00 0. -1.
        -13    1    3    3    0    0 -0.19425285111E+02 -0.15860929711E+02  0.17849767711E+02  0.30781894033E+02  0.00000000000E+00 0.  1.
         13    1    3    3    0    0 -0.68908904656E+02 -0.22726035284E+03 -0.82003775014E+02  0.25123758522E+03  0.00000000000E+00 0. -1.
          1    1    1    2  501    0 -0.17424567813E+02 -0.84435698273E+02 -0.24683918066E+02  0.89678863270E+02  0.00000000000E+00 0. -1.
<scales pt_clust_5="13000.00000" pt_clust_6="13000.00000" pt_clust_7="13000.00000" pt_clust_8="13000.00000" pt_clust_9="86.21491"></scales>
<clustering>
<clus scale="   80.071">  5  6 -1 -1</clus>
<clus scale="   86.215">  2  9  1 -1</clus>
<clus scale="   92.241">  7  8 -1 -1</clus>
<clus scale="  290.075">  2  5  1 -1</clus>
<clus scale="   86.215">  2  5  1 -1</clus>
</clustering>
</event>
<event>
 9    2  0.4653788E-005  0.1400841E+03  0.7546771E-02  0.1215711E+00
          2   -1    0    0  502    0 -0.00000000000E+00  0.00000000000E+00  0.93378962403E+03  0.93378962403E+03  0.00000000000E+00 0. -1.
         21   -1    0    0  501  502  0.00000000000E+00 -0.00000000000E+00 -0.45429379010E+02  0.45429379010E+02  0.00000000000E+00 0.  1.
         23    2    1    2    0    0  0.30504776997E+02 -0.94919263388E+02  0.58305522114E+03  0.59848682398E+03  0.91065249173E+02 0.  0.
         24    2    1    2    0    0 -0.28537194256E+02  0.11661157897E+03  0.32236492571E+03  0.35306508330E+03  0.79518399821E+02 0.  0.
        -13    1    4    4    0    0 -0.54168316710E+02  0.96767576860E+02  0.23416865459E+03  0.25910061609E+03  0.00000000000E+00 0.  1.
         14    1    4    4    0    0  0.25631122453E+02  0.19844002113E+02  0.88196271122E+02  0.93964467210E+02  0.00000000000E+00 0. -1.
        -13    1    3    3    0    0  0.18033206884E+02  0.10036130234E+02  0.37654916710E+02  0.42939646168E+02  0.00000000000E+00 0.  1.
         13    1    3    3    0    0  0.12471570113E+02 -0.10495539362E+03  0.54540030443E+03  0.55554717782E+03  0.00000000000E+00 0. -1.
          1    1    1    2  501    0 -0.19675827401E+01 -0.21692315585E+02 -0.17059901826E+02  0.27667095756E+02  0.00000000000E+00 0. -1.
<scales pt_clust_5="13000.00000" pt_clust_6="13000.00000" pt_clust_7="13000.00000" pt_clust_8="13000.00000" pt_clust_9="21.78137"></scales>
<clustering>
<clus scale="   21.781">  2  9  1 -1</clus>
<clus scale="   79.518">  5  6 -1 -1</clus>
<clus scale="   91.065">  7  8 -1 -1</clus>
<clus scale="  132.868">  2  5  1 -1</clus>
<clus scale="   21.781">  2  5  1 -1</clus>
</clustering>
</event>
<event>
 9    2  0.4653788E-005  0.9405350E+02  0.7546771E-02  0.1298608E+00
          2   -1    0    0  502    0 -0.00000000000E+00  0.00000000000E+00  0.23882435911E+03  0.23882435911E+03  0.00000000000E+00 0. -1.
         21   -1    0    0  501  502  0.00000000000E+00 -0.00000000000E+00 -0.79915037721E+02  0.79915037721E+02  0.00000000000E+00 0. -1.
         24    2    1    2    0    0 -0.12022311294E+02  0.26485235058E+02  0.15195266844E+03  0.17473743782E+03  0.81225335246E+02 0.  0.
         23    2    1    2    0    0 -0.22598770586E+01 -0.94845450293E+01 -0.34272801164E+02  0.97173845101E+02  0.90405019957E+02 0.  0.
        -13    1    3    3    0    0 -0.16153095815E+02 -0.21662669884E+02  0.18350052990E+02  0.32663714052E+02  0.00000000000E+00 0.  1.
         14    1    3    3    0    0  0.41307845210E+01  0.48147904942E+02  0.13360261545E+03  0.14207372377E+03  0.00000000000E+00 0. -1.
        -13    1    4    4    0    0  0.38543197323E+02  0.17104454201E+02 -0.14153611394E+02  0.44479940747E+02  0.00000000000E+00 0. -1.
         13    1    4    4    0    0 -0.40803074382E+02 -0.26588999230E+02 -0.20119189769E+02  0.52693904354E+02  0.00000000000E+00 0.  1.
          1    1    1    2  501    0  0.14282188352E+02 -0.17000690029E+02  0.41229454111E+02  0.46828113905E+02  0.00000000000E+00 0. -1.
<scales pt_clust_5="13000.00000" pt_clust_6="13000.00000" pt_clust_7="13000.00000" pt_clust_8="13000.00000" pt_clust_9="22.20371"></scales>
<clustering>
<clus scale="   22.204">  2  9  1 -1</clus>
<clus scale="   81.225">  5  6 -1 -1</clus>
<clus scale="   85.268">  1  5  2 -1</clus>
<clus scale="   90.405">  7  8 -1 -1</clus>
<clus scale="   22.204">  2  5  1 -1</clus>
</clustering>
</event>
<event>
 9    2  0.4653788E-005  0.7714548E+02  0.7546771E-02  0.1347060E+00
         21   -1    0    0  501  502  0.00000000000E+00  0.00000000000E+00  0.26395428342E+03  0.26395428342E+03  0.00000000000E+00 0. -1.
          2   -1    0    0  502    0 -0.00000000000E+00 -0.00000000000E+00 -0.29062608379E+03  0.29062608379E+03  0.00000000000E+00 0. -1.
         23    2    1    2    0    0 -0.14357095205E+02  0.30325105502E+02 -0.26695174638E+03  0.27481160125E+03  0.55968232766E+02 0.  0.
         24    2    1    2    0    0  0.46833411217E+02 -0.13315776615E+02  0.84537920653E+02  0.11976999462E+03  0.69480308499E+02 0.  0.
        -13    1    4    4    0    0  0.43013639560E+02 -0.22669821642E+02  0.94061550677E+02  0.10588517043E+03  0.00000000000E+00 0.  1.
         14    1    4    4    0    0  0.38197716571E+01  0.93540450264E+01 -0.95236300231E+01  0.13884824186E+02  0.00000000000E+00 0. -1.
        -13    1    3    3    0    0  0.20227702518E+02  0.20771899946E+02 -0.13421868765E+03  0.13731455819E+03  0.00000000000E+00 0. -1.
         13    1    3    3    0    0 -0.34584797722E+02  0.95532055563E+01 -0.13273305873E+03  0.13749704306E+03  0.00000000000E+00 0.  1.
          1    1    1    2  501    0 -0.32476316012E+02 -0.17009328887E+02  0.15574202536E+03  0.15999877135E+03  0.00000000000E+00 0. -1.
<scales pt_clust_5="13000.00000" pt_clust_6="13000.00000" pt_clust_7="13000.00000" pt_clust_8="13000.00000" pt_clust_9="36.66099"></scales>
<clustering>
<clus scale="   36.661">  1  9  2 -1</clus>
<clus scale="   55.968">  7  8 -1 -1</clus>
<clus scale="   65.241">  2  7  1 -1</clus>
<clus scale="   69.480">  5  6 -1 -1</clus>
<clus scale="   36.661">  1  5  2 -1</clus>
</clustering>
</event>
<event>
 9    2  0.4653788E-005  0.1050006E+03  0.7546771E-02  0.1275309E+00
         21   -1    0    0  501  502  0.00000000000E+00  0.00000000000E+00  0.11980272213E+03  0.11980272213E+03  0.00000000000E+00 0. -1.
          2   -1    0    0  502    0 -0.00000000000E+00 -0.00000000000E+00 -0.13285986263E+03  0.13285986263E+03  0.00000000000E+00 0. -1.
         24    2    1    2    0    0 -0.55853235435E+02 -0.18418523578E+02 -0.47669097144E+02  0.11149091721E+03  0.81847760370E+02 0.  0.
         23    2    1    2    0    0  0.28214234228E+02 -0.69830320122E+01  0.34621023136E+02  0.10363297423E+03  0.93254342293E+02 0.  0.
        -13    1    3    3    0    0  0.12655486561E+02  0.16856326486E+02 -0.21507006813E+02  0.30113924100E+02  0.00000000000E+00 0.  1.
         14    1    3    3    0    0 -0.68508721995E+02 -0.35274850064E+02 -0.26162090331E+02  0.81376993106E+02  0.00000000000E+00 0. -1.
        -13    1    4    4    0    0 -0.28474682423E+01  0.26553339387E+02 -0.19295495622E+02  0.32946988622E+02  0.00000000000E+00 0. -1.
         13    1    4    4    0    0  0.31061702471E+02 -0.33536371399E+02  0.53916518758E+02  0.70685985612E+02  0.00000000000E+00 0.  1.
          1    1    1    2  501    0  0.27639001206E+02  0.25401555591E+02 -0.90664971735E-02  0.37538693322E+02  0.00000000000E+00 0. -1.
<scales pt_clust_5="13000.00000" pt_clust_6="13000.00000" pt_clust_7="13000.00000" pt_clust_8="13000.00000" pt_clust_9="37.53869"></scales>
<clustering>
<clus scale="   37.539">  1  9  2 -1</clus>
<clus scale="   81.848">  5  6 -1 -1</clus>
<clus scale="   93.254">  7  8 -1 -1</clus>
<clus scale="   95.015">  2  5  1 -1</clus>
<clus scale="   37.539">  1  5  2 -1</clus>
</clustering>
</event>
<event>
 9    2  0.4653788E-005  0.9503735E+02  0.7546771E-02  0.1297289E+00
         21   -1    0    0  501  502  0.00000000000E+00  0.00000000000E+00  0.13592828226E+03  0.13592828226E+03  0.00000000000E+00 0. -1.
          4   -1    0    0  502    0 -0.00000000000E+00 -0.00000000000E+00 -0.27661656052E+03  0.27661656052E+03  0.00000000000E+00 0. -1.
         23    2    1    2    0    0  0.11569415882E+02 -0.30638500598E+02 -0.21868203706E+03  0.23933677398E+03  0.91584326965E+02 0.  0.
         24    2    1    2    0    0 -0.14461258869E+02 -0.34795736292E+02  0.44061930361E+02  0.99442418971E+02  0.80792757792E+02 0.  0.
        -13    1    4    4    0    0 -0.23749495341E+02  0.21305470699E+02  0.20276691397E+02  0.37803516035E+02  0.00000000000E+00 0.  1.
         14    1    4    4    0    0  0.92882364722E+01 -0.56101206991E+02  0.23785238964E+02  0.61638902936E+02  0.00000000000E+00 0. -1.
        -11    1    3    3    0    0 -0.32225073743E+01 -0.61622640909E+02 -0.12157230691E+03  0.13633620295E+03  0.00000000000E+00 0. -1.
         11    1    3    3    0    0  0.14791923256E+02  0.30984140310E+02 -0.97109730147E+02  0.10300057104E+03  0.00000000000E+00 0.  1.
          3    1    1    2  501    0  0.28918429864E+01  0.65434236891E+02  0.33931828440E+02  0.73765649829E+02  0.00000000000E+00 0. -1.
<scales pt_clust_5="13000.00000" pt_clust_6="13000.00000" pt_clust_7="13000.00000" pt_clust_8="13000.00000" pt_clust_9="65.49811"></scales>
<clustering>
<clus scale="   65.498">  1  9  2 -1</clus>
<clus scale="   80.793">  5  6 -1 -1</clus>
<clus scale="   84.687">  1  5  2 -1</clus>
<clus scale="   91.584">  7  8 -1 -1</clus>
<clus scale="   65.498">  1  5  2 -1</clus>
</clustering>
</event>
<event>
 9    2  0.4653788E-005  0.1263159E+03  0.7546771E-02  0.1236309E+00
         -1   -1    0    0    0  501 -0.00000000000E+00  0.00000000000E+00  0.12438633772E+03  0.12438633772E+03  0.00000000000E+00 0.  1.
         21   -1    0    0  501  502  0.00000000000E+00 -0.00000000000E+00 -0.25666842510E+03  0.25666842510E+03  0.00000000000E+00 0.  1.
         23    2    1    2    0    0  0.81289574779E+02 -0.69431469060E+01  0.15920282972E+02  0.12377502829E+03  0.91709323199E+02 0.  0.
         24    2    1    2    0    0 -0.10507986324E+03  0.16740946283E+02 -0.17516072419E+03  0.22001409970E+03  0.80018046877E+02 0.  0.
        -11    1    4    4    0    0 -0.75649778890E+02  0.38072207971E+02 -0.73800718666E+02  0.11233400261E+03  0.00000000000E+00 0.  1.
         12    1    4    4    0    0 -0.29430084352E+02 -0.21331261687E+02 -0.10136000552E+03  0.10768009709E+03  0.00000000000E+00 0. -1.
        -11    1    3    3    0    0  0.74919112538E+02 -0.35065662595E+02 -0.12062648454E+02  0.83594148147E+02  0.00000000000E+00 0. -1.
         11    1    3    3    0    0  0.63704622407E+01  0.28122515689E+02  0.27982931426E+02  0.40180880143E+02  0.00000000000E+00 0.  1.
         -2    1    1    2    0  502  0.23790288463E+02 -0.97977993774E+01  0.26958353839E+02  0.37265634833E+02  0.00000000000E+00 0.  1.
<scales pt_clust_5="13000.00000" pt_clust_6="13000.00000" pt_clust_7="13000.00000" pt_clust_8="13000.00000" pt_clust_9="25.72888"></scales>
<clustering>
<clus scale="   25.729">  2  9  1 -1</clus>
<clus scale="   80.018">  5  6 -1 -1</clus>
<clus scale="   91.709">  7  8 -1 -1</clus>
<clus scale="  118.102">  2  5  1 -1</clus>
<clus scale="   25.729">  2  5  1 -1</clus>
</clustering>
</event>
<event>
 9    2  0.4653788E-005  0.9320293E+02  0.7546771E-02  0.1299573E+00
         21   -1    0    0  501  502  0.00000000000E+00  0.00000000000E+00  0.29228665139E+03  0.29228665139E+03  0.00000000000E+00 0. -1.
         -3   -1    0    0    0  501 -0.00000000000E+00 -0.00000000000E+00 -0.41375609371E+02  0.41375609371E+02  0.00000000000E+00 0.  1.
         23    2    1    2    0    0  0.47600576769E+01 -0.18343426133E+02  0.60035000896E+02  0.10923700521E+03  0.89271398243E+02 0.  0.
         24    2    1    2    0    0  0.41658565808E+01  0.42399157853E+02  0.14456505961E+03  0.17148134954E+03  0.81803140735E+02 0.  0.
        -13    1    4    4    0    0 -0.19784369855E+02  0.43163114350E+02  0.34126378958E+02  0.58472946494E+02  0.00000000000E+00 0.  1.
         14    1    4    4    0    0  0.23950226436E+02 -0.76395649708E+00  0.11043868065E+03  0.11300840305E+03  0.00000000000E+00 0. -1.
        -13    1    3    3    0    0 -0.27688518974E+02  0.18306653293E+02  0.48791693782E+02  0.59012007421E+02  0.00000000000E+00 0. -1.
         13    1    3    3    0    0  0.32448576651E+02 -0.36650079425E+02  0.11243307114E+02  0.50224997794E+02  0.00000000000E+00 0.  1.
         -4    1    1    2    0  502 -0.89259142577E+01 -0.24055731720E+02  0.46310981514E+02  0.52943906002E+02  0.00000000000E+00 0.  1.
<scales pt_clust_5="13000.00000" pt_clust_6="13000.00000" pt_clust_7="13000.00000" pt_clust_8="13000.00000" pt_clust_9="25.65834"></scales>
<clustering>
<clus scale="   25.658">  1  9  2 -1</clus>
<clus scale="   81.803">  5  6 -1 -1</clus>
<clus scale="   86.076">  1  5  2 -1</clus>
<clus scale="   89.271">  7  8 -1 -1</clus>
<clus scale="   25.658">  1  5  2 -1</clus>
</clustering>
</event>
<event>
 9    2  0.4818043E-005  0.2133179E+03  0.7546771E-02  0.1169299E+00
         -3   -1    0    0    0  501 -0.00000000000E+00  0.00000000000E+00  0.20001754508E+03  0.20001754508E+03  0.00000000000E+00 0.  1.
         21   -1    0    0  501  502  0.00000000000E+00 -0.00000000000E+00 -0.47694113085E+03  0.47694113085E+03  0.00000000000E+00 0.  1.
         23    2    1    2    0    0  0.13469985550E+02  0.49136418315E+02  0.65862184349E+02  0.12352150100E+03  0.91235441392E+02 0.  0.
         24    2    1    2    0    0  0.15593673086E+03  0.76516103055E+02 -0.59247662053E+02  0.20005204449E+03  0.79621334988E+02 0.  0.
        -13    1    4    4    0    0  0.11174233273E+03  0.90631852220E+02 -0.36776334651E+02  0.14850245907E+03  0.00000000000E+00 0.  1.
         14    1    4    4    0    0  0.44194398133E+02 -0.14115749166E+02 -0.22471327402E+02  0.51549585411E+02  0.00000000000E+00 0. -1.
        -11    1    3    3    0    0  0.39770322483E+02  0.13778408158E+02  0.67360633957E+02  0.79429075841E+02  0.00000000000E+00 0.  1.
         11    1    3    3    0    0 -0.26300336933E+02  0.35358010156E+02 -0.14984496080E+01  0.44092425157E+02  0.00000000000E+00 0. -1.
         -4    1    1    2    0  502 -0.16940671641E+03 -0.12565252137E+03 -0.28353810806E+03  0.35338513044E+03  0.00000000000E+00 0.  1.
<scales pt_clust_5="13000.00000" pt_clust_6="13000.00000" pt_clust_7="13000.00000" pt_clust_8="13000.00000" pt_clust_9="197.90137"></scales>
<clustering>
<clus scale="   79.621">  5  6 -1 -1</clus>
<clus scale="   91.235">  7  8 -1 -1</clus>
<clus scale="  104.498">  1  7  2 -1</clus>
<clus scale="  197.901">  2  9  1 -1</clus>
<clus scale="  197.901">  2  5  1 -1</clus>
</clustering>
</event>
<event>
 9    2  0.4653788E-005  0.8801853E+02  0.7546771E-02  0.1311261E+00
          2   -1    0    0  502    0 -0.00000000000E+00  0.00000000000E+00  0.45826557721E+03  0.45826557721E+03  0.00000000000E+00 0. -1.
         21   -1    0    0  501  502  0.00000000000E+00 -0.00000000000E+00 -0.57371198341E+02  0.57371198341E+02  0.00000000000E+00 0.  1.
         24    2    1    2    0    0 -0.35165775648E+01 -0.90584973374E+01  0.37857730909E+03  0.38752115318E+03  0.82203664818E+02 0.  0.
         23    2    1    2    0    0 -0.25455374258E+02 -0.49598785253E+01  0.27527820075E+02  0.95511316323E+02  0.87704356757E+02 0.  0.
        -13    1    3    3    0    0  0.24352148676E+02 -0.30985973777E+02  0.11491832302E+03  0.12148818331E+03  0.00000000000E+00 0.  1.
         14    1    3    3    0    0 -0.27868726241E+02  0.21927476440E+02  0.26365898607E+03  0.26603296987E+03  0.00000000000E+00 0. -1.
        -13    1    4    4    0    0  0.60101467288E+01  0.26186696681E+02  0.41189312270E+02  0.49177478504E+02  0.00000000000E+00 0.  1.
         13    1    4    4    0    0 -0.31465520986E+02 -0.31146575206E+02 -0.13661492195E+02  0.46333837819E+02  0.00000000000E+00 0. -1.
          1    1    1    2  501    0  0.28971951823E+02  0.14018375863E+02 -0.52107502993E+01  0.32604306049E+02  0.00000000000E+00 0. -1.
<scales pt_clust_5="13000.00000" pt_clust_6="13000.00000" pt_clust_7="13000.00000" pt_clust_8="13000.00000" pt_clust_9="32.18523"></scales>
<clustering>
<clus scale="   32.185">  2  9  1 -1</clus>
<clus scale="   82.204">  5  6 -1 -1</clus>
<clus scale="   82.539">  1  5  2 -1</clus>
<clus scale="   87.704">  7  8 -1 -1</clus>
<clus scale="   32.185">  2  5  1 -1</clus>
</clustering>
</event>
