<event>
 9    1  0.1434065E-005  0.1534427E+03  0.7546771E-02  0.1196911E+00
         -1   -1    0    0    0  501 -0.00000000000E+00  0.00000000000E+00  0.39675548747E+02  0.39675548747E+02  0.00000000000E+00 0.  1.
          1   -1    0    0  502    0  0.00000000000E+00 -0.00000000000E+00 -0.84665472288E+03  0.84665472288E+03  0.00000000000E+00 0. -1.
         23    2    1    2    0    0  0.99832800805E+02 -0.71902206104E+01 -0.19386349832E+03  0.23589368992E+03  0.89691078554E+02 0.  0.
         23    2    1    2    0    0 -0.13702436846E+03  0.12852105619E+02 -0.57245505477E+03  0.59504203550E+03  0.86193851922E+02 0.  0.
        -11    1    3    3    0    0  0.10472636533E+03 -0.31660197081E+02 -0.15570382254E+03  0.19029887028E+03  0.00000000000E+00 0.  1.
         11    1    3    3    0    0 -0.48935645277E+01  0.24469976471E+02 -0.38159675785E+02  0.45594819643E+02  0.00000000000E+00 0. -1.
        -13    1    4    4    0    0 -0.61774995093E+02  0.42583900633E+02 -0.35923216064E+03  0.36698403760E+03  0.00000000000E+00 0. -1.
         13    1    4    4    0    0 -0.75249373365E+02 -0.29731795014E+02 -0.21322289413E+03  0.22805799790E+03  0.00000000000E+00 0.  1.
         21    1    1    2  502  501  0.37191567654E+02 -0.56618850083E+01 -0.40660621040E+02  0.55394546209E+02  0.00000000000E+00 0. -1.
<scales pt_clust_5="13000.00000" pt_clust_6="13000.00000" pt_clust_7="13000.00000" pt_clust_8="13000.00000" pt_clust_9="37.62007"></scales>
<clustering>
<clus scale="   37.620">  1  9  2 -1</clus>
<clus scale="   86.194">  7  8 -1 -1</clus>
<clus scale="   89.691">  5  6 -1 -1</clus>
<clus scale="  151.425">  2  7  1 -1</clus>
<clus scale="  151.425">  2  5  1 -1</clus>
</clustering>
</event>
<event>
 9    1  0.1434065E-005  0.1013834E+03  0.7546771E-02  0.1278853E+00
         -3   -1    0    0    0  501 -0.00000000000E+00  0.00000000000E+00  0.24148698302E+02  0.24148698302E+02  0.00000000000E+00 0.  1.
          3   -1    0    0  502    0  0.00000000000E+00 -0.00000000000E+00 -0.91439666469E+03  0.91439666469E+03  0.00000000000E+00 0. -1.
         23    2    1    2    0    0 -0.17261850172E+02  0.17380385339E+01 -0.22957818392E+03  0.24732324303E+03  0.90341860523E+02 0.  0.
         23    2    1    2    0    0  0.15434815656E+02 -0.55417725946E+02 -0.60108586824E+03  0.61100310893E+03  0.93333917972E+02 0.  0.
        -11    1    3    3    0    0 -0.13215605856E+00  0.43799486289E+02 -0.14298467884E+03  0.14954273920E+03  0.00000000000E+00 0.  1.
         11    1    3    3    0    0 -0.17129694114E+02 -0.42061447755E+02 -0.86593505077E+02  0.97780503830E+02  0.00000000000E+00 0. -1.
        -13    1    4    4    0    0 -0.39184150284E+02 -0.28320782762E+02 -0.28920693473E+03  0.29322025078E+03  0.00000000000E+00 0.  1.
         13    1    4    4    0    0  0.54618965940E+02 -0.27096943184E+02 -0.31187893350E+03  0.31778285815E+03  0.00000000000E+00 0. -1.
         21    1    1    2  502  501  0.18270345161E+01  0.53679687412E+02 -0.59583914234E+02  0.80219011034E+02  0.00000000000E+00 0. -1.
<scales pt_clust_5="13000.00000" pt_clust_6="13000.00000" pt_clust_7="13000.00000" pt_clust_8="13000.00000" pt_clust_9="53.71077"></scales>
<clustering>
<clus scale="   53.711">  1  9  2 -1</clus>
<clus scale="   90.342">  5  6 -1 -1</clus>
<clus scale="   93.334">  7  8 -1 -1</clus>
<clus scale="   98.636">  1  5  2 -1</clus>
<clus scale="  101.383">  2  5  1 -1</clus>
</clustering>
</event>
<event>
 9    1  0.1434065E-005  0.9378666E+02  0.7546771E-02  0.1294725E+00
          2   -1    0    0  502    0  0.00000000000E+00  0.00000000000E+00  0.20527200102E+03  0.20527200102E+03  0.00000000000E+00 0. -1.
         -2   -1    0    0    0  501 -0.00000000000E+00 -0.00000000000E+00 -0.12017918224E+03  0.12017918224E+03  0.00000000000E+00 0.  1.
         23    2    1    2    0    0  0.11369235219E+02 -0.24188447641E+01  0.61120447357E+02  0.11045499063E+03  0.91266015307E+02 0.  0.
         23    2    1    2    0    0  0.38062257540E+02 -0.64272735779E+01  0.88094709100E+02  0.13355050229E+03  0.92655348445E+02 0.  0.
        -11    1    4    4    0    0  0.63758635850E+02 -0.25135001872E+02  0.58099394647E+02  0.89846934410E+02  0.00000000000E+00 0.  1.
         11    1    4    4    0    0 -0.25696378310E+02  0.18707728294E+02  0.29995314452E+02  0.43703567878E+02  0.00000000000E+00 0. -1.
        -11    1    3    3    0    0 -0.69819180608E+01  0.34019203854E+02  0.60374327727E+02  0.69649930791E+02  0.00000000000E+00 0. -1.
         11    1    3    3    0    0  0.18351153279E+02 -0.36438048618E+02  0.74611962995E+00  0.40805059837E+02  0.00000000000E+00 0.  1.
         21    1    1    2  502  501 -0.49431492758E+02  0.88461183420E+01 -0.64122337675E+02  0.81445690340E+02  0.00000000000E+00 0.  1.
<scales pt_clust_5="13000.00000" pt_clust_6="13000.00000" pt_clust_7="13000.00000" pt_clust_8="13000.00000" pt_clust_9="50.21679"></scales>
<clustering>
<clus scale="   50.217">  2  9  1 -1</clus>
<clus scale="   91.266">  7  8 -1 -1</clus>
<clus scale="   92.414">  2  7  1 -1</clus>
<clus scale="   92.655">  5  6 -1 -1</clus>
<clus scale="   93.787">  1  5  2 -1</clus>
</clustering>
</event>
<event>
 9    1  0.1434065E-005  0.1050800E+03  0.7546771E-02  0.1271550E+00
         -2   -1    0    0    0  501 -0.00000000000E+00  0.00000000000E+00  0.70555692915E+02  0.70555692915E+02  0.00000000000E+00 0.  1.
          2   -1    0    0  502    0  0.00000000000E+00 -0.00000000000E+00 -0.43375978398E+03  0.43375978398E+03  0.00000000000E+00 0. -1.
         23    2    1    2    0    0 -0.83470854410E+00  0.61301834173E+02 -0.82363475993E+01  0.10957407101E+03  0.90443507253E+02 0.  0.
         23    2    1    2    0    0 -0.44829007037E+02 -0.13953329502E+02 -0.26888407160E+03  0.28640187304E+03  0.86735538542E+02 0.  0.
        -11    1    4    4    0    0 -0.53500809874E+00 -0.40872745015E+02 -0.71845042559E+02  0.82659407565E+02  0.00000000000E+00 0.  1.
         11    1    4    4    0    0 -0.44293998938E+02  0.26919415513E+02 -0.19703902904E+03  0.20374246548E+03  0.00000000000E+00 0. -1.
        -13    1    3    3    0    0 -0.21932085928E+02  0.71837177562E+02  0.14859512200E+02  0.76566321422E+02  0.00000000000E+00 0. -1.
         13    1    3    3    0    0  0.21097377384E+02 -0.10535343390E+02 -0.23095859799E+02  0.33007749586E+02  0.00000000000E+00 0.  1.
         21    1    1    2  502  501  0.45663715581E+02 -0.47348504671E+02 -0.86083671870E+02  0.10833953285E+03  0.00000000000E+00 0.  1.
<scales pt_clust_5="13000.00000" pt_clust_6="13000.00000" pt_clust_7="13000.00000" pt_clust_8="13000.00000" pt_clust_9="65.78036"></scales>
<clustering>
<clus scale="   65.780">  2  9  1 -1</clus>
<clus scale="   86.736">  5  6 -1 -1</clus>
<clus scale="   90.444">  7  8 -1 -1</clus>
<clus scale="  101.906">  2  5  1 -1</clus>
<clus scale="   65.780">  2  5  1 -1</clus>
</clustering>
</event>
<event>
 9    1  0.1434065E-005  0.1691869E+03  0.7546771E-02  0.1178717E+00
          1   -1    0    0  502    0  0.00000000000E+00  0.00000000000E+00  0.15052896442E+03  0.15052896442E+03  0.00000000000E+00 0. -1.
         -1   -1    0    0    0  501 -0.00000000000E+00 -0.00000000000E+00 -0.25378586759E+03  0.25378586759E+03  0.00000000000E+00 0.  1.
         23    2    1    2    0    0  0.75861032798E+02 -0.93293055697E+02 -0.30739608404E+02  0.15448069954E+03  0.91983000964E+02 0.  0.
         23    2    1    2    0    0 -0.11797267634E+03  0.11749751648E+03 -0.62068255284E+02  0.20015084686E+03  0.92112292563E+02 0.  0.
        -11    1    4    4    0    0 -0.83160674186E+02  0.10470539960E+03 -0.71769166277E+01  0.13390454275E+03  0.00000000000E+00 0. -1.
         11    1    4    4    0    0 -0.34812002158E+02  0.12792116878E+02 -0.54891338656E+02  0.66246304107E+02  0.00000000000E+00 0.  1.
        -13    1    3    3    0    0  0.71614565667E+02 -0.58304770861E+02 -0.58757898458E+02  0.10945584933E+03  0.00000000000E+00 0.  1.
         13    1    3    3    0    0  0.42464671306E+01 -0.34988284836E+02  0.28018290054E+02  0.45024850210E+02  0.00000000000E+00 0. -1.
         21    1    1    2  502  501  0.42111643546E+02 -0.24204460781E+02 -0.10449039484E+02  0.49683285620E+02  0.00000000000E+00 0.  1.
<scales pt_clust_5="13000.00000" pt_clust_6="13000.00000" pt_clust_7="13000.00000" pt_clust_8="13000.00000" pt_clust_9="48.57207"></scales>
<clustering>
<clus scale="   48.572">  1  9  2 -1</clus>
<clus scale="   91.983">  7  8 -1 -1</clus>
<clus scale="   92.112">  5  6 -1 -1</clus>
<clus scale="  169.117">  2  7  1 -1</clus>
<clus scale="   48.572">  1  5  2 -1</clus>
</clustering>
</event>
<event>
 9    1  0.1434065E-005  0.1005825E+03  0.7546771E-02  0.1281850E+00
         -1   -1    0    0    0  501 -0.00000000000E+00  0.00000000000E+00  0.29911594710E+03  0.29911594710E+03  0.00000000000E+00 0.  1.
          1   -1    0    0  502    0  0.00000000000E+00 -0.00000000000E+00 -0.62411869991E+02  0.62411869991E+02  0.00000000000E+00 0. -1.
         23    2    1    2    0    0  0.24093785812E+02  0.12849394087E+02  0.14102823529E+03  0.16773190577E+03  0.86599143299E+02 0.  0.
         23    2    1    2    0    0 -0.30364071353E+02 -0.33312080714E+02  0.73876189281E+01  0.10295072254E+03  0.92263767572E+02 0.  0.
        -13    1    4    4    0    0  0.27709673311E+02 -0.27099738544E+01  0.22256601139E+02  0.35644442029E+02  0.00000000000E+00 0.  1.
         13    1    4    4    0    0 -0.58073744665E+02 -0.30602106860E+02 -0.14868982211E+02  0.67306280507E+02  0.00000000000E+00 0. -1.
        -13    1    3    3    0    0  0.43041652432E+02  0.39102893818E+02  0.84233139613E+02  0.10235644561E+03  0.00000000000E+00 0.  1.
         13    1    3    3    0    0 -0.18947866621E+02 -0.26253499731E+02  0.56795095681E+02  0.65375460159E+02  0.00000000000E+00 0. -1.
         21    1    1    2  502  501  0.62702855416E+01  0.20462686628E+02  0.88288222888E+02  0.90845188785E+02  0.00000000000E+00 0. -1.
<scales pt_clust_5="13000.00000" pt_clust_6="13000.00000" pt_clust_7="13000.00000" pt_clust_8="13000.00000" pt_clust_9="21.40182"></scales>
<clustering>
<clus scale="   21.402">  1  9  2 -1</clus>
<clus scale="   86.599">  7  8 -1 -1</clus>
<clus scale="   92.264">  5  6 -1 -1</clus>
<clus scale="   95.413">  1  7  2 -1</clus>
<clus scale="  100.583">  2  5  1 -1</clus>
</clustering>
</event>
<event>
 9    1  0.1434065E-005  0.9468567E+02  0.7546771E-02  0.1302121E+00
          1   -1    0    0  502    0  0.00000000000E+00  0.00000000000E+00  0.45192905856E+03  0.45192905856E+03  0.00000000000E+00 0. -1.
         -1   -1    0    0    0  501 -0.00000000000E+00 -0.00000000000E+00 -0.48359243442E+02  0.48359243442E+02  0.00000000000E+00 0.  1.
         23    2    1    2    0    0 -0.25039878799E+02 -0.14204772301E+02  0.66076868089E+02  0.11823138207E+03  0.93721588352E+02 0.  0.
         23    2    1    2    0    0  0.11551370502E+02 -0.15990949945E+01  0.34946783507E+03  0.35807567682E+03  0.77164961738E+02 0.  0.
        -13    1    3    3    0    0  0.85718790261E+01  0.29559469589E+02 -0.17086624795E+01  0.30824647279E+02  0.00000000000E+00 0.  1.
         13    1    3    3    0    0 -0.33611757825E+02 -0.43764241890E+02  0.67785530569E+02  0.87406734791E+02  0.00000000000E+00 0. -1.
        -13    1    4    4    0    0  0.37500842404E+02  0.21317266961E+02  0.17853639364E+03  0.18367357704E+03  0.00000000000E+00 0. -1.
         13    1    4    4    0    0 -0.25949471902E+02 -0.22916361955E+02  0.17093144143E+03  0.17440209978E+03  0.00000000000E+00 0.  1.
         21    1    1    2  502  501  0.13488508297E+02  0.15803867296E+02 -0.11974888037E+02  0.23981243110E+02  0.00000000000E+00 0. -1.
<scales pt_clust_5="13000.00000" pt_clust_6="13000.00000" pt_clust_7="13000.00000" pt_clust_8="13000.00000" pt_clust_9="20.77744"></scales>
<clustering>
<clus scale="   20.777">  2  9  1 -1</clus>
<clus scale="   77.165">  7  8 -1 -1</clus>
<clus scale="   78.333">  1  7  2 -1</clus>
<clus scale="   93.722">  5  6 -1 -1</clus>
<clus scale="   78.333">  1  5  2 -1</clus>
</clustering>
</event>
<event>
 9    1  0.1434065E-005  0.1006690E+03  0.7546771E-02  0.1279073E+00
         -2   -1    0    0    0  501 -0.00000000000E+00  0.00000000000E+00  0.44261472285E+03  0.44261472285E+03  0.00000000000E+00 0.  1.
          2   -1    0    0  502    0  0.00000000000E+00 -0.00000000000E+00 -0.15592089135E+03  0.15592089135E+03  0.00000000000E+00 0. -1.
         23    2    1    2    0    0  0.24048176845E+02 -0.32183299569E+02  0.77062475475E+02  0.12609250115E+03  0.91359805922E+02 0.  0.
         23    2    1    2    0    0  0.25635973992E+02  0.39829972495E+02 -0.10911368457E+03  0.14975845685E+03  0.90984445746E+02 0.  0.
        -13    1    4    4    0    0  0.15066287807E+02 -0.25884565617E+02 -0.12538525130E+02  0.32468729232E+02  0.00000000000E+00 0.  1.
         13    1    4    4    0    0  0.10569686186E+02  0.65714538112E+02 -0.96575159436E+02  0.11728972762E+03  0.00000000000E+00 0. -1.
        -13    1    3    3    0    0  0.47709451166E+02  0.88568604675E+01  0.21493990939E+02  0.53071907393E+02  0.00000000000E+00 0. -1.
         13    1    3    3    0    0 -0.23661274320E+02 -0.41040160037E+02  0.55568484537E+02  0.73020593753E+02  0.00000000000E+00 0.  1.
         21    1    1    2  502  501 -0.49684150838E+02 -0.76466729260E+01  0.31874504058E+03  0.32268465620E+03  0.00000000000E+00 0.  1.
<scales pt_clust_5="13000.00000" pt_clust_6="13000.00000" pt_clust_7="13000.00000" pt_clust_8="13000.00000" pt_clust_9="50.26914"></scales>
<clustering>
<clus scale="   50.269">  1  9  2 -1</clus>
<clus scale="   90.984">  5  6 -1 -1</clus>
<clus scale="   91.360">  7  8 -1 -1</clus>
<clus scale="  100.328">  2  5  1 -1</clus>
<clus scale="  100.328">  2  5  1 -1</clus>
</clustering>
</event>
<event>
 9    1  0.1434065E-005  0.9673498E+02  0.7546771E-02  0.1287994E+00
         -1   -1    0    0    0  501 -0.00000000000E+00  0.00000000000E+00  0.61142540605E+02  0.61142540605E+02  0.00000000000E+00 0.  1.
          1   -1    0    0  502    0  0.00000000000E+00 -0.00000000000E+00 -0.50873648152E+03  0.50873648152E+03  0.00000000000E+00 0. -1.
         23    2    1    2    0    0 -0.16927501893E+02 -0.37014973896E+02 -0.22369757732E+03  0.24533547865E+03  0.92153363343E+02 0.  0.
         23    2    1    2    0    0  0.30447856917E+02 -0.14817765893E+00 -0.25616462875E+03  0.27350296384E+03  0.90865066214E+02 0.  0.
        -13    1    4    4    0    0 -0.20305098127E+02 -0.26296510411E+02 -0.53736618206E+02  0.63177746129E+02  0.00000000000E+00 0.  1.
         13    1    4    4    0    0  0.50752955044E+02  0.26148332752E+02 -0.20242801055E+03  0.21032521771E+03  0.00000000000E+00 0. -1.
        -13    1    3    3    0    0 -0.34757364042E+02  0.11046518604E+02 -0.37907138423E+02  0.52602766770E+02  0.00000000000E+00 0.  1.
         13    1    3    3    0    0  0.17829862149E+02 -0.48061492500E+02 -0.18579043889E+03  0.19273271188E+03  0.00000000000E+00 0. -1.
         21    1    1    2  502  501 -0.13520355024E+02  0.37163151555E+02  0.32268265153E+02  0.51040579635E+02  0.00000000000E+00 0. -1.
<scales pt_clust_5="13000.00000" pt_clust_6="13000.00000" pt_clust_7="13000.00000" pt_clust_8="13000.00000" pt_clust_9="39.54617"></scales>
<clustering>
<clus scale="   39.546">  1  9  2 -1</clus>
<clus scale="   90.865">  5  6 -1 -1</clus>
<clus scale="   92.153">  7  8 -1 -1</clus>
<clus scale="   95.509">  2  5  1 -1</clus>
<clus scale="   95.509">  2  5  1 -1</clus>
</clustering>
</event>
<event>
 9    1  0.1434065E-005  0.2843986E+03  0.7546771E-02  0.1131945E+00
          3   -1    0    0  502    0  0.00000000000E+00  0.00000000000E+00  0.15568552116E+03  0.15568552116E+03  0.00000000000E+00 0. -1.
         -3   -1    0    0    0  501 -0.00000000000E+00 -0.00000000000E+00 -0.72295609835E+03  0.72295609835E+03  0.00000000000E+00 0.  1.
         23    2    1    2    0    0 -0.10718912537E+02 -0.52227909230E+02 -0.11479939027E+03  0.15677987618E+03  0.92511512690E+02 0.  0.
         23    2    1    2    0    0 -0.17325789833E+03 -0.16908736919E+03 -0.29866812255E+03  0.39554395035E+03  0.92970594692E+02 0.  0.
        -11    1    3    3    0    0  0.23970037516E+02  0.14752086065E+02 -0.49821079910E+02  0.57221733155E+02  0.00000000000E+00 0.  1.
         11    1    3    3    0    0 -0.34688950053E+02 -0.66979995295E+02 -0.64978310360E+02  0.99558143026E+02  0.00000000000E+00 0. -1.
        -13    1    4    4    0    0 -0.16593989541E+02 -0.41025347735E+02 -0.11128589682E+03  0.11976222475E+03  0.00000000000E+00 0.  1.
         13    1    4    4    0    0 -0.15666390879E+03 -0.12806202146E+03 -0.18738222573E+03  0.27578172561E+03  0.00000000000E+00 0. -1.
         21    1    1    2  502  501  0.18397681087E+03  0.22131527842E+03 -0.15380306438E+03  0.32631779298E+03  0.00000000000E+00 0.  1.
<scales pt_clust_5="13000.00000" pt_clust_6="13000.00000" pt_clust_7="13000.00000" pt_clust_8="13000.00000" pt_clust_9="268.77316"></scales>
<clustering>
<clus scale="   92.512">  5  6 -1 -1</clus>
<clus scale="   92.971">  7  8 -1 -1</clus>
<clus scale="  106.776">  2  5  1 -1</clus>
<clus scale="  268.773">  1  9  2 -1</clus>
<clus scale="  268.773">  1  5  2 -1</clus>
</clustering>
</event>
<event>
 9    1  0.1434065E-005  0.1618736E+03  0.7546771E-02  0.1186980E+00
          1   -1    0    0  502    0  0.00000000000E+00  0.00000000000E+00  0.83540330484E+03  0.83540330484E+03  0.00000000000E+00 0. -1.
         -1   -1    0    0    0  501 -0.00000000000E+00 -0.00000000000E+00 -0.49701385307E+02  0.49701385307E+02  0.00000000000E+00 0.  1.
         23    2    1    2    0    0  0.11029211546E+03 -0.12835376316E+03  0.40417604239E+03  0.44775782092E+03  0.92139859471E+02 0.  0.
         23    2    1    2    0    0 -0.73190207208E+02  0.80628524616E+02  0.32618281588E+03  0.35538892623E+03  0.89712285083E+02 0.  0.
        -11    1    4    4    0    0  0.15768943234E+02  0.14702812099E+02  0.18568244097E+02  0.28453680661E+02  0.00000000000E+00 0.  1.
         11    1    4    4    0    0 -0.88959150442E+02  0.65925712517E+02  0.30761457178E+03  0.32693524556E+03  0.00000000000E+00 0. -1.
        -13    1    3    3    0    0  0.90231061557E+02 -0.64418910995E+02  0.16072692303E+03  0.19525517752E+03  0.00000000000E+00 0.  1.
         13    1    3    3    0    0  0.20061053907E+02 -0.63934852169E+02  0.24344911936E+03  0.25250264339E+03  0.00000000000E+00 0. -1.
         21    1    1    2  502  501 -0.37101908256E+02  0.47725238548E+02  0.55343061264E+02  0.81957943000E+02  0.00000000000E+00 0. -1.
<scales pt_clust_5="13000.00000" pt_clust_6="13000.00000" pt_clust_7="13000.00000" pt_clust_8="13000.00000" pt_clust_9="60.45039"></scales>
<clustering>
<clus scale="   60.450">  2  9  1 -1</clus>
<clus scale="   89.712">  5  6 -1 -1</clus>
<clus scale="   92.140">  7  8 -1 -1</clus>
<clus scale="  160.504">  1  5  2 -1</clus>
<clus scale="  160.504">  1  5  2 -1</clus>
</clustering>
</event>
<event>
 9    1  0.1434065E-005  0.1214512E+03  0.7546771E-02  0.1241619E+00
          2   -1    0    0  502    0  0.00000000000E+00  0.00000000000E+00  0.87671682553E+02  0.87671682553E+02  0.00000000000E+00 0. -1.
         -2   -1    0    0    0  501 -0.00000000000E+00 -0.00000000000E+00 -0.32167131305E+03  0.32167131305E+03  0.00000000000E+00 0.  1.
         23    2    1    2    0    0  0.11975776803E+03 -0.95686529773E+00 -0.73162544944E+02  0.16640008161E+03  0.89405763711E+02 0.  0.
         23    2    1    2    0    0 -0.41304137522E+02 -0.13817774840E+02 -0.84825989918E+02  0.13271157185E+03  0.92303575545E+02 0.  0.
        -11    1    4    4    0    0 -0.62337098430E+02 -0.26948169301E+02 -0.83843086078E+02  0.10789708408E+03  0.00000000000E+00 0.  1.
         11    1    4    4    0    0  0.21032960908E+02  0.13130394460E+02 -0.98290383943E+00  0.24814487768E+02  0.00000000000E+00 0. -1.
        -13    1    3    3    0    0  0.74762860695E+01 -0.30501891522E+02 -0.27141977624E+02  0.41508399019E+02  0.00000000000E+00 0.  1.
         13    1    3    3    0    0  0.11228148196E+03  0.29545026224E+02 -0.46020567321E+02  0.12489168260E+03  0.00000000000E+00 0. -1.
         21    1    1    2  502  501 -0.78453630504E+02  0.14774640138E+02 -0.76011095633E+02  0.11023134214E+03  0.00000000000E+00 0.  1.
<scales pt_clust_5="13000.00000" pt_clust_6="13000.00000" pt_clust_7="13000.00000" pt_clust_8="13000.00000" pt_clust_9="79.83271"></scales>
<clustering>
<clus scale="   79.833">  2  9  1 -1</clus>
<clus scale="   89.406">  7  8 -1 -1</clus>
<clus scale="   92.304">  5  6 -1 -1</clus>
<clus scale="  119.264">  2  7  1 -1</clus>
<clus scale="  121.451">  1  5  2 -1</clus>
</clustering>
</event>
<event>
 9    1  0.1434065E-005  0.1072792E+03  0.7546771E-02  0.1267050E+00
         -3   -1    0    0    0  501 -0.00000000000E+00  0.00000000000E+00  0.31029453426E+03  0.31029453426E+03  0.00000000000E+00 0.  1.
          3   -1    0    0  502    0  0.00000000000E+00 -0.00000000000E+00 -0.10627845003E+03  0.10627845003E+03  0.00000000000E+00 0. -1.
         23    2    1    2    0    0  0.68865912677E+02  0.38943489095E+02  0.20386748650E+03  0.23811790190E+03  0.94228837844E+02 0.  0.
         23    2    1    2    0    0 -0.28041189311E+02 -0.39047354021E+02 -0.49455750481E+02  0.11421132637E+03  0.91034892555E+02 0.  0.
        -11    1    4    4    0    0 -0.20918463491E+02  0.16570269204E+02  0.13499028389E+02  0.29906181698E+02  0.00000000000E+00 0.  1.
         11    1    4    4    0    0 -0.71227258201E+01 -0.55617623225E+02 -0.62954778870E+02  0.84305144676E+02  0.00000000000E+00 0. -1.
        -11    1    3    3    0    0  0.90877012555E+01  0.43135244597E+02  0.15391547274E+03  0.16010374258E+03  0.00000000000E+00 0.  1.
         11    1    3    3    0    0  0.59778211421E+02 -0.41917555021E+01  0.49952013756E+02  0.78014159312E+02  0.00000000000E+00 0. -1.
         21    1    1    2  502  501 -0.40824723366E+02  0.10386492619E+00  0.49604348211E+02  0.64243756017E+02  0.00000000000E+00 0.  1.
<scales pt_clust_5="13000.00000" pt_clust_6="13000.00000" pt_clust_7="13000.00000" pt_clust_8="13000.00000" pt_clust_9="40.82486"></scales>
<clustering>
<clus scale="   40.825">  1  9  2 -1</clus>
<clus scale="   91.035">  5  6 -1 -1</clus>
<clus scale="   94.229">  7  8 -1 -1</clus>
<clus scale="  104.485">  2  5  1 -1</clus>
<clus scale="  104.485">  2  5  1 -1</clus>
</clustering>
</event>
<event>
 9    1  0.1434065E-005  0.9856536E+02  0.7546771E-02  0.1286231E+00
         -2   -1    0    0    0  501 -0.00000000000E+00  0.00000000000E+00  0.48405405492E+02  0.48405405492E+02  0.00000000000E+00 0.  1.
          2   -1    0    0  502    0  0.00000000000E+00 -0.00000000000E+00 -0.25709399018E+03  0.25709399018E+03  0.00000000000E+00 0. -1.
         23    2    1    2    0    0 -0.26121632700E+02  0.33274186055E+01 -0.59355444194E+02  0.11211451804E+03  0.91395760244E+02 0.  0.
         23    2    1    2    0    0  0.67922448495E+01  0.12623173274E+02 -0.12024657741E+03  0.15499119628E+03  0.96734442938E+02 0.  0.
        -13    1    3    3    0    0 -0.21316755197E+01  0.45983212866E+02 -0.31831776129E+02  0.55966613954E+02  0.00000000000E+00 0.  1.
         13    1    3    3    0    0 -0.23989957181E+02 -0.42655794260E+02 -0.27523668065E+02  0.56147904086E+02  0.00000000000E+00 0. -1.
        -13    1    4    4    0    0  0.47273692709E+02  0.15568902379E+02 -0.35839640473E+02  0.61332475679E+02  0.00000000000E+00 0.  1.
         13    1    4    4    0    0 -0.40481447860E+02 -0.29457291049E+01 -0.84406936937E+02  0.93658720597E+02  0.00000000000E+00 0. -1.
         21    1    1    2  502  501  0.19329387851E+02 -0.15950591879E+02 -0.29086563084E+02  0.38393681356E+02  0.00000000000E+00 0. -1.
<scales pt_clust_5="13000.00000" pt_clust_6="13000.00000" pt_clust_7="13000.00000" pt_clust_8="13000.00000" pt_clust_9="25.06086"></scales>
<clustering>
<clus scale="   25.061">  2  9  1 -1</clus>
<clus scale="   91.396">  5  6 -1 -1</clus>
<clus scale="   93.331">  1  5  2 -1</clus>
<clus scale="   96.734">  7  8 -1 -1</clus>
<clus scale="   25.061">  2  5  1 -1</clus>
</clustering>
</event>
<event>
 9    1  0.1434065E-005  0.1027984E+03  0.7546771E-02  0.1275962E+00
         -1   -1    0    0    0  501 -0.00000000000E+00  0.00000000000E+00  0.19735225567E+03  0.19735225567E+03  0.00000000000E+00 0.  1.
          1   -1    0    0  502    0  0.00000000000E+00 -0.00000000000E+00 -0.15342568429E+03  0.15342568429E+03  0.00000000000E+00 0. -1.
         23    2    1    2    0    0 -0.75587626471E+01 -0.19365785364E+02  0.54652764426E+00  0.90248410538E+02  0.87819749355E+02 0.  0.
         23    2    1    2    0    0 -0.24332113586E+02  0.65921865696E+02 -0.69487837288E+02  0.13434056330E+03  0.91000457629E+02 0.  0.
        -11    1    4    4    0    0  0.22392976299E+02  0.59275109965E+02 -0.57691900093E+02  0.85693286699E+02  0.00000000000E+00 0. -1.
         11    1    4    4    0    0 -0.46725089885E+02  0.66467557307E+01 -0.11795937195E+02  0.48647276602E+02  0.00000000000E+00 0.  1.
        -13    1    3    3    0    0 -0.38963363716E+02  0.37870925273E+01  0.22828999774E+02  0.45317204377E+02  0.00000000000E+00 0.  1.
         13    1    3    3    0    0  0.31404601069E+02 -0.23152877891E+02 -0.22282472130E+02  0.44931206161E+02  0.00000000000E+00 0. -1.
         21    1    1    2  502  501  0.31890876233E+02 -0.46556080332E+02  0.11286788102E+03  0.12618896611E+03  0.00000000000E+00 0. -1.
<scales pt_clust_5="13000.00000" pt_clust_6="13000.00000" pt_clust_7="13000.00000" pt_clust_8="13000.00000" pt_clust_9="56.43134"></scales>
<clustering>
<clus scale="   56.431">  1  9  2 -1</clus>
<clus scale="   87.820">  7  8 -1 -1</clus>
<clus scale="   91.000">  5  6 -1 -1</clus>
<clus scale="   99.994">  1  7  2 -1</clus>
<clus scale="  102.798">  2  5  1 -1</clus>
</clustering>
</event>
<event>
 9    1  0.1434065E-005  0.2395062E+03  0.7546771E-02  0.1120208E+00
          3   -1    0    0  502    0  0.00000000000E+00  0.00000000000E+00  0.23020667702E+03  0.23020667702E+03  0.00000000000E+00 0. -1.
         -3   -1    0    0    0  501 -0.00000000000E+00 -0.00000000000E+00 -0.76138468036E+03  0.76138468036E+03  0.00000000000E+00 0.  1.
         23    2    1    2    0    0 -0.43442760384E+02 -0.24643902540E+03 -0.45909577186E+03  0.53074289637E+03  0.91102292168E+02 0.  0.
         23    2    1    2    0    0  0.15460687297E+03  0.16040724993E+03  0.80570466278E+02  0.25333515433E+03  0.89740344239E+02 0.  0.
        -11    1    4    4    0    0  0.77370334472E+02  0.84040079019E+02 -0.60749795498E+01  0.11439322058E+03  0.00000000000E+00 0.  1.
         11    1    4    4    0    0  0.77236538494E+02  0.76367170909E+02  0.86645445828E+02  0.13894193375E+03  0.00000000000E+00 0. -1.
        -13    1    3    3    0    0 -0.34242537375E+02 -0.16219013076E+03 -0.38099545430E+03  0.41549455602E+03  0.00000000000E+00 0.  1.
         13    1    3    3    0    0 -0.92002230086E+01 -0.84248894638E+02 -0.78100317557E+02  0.11524834035E+03  0.00000000000E+00 0. -1.
         21    1    1    2  502  501 -0.11116411258E+03  0.86031775472E+02 -0.15265269777E+03  0.20751330669E+03  0.00000000000E+00 0.  1.
<scales pt_clust_5="13000.00000" pt_clust_6="13000.00000" pt_clust_7="13000.00000" pt_clust_8="13000.00000" pt_clust_9="140.56645"></scales>
<clustering>
<clus scale="   89.740">  5  6 -1 -1</clus>
<clus scale="   91.102">  7  8 -1 -1</clus>
<clus scale="  140.566">  2  9  1 -1</clus>
<clus scale="  238.991">  1  5  2 -1</clus>
<clus scale="  238.991">  1  5  2 -1</clus>
</clustering>
</event>
<event>
 9    1  0.1434065E-005  0.1071759E+03  0.7546771E-02  0.1271606E+00
         -2   -1    0    0    0  501 -0.00000000000E+00  0.00000000000E+00  0.11068923184E+03  0.11068923184E+03  0.00000000000E+00 0.  1.
          2   -1    0    0  502    0  0.00000000000E+00 -0.00000000000E+00 -0.46786987792E+03  0.46786987792E+03  0.00000000000E+00 0. -1.
         23    2    1    2    0    0 -0.49026259204E+02  0.84395851025E+02 -0.34394774360E+02  0.13813181408E+03  0.91494064270E+02 0.  0.
         23    2    1    2    0    0  0.25013128420E+02  0.74381130652E+01 -0.32851282259E+03  0.34533310354E+03  0.10321480355E+03 0.  0.
        -11    1    3    3    0    0 -0.86731139603E+01  0.33771256261E+02  0.30603656255E+02  0.46392935146E+02  0.00000000000E+00 0.  1.
         11    1    3    3    0    0 -0.40353145243E+02  0.50624594764E+02 -0.64998430616E+02  0.91738878937E+02  0.00000000000E+00 0. -1.
        -11    1    4    4    0    0 -0.98716254985E+01  0.48680885670E+02 -0.11860538756E+03  0.12858660730E+03  0.00000000000E+00 0.  1.
         11    1    4    4    0    0  0.34884753918E+02 -0.41242772605E+02 -0.20990743503E+03  0.21674649623E+03  0.00000000000E+00 0. -1.
         21    1    1    2  502  501  0.24013130784E+02 -0.91833964090E+02  0.57269508735E+01  0.95094192130E+02  0.00000000000E+00 0. -1.
<scales pt_clust_5="13000.00000" pt_clust_6="13000.00000" pt_clust_7="13000.00000" pt_clust_8="13000.00000" pt_clust_9="94.92159"></scales>
<clustering>
<clus scale="   91.494">  5  6 -1 -1</clus>
<clus scale="   94.922">  1  9  2 -1</clus>
<clus scale="   95.940">  1  5  2 -1</clus>
<clus scale="  103.215">  7  8 -1 -1</clus>
<clus scale="  107.176">  2  5  1 -1</clus>
</clustering>
</event>
<event>
 9    1  0.1434065E-005  0.1177759E+03  0.7546771E-02  0.1247203E+00
          2   -1    0    0  502    0  0.00000000000E+00  0.00000000000E+00  0.16225336025E+03  0.16225336025E+03  0.00000000000E+00 0. -1.
         -2   -1    0    0    0  501 -0.00000000000E+00 -0.00000000000E+00 -0.24139066741E+03  0.24139066741E+03  0.00000000000E+00 0.  1.
         23    2    1    2    0    0 -0.85557694264E+02  0.44648981457E+01 -0.48281877714E+02  0.13401803876E+03  0.91047463636E+02 0.  0.
         23    2    1    2    0    0  0.69262551493E+02  0.21424396512E+02  0.89096112534E+02  0.14583519893E+03  0.89852557965E+02 0.  0.
        -13    1    4    4    0    0  0.52108177628E+02  0.41882755444E+02  0.17039094273E+02  0.68991000232E+02  0.00000000000E+00 0.  1.
         13    1    4    4    0    0  0.17154373865E+02 -0.20458358932E+02  0.72057018260E+02  0.76844198697E+02  0.00000000000E+00 0. -1.
        -13    1    3    3    0    0 -0.91684876980E+02  0.29620288458E+02 -0.25842232791E+02  0.99756198558E+02  0.00000000000E+00 0. -1.
         13    1    3    3    0    0  0.61271827159E+01 -0.25155390313E+02 -0.22439644923E+02  0.34261840202E+02  0.00000000000E+00 0.  1.
         21    1    1    2  502  501  0.16295142770E+02 -0.25889294658E+02 -0.11995154199E+03  0.12379078997E+03  0.00000000000E+00 0.  1.
<scales pt_clust_5="13000.00000" pt_clust_6="13000.00000" pt_clust_7="13000.00000" pt_clust_8="13000.00000" pt_clust_9="30.59064"></scales>
<clustering>
<clus scale="   30.591">  2  9  1 -1</clus>
<clus scale="   89.853">  5  6 -1 -1</clus>
<clus scale="   91.047">  7  8 -1 -1</clus>
<clus scale="  116.855">  1  5  2 -1</clus>
<clus scale="  116.855">  1  5  2 -1</clus>
</clustering>
</event>
<event>
 9    1  0.1434065E-005  0.1227644E+03  0.7546771E-02  0.1248395E+00
          1   -1    0    0  502    0  0.00000000000E+00  0.00000000000E+00  0.48505336456E+03  0.48505336456E+03  0.00000000000E+00 0. -1.
         -1   -1    0    0    0  501 -0.00000000000E+00 -0.00000000000E+00 -0.52614216870E+02  0.52614216870E+02  0.00000000000E+00 0.  1.
         23    2    1    2    0    0 -0.29134106573E+02 -0.47854325124E+02  0.85264676052E+02  0.13634796708E+03  0.90453692830E+02 0.  0.
         23    2    1    2    0    0 -0.13481561344E+02  0.42850800964E+02  0.33479055263E+03  0.35665988018E+03  0.11447101100E+03 0.  0.
        -11    1    4    4    0    0  0.40893841123E+02  0.73825145185E+00  0.55003521397E+02  0.68543698638E+02  0.00000000000E+00 0.  1.
         11    1    4    4    0    0 -0.54375402466E+02  0.42112549512E+02  0.27978703123E+03  0.28811618154E+03  0.00000000000E+00 0. -1.
        -13    1    3    3    0    0 -0.47150106444E+01 -0.54178238476E+02  0.78739008634E+01  0.54950078841E+02  0.00000000000E+00 0.  1.
         13    1    3    3    0    0 -0.24419095929E+02  0.63239133524E+01  0.77390775189E+02  0.81397888242E+02  0.00000000000E+00 0. -1.
         21    1    1    2  502  501  0.42615667917E+02  0.50035241596E+01  0.12383919009E+02  0.44659734169E+02  0.00000000000E+00 0.  1.
<scales pt_clust_5="13000.00000" pt_clust_6="13000.00000" pt_clust_7="13000.00000" pt_clust_8="13000.00000" pt_clust_9="42.90840"></scales>
<clustering>
<clus scale="   42.908">  2  9  1 -1</clus>
<clus scale="   90.454">  7  8 -1 -1</clus>
<clus scale="  100.744">  2  7  1 -1</clus>
<clus scale="  114.471">  5  6 -1 -1</clus>
<clus scale="  122.764">  1  5  2 -1</clus>
</clustering>
</event>
<event>
 9    1  0.1434065E-005  0.1000974E+03  0.7546771E-02  0.1280771E+00
          2   -1    0    0  502    0  0.00000000000E+00  0.00000000000E+00  0.15963050398E+03  0.15963050398E+03  0.00000000000E+00 0. -1.
         -2   -1    0    0    0  501 -0.00000000000E+00 -0.00000000000E+00 -0.27726015461E+03  0.27726015461E+03  0.00000000000E+00 0.  1.
         23    2    1    2    0    0 -0.92421567823E+01  0.34191618450E+01 -0.18504985300E+03  0.20665426935E+03  0.91462729116E+02 0.  0.
         23    2    1    2    0    0 -0.36647180034E+01 -0.40418394339E+02  0.12479680441E+03  0.16075542002E+03  0.92849264481E+02 0.  0.
        -11    1    3    3    0    0 -0.31143972255E+02  0.32454178739E+02 -0.14821551896E+03  0.15489047997E+03  0.00000000000E+00 0.  1.
         11    1    3    3    0    0  0.21901815473E+02 -0.29035016894E+02 -0.36834334040E+02  0.51763789382E+02  0.00000000000E+00 0. -1.
        -13    1    4    4    0    0  0.16838371836E+02 -0.63804357143E+02  0.10458711554E+03  0.12366483531E+03  0.00000000000E+00 0. -1.
         13    1    4    4    0    0 -0.20503089840E+02  0.23385962804E+02  0.20209688870E+02  0.37090584701E+02  0.00000000000E+00 0.  1.
         21    1    1    2  502  501  0.12906874786E+02  0.36999232494E+02 -0.57376602039E+02  0.69480969218E+02  0.00000000000E+00 0.  1.
<scales pt_clust_5="13000.00000" pt_clust_6="13000.00000" pt_clust_7="13000.00000" pt_clust_8="13000.00000" pt_clust_9="39.18585"></scales>
<clustering>
<clus scale="   39.186">  2  9  1 -1</clus>
<clus scale="   91.463">  5  6 -1 -1</clus>
<clus scale="   92.849">  7  8 -1 -1</clus>
<clus scale="   98.813">  2  5  1 -1</clus>
<clus scale="  100.097">  1  5  2 -1</clus>
</clustering>
</event>
<event>
 9    1  0.1434065E-005  0.1022976E+03  0.7546771E-02  0.1278382E+00
          1   -1    0    0  502    0  0.00000000000E+00  0.00000000000E+00  0.35626400110E+03  0.35626400110E+03  0.00000000000E+00 0. -1.
         -1   -1    0    0    0  501 -0.00000000000E+00 -0.00000000000E+00 -0.46536249364E+02  0.46536249364E+02  0.00000000000E+00 0.  1.
         23    2    1    2    0    0 -0.47314248006E+02 -0.26964179411E+02  0.55247268190E+02  0.11566136261E+03  0.85788024358E+02 0.  0.
         23    2    1    2    0    0  0.42464012599E+02  0.53632638896E+01  0.24043579924E+03  0.26092100288E+03  0.91860977704E+02 0.  0.
        -11    1    3    3    0    0  0.52989366832E+01  0.21457039361E+02 -0.44121419931E+01  0.22537751997E+02  0.00000000000E+00 0. -1.
         11    1    3    3    0    0 -0.52613184689E+02 -0.48421218773E+02  0.59659410184E+02  0.93123610615E+02  0.00000000000E+00 0.  1.
        -11    1    4    4    0    0 -0.56293751189E+00 -0.38590739529E+02  0.73551961805E+02  0.83062946983E+02  0.00000000000E+00 0.  1.
         11    1    4    4    0    0  0.43026950111E+02  0.43954003419E+02  0.16688383743E+03  0.17785805590E+03  0.00000000000E+00 0. -1.
         21    1    1    2  502  501  0.48502354075E+01  0.21600915522E+02  0.14044684307E+02  0.26217884968E+02  0.00000000000E+00 0.  1.
<scales pt_clust_5="13000.00000" pt_clust_6="13000.00000" pt_clust_7="13000.00000" pt_clust_8="13000.00000" pt_clust_9="22.13875"></scales>
<clustering>
<clus scale="   22.139">  2  9  1 -1</clus>
<clus scale="   85.788">  5  6 -1 -1</clus>
<clus scale="   91.861">  7  8 -1 -1</clus>
<clus scale="   96.881">  2  5  1 -1</clus>
<clus scale="  102.298">  1  5  2 -1</clus>
</clustering>
</event>
<event>
 9    1  0.1434065E-005  0.1130920E+03  0.7546771E-02  0.1255079E+00
         -2   -1    0    0    0  501 -0.00000000000E+00  0.00000000000E+00  0.28205672641E+02  0.28205672641E+02  0.00000000000E+00 0.  1.
          2   -1    0    0  502    0  0.00000000000E+00 -0.00000000000E+00 -0.59983136538E+03  0.59983136538E+03  0.00000000000E+00 0. -1.
         23    2    1    2    0    0  0.63496535684E+02 -0.29826747030E+02 -0.25585350461E+03  0.28049434112E+03  0.91074775314E+02 0.  0.
         23    2    1    2    0    0 -0.64267553628E+02  0.93424426516E+01 -0.30371594272E+03  0.32376131241E+03  0.91435298824E+02 0.  0.
        -11    1    3    3    0    0 -0.13563826219E+02 -0.20135201549E+02 -0.13264922929E+03  0.13485259269E+03  0.00000000000E+00 0.  1.
         11    1    3    3    0    0  0.77060361903E+02 -0.96915454814E+01 -0.12320427532E+03  0.14564174843E+03  0.00000000000E+00 0. -1.
        -13    1    4    4    0    0 -0.98693224876E+01 -0.36719195692E+02 -0.14259680690E+03  0.14757896936E+03  0.00000000000E+00 0. -1.
         13    1    4    4    0    0 -0.54398231141E+02  0.46061638344E+02 -0.16111913582E+03  0.17618234306E+03  0.00000000000E+00 0.  1.
         21    1    1    2  502  501  0.77101794460E+00  0.20484304379E+02 -0.12056245411E+02  0.23781384483E+02  0.00000000000E+00 0.  1.
<scales pt_clust_5="13000.00000" pt_clust_6="13000.00000" pt_clust_7="13000.00000" pt_clust_8="13000.00000" pt_clust_9="20.49881"></scales>
<clustering>
<clus scale="   20.499">  1  9  2 -1</clus>
<clus scale="   91.075">  5  6 -1 -1</clus>
<clus scale="   91.435">  7  8 -1 -1</clus>
<clus scale="  112.801">  1  5  2 -1</clus>
<clus scale="  113.092">  2  5  1 -1</clus>
</clustering>
</event>
<event>
 9    1  0.1434065E-005  0.9978149E+02  0.7546771E-02  0.1281389E+00
         -1   -1    0    0    0  501 -0.00000000000E+00  0.00000000000E+00  0.17145632054E+03  0.17145632054E+03  0.00000000000E+00 0.  1.
          1   -1    0    0  502    0  0.00000000000E+00 -0.00000000000E+00 -0.11202389403E+03  0.11202389403E+03  0.00000000000E+00 0. -1.
         23    2    1    2    0    0  0.46316221189E+02 -0.48356474872E+02  0.63675548905E+02  0.12773817285E+03  0.88198210111E+02 0.  0.
         23    2    1    2    0    0 -0.26732502818E+02  0.24985343792E+02 -0.43487086461E+02  0.10604475298E+03  0.89529150748E+02 0.  0.
        -11    1    4    4    0    0 -0.53568769739E+02  0.37483708863E+02 -0.38926733542E+02  0.76091603385E+02  0.00000000000E+00 0. -1.
         11    1    4    4    0    0  0.26836266921E+02 -0.12498365071E+02 -0.45603529195E+01  0.29953149592E+02  0.00000000000E+00 0.  1.
        -11    1    3    3    0    0  0.69054026022E+01 -0.64580544462E+02  0.23218322348E+02  0.68974066146E+02  0.00000000000E+00 0. -1.
         11    1    3    3    0    0  0.39410818587E+02  0.16224069589E+02  0.40457226557E+02  0.58764106701E+02  0.00000000000E+00 0.  1.
         21    1    1    2  502  501 -0.19583718371E+02  0.23371131081E+02  0.39243964064E+02  0.49697288746E+02  0.00000000000E+00 0.  1.
<scales pt_clust_5="13000.00000" pt_clust_6="13000.00000" pt_clust_7="13000.00000" pt_clust_8="13000.00000" pt_clust_9="30.49150"></scales>
<clustering>
<clus scale="   30.492">  1  9  2 -1</clus>
<clus scale="   88.198">  7  8 -1 -1</clus>
<clus scale="   89.529">  5  6 -1 -1</clus>
<clus scale="   98.589">  1  7  2 -1</clus>
<clus scale="   99.781">  2  5  1 -1</clus>
</clustering>
</event>
<event>
 9    1  0.1434065E-005  0.9602988E+02  0.7546771E-02  0.1290793E+00
         -2   -1    0    0    0  501 -0.00000000000E+00  0.00000000000E+00  0.10984183943E+03  0.10984183943E+03  0.00000000000E+00 0.  1.
          2   -1    0    0  502    0  0.00000000000E+00 -0.00000000000E+00 -0.10787592027E+03  0.10787592027E+03  0.00000000000E+00 0. -1.
         23    2    1    2    0    0 -0.19796617897E+02 -0.24107421109E+02  0.25562553646E+01  0.89858304891E+02  0.84231269037E+02 0.  0.
         23    2    1    2    0    0  0.12975012519E+02  0.44932354873E+02 -0.16248399807E+02  0.10092644306E+03  0.87948103716E+02 0.  0.
        -11    1    3    3    0    0 -0.18591659280E+02  0.29434589127E+02 -0.68528571897E+01  0.35482481361E+02  0.00000000000E+00 0. -1.
         11    1    3    3    0    0 -0.12049586175E+01 -0.53542010237E+02  0.94091125544E+01  0.54375823530E+02  0.00000000000E+00 0.  1.
        -11    1    4    4    0    0 -0.10287818299E+01  0.69174100916E+02 -0.21493092455E+02  0.72443548041E+02  0.00000000000E+00 0. -1.
         11    1    4    4    0    0  0.14003794349E+02 -0.24241746043E+02  0.52446926485E+01  0.28482895014E+02  0.00000000000E+00 0.  1.
         21    1    1    2  502  501  0.68216053779E+01 -0.20824933763E+02  0.15658063606E+02  0.26933011753E+02  0.00000000000E+00 0.  1.
<scales pt_clust_5="13000.00000" pt_clust_6="13000.00000" pt_clust_7="13000.00000" pt_clust_8="13000.00000" pt_clust_9="21.91374"></scales>
<clustering>
<clus scale="   21.914">  1  9  2 -1</clus>
<clus scale="   84.231">  5  6 -1 -1</clus>
<clus scale="   87.948">  7  8 -1 -1</clus>
<clus scale="   92.638">  1  5  2 -1</clus>
<clus scale="   96.030">  2  5  1 -1</clus>
</clustering>
</event>
<event>
 9    1  0.1434065E-005  0.1638462E+03  0.7546771E-02  0.1184489E+00
          1   -1    0    0  502    0  0.00000000000E+00  0.00000000000E+00  0.73255726942E+03  0.73255726942E+03  0.00000000000E+00 0. -1.
         -1   -1    0    0    0  501 -0.00000000000E+00 -0.00000000000E+00 -0.10716393280E+03  0.10716393280E+03  0.00000000000E+00 0.  1.
         23    2    1    2    0    0 -0.12780580681E+03  0.87538126504E+01  0.24881706564E+03  0.29429977992E+03  0.91057535745E+02 0.  0.
         23    2    1    2    0    0  0.14192453672E+03  0.76585791177E+01  0.44383487806E+03  0.47476432524E+03  0.90612016740E+02 0.  0.
        -11    1    3    3    0    0 -0.31617644125E+02  0.42421589285E+02  0.62104661535E+02  0.81585878937E+02  0.00000000000E+00 0.  1.
         11    1    3    3    0    0 -0.96188162681E+02 -0.33667776635E+02  0.18671240411E+03  0.21271390098E+03  0.00000000000E+00 0. -1.
        -11    1    4    4    0    0  0.11283548341E+03  0.10417863827E+02  0.42535801334E+03  0.44019293237E+03  0.00000000000E+00 0. -1.
         11    1    4    4    0    0  0.29089053308E+02 -0.27592847088E+01  0.18476864727E+02  0.34571392865E+02  0.00000000000E+00 0.  1.
         21    1    1    2  502  501 -0.14118729910E+02 -0.16412391768E+02 -0.67258607084E+02  0.70657097058E+02  0.00000000000E+00 0.  1.
<scales pt_clust_5="13000.00000" pt_clust_6="13000.00000" pt_clust_7="13000.00000" pt_clust_8="13000.00000" pt_clust_9="21.64960"></scales>
<clustering>
<clus scale="   21.650">  2  9  1 -1</clus>
<clus scale="   90.612">  7  8 -1 -1</clus>
<clus scale="   91.058">  5  6 -1 -1</clus>
<clus scale="  163.599">  1  7  2 -1</clus>
<clus scale="  163.599">  1  5  2 -1</clus>
</clustering>
</event>
<event>
 9    1  0.1434065E-005  0.1048112E+03  0.7546771E-02  0.1271160E+00
          3   -1    0    0  502    0  0.00000000000E+00  0.00000000000E+00  0.45011877585E+03  0.45011877585E+03  0.00000000000E+00 0. -1.
         -3   -1    0    0    0  501 -0.00000000000E+00 -0.00000000000E+00 -0.40178365082E+02  0.40178365082E+02  0.00000000000E+00 0.  1.
         23    2    1    2    0    0  0.35203117237E+02 -0.31752349422E+02  0.97972438886E+02  0.14003281553E+03  0.88108566485E+02 0.  0.
         23    2    1    2    0    0 -0.60471973664E+02  0.58160714710E+01  0.28565306697E+03  0.30550184290E+03  0.89682858222E+02 0.  0.
        -11    1    4    4    0    0  0.22086233569E+02 -0.92390984875E+01  0.52348013068E+02  0.57562810271E+02  0.00000000000E+00 0. -1.
         11    1    4    4    0    0 -0.82558207233E+02  0.15055169959E+02  0.23330505390E+03  0.24793903263E+03  0.00000000000E+00 0.  1.
        -13    1    3    3    0    0  0.11079322052E+02  0.27278667130E+02  0.57227747466E+02  0.64357533650E+02  0.00000000000E+00 0.  1.
         13    1    3    3    0    0  0.24123795185E+02 -0.59031016552E+02  0.40744691419E+02  0.75675281883E+02  0.00000000000E+00 0. -1.
         21    1    1    2  502  501  0.25268856427E+02  0.25936277951E+02  0.26314904917E+02  0.44762482504E+02  0.00000000000E+00 0. -1.
<scales pt_clust_5="13000.00000" pt_clust_6="13000.00000" pt_clust_7="13000.00000" pt_clust_8="13000.00000" pt_clust_9="36.21057"></scales>
<clustering>
<clus scale="   36.211">  2  9  1 -1</clus>
<clus scale="   88.109">  7  8 -1 -1</clus>
<clus scale="   89.683">  5  6 -1 -1</clus>
<clus scale="  103.467">  2  7  1 -1</clus>
<clus scale="  104.811">  1  5  2 -1</clus>
</clustering>
</event>
<event>
 9    1  0.1434065E-005  0.1059524E+03  0.7546771E-02  0.1270105E+00
         -1   -1    0    0    0  501 -0.00000000000E+00  0.00000000000E+00  0.15961829505E+03  0.15961829505E+03  0.00000000000E+00 0.  1.
          1   -1    0    0  502    0  0.00000000000E+00 -0.00000000000E+00 -0.99394815604E+02  0.99394815604E+02  0.00000000000E+00 0. -1.
         23    2    1    2    0    0 -0.19435288382E+02 -0.31470128978E+02  0.28097797829E+02  0.10454370663E+03  0.93657892893E+02 0.  0.
         23    2    1    2    0    0  0.41704937483E+02  0.42417011544E+02 -0.75638101737E+01  0.10766099380E+03  0.89415735095E+02 0.  0.
        -11    1    3    3    0    0  0.26732068373E+02 -0.44314760591E+02  0.22004531449E+02  0.56237006411E+02  0.00000000000E+00 0.  1.
         11    1    3    3    0    0 -0.46167356755E+02  0.12844631613E+02  0.60932663799E+01  0.48306700221E+02  0.00000000000E+00 0. -1.
        -11    1    4    4    0    0 -0.51785545823E+01  0.27493932031E+02  0.33449582614E+02  0.43607434035E+02  0.00000000000E+00 0.  1.
         11    1    4    4    0    0  0.46883492066E+02  0.14923079514E+02 -0.41013392788E+02  0.64053559764E+02  0.00000000000E+00 0. -1.
         21    1    1    2  502  501 -0.22269649101E+02 -0.10946882566E+02  0.39689491789E+02  0.46808410222E+02  0.00000000000E+00 0. -1.
<scales pt_clust_5="13000.00000" pt_clust_6="13000.00000" pt_clust_7="13000.00000" pt_clust_8="13000.00000" pt_clust_9="24.81474"></scales>
<clustering>
<clus scale="   24.815">  1  9  2 -1</clus>
<clus scale="   89.416">  7  8 -1 -1</clus>
<clus scale="   93.658">  5  6 -1 -1</clus>
<clus scale="  102.222">  2  7  1 -1</clus>
<clus scale="  102.222">  2  5  1 -1</clus>
</clustering>
</event>
<event>
 9    1  0.1434065E-005  0.9881024E+02  0.7546771E-02  0.1283541E+00
         -2   -1    0    0    0  501 -0.00000000000E+00  0.00000000000E+00  0.22411996182E+03  0.22411996182E+03  0.00000000000E+00 0.  1.
          2   -1    0    0  502    0  0.00000000000E+00 -0.00000000000E+00 -0.15953123466E+03  0.15953123466E+03  0.00000000000E+00 0. -1.
         23    2    1    2    0    0 -0.15494057790E+02  0.28006055655E+02  0.17853094368E+03  0.20372655832E+03  0.92772882545E+02 0.  0.
         23    2    1    2    0    0  0.29288107752E+02 -0.47211396063E+02 -0.11398735456E+03  0.15627885730E+03  0.91341420322E+02 0.  0.
        -11    1    3    3    0    0  0.23706380651E+02  0.20816858194E+02  0.14138549050E+02  0.34572136727E+02  0.00000000000E+00 0. -1.
         11    1    3    3    0    0 -0.39200438440E+02  0.71891974607E+01  0.16439239463E+03  0.16915442160E+03  0.00000000000E+00 0.  1.
        -11    1    4    4    0    0  0.29114686176E+02  0.22073148465E+02 -0.50308692018E+02  0.62175986738E+02  0.00000000000E+00 0.  1.
         11    1    4    4    0    0  0.17342157534E+00 -0.69284544528E+02 -0.63678662541E+02  0.94102870565E+02  0.00000000000E+00 0. -1.
         21    1    1    2  502  501 -0.13794049962E+02  0.19205340408E+02  0.45138043559E-01  0.23645780850E+02  0.00000000000E+00 0.  1.
<scales pt_clust_5="13000.00000" pt_clust_6="13000.00000" pt_clust_7="13000.00000" pt_clust_8="13000.00000" pt_clust_9="23.64574"></scales>
<clustering>
<clus scale="   23.646">  2  9  1 -1</clus>
<clus scale="   91.341">  7  8 -1 -1</clus>
<clus scale="   92.773">  5  6 -1 -1</clus>
<clus scale="   97.467">  2  7  1 -1</clus>
<clus scale="   23.646">  2  5  1 -1</clus>
</clustering>
</event>
<event>
 9    1  0.1434065E-005  0.9487517E+02  0.7546771E-02  0.1292193E+00
          1   -1    0    0  502    0  0.00000000000E+00  0.00000000000E+00  0.18378212046E+03  0.18378212046E+03  0.00000000000E+00 0. -1.
         -1   -1    0    0    0  501 -0.00000000000E+00 -0.00000000000E+00 -0.77395698997E+02  0.77395698997E+02  0.00000000000E+00 0.  1.
         23    2    1    2    0    0 -0.11254213731E+02  0.19771177364E+02 -0.41716464478E+01  0.93144505468E+02  0.90227154914E+02 0.  0.
         23    2    1    2    0    0 -0.11283074533E+02 -0.35305212385E+02  0.81004073926E+02  0.12775088399E+03  0.91568895234E+02 0.  0.
        -13    1    4    4    0    0  0.25861299490E+02 -0.23607715926E+02 -0.30148726793E+01  0.35145704144E+02  0.00000000000E+00 0.  1.
         13    1    4    4    0    0 -0.37144374023E+02 -0.11697496460E+02  0.84018946605E+02  0.92605179842E+02  0.00000000000E+00 0. -1.
        -13    1    3    3    0    0  0.68694004513E+01 -0.19375981802E+02 -0.34674764265E+02  0.40310750554E+02  0.00000000000E+00 0.  1.
         13    1    3    3    0    0 -0.18123614182E+02  0.39147159166E+02  0.30503117818E+02  0.52833754915E+02  0.00000000000E+00 0. -1.
         21    1    1    2  502  501  0.22537288264E+02  0.15534035022E+02  0.29553993983E+02  0.40282430000E+02  0.00000000000E+00 0.  1.
<scales pt_clust_5="13000.00000" pt_clust_6="13000.00000" pt_clust_7="13000.00000" pt_clust_8="13000.00000" pt_clust_9="27.37217"></scales>
<clustering>
<clus scale="   27.372">  1  9  2 -1</clus>
<clus scale="   90.227">  7  8 -1 -1</clus>
<clus scale="   91.569">  5  6 -1 -1</clus>
<clus scale="   93.581">  2  7  1 -1</clus>
<clus scale="   27.372">  1  5  2 -1</clus>
</clustering>
</event>
<event>
 9    1  0.1434065E-005  0.1048996E+03  0.7546771E-02  0.1271466E+00
          1   -1    0    0  502    0  0.00000000000E+00  0.00000000000E+00  0.19664515914E+03  0.19664515914E+03  0.00000000000E+00 0. -1.
         -1   -1    0    0    0  501 -0.00000000000E+00 -0.00000000000E+00 -0.10132635224E+03  0.10132635224E+03  0.00000000000E+00 0.  1.
         23    2    1    2    0    0 -0.63141654415E+01  0.59914928393E+02  0.31942257449E+02  0.11194580415E+03  0.88779997326E+02 0.  0.
         23    2    1    2    0    0 -0.24534665654E+02 -0.51044532706E+02  0.95602195474E+02  0.14054135211E+03  0.86049972322E+02 0.  0.
        -13    1    4    4    0    0 -0.46705501786E+02 -0.48828131347E+02  0.35257883391E+02  0.76214884696E+02  0.00000000000E+00 0. -1.
         13    1    4    4    0    0  0.22170836132E+02 -0.22164013590E+01  0.60344312083E+02  0.64326467418E+02  0.00000000000E+00 0.  1.
        -13    1    3    3    0    0 -0.33563922112E+02 -0.30735891598E+01  0.26913856514E+02  0.43131652998E+02  0.00000000000E+00 0. -1.
         13    1    3    3    0    0  0.27249756671E+02  0.62988517553E+02  0.50284009352E+01  0.68814151147E+02  0.00000000000E+00 0.  1.
         21    1    1    2  502  501  0.30848831095E+02 -0.88703956871E+01 -0.32225646017E+02  0.45484355122E+02  0.00000000000E+00 0. -1.
<scales pt_clust_5="13000.00000" pt_clust_6="13000.00000" pt_clust_7="13000.00000" pt_clust_8="13000.00000" pt_clust_9="32.09882"></scales>
<clustering>
<clus scale="   32.099">  2  9  1 -1</clus>
<clus scale="   86.050">  5  6 -1 -1</clus>
<clus scale="   88.780">  7  8 -1 -1</clus>
<clus scale="  102.599">  1  5  2 -1</clus>
<clus scale="  102.599">  1  5  2 -1</clus>
</clustering>
</event>
<event>
 9    1  0.1434065E-005  0.2797892E+03  0.7546771E-02  0.1095916E+00
          2   -1    0    0  502    0  0.00000000000E+00  0.00000000000E+00  0.26964165883E+03  0.26964165883E+03  0.00000000000E+00 0. -1.
         -2   -1    0    0    0  501 -0.00000000000E+00 -0.00000000000E+00 -0.68253349138E+03  0.68253349138E+03  0.00000000000E+00 0.  1.
         23    2    1    2    0    0  0.18234805473E+03 -0.25312157301E+03 -0.17105126999E+03  0.36657299637E+03  0.88294285846E+02 0.  0.
         23    2    1    2    0    0 -0.14855297226E+03  0.19683264788E+03  0.65899768979E+02  0.27093620026E+03  0.90843647116E+02 0.  0.
        -11    1    4    4    0    0 -0.39842471679E+02  0.44603833581E+01 -0.88195444976E+00  0.40101064984E+02  0.00000000000E+00 0.  1.
         11    1    4    4    0    0 -0.10871050058E+03  0.19237226452E+03  0.66781723429E+02  0.23083513528E+03  0.00000000000E+00 0. -1.
        -13    1    3    3    0    0  0.12536398239E+03 -0.10107285613E+03 -0.72240018236E+02  0.17649495903E+03  0.00000000000E+00 0.  1.
         13    1    3    3    0    0  0.56984072337E+02 -0.15204871688E+03 -0.98811251757E+02  0.19007803734E+03  0.00000000000E+00 0. -1.
         21    1    1    2  502  501 -0.33795082473E+02  0.56288925133E+02 -0.30774033153E+03  0.31466595358E+03  0.00000000000E+00 0. -1.
<scales pt_clust_5="13000.00000" pt_clust_6="13000.00000" pt_clust_7="13000.00000" pt_clust_8="13000.00000" pt_clust_9="65.65478"></scales>
<clustering>
<clus scale="   65.655">  2  9  1 -1</clus>
<clus scale="   88.294">  7  8 -1 -1</clus>
<clus scale="   90.844">  5  6 -1 -1</clus>
<clus scale="  278.972">  2  7  1 -1</clus>
<clus scale="  279.789">  1  5  2 -1</clus>
</clustering>
</event>
<event>
 9    1  0.1434065E-005  0.1415105E+03  0.7546771E-02  0.1219559E+00
         -1   -1    0    0    0  501 -0.00000000000E+00  0.00000000000E+00  0.61371614346E+03  0.61371614346E+03  0.00000000000E+00 0.  1.
          1   -1    0    0  502    0  0.00000000000E+00 -0.00000000000E+00 -0.91783573706E+02  0.91783573706E+02  0.00000000000E+00 0. -1.
         23    2    1    2    0    0  0.41688346478E+02 -0.88225367312E+02  0.39632889615E+03  0.42538366696E+03  0.11980415906E+03 0.  0.
         23    2    1    2    0    0 -0.44803216157E+02  0.57725113710E+02 -0.30251386984E+02  0.12127409166E+03  0.91938794650E+02 0.  0.
        -11    1    4    4    0    0  0.21380984146E+02 -0.79152504113E+01  0.13741805282E+01  0.22840447549E+02  0.00000000000E+00 0.  1.
         11    1    4    4    0    0 -0.66184200303E+02  0.65640364121E+02 -0.31625567513E+02  0.98433644107E+02  0.00000000000E+00 0. -1.
        -13    1    3    3    0    0  0.61182817895E+02 -0.98551092525E+02  0.38164279038E+03  0.39888203080E+03  0.00000000000E+00 0.  1.
         13    1    3    3    0    0 -0.19494471416E+02  0.10325725213E+02  0.14686105768E+02  0.26501636169E+02  0.00000000000E+00 0. -1.
         21    1    1    2  502  501  0.31148696789E+01  0.30500253602E+02  0.15585506059E+03  0.15884195855E+03  0.00000000000E+00 0. -1.
<scales pt_clust_5="13000.00000" pt_clust_6="13000.00000" pt_clust_7="13000.00000" pt_clust_8="13000.00000" pt_clust_9="30.65890"></scales>
<clustering>
<clus scale="   30.659">  1  9  2 -1</clus>
<clus scale="   91.939">  5  6 -1 -1</clus>
<clus scale="  118.848">  2  5  1 -1</clus>
<clus scale="  119.804">  7  8 -1 -1</clus>
<clus scale="  118.848">  2  5  1 -1</clus>
</clustering>
</event>
<event>
 9    1  0.1434065E-005  0.2323449E+03  0.7546771E-02  0.1125825E+00
         -1   -1    0    0    0  501 -0.00000000000E+00  0.00000000000E+00  0.16273017748E+03  0.16273017748E+03  0.00000000000E+00 0.  1.
          1   -1    0    0  502    0  0.00000000000E+00 -0.00000000000E+00 -0.43230112609E+03  0.43230112609E+03  0.00000000000E+00 0. -1.
         23    2    1    2    0    0 -0.15985872389E+03  0.11678519242E+03 -0.66594364288E+02  0.22722449448E+03  0.89457077767E+02 0.  0.
         23    2    1    2    0    0  0.18423581911E+03 -0.11420564885E+03 -0.22970937239E+03  0.33153645240E+03  0.10081793608E+03 0.  0.
        -13    1    3    3    0    0 -0.71663259664E+02  0.84696443544E+01  0.72968721241E+00  0.72165712805E+02  0.00000000000E+00 0. -1.
         13    1    3    3    0    0 -0.88195464226E+02  0.10831554807E+03 -0.67324051500E+02  0.15505878167E+03  0.00000000000E+00 0.  1.
        -13    1    4    4    0    0  0.25704806186E+02  0.15768349794E+02 -0.11876696815E+02  0.32410397151E+02  0.00000000000E+00 0.  1.
         13    1    4    4    0    0  0.15853101292E+03 -0.12997399865E+03 -0.21783267557E+03  0.29912605525E+03  0.00000000000E+00 0. -1.
         21    1    1    2  502  501 -0.24377095219E+02 -0.25795435716E+01  0.26732788066E+02  0.36270356686E+02  0.00000000000E+00 0.  1.
<scales pt_clust_5="13000.00000" pt_clust_6="13000.00000" pt_clust_7="13000.00000" pt_clust_8="13000.00000" pt_clust_9="24.51320"></scales>
<clustering>
<clus scale="   24.513">  1  9  2 -1</clus>
<clus scale="   89.457">  5  6 -1 -1</clus>
<clus scale="  100.818">  7  8 -1 -1</clus>
<clus scale="  227.646">  1  5  2 -1</clus>
<clus scale="  232.345">  2  5  1 -1</clus>
</clustering>
</event>
<event>
 9    1  0.1434065E-005  0.9586872E+02  0.7546771E-02  0.1289722E+00
         -2   -1    0    0    0  501 -0.00000000000E+00  0.00000000000E+00  0.13124542117E+03  0.13124542117E+03  0.00000000000E+00 0.  1.
          2   -1    0    0  502    0  0.00000000000E+00 -0.00000000000E+00 -0.14180802666E+03  0.14180802666E+03  0.00000000000E+00 0. -1.
         23    2    1    2    0    0  0.34256161899E+02 -0.23322153461E+02  0.39954900233E+02  0.10847359237E+03  0.91938668248E+02 0.  0.
         23    2    1    2    0    0 -0.24752598210E+02 -0.11174438962E+02 -0.75165141812E+02  0.12113059107E+03  0.91023416463E+02 0.  0.
        -11    1    3    3    0    0  0.25757802717E+02 -0.58310986194E+02  0.17752333347E+02  0.66172357152E+02  0.00000000000E+00 0. -1.
         11    1    3    3    0    0  0.84983591814E+01  0.34988832733E+02  0.22202566885E+02  0.42301235219E+02  0.00000000000E+00 0.  1.
        -11    1    4    4    0    0 -0.50149943191E+02  0.20263751306E+02 -0.36921151171E+02  0.65488990089E+02  0.00000000000E+00 0. -1.
         11    1    4    4    0    0  0.25397344981E+02 -0.31438190268E+02 -0.38243990641E+02  0.55641600979E+02  0.00000000000E+00 0.  1.
         21    1    1    2  502  501 -0.95035636885E+01  0.34496592423E+02  0.24647636088E+02  0.43449264393E+02  0.00000000000E+00 0. -1.
<scales pt_clust_5="13000.00000" pt_clust_6="13000.00000" pt_clust_7="13000.00000" pt_clust_8="13000.00000" pt_clust_9="35.78174"></scales>
<clustering>
<clus scale="   35.782">  1  9  2 -1</clus>
<clus scale="   91.023">  7  8 -1 -1</clus>
<clus scale="   91.939">  5  6 -1 -1</clus>
<clus scale="   94.991">  2  7  1 -1</clus>
<clus scale="   94.991">  2  5  1 -1</clus>
</clustering>
</event>
<event>
 9    1  0.1434065E-005  0.2622571E+03  0.7546771E-02  0.1121283E+00
          1   -1    0    0  502    0  0.00000000000E+00  0.00000000000E+00  0.36019605997E+03  0.36019605997E+03  0.00000000000E+00 0. -1.
         -1   -1    0    0    0  501 -0.00000000000E+00 -0.00000000000E+00 -0.60077314743E+03  0.60077314743E+03  0.00000000000E+00 0.  1.
         23    2    1    2    0    0  0.16155378004E+03  0.30449494340E+03 -0.24771219150E+03  0.43427646814E+03  0.91749259168E+02 0.  0.
         23    2    1    2    0    0 -0.37898783234E+02 -0.14743487157E+03  0.18711378573E+03  0.25771179150E+03  0.90721769960E+02 0.  0.
        -11    1    4    4    0    0  0.28684548158E+02 -0.59579900858E+02  0.82592952439E+02  0.10580247484E+03  0.00000000000E+00 0.  1.
         11    1    4    4    0    0 -0.66583331392E+02 -0.87854970716E+02  0.10452083329E+03  0.15190931666E+03  0.00000000000E+00 0. -1.
        -13    1    3    3    0    0  0.13858582199E+03  0.21654241579E+03 -0.13796665649E+03  0.29177293602E+03  0.00000000000E+00 0.  1.
         13    1    3    3    0    0  0.22967958051E+02  0.87952527611E+02 -0.10974553501E+03  0.14250353211E+03  0.00000000000E+00 0. -1.
         21    1    1    2  502  501 -0.12365499681E+03 -0.15706007183E+03 -0.17997868169E+03  0.26898094776E+03  0.00000000000E+00 0. -1.
<scales pt_clust_5="13000.00000" pt_clust_6="13000.00000" pt_clust_7="13000.00000" pt_clust_8="13000.00000" pt_clust_9="245.68449"></scales>
<clustering>
<clus scale="   90.722">  5  6 -1 -1</clus>
<clus scale="   91.749">  7  8 -1 -1</clus>
<clus scale="  177.211">  1  5  2 -1</clus>
<clus scale="  245.684">  2  9  1 -1</clus>
<clus scale="  177.211">  1  5  2 -1</clus>
</clustering>
</event>
<event>
 9    1  0.1434065E-005  0.9509991E+02  0.7546771E-02  0.1291216E+00
         -1   -1    0    0    0  501 -0.00000000000E+00  0.00000000000E+00  0.34702677732E+03  0.34702677732E+03  0.00000000000E+00 0.  1.
          1   -1    0    0  502    0  0.00000000000E+00 -0.00000000000E+00 -0.43799404543E+02  0.43799404543E+02  0.00000000000E+00 0. -1.
         23    2    1    2    0    0 -0.14663490728E+01  0.30574401668E+02  0.21046863787E+03  0.23067833261E+03  0.89322457371E+02 0.  0.
         23    2    1    2    0    0  0.31229138461E+02 -0.33043871386E+02  0.63108734432E+02  0.11806407042E+03  0.88821482974E+02 0.  0.
        -11    1    3    3    0    0 -0.24609529288E+02 -0.20024540708E+02  0.12289056965E+03  0.12692006646E+03  0.00000000000E+00 0. -1.
         11    1    3    3    0    0  0.23143180215E+02  0.50598942376E+02  0.87578068223E+02  0.10375826615E+03  0.00000000000E+00 0.  1.
        -11    1    4    4    0    0  0.44548254065E+02  0.17151024262E+02  0.33048734694E+02  0.58059654136E+02  0.00000000000E+00 0.  1.
         11    1    4    4    0    0 -0.13319115604E+02 -0.50194895648E+02  0.30059999738E+02  0.60004416286E+02  0.00000000000E+00 0. -1.
         21    1    1    2  502  501 -0.29762789389E+02  0.24694697180E+01  0.29650000476E+02  0.42083778836E+02  0.00000000000E+00 0. -1.
<scales pt_clust_5="13000.00000" pt_clust_6="13000.00000" pt_clust_7="13000.00000" pt_clust_8="13000.00000" pt_clust_9="29.86506"></scales>
<clustering>
<clus scale="   29.865">  2  9  1 -1</clus>
<clus scale="   88.821">  7  8 -1 -1</clus>
<clus scale="   89.322">  5  6 -1 -1</clus>
<clus scale="   94.630">  2  7  1 -1</clus>
<clus scale="   29.865">  2  5  1 -1</clus>
</clustering>
</event>
<event>
 9    1  0.1434065E-005  0.1248128E+03  0.7546771E-02  0.1241060E+00
          2   -1    0    0  502    0  0.00000000000E+00  0.00000000000E+00  0.12348550979E+03  0.12348550979E+03  0.00000000000E+00 0. -1.
         -2   -1    0    0    0  501 -0.00000000000E+00 -0.00000000000E+00 -0.15656667642E+03  0.15656667642E+03  0.00000000000E+00 0.  1.
         23    2    1    2    0    0 -0.64679233546E+02  0.63796630062E+02 -0.20511652341E+02  0.13148191932E+03  0.92808156786E+02 0.  0.
         23    2    1    2    0    0  0.76208485781E+02 -0.28368316286E+02 -0.94707308752E+00  0.10954245357E+03  0.73390445645E+02 0.  0.
        -11    1    3    3    0    0 -0.42182639529E+02 -0.78233878299E+01 -0.34582214938E+02  0.55104537606E+02  0.00000000000E+00 0. -1.
         11    1    3    3    0    0 -0.22496594017E+02  0.71620017892E+02  0.14070562596E+02  0.76377381711E+02  0.00000000000E+00 0.  1.
        -13    1    4    4    0    0  0.46319235683E+02 -0.36952857756E+02  0.29351733083E+02  0.66124953880E+02  0.00000000000E+00 0. -1.
         13    1    4    4    0    0  0.29889250098E+02  0.85845414706E+01 -0.30298806171E+02  0.43417499687E+02  0.00000000000E+00 0.  1.
         21    1    1    2  502  501 -0.11529252236E+02 -0.35428313777E+02 -0.11622441198E+02  0.39027813333E+02  0.00000000000E+00 0. -1.
<scales pt_clust_5="13000.00000" pt_clust_6="13000.00000" pt_clust_7="13000.00000" pt_clust_8="13000.00000" pt_clust_9="37.25707"></scales>
<clustering>
<clus scale="   37.257">  2  9  1 -1</clus>
<clus scale="   73.390">  7  8 -1 -1</clus>
<clus scale="   92.808">  5  6 -1 -1</clus>
<clus scale="  111.135">  1  7  2 -1</clus>
<clus scale="  111.135">  1  5  2 -1</clus>
</clustering>
</event>
<event>
 9    1  0.1434065E-005  0.9271200E+02  0.7546771E-02  0.1297706E+00
          1   -1    0    0  502    0  0.00000000000E+00  0.00000000000E+00  0.22778204095E+03  0.22778204095E+03  0.00000000000E+00 0. -1.
         -1   -1    0    0    0  501 -0.00000000000E+00 -0.00000000000E+00 -0.47347225364E+02  0.47347225364E+02  0.00000000000E+00 0.  1.
         23    2    1    2    0    0  0.59645613065E+00 -0.17978117099E+02  0.60466202211E+02  0.10976977862E+03  0.89831365541E+02 0.  0.
         23    2    1    2    0    0 -0.10425256719E+02 -0.75917467087E+00  0.98641050371E+02  0.13531691178E+03  0.92039923242E+02 0.  0.
        -11    1    4    4    0    0 -0.18917935585E+01 -0.45868540033E+02  0.40366305073E+02  0.61130519651E+02  0.00000000000E+00 0.  1.
         11    1    4    4    0    0 -0.85334631603E+01  0.45109365362E+02  0.58274745298E+02  0.74186392125E+02  0.00000000000E+00 0. -1.
        -13    1    3    3    0    0 -0.26453637839E+02  0.21409779524E+02  0.50600130625E+02  0.60979888762E+02  0.00000000000E+00 0. -1.
         13    1    3    3    0    0  0.27050093970E+02 -0.39387896623E+02  0.98660715855E+01  0.48789889862E+02  0.00000000000E+00 0.  1.
         21    1    1    2  502  501  0.98288005882E+01  0.18737291770E+02  0.21327563005E+02  0.30042575916E+02  0.00000000000E+00 0. -1.
<scales pt_clust_5="13000.00000" pt_clust_6="13000.00000" pt_clust_7="13000.00000" pt_clust_8="13000.00000" pt_clust_9="21.15872"></scales>
<clustering>
<clus scale="   21.159">  1  9  2 -1</clus>
<clus scale="   89.831">  7  8 -1 -1</clus>
<clus scale="   90.520">  2  7  1 -1</clus>
<clus scale="   92.040">  5  6 -1 -1</clus>
<clus scale="   21.159">  1  5  2 -1</clus>
</clustering>
</event>
<event>
 9    1  0.1434065E-005  0.1569455E+03  0.7546771E-02  0.1192620E+00
          1   -1    0    0  502    0  0.00000000000E+00  0.00000000000E+00  0.17390500528E+03  0.17390500528E+03  0.00000000000E+00 0. -1.
         -1   -1    0    0    0  501 -0.00000000000E+00 -0.00000000000E+00 -0.26242610419E+03  0.26242610419E+03  0.00000000000E+00 0.  1.
         23    2    1    2    0    0  0.66096492464E+02 -0.13111448758E+03 -0.14299778113E+03  0.22375298195E+03  0.89762332599E+02 0.  0.
         23    2    1    2    0    0 -0.59898404373E+02  0.10631387699E+03  0.83170627116E+02  0.17414859390E+03  0.92303414097E+02 0.  0.
        -11    1    3    3    0    0  0.71423778034E+02 -0.99622995666E+02 -0.63441771802E+02  0.13802519967E+03  0.00000000000E+00 0. -1.
         11    1    3    3    0    0 -0.53272855692E+01 -0.31491491910E+02 -0.79556009327E+02  0.85727782278E+02  0.00000000000E+00 0.  1.
        -13    1    4    4    0    0 -0.20027015396E+02  0.70434491334E+02  0.94275168517E+02  0.11937297146E+03  0.00000000000E+00 0. -1.
         13    1    4    4    0    0 -0.39871388977E+02  0.35879385660E+02 -0.11104541401E+02  0.54775622443E+02  0.00000000000E+00 0.  1.
         21    1    1    2  502  501 -0.61980880919E+01  0.24800610582E+02 -0.28693944900E+02  0.38429533631E+02  0.00000000000E+00 0.  1.
<scales pt_clust_5="13000.00000" pt_clust_6="13000.00000" pt_clust_7="13000.00000" pt_clust_8="13000.00000" pt_clust_9="25.56338"></scales>
<clustering>
<clus scale="   25.563">  2  9  1 -1</clus>
<clus scale="   89.762">  5  6 -1 -1</clus>
<clus scale="   92.303">  7  8 -1 -1</clus>
<clus scale="  155.465">  2  5  1 -1</clus>
<clus scale="  156.946">  1  5  2 -1</clus>
</clustering>
</event>
<event>
 9    1  0.1434065E-005  0.1365577E+03  0.7546771E-02  0.1218273E+00
          1   -1    0    0  502    0  0.00000000000E+00  0.00000000000E+00  0.65511608736E+02  0.65511608736E+02  0.00000000000E+00 0. -1.
         -1   -1    0    0    0  501 -0.00000000000E+00 -0.00000000000E+00 -0.40586032240E+03  0.40586032240E+03  0.00000000000E+00 0.  1.
         23    2    1    2    0    0  0.78306664342E+02 -0.27849641389E+02 -0.13627713543E+03  0.18365353938E+03  0.90827466545E+02 0.  0.
         23    2    1    2    0    0 -0.11691438414E+03  0.19266288457E+02 -0.11082075509E+03  0.18642700025E+03  0.91834762340E+02 0.  0.
        -11    1    4    4    0    0 -0.24746183400E+01  0.28318282879E+02 -0.47415107657E+02  0.55283282422E+02  0.00000000000E+00 0.  1.
         11    1    4    4    0    0 -0.11443976580E+03 -0.90519944216E+01 -0.63405647429E+02  0.13114371783E+03  0.00000000000E+00 0. -1.
        -13    1    3    3    0    0  0.50641126293E+02  0.29825127192E+02 -0.58104174304E+02  0.82644763632E+02  0.00000000000E+00 0.  1.
         13    1    3    3    0    0  0.27665538049E+02 -0.57674768581E+02 -0.78172961125E+02  0.10100877574E+03  0.00000000000E+00 0. -1.
         21    1    1    2  502  501  0.38607719802E+02  0.85833529312E+01 -0.93250823147E+02  0.10129139151E+03  0.00000000000E+00 0.  1.
<scales pt_clust_5="13000.00000" pt_clust_6="13000.00000" pt_clust_7="13000.00000" pt_clust_8="13000.00000" pt_clust_9="39.55035"></scales>
<clustering>
<clus scale="   39.550">  2  9  1 -1</clus>
<clus scale="   90.827">  7  8 -1 -1</clus>
<clus scale="   91.835">  5  6 -1 -1</clus>
<clus scale="  135.882">  2  7  1 -1</clus>
<clus scale="  136.558">  1  5  2 -1</clus>
</clustering>
</event>
<event>
 9    1  0.1434065E-005  0.1567358E+03  0.7546771E-02  0.1192968E+00
          1   -1    0    0  502    0  0.00000000000E+00  0.00000000000E+00  0.22756044582E+02  0.22756044582E+02  0.00000000000E+00 0. -1.
         -1   -1    0    0    0  501 -0.00000000000E+00 -0.00000000000E+00 -0.14452300490E+04  0.14452300490E+04  0.00000000000E+00 0.  1.
         23    2    1    2    0    0 -0.17623388432E+02 -0.11662615940E+03 -0.76824486078E+03  0.78225304302E+03  0.88359562748E+02 0.  0.
         23    2    1    2    0    0 -0.13420054421E+02  0.13353948748E+03 -0.44912308480E+03  0.47760267943E+03  0.91541692833E+02 0.  0.
        -11    1    4    4    0    0 -0.38981289372E+02  0.70037233091E+02 -0.14312422310E+03  0.16404053821E+03  0.00000000000E+00 0. -1.
         11    1    4    4    0    0  0.25561234951E+02  0.63502254392E+02 -0.30599886170E+03  0.31356214122E+03  0.00000000000E+00 0.  1.
        -13    1    3    3    0    0 -0.27389677803E+02  0.21780821808E+01 -0.11647580891E+03  0.11967268926E+03  0.00000000000E+00 0. -1.
         13    1    3    3    0    0  0.97662893710E+01 -0.11880424158E+03 -0.65176905187E+03  0.66258035376E+03  0.00000000000E+00 0.  1.
         21    1    1    2  502  501  0.31043442854E+02 -0.16913328081E+02 -0.20510605886E+03  0.20813037114E+03  0.00000000000E+00 0.  1.
<scales pt_clust_5="13000.00000" pt_clust_6="13000.00000" pt_clust_7="13000.00000" pt_clust_8="13000.00000" pt_clust_9="35.35189"></scales>
<clustering>
<clus scale="   35.352">  2  9  1 -1</clus>
<clus scale="   88.360">  7  8 -1 -1</clus>
<clus scale="   91.542">  5  6 -1 -1</clus>
<clus scale="  154.899">  2  7  1 -1</clus>
<clus scale="  156.736">  1  5  2 -1</clus>
</clustering>
</event>
<event>
 9    1  0.1434065E-005  0.9628686E+02  0.7546771E-02  0.1288867E+00
          2   -1    0    0  502    0  0.00000000000E+00  0.00000000000E+00  0.52592967871E+03  0.52592967871E+03  0.00000000000E+00 0. -1.
         -2   -1    0    0    0  501 -0.00000000000E+00 -0.00000000000E+00 -0.65976359253E+02  0.65976359253E+02  0.00000000000E+00 0.  1.
         23    2    1    2    0    0  0.28949265926E+02  0.20692026586E+02 -0.18235767763E+02  0.98801658341E+02  0.90349346999E+02 0.  0.
         23    2    1    2    0    0 -0.57437374402E+01 -0.80497623266E+01  0.41507578113E+03  0.42468206744E+03  0.89270180547E+02 0.  0.
        -11    1    3    3    0    0  0.32512539519E+02  0.50627402826E+02 -0.28998225980E+02  0.66791438470E+02  0.00000000000E+00 0.  1.
         11    1    3    3    0    0 -0.35632735930E+01 -0.29935376240E+02  0.10762458216E+02  0.32010219871E+02  0.00000000000E+00 0. -1.
        -13    1    4    4    0    0  0.32329955508E+02 -0.30319813203E+02  0.17088155515E+03  0.17653618039E+03  0.00000000000E+00 0.  1.
         13    1    4    4    0    0 -0.38073692948E+02  0.22270050876E+02  0.24419422597E+03  0.24814588705E+03  0.00000000000E+00 0. -1.
         21    1    1    2  502  501 -0.23205528485E+02 -0.12642264260E+02  0.63113306088E+02  0.68422312175E+02  0.00000000000E+00 0. -1.
<scales pt_clust_5="13000.00000" pt_clust_6="13000.00000" pt_clust_7="13000.00000" pt_clust_8="13000.00000" pt_clust_9="26.42581"></scales>
<clustering>
<clus scale="   26.426">  1  9  2 -1</clus>
<clus scale="   89.270">  7  8 -1 -1</clus>
<clus scale="   90.349">  5  6 -1 -1</clus>
<clus scale="   95.275">  1  7  2 -1</clus>
<clus scale="   26.426">  1  5  2 -1</clus>
</clustering>
</event>
<event>
 9    1  0.1434065E-005  0.1072822E+03  0.7546771E-02  0.1266848E+00
         -1   -1    0    0    0  501 -0.00000000000E+00  0.00000000000E+00  0.54038788829E+02  0.54038788829E+02  0.00000000000E+00 0.  1.
          1   -1    0    0  502    0  0.00000000000E+00 -0.00000000000E+00 -0.66299023035E+03  0.66299023035E+03  0.00000000000E+00 0. -1.
         23    2    1    2    0    0 -0.85395117887E+01  0.25330354743E+02 -0.15121883521E+02  0.94039129699E+02  0.88882711594E+02 0.  0.
         23    2    1    2    0    0  0.53094317042E+02 -0.29244366808E+02 -0.54813920591E+03  0.55905196306E+03  0.91696613059E+02 0.  0.
        -11    1    4    4    0    0  0.52163669030E+02 -0.59594843939E+02 -0.37529882679E+03  0.38356460106E+03  0.00000000000E+00 0. -1.
         11    1    4    4    0    0  0.93064801298E+00  0.30350477131E+02 -0.17284037912E+03  0.17548736200E+03  0.00000000000E+00 0.  1.
        -11    1    3    3    0    0  0.22495084829E+02  0.28190374083E+01  0.28203565257E+02  0.36185866116E+02  0.00000000000E+00 0.  1.
         11    1    3    3    0    0 -0.31034596618E+02  0.22511317335E+02 -0.43325448778E+02  0.57853263583E+02  0.00000000000E+00 0. -1.
         21    1    1    2  502  501 -0.44554805254E+02  0.39140120648E+01 -0.45690352088E+02  0.63937926425E+02  0.00000000000E+00 0.  1.
<scales pt_clust_5="13000.00000" pt_clust_6="13000.00000" pt_clust_7="13000.00000" pt_clust_8="13000.00000" pt_clust_9="44.72639"></scales>
<clustering>
<clus scale="   44.726">  1  9  2 -1</clus>
<clus scale="   88.883">  7  8 -1 -1</clus>
<clus scale="   91.697">  5  6 -1 -1</clus>
<clus scale="  104.887">  1  7  2 -1</clus>
<clus scale="  107.282">  2  5  1 -1</clus>
</clustering>
</event>
<event>
 9    1  0.1434065E-005  0.1305277E+03  0.7546771E-02  0.1227074E+00
          1   -1    0    0  502    0  0.00000000000E+00  0.00000000000E+00  0.29959517210E+03  0.29959517210E+03  0.00000000000E+00 0. -1.
         -1   -1    0    0    0  501 -0.00000000000E+00 -0.00000000000E+00 -0.74425951746E+02  0.74425951746E+02  0.00000000000E+00 0.  1.
         23    2    1    2    0    0  0.30330516332E+02 -0.93528819869E+02  0.77928816204E+02  0.15487928029E+03  0.90813604172E+02 0.  0.
         23    2    1    2    0    0 -0.53639161789E+02  0.72387756789E+02  0.13046727480E+03  0.18348268808E+03  0.92341973226E+02 0.  0.
        -11    1    4    4    0    0 -0.56170221388E+01  0.68180814558E+02  0.11322107202E+03  0.13228448723E+03  0.00000000000E+00 0. -1.
         11    1    4    4    0    0 -0.48022139651E+02  0.42069422310E+01  0.17246202775E+02  0.51198200844E+02  0.00000000000E+00 0.  1.
        -13    1    3    3    0    0  0.10181308812E+02 -0.10137176679E+03  0.36636860517E+02  0.10826889535E+03  0.00000000000E+00 0.  1.
         13    1    3    3    0    0  0.20149207520E+02  0.78429469251E+01  0.41291955687E+02  0.46610384943E+02  0.00000000000E+00 0. -1.
         21    1    1    2  502  501  0.23308645458E+02  0.21141063080E+02  0.16773129354E+02  0.35659155480E+02  0.00000000000E+00 0. -1.
<scales pt_clust_5="13000.00000" pt_clust_6="13000.00000" pt_clust_7="13000.00000" pt_clust_8="13000.00000" pt_clust_9="31.46804"></scales>
<clustering>
<clus scale="   31.468">  2  9  1 -1</clus>
<clus scale="   90.814">  7  8 -1 -1</clus>
<clus scale="   92.342">  5  6 -1 -1</clus>
<clus scale="  129.451">  2  7  1 -1</clus>
<clus scale="  130.528">  1  5  2 -1</clus>
</clustering>
</event>
<event>
 9    1  0.1434065E-005  0.2884237E+03  0.7546771E-02  0.1091218E+00
          2   -1    0    0  502    0  0.00000000000E+00  0.00000000000E+00  0.17423456193E+04  0.17423456193E+04  0.00000000000E+00 0. -1.
         -2   -1    0    0    0  501 -0.00000000000E+00 -0.00000000000E+00 -0.26741785078E+03  0.26741785078E+03  0.00000000000E+00 0.  1.
         23    2    1    2    0    0  0.27540837078E+03 -0.16967225487E+03  0.52192549757E+03  0.62043506232E+03  0.88853794364E+02 0.  0.
         23    2    1    2    0    0 -0.21989514009E+03  0.13493121824E+03  0.11498557544E+04  0.11818676829E+04  0.89903600932E+02 0.  0.
        -11    1    3    3    0    0  0.20027519981E+03 -0.13590264352E+03  0.31161148763E+03  0.39456482787E+03  0.00000000000E+00 0.  1.
         11    1    3    3    0    0  0.75133170978E+02 -0.33769611354E+02  0.21031400994E+03  0.22587023445E+03  0.00000000000E+00 0. -1.
        -13    1    4    4    0    0 -0.75376652447E+02  0.26079076736E+02  0.20751833008E+03  0.22231872457E+03  0.00000000000E+00 0.  1.
         13    1    4    4    0    0 -0.14451848764E+03  0.10885214150E+03  0.94233742437E+03  0.95954895828E+03  0.00000000000E+00 0. -1.
         21    1    1    2  502  501 -0.55513230696E+02  0.34741036634E+02 -0.19685348350E+03  0.20746072490E+03  0.00000000000E+00 0.  1.
<scales pt_clust_5="13000.00000" pt_clust_6="13000.00000" pt_clust_7="13000.00000" pt_clust_8="13000.00000" pt_clust_9="65.48785"></scales>
<clustering>
<clus scale="   65.488">  2  9  1 -1</clus>
<clus scale="   88.854">  5  6 -1 -1</clus>
<clus scale="   89.904">  7  8 -1 -1</clus>
<clus scale="  288.098">  2  5  1 -1</clus>
<clus scale="  288.424">  1  5  2 -1</clus>
</clustering>
</event>
<event>
 9    1  0.1434065E-005  0.1655431E+03  0.7546771E-02  0.1183519E+00
          2   -1    0    0  502    0  0.00000000000E+00  0.00000000000E+00  0.99340309904E+03  0.99340309904E+03  0.00000000000E+00 0. -1.
         -2   -1    0    0    0  501 -0.00000000000E+00 -0.00000000000E+00 -0.73327021985E+02  0.73327021985E+02  0.00000000000E+00 0.  1.
         23    2    1    2    0    0  0.13605439305E+02 -0.83748539372E+02  0.88324201153E+02  0.15280595292E+03  0.91375975586E+02 0.  0.
         23    2    1    2    0    0 -0.43261741349E+02  0.14188749596E+03  0.82987397153E+03  0.84863128144E+03  0.97368390338E+02 0.  0.
        -11    1    3    3    0    0  0.43796041292E+02 -0.16919750974E+02  0.54835194110E+02  0.72189124659E+02  0.00000000000E+00 0.  1.
         11    1    3    3    0    0 -0.30190601986E+02 -0.66828788397E+02  0.33489007043E+02  0.80616828266E+02  0.00000000000E+00 0. -1.
        -11    1    4    4    0    0  0.23070492083E+02  0.16908798456E+02  0.68670244011E+02  0.74389229614E+02  0.00000000000E+00 0. -1.
         11    1    4    4    0    0 -0.66332233432E+02  0.12497869751E+03  0.76120372752E+03  0.77424205182E+03  0.00000000000E+00 0.  1.
         21    1    1    2  502  501  0.29656302044E+02 -0.58138956592E+02  0.18779043767E+01  0.65292886668E+02  0.00000000000E+00 0. -1.
<scales pt_clust_5="13000.00000" pt_clust_6="13000.00000" pt_clust_7="13000.00000" pt_clust_8="13000.00000" pt_clust_9="65.26588"></scales>
<clustering>
<clus scale="   65.266">  2  9  1 -1</clus>
<clus scale="   91.376">  5  6 -1 -1</clus>
<clus scale="   97.368">  7  8 -1 -1</clus>
<clus scale="  162.091">  2  5  1 -1</clus>
<clus scale="  165.543">  1  5  2 -1</clus>
</clustering>
</event>
<event>
 9    1  0.2184608E-005  0.1558745E+03  0.7546771E-02  0.1194107E+00
          1   -1    0    0  502    0  0.00000000000E+00  0.00000000000E+00  0.19639966569E+03  0.19639966569E+03  0.00000000000E+00 0. -1.
         -1   -1    0    0    0  501 -0.00000000000E+00 -0.00000000000E+00 -0.79522397891E+03  0.79522397891E+03  0.00000000000E+00 0.  1.
         23    2    1    2    0    0  0.19310841765E-01  0.14711375021E+03 -0.66267874360E+03  0.68440821596E+03  0.87344335665E+02 0.  0.
         23    2    1    2    0    0  0.30393345088E+02 -0.12177996709E+03  0.14785125275E+03  0.21435964597E+03  0.91301418789E+02 0.  0.
        -11    1    4    4    0    0 -0.26661183103E+02 -0.13179486860E+02  0.14245025242E+02  0.32976329427E+02  0.00000000000E+00 0.  1.
         11    1    4    4    0    0  0.57054528191E+02 -0.10860048023E+03  0.13360622750E+03  0.18138331654E+03  0.00000000000E+00 0. -1.
        -11    1    3    3    0    0 -0.34343992260E+02  0.56311133755E+02 -0.37585049467E+03  0.38159408792E+03  0.00000000000E+00 0.  1.
         11    1    3    3    0    0  0.34363303102E+02  0.90802616454E+02 -0.28682824893E+03  0.30281412804E+03  0.00000000000E+00 0. -1.
         21    1    1    2  502  501 -0.30412655930E+02 -0.25333783122E+02 -0.83996822361E+02  0.92855782667E+02  0.00000000000E+00 0.  1.
<scales pt_clust_5="13000.00000" pt_clust_6="13000.00000" pt_clust_7="13000.00000" pt_clust_8="13000.00000" pt_clust_9="39.58194"></scales>
<clustering>
<clus scale="   39.582">  2  9  1 -1</clus>
<clus scale="   87.344">  7  8 -1 -1</clus>
<clus scale="   91.301">  5  6 -1 -1</clus>
<clus scale="  153.590">  2  7  1 -1</clus>
<clus scale="  155.875">  1  5  2 -1</clus>
</clustering>
</event>
<event>
 9    1  0.1434065E-005  0.1162304E+03  0.7546771E-02  0.1249488E+00
         -1   -1    0    0    0  501 -0.00000000000E+00  0.00000000000E+00  0.45104661928E+03  0.45104661928E+03  0.00000000000E+00 0.  1.
          1   -1    0    0  502    0  0.00000000000E+00 -0.00000000000E+00 -0.60874608209E+02  0.60874608209E+02  0.00000000000E+00 0. -1.
         23    2    1    2    0    0 -0.73294113611E+02  0.40110242564E+02  0.16285631251E+03  0.20492700868E+03  0.92152274604E+02 0.  0.
         23    2    1    2    0    0  0.25174862095E+02 -0.66262786130E+02  0.59607576366E+02  0.13057020641E+03  0.92037954852E+02 0.  0.
        -13    1    4    4    0    0 -0.10977145507E+02 -0.64307698217E+02  0.55029851302E+01  0.65469539626E+02  0.00000000000E+00 0. -1.
         13    1    4    4    0    0  0.36152007602E+02 -0.19550879132E+01  0.54104591236E+02  0.65100666780E+02  0.00000000000E+00 0.  1.
        -13    1    3    3    0    0  0.97927659410E+01  0.25894122708E+02  0.87795986976E+02  0.92057260358E+02  0.00000000000E+00 0. -1.
         13    1    3    3    0    0 -0.83086879552E+02  0.14216119856E+02  0.75060325533E+02  0.11286974832E+03  0.00000000000E+00 0.  1.
         21    1    1    2  502  501  0.48119251516E+02  0.26152543566E+02  0.16770812220E+03  0.17642401240E+03  0.00000000000E+00 0.  1.
<scales pt_clust_5="13000.00000" pt_clust_6="13000.00000" pt_clust_7="13000.00000" pt_clust_8="13000.00000" pt_clust_9="54.76694"></scales>
<clustering>
<clus scale="   54.767">  1  9  2 -1</clus>
<clus scale="   92.038">  5  6 -1 -1</clus>
<clus scale="   92.152">  7  8 -1 -1</clus>
<clus scale="  116.140">  2  5  1 -1</clus>
<clus scale="  116.140">  2  5  1 -1</clus>
</clustering>
</event>
<event>
 9    1  0.1434065E-005  0.9283945E+02  0.7546771E-02  0.1296510E+00
         -2   -1    0    0    0  501 -0.00000000000E+00  0.00000000000E+00  0.14247862486E+03  0.14247862486E+03  0.00000000000E+00 0.  1.
          2   -1    0    0  502    0  0.00000000000E+00 -0.00000000000E+00 -0.18791842146E+03  0.18791842146E+03  0.00000000000E+00 0. -1.
         23    2    1    2    0    0 -0.35447844128E+02 -0.31244775011E+02  0.64429301480E+02  0.12183159024E+03  0.91972908365E+02 0.  0.
         23    2    1    2    0    0 -0.17880702826E+01  0.92940357267E+01 -0.13139520642E+03  0.16027755265E+03  0.91294125319E+02 0.  0.
        -11    1    3    3    0    0 -0.48468085712E+02 -0.55954374090E+02  0.37295704736E+02  0.82891597307E+02  0.00000000000E+00 0.  1.
         11    1    3    3    0    0  0.13020241584E+02  0.24709599079E+02  0.27133596744E+02  0.38939992936E+02  0.00000000000E+00 0. -1.
        -11    1    4    4    0    0  0.42618110694E+02 -0.43699714431E+01 -0.44684617480E+02  0.61904079420E+02  0.00000000000E+00 0. -1.
         11    1    4    4    0    0 -0.44406180976E+02  0.13664007170E+02 -0.86710588942E+02  0.98373473231E+02  0.00000000000E+00 0.  1.
         21    1    1    2  502  501  0.37235914410E+02  0.21950739284E+02  0.21526108341E+02  0.48287903427E+02  0.00000000000E+00 0. -1.
<scales pt_clust_5="13000.00000" pt_clust_6="13000.00000" pt_clust_7="13000.00000" pt_clust_8="13000.00000" pt_clust_9="43.22439"></scales>
<clustering>
<clus scale="   43.224">  1  9  2 -1</clus>
<clus scale="   91.294">  7  8 -1 -1</clus>
<clus scale="   91.973">  5  6 -1 -1</clus>
<clus scale="   92.167">  2  7  1 -1</clus>
<clus scale="   92.167">  2  5  1 -1</clus>
</clustering>
</event>
<event>
 9    1  0.1434065E-005  0.1023912E+03  0.7546771E-02  0.1275708E+00
          1   -1    0    0  502    0  0.00000000000E+00  0.00000000000E+00  0.34170586185E+02  0.34170586185E+02  0.00000000000E+00 0. -1.
         -1   -1    0    0    0  501 -0.00000000000E+00 -0.00000000000E+00 -0.70082366597E+03  0.70082366597E+03  0.00000000000E+00 0.  1.
         23    2    1    2    0    0 -0.12225569971E+02  0.10622007121E+02 -0.25154560894E+03  0.26884047829E+03  0.93475760468E+02 0.  0.
         23    2    1    2    0    0  0.80907330213E+02  0.29921639910E+02 -0.30043797545E+03  0.32647534074E+03  0.94243675670E+02 0.  0.
        -11    1    4    4    0    0  0.63260022727E+02  0.16239487928E+02 -0.29673859017E+03  0.30384098200E+03  0.00000000000E+00 0.  1.
         11    1    4    4    0    0  0.17647307486E+02  0.13682151982E+02 -0.36993852763E+01  0.22634358745E+02  0.00000000000E+00 0. -1.
        -11    1    3    3    0    0  0.10951291090E+02 -0.37765045169E+02 -0.13358735773E+03  0.13925412582E+03  0.00000000000E+00 0. -1.
         11    1    3    3    0    0 -0.23176861061E+02  0.48387052291E+02 -0.11795825121E+03  0.12958635247E+03  0.00000000000E+00 0.  1.
         21    1    1    2  502  501 -0.68681760243E+02 -0.40543647031E+02 -0.11466949540E+03  0.13967843312E+03  0.00000000000E+00 0. -1.
<scales pt_clust_5="13000.00000" pt_clust_6="13000.00000" pt_clust_7="13000.00000" pt_clust_8="13000.00000" pt_clust_9="79.75570"></scales>
<clustering>
<clus scale="   79.756">  1  9  2 -1</clus>
<clus scale="   93.476">  7  8 -1 -1</clus>
<clus scale="   94.244">  5  6 -1 -1</clus>
<clus scale="  101.685">  2  7  1 -1</clus>
<clus scale="   79.756">  1  5  2 -1</clus>
</clustering>
</event>
<event>
 9    1  0.1434065E-005  0.1507142E+03  0.7546771E-02  0.1199789E+00
         -1   -1    0    0    0  501 -0.00000000000E+00  0.00000000000E+00  0.50898900782E+03  0.50898900782E+03  0.00000000000E+00 0.  1.
          1   -1    0    0  502    0  0.00000000000E+00 -0.00000000000E+00 -0.54373300612E+02  0.54373300612E+02  0.00000000000E+00 0. -1.
         23    2    1    2    0    0  0.11214511286E+03 -0.42275915785E+02  0.19574871503E+03  0.24705511937E+03  0.91405104782E+02 0.  0.
         23    2    1    2    0    0 -0.11933829534E+03  0.19718881124E+02  0.18531714098E+03  0.23904049314E+03  0.90373954279E+02 0.  0.
        -13    1    4    4    0    0 -0.20977412823E+02  0.27957130620E+02  0.10842678132E+03  0.11392111265E+03  0.00000000000E+00 0.  1.
         13    1    4    4    0    0 -0.98360882517E+02 -0.82382494962E+01  0.76890359663E+02  0.12511938049E+03  0.00000000000E+00 0. -1.
        -13    1    3    3    0    0 -0.11461855386E+02 -0.22559853922E+02  0.27776802856E+02  0.37574884095E+02  0.00000000000E+00 0. -1.
         13    1    3    3    0    0  0.12360696824E+03 -0.19716061863E+02  0.16797191217E+03  0.20948023528E+03  0.00000000000E+00 0.  1.
         21    1    1    2  502  501  0.71931824840E+01  0.22557034661E+02  0.73549851195E+02  0.77266695916E+02  0.00000000000E+00 0.  1.
<scales pt_clust_5="13000.00000" pt_clust_6="13000.00000" pt_clust_7="13000.00000" pt_clust_8="13000.00000" pt_clust_9="23.67618"></scales>
<clustering>
<clus scale="   23.676">  1  9  2 -1</clus>
<clus scale="   90.374">  5  6 -1 -1</clus>
<clus scale="   91.405">  7  8 -1 -1</clus>
<clus scale="  150.091">  2  5  1 -1</clus>
<clus scale="  150.091">  2  5  1 -1</clus>
</clustering>
</event>
<event>
 9    1  0.1434065E-005  0.9969593E+02  0.7546771E-02  0.1282012E+00
          1   -1    0    0  502    0  0.00000000000E+00  0.00000000000E+00  0.40814860060E+03  0.40814860060E+03  0.00000000000E+00 0. -1.
         -1   -1    0    0    0  501 -0.00000000000E+00 -0.00000000000E+00 -0.12580641357E+03  0.12580641357E+03  0.00000000000E+00 0.  1.
         23    2    1    2    0    0 -0.69717302355E+02  0.22527922698E+02 -0.44191686501E+02  0.12551077219E+03  0.91826135882E+02 0.  0.
         23    2    1    2    0    0  0.28145392448E+02 -0.10601365102E+02  0.34688730728E+03  0.36064540585E+03  0.93966764094E+02 0.  0.
        -13    1    4    4    0    0  0.51169228734E+02  0.15707962910E+02  0.28104650537E+03  0.28609817939E+03  0.00000000000E+00 0.  1.
         13    1    4    4    0    0 -0.23023836286E+02 -0.26309328013E+02  0.65840801904E+02  0.74547226462E+02  0.00000000000E+00 0. -1.
        -13    1    3    3    0    0  0.12103899006E+02 -0.16239098284E+02  0.70865400940E+01  0.21457673097E+02  0.00000000000E+00 0. -1.
         13    1    3    3    0    0 -0.81821201361E+02  0.38767020982E+02 -0.51278226595E+02  0.10405309909E+03  0.00000000000E+00 0.  1.
         21    1    1    2  502  501  0.41571909907E+02 -0.11926557596E+02 -0.20353433745E+02  0.47798836122E+02  0.00000000000E+00 0.  1.
<scales pt_clust_5="13000.00000" pt_clust_6="13000.00000" pt_clust_7="13000.00000" pt_clust_8="13000.00000" pt_clust_9="43.24889"></scales>
<clustering>
<clus scale="   43.249">  2  9  1 -1</clus>
<clus scale="   91.826">  7  8 -1 -1</clus>
<clus scale="   93.967">  5  6 -1 -1</clus>
<clus scale="   97.681">  2  7  1 -1</clus>
<clus scale="   99.696">  1  5  2 -1</clus>
</clustering>
</event>
<event>
 9    1  0.1434065E-005  0.2625510E+03  0.7546771E-02  0.1105649E+00
         -2   -1    0    0    0  501 -0.00000000000E+00  0.00000000000E+00  0.18278527322E+03  0.18278527322E+03  0.00000000000E+00 0.  1.
          2   -1    0    0  502    0  0.00000000000E+00 -0.00000000000E+00 -0.48162588716E+03  0.48162588716E+03  0.00000000000E+00 0. -1.
         23    2    1    2    0    0 -0.25541286287E+03 -0.40859010974E+02 -0.11704447871E+03  0.29803147965E+03  0.90654087441E+02 0.  0.
         23    2    1    2    0    0  0.23579717307E+03  0.32007338485E+02 -0.21047728242E+03  0.33052252529E+03  0.91212262140E+02 0.  0.
        -13    1    3    3    0    0 -0.20851370912E+03 -0.54229869234E+02 -0.61374414125E+02  0.22402157110E+03  0.00000000000E+00 0.  1.
         13    1    3    3    0    0 -0.46899153751E+02  0.13370858260E+02 -0.55670064588E+02  0.74009908556E+02  0.00000000000E+00 0. -1.
        -13    1    4    4    0    0  0.21101095471E+03  0.52646579541E+02 -0.15758264473E+03  0.26856949801E+03  0.00000000000E+00 0. -1.
         13    1    4    4    0    0  0.24786218360E+02 -0.20639241056E+02 -0.52894637691E+02  0.61953027274E+02  0.00000000000E+00 0.  1.
         21    1    1    2  502  501  0.19615689800E+02  0.88516724884E+01  0.28681147191E+02  0.35857155441E+02  0.00000000000E+00 0.  1.
<scales pt_clust_5="13000.00000" pt_clust_6="13000.00000" pt_clust_7="13000.00000" pt_clust_8="13000.00000" pt_clust_9="21.52039"></scales>
<clustering>
<clus scale="   21.520">  1  9  2 -1</clus>
<clus scale="   90.654">  5  6 -1 -1</clus>
<clus scale="   91.212">  7  8 -1 -1</clus>
<clus scale="  262.358">  1  5  2 -1</clus>
<clus scale="  262.551">  2  5  1 -1</clus>
</clustering>
</event>
<event>
 9    1  0.1434065E-005  0.1169292E+03  0.7546771E-02  0.1249940E+00
         -1   -1    0    0    0  501 -0.00000000000E+00  0.00000000000E+00  0.10147763463E+03  0.10147763463E+03  0.00000000000E+00 0.  1.
          1   -1    0    0  502    0  0.00000000000E+00 -0.00000000000E+00 -0.23502004710E+03  0.23502004710E+03  0.00000000000E+00 0. -1.
         23    2    1    2    0    0 -0.37598600200E+01  0.57075323717E+02  0.99513063528E+01  0.10884085588E+03  0.92062882233E+02 0.  0.
         23    2    1    2    0    0 -0.10504632063E+02 -0.76398199768E+02 -0.16050948207E+03  0.19822239921E+03  0.87073494760E+02 0.  0.
        -13    1    4    4    0    0 -0.41937417045E+02 -0.55976917778E+02 -0.13742456464E+03  0.15420010778E+03  0.00000000000E+00 0. -1.
         13    1    4    4    0    0  0.31432784982E+02 -0.20421281989E+02 -0.23084917435E+02  0.44022291431E+02  0.00000000000E+00 0.  1.
        -13    1    3    3    0    0 -0.46345089422E+02  0.31076087432E+02 -0.67932766124E+01  0.56211556914E+02  0.00000000000E+00 0. -1.
         13    1    3    3    0    0  0.42585229402E+02  0.25999236285E+02  0.16744582965E+02  0.52629298963E+02  0.00000000000E+00 0.  1.
         21    1    1    2  502  501  0.14264492083E+02  0.19322876050E+02  0.17015763249E+02  0.29434426649E+02  0.00000000000E+00 0.  1.
<scales pt_clust_5="13000.00000" pt_clust_6="13000.00000" pt_clust_7="13000.00000" pt_clust_8="13000.00000" pt_clust_9="24.01769"></scales>
<clustering>
<clus scale="   24.018">  1  9  2 -1</clus>
<clus scale="   87.073">  5  6 -1 -1</clus>
<clus scale="   92.063">  7  8 -1 -1</clus>
<clus scale="  113.043">  2  5  1 -1</clus>
<clus scale="  113.043">  2  5  1 -1</clus>
</clustering>
</event>
<event>
 9    1  0.1434065E-005  0.1085682E+03  0.7546771E-02  0.1263281E+00
         -1   -1    0    0    0  501 -0.00000000000E+00  0.00000000000E+00  0.10912143682E+03  0.10912143682E+03  0.00000000000E+00 0.  1.
          1   -1    0    0  502    0  0.00000000000E+00 -0.00000000000E+00 -0.29121173802E+03  0.29121173802E+03  0.00000000000E+00 0. -1.
         23    2    1    2    0    0 -0.13933758702E+02 -0.55708884977E+02  0.53729700696E+02  0.12007706701E+03  0.90741345527E+02 0.  0.
         23    2    1    2    0    0  0.45201473347E+02  0.63036146667E+02 -0.18732208332E+03  0.22208904800E+03  0.90649067076E+02 0.  0.
        -11    1    4    4    0    0  0.44954940195E+02  0.22128816151E+01 -0.13345746265E+03  0.14084295449E+03  0.00000000000E+00 0. -1.
         11    1    4    4    0    0  0.24653315197E+00  0.60823265052E+02 -0.53864620673E+02  0.81246093509E+02  0.00000000000E+00 0.  1.
        -13    1    3    3    0    0 -0.22636477782E+02  0.20508458547E+02  0.17970911855E+02  0.35439535427E+02  0.00000000000E+00 0.  1.
         13    1    3    3    0    0  0.87027190803E+01 -0.76217343524E+02  0.35758788841E+02  0.84637531583E+02  0.00000000000E+00 0. -1.
         21    1    1    2  502  501 -0.31267714645E+02 -0.73272616898E+01 -0.48497918572E+02  0.58167059826E+02  0.00000000000E+00 0.  1.
<scales pt_clust_5="13000.00000" pt_clust_6="13000.00000" pt_clust_7="13000.00000" pt_clust_8="13000.00000" pt_clust_9="32.11477"></scales>
<clustering>
<clus scale="   32.115">  2  9  1 -1</clus>
<clus scale="   90.649">  5  6 -1 -1</clus>
<clus scale="   90.741">  7  8 -1 -1</clus>
<clus scale="  108.491">  2  5  1 -1</clus>
<clus scale="   32.115">  2  5  1 -1</clus>
</clustering>
</event>
<event>
 9    1  0.1434065E-005  0.1082972E+03  0.7546771E-02  0.1265899E+00
         -1   -1    0    0    0  501 -0.00000000000E+00  0.00000000000E+00  0.22900920117E+02  0.22900920117E+02  0.00000000000E+00 0.  1.
          1   -1    0    0  502    0  0.00000000000E+00 -0.00000000000E+00 -0.63701441450E+03  0.63701441450E+03  0.00000000000E+00 0. -1.
         23    2    1    2    0    0  0.42386764100E+01  0.48493657095E+02 -0.24901494960E+03  0.27136746932E+03  0.96240620969E+02 0.  0.
         23    2    1    2    0    0 -0.30628115491E+02 -0.43875066350E+02 -0.30259631772E+03  0.32054593692E+03  0.91225343359E+02 0.  0.
        -11    1    3    3    0    0 -0.45808756015E+02  0.27396100739E+02 -0.13087608729E+03  0.14134192120E+03  0.00000000000E+00 0. -1.
         11    1    3    3    0    0  0.50047432425E+02  0.21097556356E+02 -0.11813886230E+03  0.13002554812E+03  0.00000000000E+00 0.  1.
        -13    1    4    4    0    0  0.18419428372E+02  0.16811354892E+02 -0.10900006675E+03  0.11181641895E+03  0.00000000000E+00 0. -1.
         13    1    4    4    0    0 -0.49047543863E+02 -0.60686421243E+02 -0.19359625097E+03  0.20872951797E+03  0.00000000000E+00 0.  1.
         21    1    1    2  502  501  0.26389439081E+02 -0.46185907451E+01 -0.62502227060E+02  0.68001928377E+02  0.00000000000E+00 0.  1.
<scales pt_clust_5="13000.00000" pt_clust_6="13000.00000" pt_clust_7="13000.00000" pt_clust_8="13000.00000" pt_clust_9="26.79056"></scales>
<clustering>
<clus scale="   26.791">  1  9  2 -1</clus>
<clus scale="   91.225">  7  8 -1 -1</clus>
<clus scale="   96.241">  5  6 -1 -1</clus>
<clus scale="  103.866">  2  7  1 -1</clus>
<clus scale="  103.866">  2  5  1 -1</clus>
</clustering>
</event>
<event>
 9    1  0.1434065E-005  0.1220138E+03  0.7546771E-02  0.1242388E+00
         -1   -1    0    0    0  501 -0.00000000000E+00  0.00000000000E+00  0.79410716320E+02  0.79410716320E+02  0.00000000000E+00 0.  1.
          1   -1    0    0  502    0  0.00000000000E+00 -0.00000000000E+00 -0.23536225318E+03  0.23536225318E+03  0.00000000000E+00 0. -1.
         23    2    1    2    0    0 -0.49792242181E+02 -0.45486424308E+02 -0.63248421427E+02  0.13510713797E+03  0.98515449250E+02 0.  0.
         23    2    1    2    0    0  0.69818115514E+02  0.32386463288E+02 -0.99171127881E+02  0.15487712913E+03  0.90711411979E+02 0.  0.
        -11    1    4    4    0    0  0.69164673833E+02  0.12369683126E+02 -0.19771910610E+02  0.72991024217E+02  0.00000000000E+00 0. -1.
         11    1    4    4    0    0  0.65344168085E+00  0.20016780161E+02 -0.79399217271E+02  0.81886104910E+02  0.00000000000E+00 0.  1.
        -13    1    3    3    0    0  0.62560445569E+01 -0.26944864611E+02  0.19221894773E+02  0.33684492887E+02  0.00000000000E+00 0.  1.
         13    1    3    3    0    0 -0.56048286738E+02 -0.18541559697E+02 -0.82470316200E+02  0.10142264509E+03  0.00000000000E+00 0. -1.
         21    1    1    2  502  501 -0.20025873333E+02  0.13099961021E+02  0.64680124489E+01  0.24788702397E+02  0.00000000000E+00 0.  1.
<scales pt_clust_5="13000.00000" pt_clust_6="13000.00000" pt_clust_7="13000.00000" pt_clust_8="13000.00000" pt_clust_9="23.92999"></scales>
<clustering>
<clus scale="   23.930">  1  9  2 -1</clus>
<clus scale="   90.711">  5  6 -1 -1</clus>
<clus scale="   98.515">  7  8 -1 -1</clus>
<clus scale="  115.804">  2  5  1 -1</clus>
<clus scale="  115.804">  2  5  1 -1</clus>
</clustering>
</event>
<event>
 9    1  0.1434065E-005  0.1006722E+03  0.7546771E-02  0.1284700E+00
          1   -1    0    0  502    0  0.00000000000E+00  0.00000000000E+00  0.42931973042E+02  0.42931973042E+02  0.00000000000E+00 0. -1.
         -1   -1    0    0    0  501 -0.00000000000E+00 -0.00000000000E+00 -0.32807527489E+03  0.32807527489E+03  0.00000000000E+00 0.  1.
         23    2    1    2    0    0  0.43782594926E+02 -0.23089849275E+02 -0.14088588300E+03  0.17486101785E+03  0.90980694515E+02 0.  0.
         23    2    1    2    0    0 -0.24061157721E+02  0.33825916302E+02 -0.56976794165E+02  0.10602350451E+03  0.79192780673E+02 0.  0.
        -13    1    3    3    0    0  0.54069938310E+00 -0.38512775127E+02 -0.11686097298E+03  0.12304476100E+03  0.00000000000E+00 0.  1.
         13    1    3    3    0    0  0.43241895543E+02  0.15422925853E+02 -0.24024910028E+02  0.51816256849E+02  0.00000000000E+00 0. -1.
        -13    1    4    4    0    0 -0.29726216878E+02  0.12925149952E+02 -0.72475327382E+02  0.79393831941E+02  0.00000000000E+00 0.  1.
         13    1    4    4    0    0  0.56650591563E+01  0.20900766350E+02  0.15498533217E+02  0.26629672569E+02  0.00000000000E+00 0. -1.
         21    1    1    2  502  501 -0.19721437205E+02 -0.10736067027E+02 -0.87280624684E+02  0.90122725580E+02  0.00000000000E+00 0. -1.
<scales pt_clust_5="13000.00000" pt_clust_6="13000.00000" pt_clust_7="13000.00000" pt_clust_8="13000.00000" pt_clust_9="22.45436"></scales>
<clustering>
<clus scale="   22.454">  2  9  1 -1</clus>
<clus scale="   79.193">  7  8 -1 -1</clus>
<clus scale="   90.160">  1  7  2 -1</clus>
<clus scale="   90.981">  5  6 -1 -1</clus>
<clus scale="   90.160">  1  5  2 -1</clus>
</clustering>
</event>
<event>
 9    1  0.1434065E-005  0.1551114E+03  0.7546771E-02  0.1194917E+00
          1   -1    0    0  502    0  0.00000000000E+00  0.00000000000E+00  0.47986254516E+03  0.47986254516E+03  0.00000000000E+00 0. -1.
         -1   -1    0    0    0  501 -0.00000000000E+00 -0.00000000000E+00 -0.62977863277E+02  0.62977863277E+02  0.00000000000E+00 0.  1.
         23    2    1    2    0    0 -0.11614507142E+00  0.11326856529E+03  0.15943876616E+03  0.21587566225E+03  0.91388183181E+02 0.  0.
         23    2    1    2    0    0 -0.28982253243E+02 -0.13499280483E+03  0.22507026408E+03  0.27831454385E+03  0.87973480015E+02 0.  0.
        -11    1    4    4    0    0 -0.60474047559E+02 -0.96938645173E+02  0.15351874815E+03  0.19136932197E+03  0.00000000000E+00 0.  1.
         11    1    4    4    0    0  0.31491794316E+02 -0.38054159660E+02  0.71551515926E+02  0.86945221881E+02  0.00000000000E+00 0. -1.
        -11    1    3    3    0    0  0.25843392478E+02  0.11114225781E+03  0.10300956281E+03  0.15372524983E+03  0.00000000000E+00 0. -1.
         11    1    3    3    0    0 -0.25959537549E+02  0.21263074802E+01  0.56429203346E+02  0.62150412416E+02  0.00000000000E+00 0.  1.
         21    1    1    2  502  501  0.29098398315E+02  0.21724239547E+02  0.32375651652E+02  0.48650202346E+02  0.00000000000E+00 0.  1.
<scales pt_clust_5="13000.00000" pt_clust_6="13000.00000" pt_clust_7="13000.00000" pt_clust_8="13000.00000" pt_clust_9="36.31335"></scales>
<clustering>
<clus scale="   36.313">  2  9  1 -1</clus>
<clus scale="   87.973">  5  6 -1 -1</clus>
<clus scale="   91.388">  7  8 -1 -1</clus>
<clus scale="  153.124">  1  5  2 -1</clus>
<clus scale="  153.124">  1  5  2 -1</clus>
</clustering>
</event>
<event>
 9    1  0.1434065E-005  0.1165538E+03  0.7546771E-02  0.1249758E+00
         -3   -1    0    0    0  501 -0.00000000000E+00  0.00000000000E+00  0.41056673212E+03  0.41056673212E+03  0.00000000000E+00 0.  1.
          3   -1    0    0  502    0  0.00000000000E+00 -0.00000000000E+00 -0.52722004589E+02  0.52722004589E+02  0.00000000000E+00 0. -1.
         23    2    1    2    0    0  0.85720451712E+02 -0.43076847291E+02  0.20783241458E+03  0.24602460878E+03  0.90167538309E+02 0.  0.
         23    2    1    2    0    0 -0.55735868786E+02  0.20181026145E+02  0.74575175558E+02  0.13291926716E+03  0.92694734947E+02 0.  0.
        -11    1    3    3    0    0  0.43105167308E+02 -0.65971153292E+02  0.15806201511E+03  0.17661780526E+03  0.00000000000E+00 0.  1.
         11    1    3    3    0    0  0.42615284404E+02  0.22894306001E+02  0.49770399470E+02  0.69406803524E+02  0.00000000000E+00 0. -1.
        -13    1    4    4    0    0 -0.54878980400E+02 -0.33325703409E+01  0.27316612786E+00  0.54980752400E+02  0.00000000000E+00 0. -1.
         13    1    4    4    0    0 -0.85688838631E+00  0.23513596486E+02  0.74302009430E+02  0.77938514759E+02  0.00000000000E+00 0.  1.
         21    1    1    2  502  501 -0.29984582926E+02  0.22895821145E+02  0.75437137398E+02  0.84344860768E+02  0.00000000000E+00 0. -1.
<scales pt_clust_5="13000.00000" pt_clust_6="13000.00000" pt_clust_7="13000.00000" pt_clust_8="13000.00000" pt_clust_9="37.72657"></scales>
<clustering>
<clus scale="   37.727">  1  9  2 -1</clus>
<clus scale="   90.168">  5  6 -1 -1</clus>
<clus scale="   92.695">  7  8 -1 -1</clus>
<clus scale="  114.554">  1  5  2 -1</clus>
<clus scale="  116.554">  2  5  1 -1</clus>
</clustering>
</event>
<event>
 9    1  0.1434065E-005  0.1382929E+03  0.7546771E-02  0.1216361E+00
          2   -1    0    0  502    0  0.00000000000E+00  0.00000000000E+00  0.82121661440E+02  0.82121661440E+02  0.00000000000E+00 0. -1.
         -2   -1    0    0    0  501 -0.00000000000E+00 -0.00000000000E+00 -0.42181442941E+03  0.42181442941E+03  0.00000000000E+00 0.  1.
         23    2    1    2    0    0 -0.88297933079E+02 -0.44134150469E+02 -0.12256966125E+03  0.18240393642E+03  0.92214564680E+02 0.  0.
         23    2    1    2    0    0  0.50125751038E+02  0.10591883756E+03 -0.82922540423E+02  0.16894036227E+03  0.89069114877E+02 0.  0.
        -11    1    3    3    0    0 -0.89470848797E+02 -0.36928749686E+01 -0.59637293635E+02  0.10758846082E+03  0.00000000000E+00 0.  1.
         11    1    3    3    0    0  0.11729157187E+01 -0.40441275500E+02 -0.62932367614E+02  0.74815475597E+02  0.00000000000E+00 0. -1.
        -11    1    4    4    0    0  0.61635681538E+02  0.32277244550E+02 -0.22918830998E+02  0.73253331451E+02  0.00000000000E+00 0. -1.
         11    1    4    4    0    0 -0.11509930500E+02  0.73641593012E+02 -0.60003709424E+02  0.95687030814E+02  0.00000000000E+00 0.  1.
         21    1    1    2  502  501  0.38172182041E+02 -0.61784687092E+02 -0.13420056630E+03  0.15259179216E+03  0.00000000000E+00 0.  1.
<scales pt_clust_5="13000.00000" pt_clust_6="13000.00000" pt_clust_7="13000.00000" pt_clust_8="13000.00000" pt_clust_9="72.62550"></scales>
<clustering>
<clus scale="   72.625">  2  9  1 -1</clus>
<clus scale="   89.069">  7  8 -1 -1</clus>
<clus scale="   92.215">  5  6 -1 -1</clus>
<clus scale="  136.216">  1  7  2 -1</clus>
<clus scale="  136.216">  1  5  2 -1</clus>
</clustering>
</event>
<event>
 9    1  0.1434065E-005  0.2062394E+03  0.7546771E-02  0.1144921E+00
         -1   -1    0    0    0  501 -0.00000000000E+00  0.00000000000E+00  0.53300539332E+02  0.53300539332E+02  0.00000000000E+00 0.  1.
          1   -1    0    0  502    0  0.00000000000E+00 -0.00000000000E+00 -0.10184746673E+04  0.10184746673E+04  0.00000000000E+00 0. -1.
         23    2    1    2    0    0 -0.14188149099E+02 -0.17108117686E+03 -0.24881070393E+03  0.31752757480E+03  0.97195276198E+02 0.  0.
         23    2    1    2    0    0  0.30494885334E+02  0.18418932255E+03 -0.68803700468E+03  0.71903230614E+03  0.93578271457E+02 0.  0.
        -11    1    4    4    0    0  0.63709539778E+02  0.13453393487E+03 -0.50622115473E+03  0.52765343037E+03  0.00000000000E+00 0.  1.
         11    1    4    4    0    0 -0.33214654444E+02  0.49655387685E+02 -0.18181584995E+03  0.19137887577E+03  0.00000000000E+00 0. -1.
        -11    1    3    3    0    0  0.77148173694E+01 -0.13368405448E+03 -0.11379891901E+03  0.17573030130E+03  0.00000000000E+00 0. -1.
         11    1    3    3    0    0 -0.21902966468E+02 -0.37397122384E+02 -0.13501178492E+03  0.14179727350E+03  0.00000000000E+00 0.  1.
         21    1    1    2  502  501 -0.16306736235E+02 -0.13108145692E+02 -0.28326419346E+02  0.35215325685E+02  0.00000000000E+00 0. -1.
<scales pt_clust_5="13000.00000" pt_clust_6="13000.00000" pt_clust_7="13000.00000" pt_clust_8="13000.00000" pt_clust_9="20.92207"></scales>
<clustering>
<clus scale="   20.922">  1  9  2 -1</clus>
<clus scale="   93.578">  5  6 -1 -1</clus>
<clus scale="   97.195">  7  8 -1 -1</clus>
<clus scale="  204.560">  2  5  1 -1</clus>
<clus scale="  204.560">  2  5  1 -1</clus>
</clustering>
</event>
<event>
 9    1  0.1434065E-005  0.1010688E+03  0.7546771E-02  0.1278827E+00
          3   -1    0    0  502    0  0.00000000000E+00  0.00000000000E+00  0.33740066307E+03  0.33740066307E+03  0.00000000000E+00 0. -1.
         -3   -1    0    0    0  501 -0.00000000000E+00 -0.00000000000E+00 -0.11866284693E+03  0.11866284693E+03  0.00000000000E+00 0.  1.
         23    2    1    2    0    0 -0.35474311911E+02  0.33515056808E+02  0.14250296940E+03  0.17727958544E+03  0.93484059012E+02 0.  0.
         23    2    1    2    0    0  0.41299881014E+02  0.32749376892E+02  0.14729968729E+03  0.18144367599E+03  0.91904340595E+02 0.  0.
        -13    1    4    4    0    0  0.22127231967E+02 -0.31427378150E+02  0.62644758676E+02  0.73495988200E+02  0.00000000000E+00 0.  1.
         13    1    4    4    0    0  0.19172649047E+02  0.64176755043E+02  0.84654928618E+02  0.10794768779E+03  0.00000000000E+00 0. -1.
        -13    1    3    3    0    0 -0.34888148444E+02 -0.20948373574E+02  0.24982231089E+02  0.47750697664E+02  0.00000000000E+00 0.  1.
         13    1    3    3    0    0 -0.58616346677E+00  0.54463430382E+02  0.11752073831E+03  0.12952888778E+03  0.00000000000E+00 0. -1.
         21    1    1    2  502  501 -0.58255691036E+01 -0.66264433701E+02 -0.71064840550E+02  0.97340248569E+02  0.00000000000E+00 0.  1.
<scales pt_clust_5="13000.00000" pt_clust_6="13000.00000" pt_clust_7="13000.00000" pt_clust_8="13000.00000" pt_clust_9="66.52002"></scales>
<clustering>
<clus scale="   66.520">  2  9  1 -1</clus>
<clus scale="   91.904">  5  6 -1 -1</clus>
<clus scale="   93.484">  7  8 -1 -1</clus>
<clus scale="   99.609">  1  5  2 -1</clus>
<clus scale="   99.609">  1  5  2 -1</clus>
</clustering>
</event>
<event>
 9    1  0.1434065E-005  0.1101359E+03  0.7546771E-02  0.1263706E+00
          2   -1    0    0  502    0  0.00000000000E+00  0.00000000000E+00  0.10087262420E+04  0.10087262420E+04  0.00000000000E+00 0. -1.
         -2   -1    0    0    0  501 -0.00000000000E+00 -0.00000000000E+00 -0.16700448267E+02  0.16700448267E+02  0.00000000000E+00 0.  1.
         23    2    1    2    0    0  0.48052376082E+02  0.24023326075E+01  0.35539396783E+03  0.37008742917E+03  0.91351140174E+02 0.  0.
         23    2    1    2    0    0 -0.41958800868E+02  0.35481231002E+02  0.40673538645E+03  0.42226273091E+03  0.99260669960E+02 0.  0.
        -11    1    3    3    0    0 -0.20352699556E+02  0.21678632002E+02  0.71579733898E+02  0.77510346210E+02  0.00000000000E+00 0.  1.
         11    1    3    3    0    0  0.68405075638E+02 -0.19276299394E+02  0.28381423394E+03  0.29257708296E+03  0.00000000000E+00 0. -1.
        -13    1    4    4    0    0  0.19194423992E+02 -0.10494729582E+02  0.26293218643E+02  0.34203780609E+02  0.00000000000E+00 0. -1.
         13    1    4    4    0    0 -0.61153224860E+02  0.45975960584E+02  0.38044216780E+03  0.38805895030E+03  0.00000000000E+00 0.  1.
         21    1    1    2  502  501 -0.60935752144E+01 -0.37883563610E+02  0.22989643942E+03  0.23307653015E+03  0.00000000000E+00 0.  1.
<scales pt_clust_5="13000.00000" pt_clust_6="13000.00000" pt_clust_7="13000.00000" pt_clust_8="13000.00000" pt_clust_9="38.37051"></scales>
<clustering>
<clus scale="   38.371">  1  9  2 -1</clus>
<clus scale="   91.351">  5  6 -1 -1</clus>
<clus scale="   99.261">  7  8 -1 -1</clus>
<clus scale="  103.064">  2  5  1 -1</clus>
<clus scale="   38.371">  1  5  2 -1</clus>
</clustering>
</event>
<event>
 9    1  0.1434065E-005  0.1575528E+03  0.7546771E-02  0.1191517E+00
         -2   -1    0    0    0  501 -0.00000000000E+00  0.00000000000E+00  0.53831491626E+02  0.53831491626E+02  0.00000000000E+00 0.  1.
          2   -1    0    0  502    0  0.00000000000E+00 -0.00000000000E+00 -0.98771682239E+03  0.98771682239E+03  0.00000000000E+00 0. -1.
         23    2    1    2    0    0  0.10205206619E+03 -0.32268017680E+02 -0.23539821949E+03  0.27416048692E+03  0.91081291535E+02 0.  0.
         23    2    1    2    0    0 -0.13578906704E+03  0.30498732513E+02 -0.71185940743E+03  0.73105418014E+03  0.91255437910E+02 0.  0.
        -11    1    4    4    0    0 -0.13351827636E+02 -0.27253768781E+02 -0.10628704673E+03  0.11053495157E+03  0.00000000000E+00 0.  1.
         11    1    4    4    0    0 -0.12243723941E+03  0.57752501294E+02 -0.60557236069E+03  0.62051922858E+03  0.00000000000E+00 0. -1.
        -11    1    3    3    0    0  0.71701316248E+02 -0.56758014812E+02 -0.20579658126E+03  0.22519943129E+03  0.00000000000E+00 0.  1.
         11    1    3    3    0    0  0.30350749946E+02  0.24489997132E+02 -0.29601638234E+02  0.48961055625E+02  0.00000000000E+00 0. -1.
         21    1    1    2  502  501  0.33737000849E+02  0.17692851675E+01  0.13372296159E+02  0.36333646953E+02  0.00000000000E+00 0.  1.
<scales pt_clust_5="13000.00000" pt_clust_6="13000.00000" pt_clust_7="13000.00000" pt_clust_8="13000.00000" pt_clust_9="33.78336"></scales>
<clustering>
<clus scale="   33.783">  1  9  2 -1</clus>
<clus scale="   91.081">  7  8 -1 -1</clus>
<clus scale="   91.255">  5  6 -1 -1</clus>
<clus scale="  157.452">  1  7  2 -1</clus>
<clus scale="  157.553">  2  5  1 -1</clus>
</clustering>
</event>
<event>
 9    1  0.1434065E-005  0.1014130E+03  0.7546771E-02  0.1277760E+00
          1   -1    0    0  502    0  0.00000000000E+00  0.00000000000E+00  0.29746028939E+03  0.29746028939E+03  0.00000000000E+00 0. -1.
         -1   -1    0    0    0  501 -0.00000000000E+00 -0.00000000000E+00 -0.62249105516E+02  0.62249105516E+02  0.00000000000E+00 0.  1.
         23    2    1    2    0    0 -0.56998708585E+02  0.14715164128E+02  0.48833466438E+02  0.11867319138E+03  0.90737148249E+02 0.  0.
         23    2    1    2    0    0  0.74595499094E+01 -0.36334425813E+02  0.13583026608E+03  0.16703238230E+03  0.89856108128E+02 0.  0.
        -13    1    3    3    0    0 -0.31458729860E+02  0.48336354159E+02  0.51201763040E+01  0.57898799843E+02  0.00000000000E+00 0.  1.
         13    1    3    3    0    0 -0.25539978725E+02 -0.33621190031E+02  0.43713290134E+02  0.60774391537E+02  0.00000000000E+00 0. -1.
        -13    1    4    4    0    0  0.38340194722E+02 -0.13234727135E+02  0.11755760734E+03  0.12435802981E+03  0.00000000000E+00 0. -1.
         13    1    4    4    0    0 -0.30880644813E+02 -0.23099698678E+02  0.18272658742E+02  0.42674352491E+02  0.00000000000E+00 0.  1.
         21    1    1    2  502  501  0.49539158676E+02  0.21619261685E+02  0.50547451352E+02  0.74003821228E+02  0.00000000000E+00 0. -1.
<scales pt_clust_5="13000.00000" pt_clust_6="13000.00000" pt_clust_7="13000.00000" pt_clust_8="13000.00000" pt_clust_9="54.05109"></scales>
<clustering>
<clus scale="   54.051">  1  9  2 -1</clus>
<clus scale="   89.856">  7  8 -1 -1</clus>
<clus scale="   90.737">  5  6 -1 -1</clus>
<clus scale="  100.625">  1  7  2 -1</clus>
<clus scale="   54.051">  1  5  2 -1</clus>
</clustering>
</event>
<event>
 9    1  0.1434065E-005  0.1641959E+03  0.7546771E-02  0.1184185E+00
          2   -1    0    0  502    0  0.00000000000E+00  0.00000000000E+00  0.12793159937E+04  0.12793159937E+04  0.00000000000E+00 0. -1.
         -2   -1    0    0    0  501 -0.00000000000E+00 -0.00000000000E+00 -0.33913141366E+02  0.33913141366E+02  0.00000000000E+00 0.  1.
         23    2    1    2    0    0 -0.72422378289E+02  0.12731536159E+03  0.51526078734E+03  0.54308689157E+03  0.89417507512E+02 0.  0.
         23    2    1    2    0    0  0.68299607105E+01 -0.13642306404E+03  0.62313034510E+03  0.64429780110E+03  0.90389870875E+02 0.  0.
        -11    1    3    3    0    0 -0.51501230344E+02  0.13762227288E+03  0.46528838699E+03  0.48794010881E+03  0.00000000000E+00 0.  1.
         11    1    3    3    0    0 -0.20921147945E+02 -0.10306911291E+02  0.49972400353E+02  0.55146782760E+02  0.00000000000E+00 0. -1.
        -11    1    4    4    0    0 -0.42225711285E+01 -0.10426308353E+03  0.58030886505E+03  0.58961597634E+03  0.00000000000E+00 0. -1.
         11    1    4    4    0    0  0.11052531839E+02 -0.32159980504E+02  0.42821480046E+02  0.54681824763E+02  0.00000000000E+00 0.  1.
         21    1    1    2  502  501  0.65592417579E+02  0.91077024507E+01  0.10701171991E+03  0.12584444241E+03  0.00000000000E+00 0.  1.
<scales pt_clust_5="13000.00000" pt_clust_6="13000.00000" pt_clust_7="13000.00000" pt_clust_8="13000.00000" pt_clust_9="66.22171"></scales>
<clustering>
<clus scale="   66.222">  2  9  1 -1</clus>
<clus scale="   89.418">  5  6 -1 -1</clus>
<clus scale="   90.390">  7  8 -1 -1</clus>
<clus scale="  163.663">  2  5  1 -1</clus>
<clus scale="  164.196">  1  5  2 -1</clus>
</clustering>
</event>
<event>
 9    1  0.1434065E-005  0.1113017E+03  0.7546771E-02  0.1258338E+00
          1   -1    0    0  502    0  0.00000000000E+00  0.00000000000E+00  0.26602993574E+03  0.26602993574E+03  0.00000000000E+00 0. -1.
         -1   -1    0    0    0  501 -0.00000000000E+00 -0.00000000000E+00 -0.59983775634E+02  0.59983775634E+02  0.00000000000E+00 0.  1.
         23    2    1    2    0    0  0.31905097280E+02 -0.64830076559E+02  0.69258286538E+02  0.13543162608E+03  0.91236730696E+02 0.  0.
         23    2    1    2    0    0 -0.10735196015E+02  0.57425032641E+02  0.12346881314E+03  0.16449766915E+03  0.91662732508E+02 0.  0.
        -11    1    4    4    0    0  0.16600683901E+02  0.72957908355E+02  0.69954835471E+02  0.10243104072E+03  0.00000000000E+00 0. -1.
         11    1    4    4    0    0 -0.27335879917E+02 -0.15532875714E+02  0.53513977666E+02  0.62066628428E+02  0.00000000000E+00 0.  1.
        -11    1    3    3    0    0  0.23865209444E+02 -0.17572979601E+02  0.80852565349E+02  0.86113269346E+02  0.00000000000E+00 0. -1.
         11    1    3    3    0    0  0.80398878367E+01 -0.47257096958E+02 -0.11594278812E+02  0.49318356729E+02  0.00000000000E+00 0.  1.
         21    1    1    2  502  501 -0.21169901265E+02  0.74050439181E+01  0.13319060428E+02  0.26084416146E+02  0.00000000000E+00 0. -1.
<scales pt_clust_5="13000.00000" pt_clust_6="13000.00000" pt_clust_7="13000.00000" pt_clust_8="13000.00000" pt_clust_9="22.42765"></scales>
<clustering>
<clus scale="   22.428">  2  9  1 -1</clus>
<clus scale="   91.237">  7  8 -1 -1</clus>
<clus scale="   91.663">  5  6 -1 -1</clus>
<clus scale="  110.951">  2  7  1 -1</clus>
<clus scale="  111.302">  1  5  2 -1</clus>
</clustering>
</event>
<event>
 9    1  0.1434065E-005  0.1715499E+03  0.7546771E-02  0.1177122E+00
         -2   -1    0    0    0  501 -0.00000000000E+00  0.00000000000E+00  0.49476826173E+03  0.49476826173E+03  0.00000000000E+00 0.  1.
          2   -1    0    0  502    0  0.00000000000E+00 -0.00000000000E+00 -0.23289196632E+03  0.23289196632E+03  0.00000000000E+00 0. -1.
         23    2    1    2    0    0  0.79032841708E+02  0.10224335973E+03  0.22055411852E+03  0.27168384455E+03  0.92022266405E+02 0.  0.
         23    2    1    2    0    0 -0.40745252007E+02 -0.13776138017E+03 -0.16704632646E+03  0.24116273756E+03  0.98064353231E+02 0.  0.
        -11    1    3    3    0    0  0.16248326939E+02  0.83854434853E+02  0.16524616892E+03  0.18601578083E+03  0.00000000000E+00 0.  1.
         11    1    3    3    0    0  0.62784514770E+02  0.18388924877E+02  0.55307949596E+02  0.85668063720E+02  0.00000000000E+00 0. -1.
        -13    1    4    4    0    0 -0.35220564376E+02 -0.25229651057E+02 -0.10258478890E+03  0.11135826130E+03  0.00000000000E+00 0.  1.
         13    1    4    4    0    0 -0.55246876313E+01 -0.11253172911E+03 -0.64461537561E+02  0.12980447625E+03  0.00000000000E+00 0. -1.
         21    1    1    2  502  501 -0.38287589702E+02  0.35518020438E+02  0.20836850335E+03  0.21481364595E+03  0.00000000000E+00 0. -1.
<scales pt_clust_5="13000.00000" pt_clust_6="13000.00000" pt_clust_7="13000.00000" pt_clust_8="13000.00000" pt_clust_9="52.22518"></scales>
<clustering>
<clus scale="   52.225">  1  9  2 -1</clus>
<clus scale="   92.022">  5  6 -1 -1</clus>
<clus scale="   98.064">  7  8 -1 -1</clus>
<clus scale="  168.169">  1  5  2 -1</clus>
<clus scale="  171.550">  2  5  1 -1</clus>
</clustering>
</event>
<event>
 9    1  0.1434065E-005  0.9998127E+02  0.7546771E-02  0.1285793E+00
          2   -1    0    0  502    0  0.00000000000E+00  0.00000000000E+00  0.44216937341E+03  0.44216937341E+03  0.00000000000E+00 0. -1.
         -2   -1    0    0    0  501 -0.00000000000E+00 -0.00000000000E+00 -0.37218619257E+02  0.37218619257E+02  0.00000000000E+00 0.  1.
         23    2    1    2    0    0  0.53895641564E+02 -0.24311067180E+02  0.10551431349E+03  0.14643736513E+03  0.82552185837E+02 0.  0.
         23    2    1    2    0    0 -0.27135067644E+02  0.39752622810E+01  0.27427555508E+03  0.29096558925E+03  0.93176066690E+02 0.  0.
        -11    1    3    3    0    0 -0.69156792606E+01 -0.37587482166E+02  0.50751279948E+02  0.63532179654E+02  0.00000000000E+00 0. -1.
         11    1    3    3    0    0  0.60811320824E+02  0.13276414986E+02  0.54763033545E+02  0.82905185473E+02  0.00000000000E+00 0.  1.
        -13    1    4    4    0    0  0.11729289756E+02 -0.21389284046E+02  0.17480856908E+02  0.30010965803E+02  0.00000000000E+00 0.  1.
         13    1    4    4    0    0 -0.38864357401E+02  0.25364546327E+02  0.25679469818E+03  0.26095462345E+03  0.00000000000E+00 0. -1.
         21    1    1    2  502  501 -0.26760573919E+02  0.20335804899E+02  0.25160885576E+02  0.41985038291E+02  0.00000000000E+00 0. -1.
<scales pt_clust_5="13000.00000" pt_clust_6="13000.00000" pt_clust_7="13000.00000" pt_clust_8="13000.00000" pt_clust_9="33.61061"></scales>
<clustering>
<clus scale="   33.611">  2  9  1 -1</clus>
<clus scale="   82.552">  5  6 -1 -1</clus>
<clus scale="   90.163">  2  5  1 -1</clus>
<clus scale="   93.176">  7  8 -1 -1</clus>
<clus scale="   99.981">  1  5  2 -1</clus>
</clustering>
</event>
<event>
 9    1  0.1434065E-005  0.1030616E+03  0.7546771E-02  0.1274629E+00
          1   -1    0    0  502    0  0.00000000000E+00  0.00000000000E+00  0.49970989194E+02  0.49970989194E+02  0.00000000000E+00 0. -1.
         -1   -1    0    0    0  501 -0.00000000000E+00 -0.00000000000E+00 -0.42743282865E+03  0.42743282865E+03  0.00000000000E+00 0.  1.
         23    2    1    2    0    0 -0.64664559473E+02 -0.58687139553E+00 -0.20080050665E+03  0.22965811631E+03  0.90775311885E+02 0.  0.
         23    2    1    2    0    0  0.29422468384E+02 -0.33533575146E+02 -0.54306772914E+02  0.11592442790E+03  0.92190374176E+02 0.  0.
        -13    1    3    3    0    0  0.23126656646E+01 -0.29842735697E+02 -0.10486660920E+03  0.10905477074E+03  0.00000000000E+00 0. -1.
         13    1    3    3    0    0 -0.66977225137E+02  0.29255864301E+02 -0.95933897447E+02  0.12060334557E+03  0.00000000000E+00 0.  1.
        -13    1    4    4    0    0  0.60749447860E+02 -0.11214722594E+02 -0.21628068062E+02  0.65452568676E+02  0.00000000000E+00 0. -1.
         13    1    4    4    0    0 -0.31326979476E+02 -0.22318852553E+02 -0.32678704852E+02  0.50471859220E+02  0.00000000000E+00 0.  1.
         21    1    1    2  502  501  0.35242091089E+02  0.34120446542E+02 -0.12235455990E+03  0.13182127364E+03  0.00000000000E+00 0. -1.
<scales pt_clust_5="13000.00000" pt_clust_6="13000.00000" pt_clust_7="13000.00000" pt_clust_8="13000.00000" pt_clust_9="49.05313"></scales>
<clustering>
<clus scale="   49.053">  2  9  1 -1</clus>
<clus scale="   90.775">  5  6 -1 -1</clus>
<clus scale="   92.190">  7  8 -1 -1</clus>
<clus scale="  101.798">  2  5  1 -1</clus>
<clus scale="  103.062">  1  5  2 -1</clus>
</clustering>
</event>
<event>
 9    1  0.1434065E-005  0.1765752E+03  0.7546771E-02  0.1171290E+00
         -2   -1    0    0    0  501 -0.00000000000E+00  0.00000000000E+00  0.95050267411E+02  0.95050267411E+02  0.00000000000E+00 0.  1.
          2   -1    0    0  502    0  0.00000000000E+00 -0.00000000000E+00 -0.48606716378E+03  0.48606716378E+03  0.00000000000E+00 0. -1.
         23    2    1    2    0    0  0.14069379449E+03 -0.58404406879E+02 -0.19483660175E+03  0.26375649654E+03  0.91653529847E+02 0.  0.
         23    2    1    2    0    0 -0.15211704459E+03  0.14866210116E+02 -0.20520875037E+03  0.27145256686E+03  0.90638101108E+02 0.  0.
        -11    1    3    3    0    0  0.82985050568E+02 -0.42583874520E+02 -0.17902303612E+03  0.20186419308E+03  0.00000000000E+00 0. -1.
         11    1    3    3    0    0  0.57708743923E+02 -0.15820532358E+02 -0.15813565630E+02  0.61892303457E+02  0.00000000000E+00 0.  1.
        -11    1    4    4    0    0 -0.75397496826E+02 -0.20735053069E+02 -0.15363675734E+03  0.17239193183E+03  0.00000000000E+00 0. -1.
         11    1    4    4    0    0 -0.76719547759E+02  0.35601263185E+02 -0.51571993028E+02  0.99060635035E+02  0.00000000000E+00 0.  1.
         21    1    1    2  502  501  0.11423250095E+02  0.43538196762E+02  0.90284557469E+01  0.45908367791E+02  0.00000000000E+00 0. -1.
<scales pt_clust_5="13000.00000" pt_clust_6="13000.00000" pt_clust_7="13000.00000" pt_clust_8="13000.00000" pt_clust_9="45.01183"></scales>
<clustering>
<clus scale="   45.012">  1  9  2 -1</clus>
<clus scale="   90.638">  7  8 -1 -1</clus>
<clus scale="   91.654">  5  6 -1 -1</clus>
<clus scale="  176.050">  2  7  1 -1</clus>
<clus scale="  176.050">  2  5  1 -1</clus>
</clustering>
</event>
<event>
 9    1  0.1434065E-005  0.9803388E+02  0.7546771E-02  0.1286016E+00
          1   -1    0    0  502    0  0.00000000000E+00  0.00000000000E+00  0.44913921343E+03  0.44913921343E+03  0.00000000000E+00 0. -1.
         -1   -1    0    0    0  501 -0.00000000000E+00 -0.00000000000E+00 -0.10508940500E+03  0.10508940500E+03  0.00000000000E+00 0.  1.
         23    2    1    2    0    0 -0.79681684331E+01 -0.70422203527E+02  0.17362314433E+02  0.11426774637E+03  0.87936849160E+02 0.  0.
         23    2    1    2    0    0 -0.42493731623E+02 -0.23100188077E+01  0.33624904208E+03  0.35092266271E+03  0.90951874606E+02 0.  0.
        -11    1    3    3    0    0 -0.32893334060E+02 -0.93267231283E+01  0.31833329218E+02  0.46715308401E+02  0.00000000000E+00 0. -1.
         11    1    3    3    0    0  0.24925165627E+02 -0.61095480398E+02 -0.14471014785E+02  0.67552437969E+02  0.00000000000E+00 0.  1.
        -11    1    4    4    0    0  0.85282324439E+00  0.39552326849E+02  0.15230684077E+03  0.15736101045E+03  0.00000000000E+00 0.  1.
         11    1    4    4    0    0 -0.43346554867E+02 -0.41862345657E+02  0.18394220131E+03  0.19356165226E+03  0.00000000000E+00 0. -1.
         21    1    1    2  502  501  0.50461900056E+02  0.72732222334E+02 -0.95615480820E+01  0.89038209352E+02  0.00000000000E+00 0.  1.
<scales pt_clust_5="13000.00000" pt_clust_6="13000.00000" pt_clust_7="13000.00000" pt_clust_8="13000.00000" pt_clust_9="88.52333"></scales>
<clustering>
<clus scale="   87.937">  5  6 -1 -1</clus>
<clus scale="   88.523">  2  9  1 -1</clus>
<clus scale="   90.952">  7  8 -1 -1</clus>
<clus scale="   95.243">  2  5  1 -1</clus>
<clus scale="   98.034">  1  5  2 -1</clus>
</clustering>
</event>
<event>
 9    1  0.1434065E-005  0.1078934E+03  0.7546771E-02  0.1266663E+00
          3   -1    0    0  502    0  0.00000000000E+00  0.00000000000E+00  0.12870487994E+03  0.12870487994E+03  0.00000000000E+00 0. -1.
         -3   -1    0    0    0  501 -0.00000000000E+00 -0.00000000000E+00 -0.15695559713E+03  0.15695559713E+03  0.00000000000E+00 0.  1.
         23    2    1    2    0    0 -0.46260947117E+01  0.37283690378E+02 -0.60498615841E+02  0.11498541311E+03  0.90277839966E+02 0.  0.
         23    2    1    2    0    0  0.50272107817E+02 -0.33933172721E+02  0.47341921577E+02  0.12248155808E+03  0.95298108568E+02 0.  0.
        -11    1    4    4    0    0 -0.26679971039E+02 -0.10349169408E+02  0.27274562948E+02  0.39532618761E+02  0.00000000000E+00 0. -1.
         11    1    4    4    0    0  0.76952078856E+02 -0.23584003313E+02  0.20067358628E+02  0.82948939323E+02  0.00000000000E+00 0.  1.
        -13    1    3    3    0    0  0.28652220058E+02  0.14808020399E+01 -0.59544092188E+02  0.66095698827E+02  0.00000000000E+00 0.  1.
         13    1    3    3    0    0 -0.33278314770E+02  0.35802888338E+02 -0.95452365302E+00  0.48889714283E+02  0.00000000000E+00 0. -1.
         21    1    1    2  502  501 -0.45646013106E+02 -0.33505176571E+01 -0.15094022923E+02  0.48193505880E+02  0.00000000000E+00 0. -1.
<scales pt_clust_5="13000.00000" pt_clust_6="13000.00000" pt_clust_7="13000.00000" pt_clust_8="13000.00000" pt_clust_9="45.76882"></scales>
<clustering>
<clus scale="   45.769">  2  9  1 -1</clus>
<clus scale="   90.278">  7  8 -1 -1</clus>
<clus scale="   95.298">  5  6 -1 -1</clus>
<clus scale="  103.486">  2  7  1 -1</clus>
<clus scale="  107.893">  1  5  2 -1</clus>
</clustering>
</event>
<event>
 9    1  0.1434065E-005  0.1880431E+03  0.7546771E-02  0.1160377E+00
          2   -1    0    0  502    0  0.00000000000E+00  0.00000000000E+00  0.82888441274E+03  0.82888441274E+03  0.00000000000E+00 0. -1.
         -2   -1    0    0    0  501 -0.00000000000E+00 -0.00000000000E+00 -0.70876266929E+02  0.70876266929E+02  0.00000000000E+00 0.  1.
         23    2    1    2    0    0 -0.79445845012E+02  0.15585929863E+03  0.15012845519E+03  0.24726914369E+03  0.89441115275E+02 0.  0.
         23    2    1    2    0    0  0.56225120108E+02 -0.15293173484E+03  0.59975604275E+03  0.62771722773E+03  0.88160237763E+02 0.  0.
        -11    1    3    3    0    0  0.37441853022E-01  0.68288759582E+02  0.19412857335E+02  0.70994472440E+02  0.00000000000E+00 0.  1.
         11    1    3    3    0    0 -0.79483286865E+02  0.87570539051E+02  0.13071559785E+03  0.17627467125E+03  0.00000000000E+00 0. -1.
        -13    1    4    4    0    0  0.66867881236E+02 -0.54721502336E+02  0.28852041266E+03  0.30118065157E+03  0.00000000000E+00 0. -1.
         13    1    4    4    0    0 -0.10642761128E+02 -0.98210232504E+02  0.31123563009E+03  0.32653657616E+03  0.00000000000E+00 0.  1.
         21    1    1    2  502  501  0.23220724904E+02 -0.29275637932E+01  0.81236478769E+01  0.24774308258E+02  0.00000000000E+00 0. -1.
<scales pt_clust_5="13000.00000" pt_clust_6="13000.00000" pt_clust_7="13000.00000" pt_clust_8="13000.00000" pt_clust_9="23.40454"></scales>
<clustering>
<clus scale="   23.405">  2  9  1 -1</clus>
<clus scale="   88.160">  7  8 -1 -1</clus>
<clus scale="   89.441">  5  6 -1 -1</clus>
<clus scale="  187.437">  1  7  2 -1</clus>
<clus scale="  187.437">  1  5  2 -1</clus>
</clustering>
</event>
<event>
 9    1  0.1434065E-005  0.1061507E+03  0.7546771E-02  0.1268807E+00
          2   -1    0    0  502    0  0.00000000000E+00  0.00000000000E+00  0.42702165781E+03  0.42702165781E+03  0.00000000000E+00 0. -1.
         -2   -1    0    0    0  501 -0.00000000000E+00 -0.00000000000E+00 -0.55587151538E+02  0.55587151538E+02  0.00000000000E+00 0.  1.
         23    2    1    2    0    0  0.35433389464E+02 -0.61167692964E+02  0.60591288652E+02  0.12941790564E+03  0.89892593060E+02 0.  0.
         23    2    1    2    0    0 -0.51773334689E+02  0.10017562543E+02  0.25250209481E+03  0.27390019642E+03  0.92104179991E+02 0.  0.
        -11    1    3    3    0    0  0.53587860934E+02 -0.12825464160E+02  0.54363434928E+02  0.77405002600E+02  0.00000000000E+00 0. -1.
         11    1    3    3    0    0 -0.18154471470E+02 -0.48342228805E+02  0.62278537240E+01  0.52012903035E+02  0.00000000000E+00 0.  1.
        -11    1    4    4    0    0 -0.10584976281E+02  0.44140369699E+02  0.67665185263E+02  0.81480005257E+02  0.00000000000E+00 0.  1.
         11    1    4    4    0    0 -0.41188358408E+02 -0.34122807156E+02  0.18483690955E+03  0.19242019117E+03  0.00000000000E+00 0. -1.
         21    1    1    2  502  501  0.16339945225E+02  0.51150130421E+02  0.58341122807E+02  0.79290707289E+02  0.00000000000E+00 0.  1.
<scales pt_clust_5="13000.00000" pt_clust_6="13000.00000" pt_clust_7="13000.00000" pt_clust_8="13000.00000" pt_clust_9="53.69664"></scales>
<clustering>
<clus scale="   53.697">  2  9  1 -1</clus>
<clus scale="   89.893">  5  6 -1 -1</clus>
<clus scale="   92.104">  7  8 -1 -1</clus>
<clus scale="  104.238">  2  5  1 -1</clus>
<clus scale="  106.151">  1  5  2 -1</clus>
</clustering>
</event>
<event>
 9    1  0.1434065E-005  0.1232031E+03  0.7546771E-02  0.1238214E+00
          2   -1    0    0  502    0  0.00000000000E+00  0.00000000000E+00  0.16474671881E+03  0.16474671881E+03  0.00000000000E+00 0. -1.
         -2   -1    0    0    0  501 -0.00000000000E+00 -0.00000000000E+00 -0.25386352270E+03  0.25386352270E+03  0.00000000000E+00 0.  1.
         23    2    1    2    0    0 -0.79979367651E+02  0.61365418456E+02 -0.14267993264E+03  0.19745870112E+03  0.92032394504E+02 0.  0.
         23    2    1    2    0    0  0.68577726604E+02 -0.36500068749E+02  0.10663053406E+03  0.16144867161E+03  0.93061502064E+02 0.  0.
        -11    1    4    4    0    0  0.80366934855E+02  0.24400245380E+01  0.67153896477E+02  0.10475897933E+03  0.00000000000E+00 0. -1.
         11    1    4    4    0    0 -0.11789208251E+02 -0.38940093287E+02  0.39476637582E+02  0.56689692284E+02  0.00000000000E+00 0.  1.
        -13    1    3    3    0    0 -0.37084883759E+02  0.62429177001E+02 -0.33146471197E+02  0.79820920173E+02  0.00000000000E+00 0. -1.
         13    1    3    3    0    0 -0.42894483891E+02 -0.10637585450E+01 -0.10953346144E+03  0.11763778095E+03  0.00000000000E+00 0.  1.
         21    1    1    2  502  501  0.11401641047E+02 -0.24865349707E+02 -0.53067405303E+02  0.59702868778E+02  0.00000000000E+00 0.  1.
<scales pt_clust_5="13000.00000" pt_clust_6="13000.00000" pt_clust_7="13000.00000" pt_clust_8="13000.00000" pt_clust_9="27.35476"></scales>
<clustering>
<clus scale="   27.355">  2  9  1 -1</clus>
<clus scale="   92.032">  7  8 -1 -1</clus>
<clus scale="   93.062">  5  6 -1 -1</clus>
<clus scale="  122.428">  2  7  1 -1</clus>
<clus scale="  123.203">  1  5  2 -1</clus>
</clustering>
</event>
<event>
 9    1  0.1434065E-005  0.9870653E+02  0.7546771E-02  0.1283437E+00
          1   -1    0    0  502    0  0.00000000000E+00  0.00000000000E+00  0.31760176324E+02  0.31760176324E+02  0.00000000000E+00 0. -1.
         -1   -1    0    0    0  501 -0.00000000000E+00 -0.00000000000E+00 -0.63926101470E+03  0.63926101470E+03  0.00000000000E+00 0.  1.
         23    2    1    2    0    0 -0.14139231249E+02  0.91617607410E+01 -0.36120296007E+03  0.37292257662E+03  0.91213014802E+02 0.  0.
         23    2    1    2    0    0  0.34730997784E+02 -0.21706907502E+02 -0.76173543237E+02  0.12627402088E+03  0.92006997670E+02 0.  0.
        -11    1    4    4    0    0  0.26244574600E+01  0.34590796901E+02 -0.36149871953E+02  0.50102138173E+02  0.00000000000E+00 0.  1.
         11    1    4    4    0    0  0.32106540324E+02 -0.56297704403E+02 -0.40023671283E+02  0.76171882710E+02  0.00000000000E+00 0. -1.
        -13    1    3    3    0    0  0.35510521939E+02  0.19266806981E+02 -0.12578419739E+03  0.13211310054E+03  0.00000000000E+00 0. -1.
         13    1    3    3    0    0 -0.49649753188E+02 -0.10105046240E+02 -0.23541876268E+03  0.24080947609E+03  0.00000000000E+00 0.  1.
         21    1    1    2  502  501 -0.20591766535E+02  0.12545146761E+02 -0.17012433506E+03  0.17182459352E+03  0.00000000000E+00 0.  1.
<scales pt_clust_5="13000.00000" pt_clust_6="13000.00000" pt_clust_7="13000.00000" pt_clust_8="13000.00000" pt_clust_9="24.11227"></scales>
<clustering>
<clus scale="   24.112">  2  9  1 -1</clus>
<clus scale="   91.213">  7  8 -1 -1</clus>
<clus scale="   92.007">  5  6 -1 -1</clus>
<clus scale="   97.967">  2  7  1 -1</clus>
<clus scale="   98.707">  1  5  2 -1</clus>
</clustering>
</event>
<event>
 9    1  0.1434065E-005  0.9770555E+02  0.7546771E-02  0.1285940E+00
         -2   -1    0    0    0  501 -0.00000000000E+00  0.00000000000E+00  0.46134793221E+02  0.46134793221E+02  0.00000000000E+00 0.  1.
          2   -1    0    0  502    0  0.00000000000E+00 -0.00000000000E+00 -0.42154957758E+03  0.42154957758E+03  0.00000000000E+00 0. -1.
         23    2    1    2    0    0  0.24750597934E+02  0.30503493842E+02 -0.18517457926E+03  0.21022381216E+03  0.91440533467E+02 0.  0.
         23    2    1    2    0    0 -0.32371387876E+02 -0.87902140865E+01 -0.20753321598E+03  0.22867529882E+03  0.89984342742E+02 0.  0.
        -11    1    3    3    0    0  0.53220146991E+02  0.42510957756E+02 -0.11719161921E+03  0.13554866723E+03  0.00000000000E+00 0.  1.
         11    1    3    3    0    0 -0.28469549057E+02 -0.12007463914E+02 -0.67982960051E+02  0.74675144931E+02  0.00000000000E+00 0. -1.
        -11    1    4    4    0    0  0.21240075896E+02  0.10352666576E+02 -0.15202739919E+02  0.28097007498E+02  0.00000000000E+00 0.  1.
         11    1    4    4    0    0 -0.53611463772E+02 -0.19142880662E+02 -0.19233047606E+03  0.20057829132E+03  0.00000000000E+00 0. -1.
         21    1    1    2  502  501  0.76207899424E+01 -0.21713279756E+02  0.17293010886E+02  0.28785259815E+02  0.00000000000E+00 0.  1.
<scales pt_clust_5="13000.00000" pt_clust_6="13000.00000" pt_clust_7="13000.00000" pt_clust_8="13000.00000" pt_clust_9="23.01180"></scales>
<clustering>
<clus scale="   23.012">  1  9  2 -1</clus>
<clus scale="   89.984">  7  8 -1 -1</clus>
<clus scale="   91.441">  5  6 -1 -1</clus>
<clus scale="   96.344">  2  7  1 -1</clus>
<clus scale="   96.344">  2  5  1 -1</clus>
</clustering>
</event>
<event>
 9    1  0.1434065E-005  0.1788630E+03  0.7546771E-02  0.1169474E+00
          2   -1    0    0  502    0  0.00000000000E+00  0.00000000000E+00  0.31213260247E+03  0.31213260247E+03  0.00000000000E+00 0. -1.
         -2   -1    0    0    0  501 -0.00000000000E+00 -0.00000000000E+00 -0.14039820600E+03  0.14039820600E+03  0.00000000000E+00 0.  1.
         23    2    1    2    0    0  0.13605702798E+03  0.94879598794E+02  0.38708251007E+02  0.19317224038E+03  0.91123721547E+02 0.  0.
         23    2    1    2    0    0 -0.10223892996E+03 -0.10181585822E+03  0.14182482714E+03  0.22373284356E+03  0.95513537837E+02 0.  0.
        -11    1    4    4    0    0 -0.10975565435E+03 -0.50358026760E+02  0.10484924725E+03  0.15992372923E+03  0.00000000000E+00 0. -1.
         11    1    4    4    0    0  0.75167243874E+01 -0.51457831460E+02  0.36975579886E+02  0.63809114333E+02  0.00000000000E+00 0.  1.
        -13    1    3    3    0    0  0.28106084995E+02  0.35275239237E+02 -0.27884744472E+02  0.53026912896E+02  0.00000000000E+00 0.  1.
         13    1    3    3    0    0  0.10795094299E+03  0.59604359557E+02  0.66592995479E+02  0.14014532749E+03  0.00000000000E+00 0. -1.
         21    1    1    2  502  501 -0.33818098021E+02  0.69362594259E+01 -0.87986816689E+01  0.35625724522E+02  0.00000000000E+00 0. -1.
<scales pt_clust_5="13000.00000" pt_clust_6="13000.00000" pt_clust_7="13000.00000" pt_clust_8="13000.00000" pt_clust_9="34.52210"></scales>
<clustering>
<clus scale="   34.522">  2  9  1 -1</clus>
<clus scale="   91.124">  7  8 -1 -1</clus>
<clus scale="   95.514">  5  6 -1 -1</clus>
<clus scale="  176.558">  2  7  1 -1</clus>
<clus scale="  178.863">  1  5  2 -1</clus>
</clustering>
</event>
<event>
 9    1  0.1434065E-005  0.9918927E+02  0.7546771E-02  0.1284423E+00
         -1   -1    0    0    0  501 -0.00000000000E+00  0.00000000000E+00  0.64557803806E+02  0.64557803806E+02  0.00000000000E+00 0.  1.
          1   -1    0    0  502    0  0.00000000000E+00 -0.00000000000E+00 -0.26792342379E+03  0.26792342379E+03  0.00000000000E+00 0. -1.
         23    2    1    2    0    0  0.10172684266E+02  0.26373832439E+01 -0.27702284840E+02  0.96798753996E+02  0.92152823583E+02 0.  0.
         23    2    1    2    0    0  0.36155666441E+02 -0.61537767461E+01 -0.15116234202E+03  0.18315648225E+03  0.96701303833E+02 0.  0.
        -13    1    3    3    0    0 -0.39611335525E+02 -0.85187835631E+01 -0.20059572947E+02  0.45210773521E+02  0.00000000000E+00 0.  1.
         13    1    3    3    0    0  0.49784019792E+02  0.11156166807E+02 -0.76427118931E+01  0.51587980475E+02  0.00000000000E+00 0. -1.
        -13    1    4    4    0    0 -0.27626433155E+02 -0.22440914847E+02 -0.36765849106E+02  0.51171692648E+02  0.00000000000E+00 0.  1.
         13    1    4    4    0    0  0.63782099597E+02  0.16287138101E+02 -0.11439649291E+03  0.13198478961E+03  0.00000000000E+00 0. -1.
         21    1    1    2  502  501 -0.46328350708E+02  0.35163935021E+01 -0.24500993120E+02  0.52525991342E+02  0.00000000000E+00 0.  1.
<scales pt_clust_5="13000.00000" pt_clust_6="13000.00000" pt_clust_7="13000.00000" pt_clust_8="13000.00000" pt_clust_9="46.46161"></scales>
<clustering>
<clus scale="   46.462">  1  9  2 -1</clus>
<clus scale="   92.153">  5  6 -1 -1</clus>
<clus scale="   94.760">  1  5  2 -1</clus>
<clus scale="   96.701">  7  8 -1 -1</clus>
<clus scale="   99.189">  2  5  1 -1</clus>
</clustering>
</event>
<event>
 9    1  0.1434065E-005  0.1038528E+03  0.7546771E-02  0.1277789E+00
          1   -1    0    0  502    0  0.00000000000E+00  0.00000000000E+00  0.48073345556E+02  0.48073345556E+02  0.00000000000E+00 0. -1.
         -1   -1    0    0    0  501 -0.00000000000E+00 -0.00000000000E+00 -0.54315081875E+03  0.54315081875E+03  0.00000000000E+00 0.  1.
         23    2    1    2    0    0  0.35318405845E+02 -0.22996832399E+02 -0.39715345424E+03  0.40802042443E+03  0.83507822666E+02 0.  0.
         23    2    1    2    0    0 -0.17776546856E+02  0.39583170359E+02 -0.26176229300E+02  0.10750321977E+03  0.94809884965E+02 0.  0.
        -11    1    4    4    0    0  0.99533013677E+01  0.57145329721E+02 -0.41456657174E+02  0.71297344558E+02  0.00000000000E+00 0.  1.
         11    1    4    4    0    0 -0.27729848223E+02 -0.17562159361E+02  0.15280427874E+02  0.36205875213E+02  0.00000000000E+00 0. -1.
        -13    1    3    3    0    0  0.43432944585E+02 -0.47405157056E+02 -0.32791581037E+03  0.33415931572E+03  0.00000000000E+00 0.  1.
         13    1    3    3    0    0 -0.81145387398E+01  0.24408324658E+02 -0.69237643870E+02  0.73861108712E+02  0.00000000000E+00 0. -1.
         21    1    1    2  502  501 -0.17541858989E+02 -0.16586337961E+02 -0.71747789654E+02  0.75700520104E+02  0.00000000000E+00 0. -1.
<scales pt_clust_5="13000.00000" pt_clust_6="13000.00000" pt_clust_7="13000.00000" pt_clust_8="13000.00000" pt_clust_9="24.14174"></scales>
<clustering>
<clus scale="   24.142">  2  9  1 -1</clus>
<clus scale="   83.508">  7  8 -1 -1</clus>
<clus scale="   93.649">  2  7  1 -1</clus>
<clus scale="   94.810">  5  6 -1 -1</clus>
<clus scale="  103.853">  1  5  2 -1</clus>
</clustering>
</event>
<event>
 9    1  0.1434065E-005  0.1014669E+03  0.7546771E-02  0.1280085E+00
          1   -1    0    0  502    0  0.00000000000E+00  0.00000000000E+00  0.33560435883E+03  0.33560435883E+03  0.00000000000E+00 0. -1.
         -1   -1    0    0    0  501 -0.00000000000E+00 -0.00000000000E+00 -0.74258309507E+02  0.74258309507E+02  0.00000000000E+00 0.  1.
         23    2    1    2    0    0  0.36400894133E+02 -0.41971703781E+01  0.45140341542E+02  0.10359704220E+03  0.85744127412E+02 0.  0.
         23    2    1    2    0    0 -0.39247448967E+02  0.25645911224E+02  0.24758254028E+03  0.26815188877E+03  0.91707394394E+02 0.  0.
        -13    1    3    3    0    0  0.64764924265E+02 -0.27889993812E+01  0.30362510094E+02  0.71583209986E+02  0.00000000000E+00 0.  1.
         13    1    3    3    0    0 -0.28364030132E+02 -0.14081709970E+01  0.14777831449E+02  0.32013832217E+02  0.00000000000E+00 0. -1.
        -13    1    4    4    0    0 -0.20759311733E+02 -0.26652449758E+02  0.16661653965E+03  0.17000698041E+03  0.00000000000E+00 0. -1.
         13    1    4    4    0    0 -0.18488137234E+02  0.52298360982E+02  0.80966000631E+02  0.98144908365E+02  0.00000000000E+00 0.  1.
         21    1    1    2  502  501  0.28465548338E+01 -0.21448740846E+02 -0.31376832499E+02  0.38113737366E+02  0.00000000000E+00 0. -1.
<scales pt_clust_5="13000.00000" pt_clust_6="13000.00000" pt_clust_7="13000.00000" pt_clust_8="13000.00000" pt_clust_9="21.63681"></scales>
<clustering>
<clus scale="   21.637">  2  9  1 -1</clus>
<clus scale="   85.744">  5  6 -1 -1</clus>
<clus scale="   91.707">  7  8 -1 -1</clus>
<clus scale="   96.111">  2  5  1 -1</clus>
<clus scale="  101.467">  1  5  2 -1</clus>
</clustering>
</event>
<event>
 9    1  0.1434065E-005  0.2796899E+03  0.7546771E-02  0.1095864E+00
         -2   -1    0    0    0  501 -0.00000000000E+00  0.00000000000E+00  0.92320197794E+02  0.92320197794E+02  0.00000000000E+00 0.  1.
          2   -1    0    0  502    0  0.00000000000E+00 -0.00000000000E+00 -0.10168491710E+04  0.10168491710E+04  0.00000000000E+00 0. -1.
         23    2    1    2    0    0  0.27721662753E+03 -0.39543832305E+02 -0.33464575754E+03  0.44581419536E+03  0.91376914469E+02 0.  0.
         23    2    1    2    0    0 -0.23668785703E+03  0.55679079762E+02 -0.51118024868E+03  0.57337137232E+03  0.91258875571E+02 0.  0.
        -11    1    3    3    0    0  0.92723736991E+02 -0.18731543557E+02 -0.18334017047E+03  0.20630603537E+03  0.00000000000E+00 0. -1.
         11    1    3    3    0    0  0.18449289054E+03 -0.20812288748E+02 -0.15130558707E+03  0.23950815999E+03  0.00000000000E+00 0.  1.
        -11    1    4    4    0    0 -0.21430382280E+02 -0.18085368717E+02 -0.29792600516E+02  0.40913822748E+02  0.00000000000E+00 0.  1.
         11    1    4    4    0    0 -0.21525747475E+03  0.73764448480E+02 -0.48138764816E+03  0.53245754957E+03  0.00000000000E+00 0. -1.
         21    1    1    2  502  501 -0.40528770497E+02 -0.16135247457E+02 -0.78702966995E+02  0.89983801111E+02  0.00000000000E+00 0. -1.
<scales pt_clust_5="13000.00000" pt_clust_6="13000.00000" pt_clust_7="13000.00000" pt_clust_8="13000.00000" pt_clust_9="43.62256"></scales>
<clustering>
<clus scale="   43.623">  2  9  1 -1</clus>
<clus scale="   91.259">  7  8 -1 -1</clus>
<clus scale="   91.377">  5  6 -1 -1</clus>
<clus scale="  279.651">  2  7  1 -1</clus>
<clus scale="   43.623">  2  5  1 -1</clus>
</clustering>
</event>
<event>
 9    1  0.1434065E-005  0.1219221E+03  0.7546771E-02  0.1240431E+00
         -3   -1    0    0    0  501 -0.00000000000E+00  0.00000000000E+00  0.20433100034E+03  0.20433100034E+03  0.00000000000E+00 0.  1.
          3   -1    0    0  502    0  0.00000000000E+00 -0.00000000000E+00 -0.49248392321E+03  0.49248392321E+03  0.00000000000E+00 0. -1.
         23    2    1    2    0    0  0.35932178867E+02 -0.51806705954E+02  0.11334296628E+03  0.16039417416E+03  0.94364224348E+02 0.  0.
         23    2    1    2    0    0 -0.70836487201E+02  0.33816641337E+02 -0.45448458368E+03  0.47046807763E+03  0.92857967421E+02 0.  0.
        -11    1    4    4    0    0 -0.69444916012E+02 -0.11132958600E+02 -0.34520667591E+03  0.35229843630E+03  0.00000000000E+00 0.  1.
         11    1    4    4    0    0 -0.13915711884E+01  0.44949599936E+02 -0.10927790778E+03  0.11816964133E+03  0.00000000000E+00 0. -1.
        -13    1    3    3    0    0 -0.12787090823E+02 -0.62256532685E+02  0.60095769795E+02  0.87469349494E+02  0.00000000000E+00 0.  1.
         13    1    3    3    0    0  0.48719269690E+02  0.10449826731E+02  0.53247196490E+02  0.72924824661E+02  0.00000000000E+00 0. -1.
         21    1    1    2  502  501  0.34904308334E+02  0.17990064618E+02  0.52988694532E+02  0.65952671769E+02  0.00000000000E+00 0.  1.
<scales pt_clust_5="13000.00000" pt_clust_6="13000.00000" pt_clust_7="13000.00000" pt_clust_8="13000.00000" pt_clust_9="39.26771"></scales>
<clustering>
<clus scale="   39.268">  1  9  2 -1</clus>
<clus scale="   92.858">  5  6 -1 -1</clus>
<clus scale="   94.364">  7  8 -1 -1</clus>
<clus scale="  120.760">  2  5  1 -1</clus>
<clus scale="  120.760">  2  5  1 -1</clus>
</clustering>
</event>
<event>
 9    1  0.1434065E-005  0.1391437E+03  0.7546771E-02  0.1215552E+00
         -2   -1    0    0    0  501 -0.00000000000E+00  0.00000000000E+00  0.20781655960E+03  0.20781655960E+03  0.00000000000E+00 0.  1.
          2   -1    0    0  502    0  0.00000000000E+00 -0.00000000000E+00 -0.38816785508E+03  0.38816785508E+03  0.00000000000E+00 0. -1.
         23    2    1    2    0    0  0.73492997579E+02  0.41756518194E+02  0.12114306742E+02  0.12422096771E+03  0.90217874542E+02 0.  0.
         23    2    1    2    0    0 -0.91326878806E+02 -0.62422604136E+02 -0.31586150811E+03  0.34538431888E+03  0.85350191101E+02 0.  0.
        -13    1    3    3    0    0  0.87879011092E+02  0.20268136070E+02 -0.92752852903E+01  0.90661727578E+02  0.00000000000E+00 0.  1.
         13    1    3    3    0    0 -0.14386013513E+02  0.21488382124E+02  0.21389592033E+02  0.33559240135E+02  0.00000000000E+00 0. -1.
        -13    1    4    4    0    0 -0.65505118343E+02 -0.82875088787E+02 -0.25825590348E+03  0.27902564856E+03  0.00000000000E+00 0.  1.
         13    1    4    4    0    0 -0.25821760462E+02  0.20452484651E+02 -0.57605604631E+02  0.66358670321E+02  0.00000000000E+00 0. -1.
         21    1    1    2  502  501  0.17833881227E+02  0.20666085943E+02  0.12339590588E+03  0.12637912809E+03  0.00000000000E+00 0.  1.
<scales pt_clust_5="13000.00000" pt_clust_6="13000.00000" pt_clust_7="13000.00000" pt_clust_8="13000.00000" pt_clust_9="27.29715"></scales>
<clustering>
<clus scale="   27.297">  1  9  2 -1</clus>
<clus scale="   85.350">  7  8 -1 -1</clus>
<clus scale="   90.218">  5  6 -1 -1</clus>
<clus scale="  136.038">  2  7  1 -1</clus>
<clus scale="  136.038">  2  5  1 -1</clus>
</clustering>
</event>
<event>
 9    1  0.1434065E-005  0.1028781E+03  0.7546771E-02  0.1286456E+00
          1   -1    0    0  502    0  0.00000000000E+00  0.00000000000E+00  0.21180615435E+03  0.21180615435E+03  0.00000000000E+00 0. -1.
         -1   -1    0    0    0  501 -0.00000000000E+00 -0.00000000000E+00 -0.14757730783E+03  0.14757730783E+03  0.00000000000E+00 0.  1.
         23    2    1    2    0    0 -0.92390599154E+00 -0.33392299045E+02  0.28099516736E+02  0.84109739019E+02  0.71895522248E+02 0.  0.
         23    2    1    2    0    0 -0.19490524559E+02  0.39482947762E+02  0.13677844150E+03  0.17239472304E+03  0.95251324195E+02 0.  0.
        -13    1    4    4    0    0 -0.40014590972E+01  0.70128874504E+02  0.98370811192E+02  0.12087550293E+03  0.00000000000E+00 0. -1.
         13    1    4    4    0    0 -0.15489065462E+02 -0.30645926742E+02  0.38407630308E+02  0.51519220109E+02  0.00000000000E+00 0.  1.
        -13    1    3    3    0    0  0.64264829881E+01 -0.55350476649E+02  0.23634624931E+02  0.60527435470E+02  0.00000000000E+00 0.  1.
         13    1    3    3    0    0 -0.73503889796E+01  0.21958177604E+02  0.44648918051E+01  0.23582303549E+02  0.00000000000E+00 0. -1.
         21    1    1    2  502  501  0.20414430551E+02 -0.60906487175E+01 -0.10064911172E+03  0.10287900012E+03  0.00000000000E+00 0.  1.
<scales pt_clust_5="13000.00000" pt_clust_6="13000.00000" pt_clust_7="13000.00000" pt_clust_8="13000.00000" pt_clust_9="21.30364"></scales>
<clustering>
<clus scale="   21.304">  2  9  1 -1</clus>
<clus scale="   71.896">  7  8 -1 -1</clus>
<clus scale="   81.732">  2  7  1 -1</clus>
<clus scale="   95.251">  5  6 -1 -1</clus>
<clus scale="  102.878">  1  5  2 -1</clus>
</clustering>
</event>
<event>
 9    1  0.1434065E-005  0.9666780E+02  0.7546771E-02  0.1288003E+00
          1   -1    0    0  502    0  0.00000000000E+00  0.00000000000E+00  0.50300137235E+03  0.50300137235E+03  0.00000000000E+00 0. -1.
         -1   -1    0    0    0  501 -0.00000000000E+00 -0.00000000000E+00 -0.74613484428E+02  0.74613484428E+02  0.00000000000E+00 0.  1.
         23    2    1    2    0    0 -0.28059715832E+02  0.28230511959E+02 -0.12171644351E+02  0.99626999906E+02  0.90515638019E+02 0.  0.
         23    2    1    2    0    0 -0.30005463395E+01 -0.31310044733E+02  0.43579190760E+03  0.44641328398E+03  0.91547316767E+02 0.  0.
        -11    1    3    3    0    0  0.81921773351E+01  0.29234567673E+02 -0.42582806074E+02  0.52297868882E+02  0.00000000000E+00 0.  1.
         11    1    3    3    0    0 -0.36251893167E+02 -0.10040557145E+01  0.30411161723E+02  0.47329131023E+02  0.00000000000E+00 0. -1.
        -11    1    4    4    0    0  0.42468385431E+02 -0.26848385022E+02  0.25787214458E+03  0.26272122581E+03  0.00000000000E+00 0. -1.
         11    1    4    4    0    0 -0.45468931770E+02 -0.44616597117E+01  0.17791976301E+03  0.18369205817E+03  0.00000000000E+00 0.  1.
         21    1    1    2  502  501  0.31060262171E+02  0.30795327745E+01  0.47676246750E+01  0.31574572892E+02  0.00000000000E+00 0.  1.
<scales pt_clust_5="13000.00000" pt_clust_6="13000.00000" pt_clust_7="13000.00000" pt_clust_8="13000.00000" pt_clust_9="31.21255"></scales>
<clustering>
<clus scale="   31.213">  2  9  1 -1</clus>
<clus scale="   90.516">  5  6 -1 -1</clus>
<clus scale="   91.547">  7  8 -1 -1</clus>
<clus scale="   95.691">  2  5  1 -1</clus>
<clus scale="   96.668">  1  5  2 -1</clus>
</clustering>
</event>
<event>
 9    1  0.1434065E-005  0.1123356E+03  0.7546771E-02  0.1256592E+00
         -2   -1    0    0    0  501 -0.00000000000E+00  0.00000000000E+00  0.44645308105E+02  0.44645308105E+02  0.00000000000E+00 0.  1.
          2   -1    0    0  502    0  0.00000000000E+00 -0.00000000000E+00 -0.71215389168E+03  0.71215389168E+03  0.00000000000E+00 0. -1.
         23    2    1    2    0    0 -0.80944297398E+02  0.15131862592E-01 -0.37908485716E+03  0.39883816279E+03  0.93885950300E+02 0.  0.
         23    2    1    2    0    0  0.42507006184E+02  0.21786758085E+00 -0.30031079375E+03  0.31772694679E+03  0.94641147669E+02 0.  0.
        -13    1    3    3    0    0 -0.13310747231E+02 -0.36881803904E+02 -0.20121266915E+03  0.20499751628E+03  0.00000000000E+00 0. -1.
         13    1    3    3    0    0 -0.67633550167E+02  0.36896935767E+02 -0.17787218800E+03  0.19384064652E+03  0.00000000000E+00 0.  1.
        -13    1    4    4    0    0  0.71583766478E+02 -0.27827588876E+01 -0.24375062705E+03  0.25405973226E+03  0.00000000000E+00 0. -1.
         13    1    4    4    0    0 -0.29076760294E+02  0.30006264685E+01 -0.56560166700E+02  0.63667214526E+02  0.00000000000E+00 0.  1.
         21    1    1    2  502  501  0.38437291214E+02 -0.23299944344E+00  0.11887067333E+02  0.40234090202E+02  0.00000000000E+00 0. -1.
<scales pt_clust_5="13000.00000" pt_clust_6="13000.00000" pt_clust_7="13000.00000" pt_clust_8="13000.00000" pt_clust_9="38.43800"></scales>
<clustering>
<clus scale="   38.438">  1  9  2 -1</clus>
<clus scale="   93.886">  5  6 -1 -1</clus>
<clus scale="   94.641">  7  8 -1 -1</clus>
<clus scale="  111.700">  1  5  2 -1</clus>
<clus scale="  112.336">  2  5  1 -1</clus>
</clustering>
</event>
<event>
 9    1  0.1434065E-005  0.9471232E+02  0.7546771E-02  0.1291898E+00
         -1   -1    0    0    0  501 -0.00000000000E+00  0.00000000000E+00  0.66186036640E+03  0.66186036640E+03  0.00000000000E+00 0.  1.
          1   -1    0    0  502    0  0.00000000000E+00 -0.00000000000E+00 -0.20357692051E+02  0.20357692051E+02  0.00000000000E+00 0. -1.
         23    2    1    2    0    0 -0.33901439843E+02 -0.12659855072E+01  0.42948276348E+03  0.44011765916E+03  0.89984439981E+02 0.  0.
         23    2    1    2    0    0  0.15942045181E+02  0.15926132841E+02  0.15745716255E+03  0.18281673138E+03  0.90118858859E+02 0.  0.
        -11    1    3    3    0    0  0.28325223007E+02 -0.78670276231E+01  0.83553853508E+02  0.88574572074E+02  0.00000000000E+00 0.  1.
         11    1    3    3    0    0 -0.62226662849E+02  0.66010421159E+01  0.34592890997E+03  0.35154308709E+03  0.00000000000E+00 0. -1.
        -13    1    4    4    0    0  0.51231956433E+02 -0.46103070892E+01  0.98167796506E+02  0.11082817585E+03  0.00000000000E+00 0.  1.
         13    1    4    4    0    0 -0.35289911253E+02  0.20536439930E+02  0.59289366045E+02  0.71988555529E+02  0.00000000000E+00 0. -1.
         21    1    1    2  502  501  0.17959394662E+02 -0.14660147334E+02  0.54562748320E+02  0.59283667908E+02  0.00000000000E+00 0.  1.
<scales pt_clust_5="13000.00000" pt_clust_6="13000.00000" pt_clust_7="13000.00000" pt_clust_8="13000.00000" pt_clust_9="23.18318"></scales>
<clustering>
<clus scale="   23.183">  2  9  1 -1</clus>
<clus scale="   89.984">  5  6 -1 -1</clus>
<clus scale="   90.119">  7  8 -1 -1</clus>
<clus scale="   94.584">  1  5  2 -1</clus>
<clus scale="   23.183">  2  5  1 -1</clus>
</clustering>
</event>
<event>
 9    1  0.1434065E-005  0.1202274E+03  0.7546771E-02  0.1243699E+00
          2   -1    0    0  502    0  0.00000000000E+00  0.00000000000E+00  0.49715696220E+03  0.49715696220E+03  0.00000000000E+00 0. -1.
         -2   -1    0    0    0  501 -0.00000000000E+00 -0.00000000000E+00 -0.53649247857E+02  0.53649247857E+02  0.00000000000E+00 0.  1.
         23    2    1    2    0    0 -0.70440763116E+02 -0.11666607564E+02  0.15485635720E+03  0.19278943001E+03  0.89940325314E+02 0.  0.
         23    2    1    2    0    0  0.73236538389E+02  0.48762497824E+02  0.29540092868E+03  0.32020833986E+03  0.86777304051E+02 0.  0.
        -11    1    3    3    0    0 -0.85751931275E+02 -0.26148889051E+02  0.14251159753E+03  0.16836482277E+03  0.00000000000E+00 0.  1.
         11    1    3    3    0    0  0.15311168159E+02  0.14482281487E+02  0.12344759671E+02  0.24424607239E+02  0.00000000000E+00 0. -1.
        -11    1    4    4    0    0  0.37443954384E+02 -0.49792411467E+01  0.20877757826E+03  0.21216719762E+03  0.00000000000E+00 0.  1.
         11    1    4    4    0    0  0.35792584004E+02  0.53741738971E+02  0.86623350425E+02  0.10804114224E+03  0.00000000000E+00 0. -1.
         21    1    1    2  502  501 -0.27957752722E+01 -0.37095890260E+02 -0.67495715400E+01  0.37808440189E+02  0.00000000000E+00 0. -1.
<scales pt_clust_5="13000.00000" pt_clust_6="13000.00000" pt_clust_7="13000.00000" pt_clust_8="13000.00000" pt_clust_9="37.20109"></scales>
<clustering>
<clus scale="   37.201">  2  9  1 -1</clus>
<clus scale="   86.777">  7  8 -1 -1</clus>
<clus scale="   89.940">  5  6 -1 -1</clus>
<clus scale="  117.880">  1  7  2 -1</clus>
<clus scale="  117.880">  1  5  2 -1</clus>
</clustering>
</event>
<event>
 9    1  0.1434065E-005  0.4071802E+03  0.7546771E-02  0.1041414E+00
         -2   -1    0    0    0  501 -0.00000000000E+00  0.00000000000E+00  0.36212286145E+03  0.36212286145E+03  0.00000000000E+00 0.  1.
          2   -1    0    0  502    0  0.00000000000E+00 -0.00000000000E+00 -0.87171586916E+03  0.87171586916E+03  0.00000000000E+00 0. -1.
         23    2    1    2    0    0 -0.21490991039E+03  0.34189332057E+03  0.14261677393E+03  0.43807217106E+03  0.92143207117E+02 0.  0.
         23    2    1    2    0    0  0.22594719793E+03 -0.32268370337E+03 -0.65788438356E+03  0.77289666195E+03  0.96852874211E+02 0.  0.
        -13    1    4    4    0    0  0.53114173923E+02 -0.49861329983E+02 -0.64428138147E+02  0.97253548441E+02  0.00000000000E+00 0.  1.
         13    1    4    4    0    0  0.17283302400E+03 -0.27282237339E+03 -0.59345624542E+03  0.67564311351E+03  0.00000000000E+00 0. -1.
        -13    1    3    3    0    0 -0.12301433960E+03  0.23544368059E+03  0.13309887112E+03  0.29712213646E+03  0.00000000000E+00 0.  1.
         13    1    3    3    0    0 -0.91895570782E+02  0.10644963998E+03  0.95179028111E+01  0.14095003461E+03  0.00000000000E+00 0. -1.
         21    1    1    2  502  501 -0.11037287539E+02 -0.19209617201E+02  0.56746019195E+01  0.22869897599E+02  0.00000000000E+00 0.  1.
<scales pt_clust_5="13000.00000" pt_clust_6="13000.00000" pt_clust_7="13000.00000" pt_clust_8="13000.00000" pt_clust_9="22.15471"></scales>
<clustering>
<clus scale="   22.155">  1  9  2 -1</clus>
<clus scale="   92.143">  7  8 -1 -1</clus>
<clus scale="   96.853">  5  6 -1 -1</clus>
<clus scale="  406.086">  1  7  2 -1</clus>
<clus scale="  407.180">  2  5  1 -1</clus>
</clustering>
</event>
<event>
 9    1  0.1434065E-005  0.9636337E+02  0.7546771E-02  0.1288609E+00
          1   -1    0    0  502    0  0.00000000000E+00  0.00000000000E+00  0.73853271759E+02  0.73853271759E+02  0.00000000000E+00 0. -1.
         -1   -1    0    0    0  501 -0.00000000000E+00 -0.00000000000E+00 -0.33435116671E+03  0.33435116671E+03  0.00000000000E+00 0.  1.
         23    2    1    2    0    0  0.66798473296E+01 -0.11163305671E+01 -0.62768774551E+02  0.11081438003E+03  0.91071626798E+02 0.  0.
         23    2    1    2    0    0  0.49188414566E+02  0.21485245439E+02 -0.17894938991E+02  0.10797916070E+03  0.91968224976E+02 0.  0.
        -11    1    3    3    0    0  0.33617585187E+02 -0.21659364371E+02 -0.65589969156E+02  0.76820011408E+02  0.00000000000E+00 0.  1.
         11    1    3    3    0    0 -0.26937737858E+02  0.20543033804E+02  0.28211946046E+01  0.33994368618E+02  0.00000000000E+00 0. -1.
        -13    1    4    4    0    0 -0.19204712614E+02 -0.18264726146E+02 -0.10577202539E+02  0.28535914587E+02  0.00000000000E+00 0. -1.
         13    1    4    4    0    0  0.68393127180E+02  0.39749971585E+02 -0.73177364522E+01  0.79443246115E+02  0.00000000000E+00 0.  1.
         21    1    1    2  502  501 -0.55868261895E+02 -0.20368914872E+02 -0.17983418141E+03  0.18941089774E+03  0.00000000000E+00 0.  1.
<scales pt_clust_5="13000.00000" pt_clust_6="13000.00000" pt_clust_7="13000.00000" pt_clust_8="13000.00000" pt_clust_9="59.46558"></scales>
<clustering>
<clus scale="   59.466">  2  9  1 -1</clus>
<clus scale="   91.072">  5  6 -1 -1</clus>
<clus scale="   91.968">  7  8 -1 -1</clus>
<clus scale="   95.508">  2  5  1 -1</clus>
<clus scale="   96.363">  1  5  2 -1</clus>
</clustering>
</event>
<event>
 9    1  0.1434065E-005  0.1726218E+03  0.7546771E-02  0.1175200E+00
          2   -1    0    0  502    0  0.00000000000E+00  0.00000000000E+00  0.37688958574E+03  0.37688958574E+03  0.00000000000E+00 0. -1.
         -2   -1    0    0    0  501 -0.00000000000E+00 -0.00000000000E+00 -0.11846321339E+03  0.11846321339E+03  0.00000000000E+00 0.  1.
         23    2    1    2    0    0 -0.90358581082E+01  0.12511453800E+03  0.29264708065E+02  0.15812040288E+03  0.91707929411E+02 0.  0.
         23    2    1    2    0    0  0.46766260461E+02 -0.15022553799E+03  0.22793920967E+03  0.29189323021E+03  0.92144338721E+02 0.  0.
        -11    1    4    4    0    0  0.17744953976E+02 -0.57555077666E+02  0.21846621442E+02  0.64068285642E+02  0.00000000000E+00 0.  1.
         11    1    4    4    0    0  0.29021306485E+02 -0.92670460322E+02  0.20609258823E+03  0.22782494457E+03  0.00000000000E+00 0. -1.
        -11    1    3    3    0    0 -0.28662090259E+02  0.10900736503E+03 -0.80359799573E+01  0.11299866381E+03  0.00000000000E+00 0.  1.
         11    1    3    3    0    0  0.19626232151E+02  0.16107172973E+02  0.37300688023E+02  0.45121739069E+02  0.00000000000E+00 0. -1.
         21    1    1    2  502  501 -0.37730402353E+02  0.25110999984E+02  0.12224546173E+01  0.45339166039E+02  0.00000000000E+00 0.  1.
<scales pt_clust_5="13000.00000" pt_clust_6="13000.00000" pt_clust_7="13000.00000" pt_clust_8="13000.00000" pt_clust_9="45.32268"></scales>
<clustering>
<clus scale="   45.323">  2  9  1 -1</clus>
<clus scale="   91.708">  7  8 -1 -1</clus>
<clus scale="   92.144">  5  6 -1 -1</clus>
<clus scale="  172.389">  2  7  1 -1</clus>
<clus scale="  172.622">  1  5  2 -1</clus>
</clustering>
</event>
<event>
 9    1  0.1434065E-005  0.1356389E+03  0.7546771E-02  0.1220377E+00
         -1   -1    0    0    0  501 -0.00000000000E+00  0.00000000000E+00  0.10353842217E+03  0.10353842217E+03  0.00000000000E+00 0.  1.
          1   -1    0    0  502    0  0.00000000000E+00 -0.00000000000E+00 -0.34137230475E+03  0.34137230475E+03  0.00000000000E+00 0. -1.
         23    2    1    2    0    0 -0.35280670787E+02 -0.12124193110E+03 -0.80296752342E+02  0.17706544805E+03  0.94658717860E+02 0.  0.
         23    2    1    2    0    0 -0.15259587026E-01  0.86404008829E+02 -0.17517712747E+03  0.21520828589E+03  0.90343385774E+02 0.  0.
        -11    1    3    3    0    0 -0.55313661410E+02 -0.41400877350E+02 -0.61798188071E+02  0.92696547038E+02  0.00000000000E+00 0. -1.
         11    1    3    3    0    0  0.20032990623E+02 -0.79841053750E+02 -0.18498564271E+02  0.84368901008E+02  0.00000000000E+00 0.  1.
        -13    1    4    4    0    0  0.31351765301E+02  0.82470699364E+02 -0.98315712286E+02  0.13209969237E+03  0.00000000000E+00 0.  1.
         13    1    4    4    0    0 -0.31367024888E+02  0.39333094655E+01 -0.76861415180E+02  0.83108593522E+02  0.00000000000E+00 0. -1.
         21    1    1    2  502  501  0.35295930374E+02  0.34837922271E+02  0.17639997227E+02  0.52636992992E+02  0.00000000000E+00 0.  1.
<scales pt_clust_5="13000.00000" pt_clust_6="13000.00000" pt_clust_7="13000.00000" pt_clust_8="13000.00000" pt_clust_9="49.59318"></scales>
<clustering>
<clus scale="   49.593">  1  9  2 -1</clus>
<clus scale="   90.343">  7  8 -1 -1</clus>
<clus scale="   94.659">  5  6 -1 -1</clus>
<clus scale="  132.663">  2  7  1 -1</clus>
<clus scale="  132.663">  2  5  1 -1</clus>
</clustering>
</event>
<event>
 9    1  0.1434065E-005  0.1008948E+03  0.7546771E-02  0.1279484E+00
         -1   -1    0    0    0  501 -0.00000000000E+00  0.00000000000E+00  0.37321117807E+02  0.37321117807E+02  0.00000000000E+00 0.  1.
          1   -1    0    0  502    0  0.00000000000E+00 -0.00000000000E+00 -0.66107396708E+03  0.66107396708E+03  0.00000000000E+00 0. -1.
         23    2    1    2    0    0 -0.23923523727E+02  0.21354485668E+02 -0.70281815587E+02  0.12118490459E+03  0.93369687009E+02 0.  0.
         23    2    1    2    0    0  0.40832862341E+02  0.65029413973E+01 -0.52332592196E+03  0.53281772896E+03  0.91187174553E+02 0.  0.
        -11    1    4    4    0    0 -0.12589358079E+02  0.36532259996E+02 -0.21896433676E+03  0.22234765286E+03  0.00000000000E+00 0.  1.
         11    1    4    4    0    0  0.53422220420E+02 -0.30029318599E+02 -0.30436158520E+03  0.31047007610E+03  0.00000000000E+00 0. -1.
        -13    1    3    3    0    0 -0.30532329273E+02 -0.19182544467E+02  0.40252942333E+01  0.36282173815E+02  0.00000000000E+00 0.  1.
         13    1    3    3    0    0  0.66088055461E+01  0.40537030135E+02 -0.74307109820E+02  0.84902730773E+02  0.00000000000E+00 0. -1.
         21    1    1    2  502  501 -0.16909338613E+02 -0.27857427065E+02 -0.30145111728E+02  0.44392451341E+02  0.00000000000E+00 0. -1.
<scales pt_clust_5="13000.00000" pt_clust_6="13000.00000" pt_clust_7="13000.00000" pt_clust_8="13000.00000" pt_clust_9="32.58776"></scales>
<clustering>
<clus scale="   32.588">  1  9  2 -1</clus>
<clus scale="   91.187">  5  6 -1 -1</clus>
<clus scale="   93.370">  7  8 -1 -1</clus>
<clus scale="   98.879">  2  5  1 -1</clus>
<clus scale="   98.879">  2  5  1 -1</clus>
</clustering>
</event>
<event>
 9    1  0.1434065E-005  0.1090060E+03  0.7546771E-02  0.1263782E+00
         -4   -1    0    0    0  501 -0.00000000000E+00  0.00000000000E+00  0.37339086213E+02  0.37339086213E+02  0.00000000000E+00 0.  1.
          4   -1    0    0  502    0  0.00000000000E+00 -0.00000000000E+00 -0.43271171918E+03  0.43271171918E+03  0.00000000000E+00 0. -1.
         23    2    1    2    0    0  0.46605128749E+02 -0.94700396459E+01 -0.11569384741E+03  0.15603101129E+03  0.93267842684E+02 0.  0.
         23    2    1    2    0    0 -0.61626051004E+02 -0.11695610338E+02 -0.25755879919E+03  0.27991837710E+03  0.89906647902E+02 0.  0.
        -11    1    4    4    0    0 -0.65539811836E+02 -0.40539773900E+02 -0.15200288387E+03  0.17042246597E+03  0.00000000000E+00 0.  1.
         11    1    4    4    0    0  0.39137608326E+01  0.28844163562E+02 -0.10555591532E+03  0.10949591113E+03  0.00000000000E+00 0. -1.
        -13    1    3    3    0    0  0.10316291651E+02  0.40490971061E+02 -0.58302048298E+02  0.71729167335E+02  0.00000000000E+00 0. -1.
         13    1    3    3    0    0  0.36288837098E+02 -0.49961010707E+02 -0.57391799110E+02  0.84301843952E+02  0.00000000000E+00 0.  1.
         21    1    1    2  502  501  0.15020922255E+02  0.21165649984E+02 -0.22119986376E+02  0.34101417007E+02  0.00000000000E+00 0.  1.
<scales pt_clust_5="13000.00000" pt_clust_6="13000.00000" pt_clust_7="13000.00000" pt_clust_8="13000.00000" pt_clust_9="25.95405"></scales>
<clustering>
<clus scale="   25.954">  1  9  2 -1</clus>
<clus scale="   89.907">  5  6 -1 -1</clus>
<clus scale="   93.268">  7  8 -1 -1</clus>
<clus scale="  106.144">  2  5  1 -1</clus>
<clus scale="  106.144">  2  5  1 -1</clus>
</clustering>
</event>
<event>
 9    1  0.1434065E-005  0.1696278E+03  0.7546771E-02  0.1178803E+00
         -2   -1    0    0    0  501 -0.00000000000E+00  0.00000000000E+00  0.23945641340E+03  0.23945641340E+03  0.00000000000E+00 0.  1.
          2   -1    0    0  502    0  0.00000000000E+00 -0.00000000000E+00 -0.64116668413E+03  0.64116668413E+03  0.00000000000E+00 0. -1.
         23    2    1    2    0    0 -0.22302787110E+03  0.62770052706E+02 -0.19101588342E+03  0.31263324872E+03  0.87011319303E+02 0.  0.
         23    2    1    2    0    0  0.11144764779E+03 -0.46728430759E+02 -0.35439397012E+03  0.38535072384E+03  0.91082214868E+02 0.  0.
        -11    1    3    3    0    0 -0.49441960966E+02 -0.83061551535E+01 -0.83764217675E+01  0.50829756632E+02  0.00000000000E+00 0.  1.
         11    1    3    3    0    0 -0.17358591013E+03  0.71076207860E+02 -0.18263946165E+03  0.26180349209E+03  0.00000000000E+00 0. -1.
        -13    1    4    4    0    0  0.33283965549E+02  0.27770650281E+02 -0.10147703752E+03  0.11034772550E+03  0.00000000000E+00 0. -1.
         13    1    4    4    0    0  0.78163682237E+02 -0.74499081040E+02 -0.25291693261E+03  0.27500299834E+03  0.00000000000E+00 0.  1.
         21    1    1    2  502  501  0.11158022331E+03 -0.16041621947E+02  0.14369958281E+03  0.18263912497E+03  0.00000000000E+00 0.  1.
<scales pt_clust_5="13000.00000" pt_clust_6="13000.00000" pt_clust_7="13000.00000" pt_clust_8="13000.00000" pt_clust_9="112.72746"></scales>
<clustering>
<clus scale="   87.011">  5  6 -1 -1</clus>
<clus scale="   91.082">  7  8 -1 -1</clus>
<clus scale="  112.727">  1  9  2 -1</clus>
<clus scale="  167.477">  1  5  2 -1</clus>
<clus scale="  169.628">  2  5  1 -1</clus>
</clustering>
</event>
<event>
 9    1  0.1434065E-005  0.1353482E+03  0.7546771E-02  0.1219822E+00
          2   -1    0    0  502    0  0.00000000000E+00  0.00000000000E+00  0.29213106332E+03  0.29213106332E+03  0.00000000000E+00 0. -1.
         -2   -1    0    0    0  501 -0.00000000000E+00 -0.00000000000E+00 -0.97760383617E+02  0.97760383617E+02  0.00000000000E+00 0.  1.
         23    2    1    2    0    0  0.32347287141E+02 -0.11351564015E+03  0.32011454644E+02  0.15245346019E+03  0.91022946299E+02 0.  0.
         23    2    1    2    0    0 -0.18544899936E+02  0.91199927806E+02  0.16580589503E+03  0.21097336047E+03  0.91415665269E+02 0.  0.
        -11    1    4    4    0    0 -0.32605335724E+02 -0.11733633771E+01  0.69564911378E+02  0.76835939471E+02  0.00000000000E+00 0.  1.
         11    1    4    4    0    0  0.14060435788E+02  0.92373291183E+02  0.96240983654E+02  0.13413742100E+03  0.00000000000E+00 0. -1.
        -11    1    3    3    0    0  0.46795096175E+02 -0.43659705975E+02  0.47197232161E+02  0.79520624215E+02  0.00000000000E+00 0. -1.
         11    1    3    3    0    0 -0.14447809034E+02 -0.69855934174E+02 -0.15185777517E+02  0.72932835979E+02  0.00000000000E+00 0.  1.
         21    1    1    2  502  501 -0.13802387204E+02  0.22315712342E+02 -0.34466699701E+01  0.26464626273E+02  0.00000000000E+00 0.  1.
<scales pt_clust_5="13000.00000" pt_clust_6="13000.00000" pt_clust_7="13000.00000" pt_clust_8="13000.00000" pt_clust_9="26.23922"></scales>
<clustering>
<clus scale="   26.239">  2  9  1 -1</clus>
<clus scale="   91.023">  7  8 -1 -1</clus>
<clus scale="   91.416">  5  6 -1 -1</clus>
<clus scale="  135.083">  2  7  1 -1</clus>
<clus scale="  135.348">  1  5  2 -1</clus>
</clustering>
</event>
<event>
 9    1  0.1434065E-005  0.1306135E+03  0.7546771E-02  0.1226714E+00
         -1   -1    0    0    0  501 -0.00000000000E+00  0.00000000000E+00  0.63276731212E+02  0.63276731212E+02  0.00000000000E+00 0.  1.
          1   -1    0    0  502    0  0.00000000000E+00 -0.00000000000E+00 -0.50569800960E+03  0.50569800960E+03  0.00000000000E+00 0. -1.
         23    2    1    2    0    0 -0.51566704788E+02 -0.11363860973E+03 -0.26863554242E+03  0.30917060587E+03  0.88592043758E+02 0.  0.
         23    2    1    2    0    0  0.27011339771E+01  0.71328580812E+02 -0.15484122368E+03  0.19244779075E+03  0.89248445628E+02 0.  0.
        -11    1    3    3    0    0 -0.49988041699E+02 -0.30518158347E+02 -0.17198618942E+03  0.18168492412E+03  0.00000000000E+00 0.  1.
         11    1    3    3    0    0 -0.15786630890E+01 -0.83120451381E+02 -0.96649353004E+02  0.12748568175E+03  0.00000000000E+00 0. -1.
        -13    1    4    4    0    0 -0.22643970202E+02  0.83103441295E+02 -0.12169019983E+03  0.14908868527E+03  0.00000000000E+00 0.  1.
         13    1    4    4    0    0  0.25345104179E+02 -0.11774860483E+02 -0.33151023853E+02  0.43359105477E+02  0.00000000000E+00 0. -1.
         21    1    1    2  502  501  0.48865570811E+02  0.42310028915E+02 -0.18944512282E+02  0.67356344194E+02  0.00000000000E+00 0.  1.
<scales pt_clust_5="13000.00000" pt_clust_6="13000.00000" pt_clust_7="13000.00000" pt_clust_8="13000.00000" pt_clust_9="64.63732"></scales>
<clustering>
<clus scale="   64.637">  1  9  2 -1</clus>
<clus scale="   88.592">  5  6 -1 -1</clus>
<clus scale="   89.248">  7  8 -1 -1</clus>
<clus scale="  130.166">  1  5  2 -1</clus>
<clus scale="  130.613">  2  5  1 -1</clus>
</clustering>
</event>
<event>
 9    1  0.1434065E-005  0.9720234E+02  0.7546771E-02  0.1286651E+00
         -1   -1    0    0    0  501 -0.00000000000E+00  0.00000000000E+00  0.60594692846E+02  0.60594692846E+02  0.00000000000E+00 0.  1.
          1   -1    0    0  502    0  0.00000000000E+00 -0.00000000000E+00 -0.32686508489E+03  0.32686508489E+03  0.00000000000E+00 0. -1.
         23    2    1    2    0    0 -0.22313621791E+02  0.25648143239E+02 -0.17273137371E+02  0.98138744203E+02  0.90427467453E+02 0.  0.
         23    2    1    2    0    0  0.33700423944E+02 -0.89959972601E+01 -0.25075608168E+03  0.26907142363E+03  0.91127229598E+02 0.  0.
        -13    1    3    3    0    0 -0.51814145561E+02  0.19509047295E+02 -0.32685379519E+02  0.64293410555E+02  0.00000000000E+00 0. -1.
         13    1    3    3    0    0  0.29500523769E+02  0.61390959439E+01  0.15412242148E+02  0.33845333648E+02  0.00000000000E+00 0.  1.
        -13    1    4    4    0    0 -0.12241829754E+02  0.29115434866E+02 -0.13712772908E+03  0.14071810483E+03  0.00000000000E+00 0.  1.
         13    1    4    4    0    0  0.45942253697E+02 -0.38111432126E+02 -0.11362835260E+03  0.12835331880E+03  0.00000000000E+00 0. -1.
         21    1    1    2  502  501 -0.11386802152E+02 -0.16652145979E+02  0.17588270037E+01  0.20249609907E+02  0.00000000000E+00 0. -1.
<scales pt_clust_5="13000.00000" pt_clust_6="13000.00000" pt_clust_7="13000.00000" pt_clust_8="13000.00000" pt_clust_9="20.17308"></scales>
<clustering>
<clus scale="   20.173">  1  9  2 -1</clus>
<clus scale="   90.427">  5  6 -1 -1</clus>
<clus scale="   91.127">  7  8 -1 -1</clus>
<clus scale="   96.547">  1  5  2 -1</clus>
<clus scale="   97.202">  2  5  1 -1</clus>
</clustering>
</event>
<event>
 9    1  0.1434065E-005  0.1010712E+03  0.7546771E-02  0.1280928E+00
          3   -1    0    0  502    0  0.00000000000E+00  0.00000000000E+00  0.14645528775E+03  0.14645528775E+03  0.00000000000E+00 0. -1.
         -3   -1    0    0    0  501 -0.00000000000E+00 -0.00000000000E+00 -0.23753421154E+03  0.23753421154E+03  0.00000000000E+00 0.  1.
         23    2    1    2    0    0  0.15840741970E+02 -0.48711972119E+02 -0.22128937981E+02  0.10676441821E+03  0.91022885945E+02 0.  0.
         23    2    1    2    0    0 -0.45667535657E+02  0.13042441838E+02  0.76936872624E+02  0.12410771278E+03  0.85016544864E+02 0.  0.
        -11    1    4    4    0    0  0.67034619028E+01 -0.23996654011E+02  0.47269790947E+02  0.53434155195E+02  0.00000000000E+00 0. -1.
         11    1    4    4    0    0 -0.52370997560E+02  0.37039095848E+02  0.29667081676E+02  0.70673557586E+02  0.00000000000E+00 0.  1.
        -11    1    3    3    0    0  0.10651140015E+02 -0.73854211451E+02 -0.29212602690E+02  0.80132811560E+02  0.00000000000E+00 0. -1.
         11    1    3    3    0    0  0.51896019553E+01  0.25142239331E+02  0.70836647091E+01  0.26631606650E+02  0.00000000000E+00 0.  1.
         21    1    1    2  502  501  0.29826793687E+02  0.35669530282E+02 -0.14588685844E+03  0.15311736830E+03  0.00000000000E+00 0. -1.
<scales pt_clust_5="13000.00000" pt_clust_6="13000.00000" pt_clust_7="13000.00000" pt_clust_8="13000.00000" pt_clust_9="46.49681"></scales>
<clustering>
<clus scale="   46.497">  2  9  1 -1</clus>
<clus scale="   85.017">  5  6 -1 -1</clus>
<clus scale="   91.023">  7  8 -1 -1</clus>
<clus scale="   95.698">  1  5  2 -1</clus>
<clus scale="   95.698">  1  5  2 -1</clus>
</clustering>
</event>
<event>
 9    1  0.1434065E-005  0.8883699E+02  0.7546771E-02  0.1306595E+00
         -3   -1    0    0    0  501 -0.00000000000E+00  0.00000000000E+00  0.13267014536E+03  0.13267014536E+03  0.00000000000E+00 0.  1.
          3   -1    0    0  502    0  0.00000000000E+00 -0.00000000000E+00 -0.84639072592E+02  0.84639072592E+02  0.00000000000E+00 0. -1.
         23    2    1    2    0    0 -0.62199510117E+01  0.15228302466E+01  0.37362471235E+02  0.95423247017E+02  0.87570742899E+02 0.  0.
         23    2    1    2    0    0 -0.55858680479E+01  0.26181218942E+02  0.70740946378E+00  0.90166622696E+02  0.86097974849E+02 0.  0.
        -11    1    4    4    0    0 -0.31644117476E+01 -0.26235320939E+02  0.21155651418E+02  0.33850659571E+02  0.00000000000E+00 0.  1.
         11    1    4    4    0    0 -0.24214563003E+01  0.52416539881E+02 -0.20448241954E+02  0.56315963125E+02  0.00000000000E+00 0. -1.
        -13    1    3    3    0    0 -0.21404061025E+02  0.24787238178E+02  0.53916867328E+02  0.63083829840E+02  0.00000000000E+00 0. -1.
         13    1    3    3    0    0  0.15184110013E+02 -0.23264407932E+02 -0.16554396093E+02  0.32339417176E+02  0.00000000000E+00 0.  1.
         21    1    1    2  502  501  0.11805819060E+02 -0.27704049189E+02  0.99611920661E+01  0.31719348236E+02  0.00000000000E+00 0.  1.
<scales pt_clust_5="13000.00000" pt_clust_6="13000.00000" pt_clust_7="13000.00000" pt_clust_8="13000.00000" pt_clust_9="30.11464"></scales>
<clustering>
<clus scale="   30.115">  1  9  2 -1</clus>
<clus scale="   86.098">  5  6 -1 -1</clus>
<clus scale="   87.386">  2  5  1 -1</clus>
<clus scale="   87.571">  7  8 -1 -1</clus>
<clus scale="   87.386">  2  5  1 -1</clus>
</clustering>
</event>
<event>
 9    1  0.1434065E-005  0.1038699E+03  0.7546771E-02  0.1273653E+00
          1   -1    0    0  502    0  0.00000000000E+00  0.00000000000E+00  0.24242461525E+03  0.24242461525E+03  0.00000000000E+00 0. -1.
         -1   -1    0    0    0  501 -0.00000000000E+00 -0.00000000000E+00 -0.90957308945E+02  0.90957308945E+02  0.00000000000E+00 0.  1.
         23    2    1    2    0    0  0.23448029365E+02 -0.33338681873E+02 -0.15165129409E+02  0.10458387808E+03  0.95113241006E+02 0.  0.
         23    2    1    2    0    0  0.13681157177E+02  0.58153013210E+02  0.13475698490E+03  0.17393119002E+03  0.92323707008E+02 0.  0.
        -11    1    3    3    0    0  0.23835869888E+01  0.33268746801E+02 -0.14106923984E+01  0.33383844202E+02  0.00000000000E+00 0. -1.
         11    1    3    3    0    0  0.21064442376E+02 -0.66607428674E+02 -0.13754437010E+02  0.71200033881E+02  0.00000000000E+00 0.  1.
        -13    1    4    4    0    0 -0.33615659791E+01  0.81212180517E+02  0.10069056042E+03  0.12940366049E+03  0.00000000000E+00 0. -1.
         13    1    4    4    0    0  0.17042723156E+02 -0.23059167306E+02  0.34066424472E+02  0.44527529527E+02  0.00000000000E+00 0.  1.
         21    1    1    2  502  501 -0.37129186542E+02 -0.24814331337E+02  0.31875450821E+02  0.54866856097E+02  0.00000000000E+00 0.  1.
<scales pt_clust_5="13000.00000" pt_clust_6="13000.00000" pt_clust_7="13000.00000" pt_clust_8="13000.00000" pt_clust_9="44.65789"></scales>
<clustering>
<clus scale="   44.658">  1  9  2 -1</clus>
<clus scale="   92.324">  7  8 -1 -1</clus>
<clus scale="   95.113">  5  6 -1 -1</clus>
<clus scale="  101.322">  1  7  2 -1</clus>
<clus scale="   44.658">  1  5  2 -1</clus>
</clustering>
</event>
<event>
 9    1  0.1434065E-005  0.1271717E+03  0.7546771E-02  0.1245268E+00
          1   -1    0    0  502    0  0.00000000000E+00  0.00000000000E+00  0.21680722041E+03  0.21680722041E+03  0.00000000000E+00 0. -1.
         -1   -1    0    0    0  501 -0.00000000000E+00 -0.00000000000E+00 -0.79184544974E+03  0.79184544974E+03  0.00000000000E+00 0.  1.
         23    2    1    2    0    0 -0.32549525601E+02 -0.31971538466E+01 -0.41629461449E+03  0.42733365900E+03  0.90791831393E+02 0.  0.
         23    2    1    2    0    0 -0.84441065917E+02 -0.18161648367E+02  0.18147425032E+03  0.22091480376E+03  0.91707730906E+02 0.  0.
        -11    1    4    4    0    0 -0.10102978103E+03 -0.30058440324E+02  0.14779823859E+03  0.18153469591E+03  0.00000000000E+00 0. -1.
         11    1    4    4    0    0  0.16588715117E+02  0.11896791957E+02  0.33676011735E+02  0.39380107852E+02  0.00000000000E+00 0.  1.
        -13    1    3    3    0    0 -0.34149569710E+02 -0.43944736808E+02 -0.24827157893E+03  0.25443291829E+03  0.00000000000E+00 0. -1.
         13    1    3    3    0    0  0.16000441081E+01  0.40747582961E+02 -0.16802303556E+03  0.17290074071E+03  0.00000000000E+00 0.  1.
         21    1    1    2  502  501  0.11699059152E+03  0.21358802214E+02 -0.34021786515E+03  0.36040420739E+03  0.00000000000E+00 0.  1.
<scales pt_clust_5="13000.00000" pt_clust_6="13000.00000" pt_clust_7="13000.00000" pt_clust_8="13000.00000" pt_clust_9="88.10404"></scales>
<clustering>
<clus scale="   90.792">  7  8 -1 -1</clus>
<clus scale="   91.708">  5  6 -1 -1</clus>
<clus scale="   96.503">  2  7  1 -1</clus>
<clus scale="   88.104">  2  9  1 -1</clus>
<clus scale="  127.172">  1  5  2 -1</clus>
</clustering>
</event>
<event>
 9    1  0.1434065E-005  0.3038309E+03  0.7546771E-02  0.1083356E+00
         -4   -1    0    0    0  501 -0.00000000000E+00  0.00000000000E+00  0.62698848356E+02  0.62698848356E+02  0.00000000000E+00 0.  1.
          4   -1    0    0  502    0  0.00000000000E+00 -0.00000000000E+00 -0.17525093004E+04  0.17525093004E+04  0.00000000000E+00 0. -1.
         23    2    1    2    0    0 -0.20099617253E+02  0.28173707792E+03 -0.60470906273E+03  0.67339643610E+03  0.89498234155E+02 0.  0.
         23    2    1    2    0    0  0.30370656505E+01 -0.29554340860E+03 -0.10734646586E+04  0.11169690289E+04  0.89097183608E+02 0.  0.
        -11    1    3    3    0    0  0.28208848524E+02  0.17638208325E+03 -0.33008975735E+03  0.37532069798E+03  0.00000000000E+00 0.  1.
         11    1    3    3    0    0 -0.48308465778E+02  0.10535499467E+03 -0.27461930538E+03  0.29807573812E+03  0.00000000000E+00 0. -1.
        -13    1    4    4    0    0 -0.28563864733E+02 -0.48520712380E+02 -0.14111402881E+03  0.15193196841E+03  0.00000000000E+00 0.  1.
         13    1    4    4    0    0  0.31600930384E+02 -0.24702269622E+03 -0.93235062982E+03  0.96503706052E+03  0.00000000000E+00 0. -1.
         21    1    1    2  502  501  0.17062551603E+02  0.13806330679E+02 -0.11636730695E+02  0.24842683738E+02  0.00000000000E+00 0.  1.
<scales pt_clust_5="13000.00000" pt_clust_6="13000.00000" pt_clust_7="13000.00000" pt_clust_8="13000.00000" pt_clust_9="21.94870"></scales>
<clustering>
<clus scale="   21.949">  1  9  2 -1</clus>
<clus scale="   89.097">  7  8 -1 -1</clus>
<clus scale="   89.498">  5  6 -1 -1</clus>
<clus scale="  303.713">  2  7  1 -1</clus>
<clus scale="  303.713">  2  5  1 -1</clus>
</clustering>
</event>
<event>
 9    1  0.1434065E-005  0.9930498E+02  0.7546771E-02  0.1282810E+00
         -2   -1    0    0    0  501 -0.00000000000E+00  0.00000000000E+00  0.47446833619E+02  0.47446833619E+02  0.00000000000E+00 0.  1.
          2   -1    0    0  502    0  0.00000000000E+00 -0.00000000000E+00 -0.69903767943E+03  0.69903767943E+03  0.00000000000E+00 0. -1.
         23    2    1    2    0    0 -0.44442547525E+02 -0.10907415446E+02 -0.84119525459E+02  0.13091722944E+03  0.89269897827E+02 0.  0.
         23    2    1    2    0    0  0.68525538313E+01 -0.46527937650E+02 -0.52473795467E+03  0.53470958173E+03  0.91392610439E+02 0.  0.
        -11    1    4    4    0    0  0.30810713221E+02 -0.65227051455E+02 -0.38583000285E+03  0.39251580782E+03  0.00000000000E+00 0. -1.
         11    1    4    4    0    0 -0.23958159390E+02  0.18699113805E+02 -0.13890795182E+03  0.14219377391E+03  0.00000000000E+00 0.  1.
        -11    1    3    3    0    0 -0.67437415122E+02  0.31918942667E+01 -0.78182962333E+02  0.10329844503E+03  0.00000000000E+00 0. -1.
         11    1    3    3    0    0  0.22994867597E+02 -0.14099309713E+02 -0.59365631252E+01  0.27618784403E+02  0.00000000000E+00 0.  1.
         21    1    1    2  502  501  0.37589993693E+02  0.57435353097E+02 -0.42733365680E+02  0.80857701881E+02  0.00000000000E+00 0. -1.
<scales pt_clust_5="13000.00000" pt_clust_6="13000.00000" pt_clust_7="13000.00000" pt_clust_8="13000.00000" pt_clust_9="68.64275"></scales>
<clustering>
<clus scale="   68.643">  1  9  2 -1</clus>
<clus scale="   89.270">  7  8 -1 -1</clus>
<clus scale="   91.393">  5  6 -1 -1</clus>
<clus scale="   97.355">  1  7  2 -1</clus>
<clus scale="   99.305">  2  5  1 -1</clus>
</clustering>
</event>
<event>
 9    1  0.1434065E-005  0.1125367E+03  0.7546771E-02  0.1258662E+00
         -1   -1    0    0    0  501 -0.00000000000E+00  0.00000000000E+00  0.27886632199E+03  0.27886632199E+03  0.00000000000E+00 0.  1.
          1   -1    0    0  502    0  0.00000000000E+00 -0.00000000000E+00 -0.55881143119E+02  0.55881143119E+02  0.00000000000E+00 0. -1.
         23    2    1    2    0    0  0.47678760768E+02 -0.14025305543E+02  0.88904716560E+02  0.13567086064E+03  0.89624552309E+02 0.  0.
         23    2    1    2    0    0 -0.54552043527E+02  0.41142732879E+02  0.11659305799E+03  0.16608560280E+03  0.96549657505E+02 0.  0.
        -11    1    4    4    0    0 -0.82442627391E+02  0.33669974876E+02  0.82340987697E+02  0.12128681822E+03  0.00000000000E+00 0. -1.
         11    1    4    4    0    0  0.27890583864E+02  0.74727580038E+01  0.34252070292E+02  0.44798784579E+02  0.00000000000E+00 0.  1.
        -13    1    3    3    0    0  0.49279681972E+01 -0.34042623184E+02  0.80744075307E+02  0.87765544270E+02  0.00000000000E+00 0.  1.
         13    1    3    3    0    0  0.42750792571E+02  0.20017317641E+02  0.81606412524E+01  0.47905316371E+02  0.00000000000E+00 0. -1.
         21    1    1    2  502  501  0.68732827587E+01 -0.27117427337E+02  0.17487404327E+02  0.32991001672E+02  0.00000000000E+00 0.  1.
<scales pt_clust_5="13000.00000" pt_clust_6="13000.00000" pt_clust_7="13000.00000" pt_clust_8="13000.00000" pt_clust_9="27.97493"></scales>
<clustering>
<clus scale="   27.975">  2  9  1 -1</clus>
<clus scale="   89.625">  7  8 -1 -1</clus>
<clus scale="   96.550">  5  6 -1 -1</clus>
<clus scale="  106.655">  1  7  2 -1</clus>
<clus scale="   27.975">  2  5  1 -1</clus>
</clustering>
</event>
<event>
 9    1  0.1434065E-005  0.1427202E+03  0.7546771E-02  0.1209780E+00
          4   -1    0    0  502    0  0.00000000000E+00  0.00000000000E+00  0.14735625416E+03  0.14735625416E+03  0.00000000000E+00 0. -1.
         -4   -1    0    0    0  501 -0.00000000000E+00 -0.00000000000E+00 -0.18490505240E+03  0.18490505240E+03  0.00000000000E+00 0.  1.
         23    2    1    2    0    0 -0.11393409393E+03 -0.22241657318E+02 -0.37255767416E+02  0.15264905384E+03  0.91858980801E+02 0.  0.
         23    2    1    2    0    0  0.10568263841E+03 -0.70470497140E+01  0.21695552989E+02  0.14207010712E+03  0.92166899409E+02 0.  0.
        -11    1    3    3    0    0 -0.10162163067E+01 -0.20913415964E+02 -0.33690888058E+02  0.39667109813E+02  0.00000000000E+00 0. -1.
         11    1    3    3    0    0 -0.11291787762E+03 -0.13282413541E+01 -0.35648793585E+01  0.11298194403E+03  0.00000000000E+00 0.  1.
        -11    1    4    4    0    0  0.63440536284E+02  0.73167210774E+01 -0.32676014623E+02  0.71735332877E+02  0.00000000000E+00 0.  1.
         11    1    4    4    0    0  0.42242102129E+02 -0.14363770791E+02  0.54371567612E+02  0.70334774246E+02  0.00000000000E+00 0. -1.
         21    1    1    2  502  501  0.82514555168E+01  0.29288707032E+02 -0.21988583815E+02  0.37542145595E+02  0.00000000000E+00 0.  1.
<scales pt_clust_5="13000.00000" pt_clust_6="13000.00000" pt_clust_7="13000.00000" pt_clust_8="13000.00000" pt_clust_9="30.42885"></scales>
<clustering>
<clus scale="   30.429">  2  9  1 -1</clus>
<clus scale="   91.859">  5  6 -1 -1</clus>
<clus scale="   92.167">  7  8 -1 -1</clus>
<clus scale="  142.522">  2  5  1 -1</clus>
<clus scale="  142.720">  1  5  2 -1</clus>
</clustering>
</event>
<event>
 9    1  0.1434065E-005  0.1207901E+03  0.7546771E-02  0.1244858E+00
          1   -1    0    0  502    0  0.00000000000E+00  0.00000000000E+00  0.21924536498E+03  0.21924536498E+03  0.00000000000E+00 0. -1.
         -1   -1    0    0    0  501 -0.00000000000E+00 -0.00000000000E+00 -0.19036721284E+03  0.19036721284E+03  0.00000000000E+00 0.  1.
         23    2    1    2    0    0  0.10228914371E+03  0.69608304698E+02 -0.97360756913E+02  0.18265163185E+03  0.92596525995E+02 0.  0.
         23    2    1    2    0    0 -0.64807735718E+02 -0.29685264648E+02  0.13254792202E+03  0.17183827626E+03  0.82934817837E+02 0.  0.
        -11    1    4    4    0    0 -0.46208253840E+02 -0.22078227261E+02  0.14101956612E+03  0.15003055979E+03  0.00000000000E+00 0. -1.
         11    1    4    4    0    0 -0.18599481878E+02 -0.76070373876E+01 -0.84716440980E+01  0.21807716471E+02  0.00000000000E+00 0.  1.
        -11    1    3    3    0    0  0.28655961592E+02  0.75197331965E+02 -0.55656973064E+02  0.97844271779E+02  0.00000000000E+00 0.  1.
         11    1    3    3    0    0  0.73633182116E+02 -0.55890272668E+01 -0.41703783849E+02  0.84807360068E+02  0.00000000000E+00 0. -1.
         21    1    1    2  502  501 -0.37481407990E+02 -0.39923040049E+02 -0.63090129724E+01  0.55122669714E+02  0.00000000000E+00 0. -1.
<scales pt_clust_5="13000.00000" pt_clust_6="13000.00000" pt_clust_7="13000.00000" pt_clust_8="13000.00000" pt_clust_9="54.76043"></scales>
<clustering>
<clus scale="   54.760">  2  9  1 -1</clus>
<clus scale="   82.935">  5  6 -1 -1</clus>
<clus scale="   92.597">  7  8 -1 -1</clus>
<clus scale="  113.553">  1  5  2 -1</clus>
<clus scale="  113.553">  1  5  2 -1</clus>
</clustering>
</event>
<event>
 9    1  0.1434065E-005  0.1135656E+03  0.7546771E-02  0.1254905E+00
         -2   -1    0    0    0  501 -0.00000000000E+00  0.00000000000E+00  0.33792936951E+02  0.33792936951E+02  0.00000000000E+00 0. -1.
          2   -1    0    0  502    0  0.00000000000E+00 -0.00000000000E+00 -0.60925325017E+03  0.60925325017E+03  0.00000000000E+00 0.  1.
         23    2    1    2    0    0  0.47957433935E+02 -0.66995165710E+01 -0.12716652948E+03  0.16500063681E+03  0.93322478188E+02 0.  0.
         23    2    1    2    0    0 -0.71443349561E+02 -0.21970392033E+01 -0.43391134724E+03  0.44910437865E+03  0.91141134969E+02 0.  0.
        -11    1    4    4    0    0 -0.22228199322E+02  0.33582505157E+02 -0.75544411259E+02  0.85608618550E+02  0.00000000000E+00 0. -1.
         11    1    4    4    0    0 -0.49215150240E+02 -0.35779544360E+02 -0.35836693598E+03  0.36349576010E+03  0.00000000000E+00 0.  1.
        -13    1    3    3    0    0  0.71111669917E+02  0.64542010996E+01 -0.61859024257E+02  0.94472563172E+02  0.00000000000E+00 0. -1.
         13    1    3    3    0    0 -0.23154235982E+02 -0.13153717671E+02 -0.65307505222E+02  0.70528073635E+02  0.00000000000E+00 0.  1.
         21    1    1    2  502  501  0.23485915626E+02  0.88965557743E+01 -0.14382436500E+02  0.28941171661E+02  0.00000000000E+00 0.  1.
<scales pt_clust_5="13000.00000" pt_clust_6="13000.00000" pt_clust_7="13000.00000" pt_clust_8="13000.00000" pt_clust_9="25.11448"></scales>
<clustering>
<clus scale="   25.114">  1  9  2 -1</clus>
<clus scale="   91.141">  5  6 -1 -1</clus>
<clus scale="   93.322">  7  8 -1 -1</clus>
<clus scale="  111.780">  2  5  1 -1</clus>
<clus scale="  111.780">  2  5  1 -1</clus>
</clustering>
</event>
<event>
 9    1  0.1434065E-005  0.1007129E+03  0.7546771E-02  0.1279019E+00
         -1   -1    0    0    0  501 -0.00000000000E+00  0.00000000000E+00  0.34563430148E+02  0.34563430148E+02  0.00000000000E+00 0.  1.
          1   -1    0    0  502    0  0.00000000000E+00 -0.00000000000E+00 -0.62516730377E+03  0.62516730377E+03  0.00000000000E+00 0. -1.
         23    2    1    2    0    0 -0.57413841829E+02  0.22190098096E+02 -0.12123409622E+03  0.16393224240E+03  0.91582336329E+02 0.  0.
         23    2    1    2    0    0  0.30849633360E+02 -0.18408908076E+02 -0.45451618767E+03  0.46512955450E+03  0.92032330383E+02 0.  0.
        -13    1    4    4    0    0  0.56541604416E+02 -0.30953803182E+02 -0.37778270704E+03  0.38324256640E+03  0.00000000000E+00 0. -1.
         13    1    4    4    0    0 -0.25691971056E+02  0.12544895105E+02 -0.76733480638E+02  0.81886988104E+02  0.00000000000E+00 0.  1.
        -13    1    3    3    0    0 -0.48213537224E+02 -0.18760270719E+02 -0.10828506200E+03  0.12000894792E+03  0.00000000000E+00 0. -1.
         13    1    3    3    0    0 -0.92003046048E+01  0.40950368815E+02 -0.12949034214E+02  0.43923294480E+02  0.00000000000E+00 0.  1.
         21    1    1    2  502  501  0.26564208469E+02 -0.37811900195E+01 -0.14853589727E+02  0.30668937010E+02  0.00000000000E+00 0.  1.
<scales pt_clust_5="13000.00000" pt_clust_6="13000.00000" pt_clust_7="13000.00000" pt_clust_8="13000.00000" pt_clust_9="26.83197"></scales>
<clustering>
<clus scale="   26.832">  1  9  2 -1</clus>
<clus scale="   91.582">  7  8 -1 -1</clus>
<clus scale="   92.032">  5  6 -1 -1</clus>
<clus scale="  100.302">  1  7  2 -1</clus>
<clus scale="  100.713">  2  5  1 -1</clus>
</clustering>
</event>
<event>
 9    1  0.1434065E-005  0.1684199E+03  0.7546771E-02  0.1180080E+00
          1   -1    0    0  502    0  0.00000000000E+00  0.00000000000E+00  0.25424758996E+03  0.25424758996E+03  0.00000000000E+00 0. -1.
         -1   -1    0    0    0  501 -0.00000000000E+00 -0.00000000000E+00 -0.22490383389E+03  0.22490383389E+03  0.00000000000E+00 0.  1.
         23    2    1    2    0    0  0.13911627307E+03 -0.18469276116E+02  0.27210190397E+02  0.16945379583E+03  0.90993092409E+02 0.  0.
         23    2    1    2    0    0 -0.12937812551E+03  0.54345912364E+02  0.10569446334E+03  0.19966661389E+03  0.94885507682E+02 0.  0.
        -13    1    3    3    0    0  0.96061738863E+01  0.27668938372E+02  0.97350545603E+01  0.30864543001E+02  0.00000000000E+00 0. -1.
         13    1    3    3    0    0  0.12951009918E+03 -0.46138214489E+02  0.17475135837E+02  0.13858925283E+03  0.00000000000E+00 0.  1.
        -13    1    4    4    0    0 -0.53086337886E+02  0.34360489333E+02  0.10286758312E+03  0.12074991575E+03  0.00000000000E+00 0.  1.
         13    1    4    4    0    0 -0.76291787628E+02  0.19985423031E+02  0.28268802259E+01  0.78916698138E+02  0.00000000000E+00 0. -1.
         21    1    1    2  502  501 -0.97381475574E+01 -0.35876636247E+02 -0.10356089767E+03  0.11003101414E+03  0.00000000000E+00 0.  1.
<scales pt_clust_5="13000.00000" pt_clust_6="13000.00000" pt_clust_7="13000.00000" pt_clust_8="13000.00000" pt_clust_9="37.17478"></scales>
<clustering>
<clus scale="   37.175">  2  9  1 -1</clus>
<clus scale="   90.993">  5  6 -1 -1</clus>
<clus scale="   94.886">  7  8 -1 -1</clus>
<clus scale="  166.258">  2  5  1 -1</clus>
<clus scale="  168.420">  1  5  2 -1</clus>
</clustering>
</event>
<event>
 9    1  0.1434065E-005  0.2093552E+03  0.7546771E-02  0.1142274E+00
          2   -1    0    0  502    0  0.00000000000E+00  0.00000000000E+00  0.31570143083E+03  0.31570143083E+03  0.00000000000E+00 0. -1.
         -2   -1    0    0    0  501 -0.00000000000E+00 -0.00000000000E+00 -0.19727020724E+03  0.19727020724E+03  0.00000000000E+00 0.  1.
         23    2    1    2    0    0  0.53561899421E+02 -0.19248573154E+03 -0.82080593164E+01  0.21932110479E+03  0.90081856388E+02 0.  0.
         23    2    1    2    0    0 -0.86542740924E+01  0.18350440734E+03  0.13651021766E+03  0.24680190096E+03  0.92343786018E+02 0.  0.
        -11    1    4    4    0    0  0.27419365568E+02  0.13154961673E+02  0.29799353384E+02  0.42577882602E+02  0.00000000000E+00 0. -1.
         11    1    4    4    0    0 -0.36073639661E+02  0.17034944567E+03  0.10671086428E+03  0.20422401836E+03  0.00000000000E+00 0.  1.
        -13    1    3    3    0    0  0.50102982078E+02 -0.63146410346E+02 -0.33835268537E+02  0.87421984361E+02  0.00000000000E+00 0.  1.
         13    1    3    3    0    0  0.34589173430E+01 -0.12933932119E+03  0.25627209220E+02  0.13189912042E+03  0.00000000000E+00 0. -1.
         21    1    1    2  502  501 -0.44907625329E+02  0.89813241963E+01 -0.98709347542E+01  0.46848632316E+02  0.00000000000E+00 0.  1.
<scales pt_clust_5="13000.00000" pt_clust_6="13000.00000" pt_clust_7="13000.00000" pt_clust_8="13000.00000" pt_clust_9="45.79693"></scales>
<clustering>
<clus scale="   45.797">  2  9  1 -1</clus>
<clus scale="   90.082">  7  8 -1 -1</clus>
<clus scale="   92.344">  5  6 -1 -1</clus>
<clus scale="  208.367">  2  7  1 -1</clus>
<clus scale="  209.355">  1  5  2 -1</clus>
</clustering>
</event>
<event>
 9    1  0.1434065E-005  0.1003194E+03  0.7546771E-02  0.1279815E+00
          1   -1    0    0  502    0  0.00000000000E+00  0.00000000000E+00  0.78026402841E+03  0.78026402841E+03  0.00000000000E+00 0. -1.
         -1   -1    0    0    0  501 -0.00000000000E+00 -0.00000000000E+00 -0.14596826368E+03  0.14596826368E+03  0.00000000000E+00 0.  1.
         23    2    1    2    0    0 -0.12434001619E+02  0.36173457354E+02  0.28100753933E+03  0.29802817676E+03  0.91610226332E+02 0.  0.
         23    2    1    2    0    0 -0.22549002035E+02 -0.42280898199E+02  0.48292353358E+03  0.49379271511E+03  0.91213893501E+02 0.  0.
        -13    1    3    3    0    0 -0.42328753573E+02 -0.44088712366E+01  0.18223069565E+03  0.18713414430E+03  0.00000000000E+00 0. -1.
         13    1    3    3    0    0  0.29894751954E+02  0.40582328590E+02  0.98776843680E+02  0.11089403246E+03  0.00000000000E+00 0.  1.
        -13    1    4    4    0    0 -0.50672077352E+02 -0.49528992915E+02  0.39171354336E+03  0.39807069801E+03  0.00000000000E+00 0. -1.
         13    1    4    4    0    0  0.28123075317E+02  0.72480947159E+01  0.91209990217E+02  0.95722017100E+02  0.00000000000E+00 0.  1.
         21    1    1    2  502  501  0.34983003654E+02  0.61074408452E+01 -0.12963530819E+03  0.13441140021E+03  0.00000000000E+00 0.  1.
<scales pt_clust_5="13000.00000" pt_clust_6="13000.00000" pt_clust_7="13000.00000" pt_clust_8="13000.00000" pt_clust_9="35.51213"></scales>
<clustering>
<clus scale="   35.512">  2  9  1 -1</clus>
<clus scale="   91.214">  7  8 -1 -1</clus>
<clus scale="   91.610">  5  6 -1 -1</clus>
<clus scale="   99.958">  1  7  2 -1</clus>
<clus scale="   99.958">  1  5  2 -1</clus>
</clustering>
</event>
<event>
 9    1  0.1434065E-005  0.9202886E+02  0.7546771E-02  0.1298683E+00
         -1   -1    0    0    0  501 -0.00000000000E+00  0.00000000000E+00  0.30215903815E+02  0.30215903815E+02  0.00000000000E+00 0.  1.
          1   -1    0    0  502    0  0.00000000000E+00 -0.00000000000E+00 -0.52720143898E+03  0.52720143898E+03  0.00000000000E+00 0. -1.
         23    2    1    2    0    0 -0.27804580827E+02  0.10629983561E+02 -0.15792099395E+03  0.18448428370E+03  0.90605294196E+02 0.  0.
         23    2    1    2    0    0 -0.27311782294E+01  0.44349133897E+01 -0.32198323863E+03  0.33483903595E+03  0.91743371669E+02 0.  0.
        -11    1    4    4    0    0  0.56894621129E+01  0.45847305436E+02 -0.12234714653E+03  0.13077908724E+03  0.00000000000E+00 0. -1.
         11    1    4    4    0    0 -0.84206403423E+01 -0.41412392046E+02 -0.19963609210E+03  0.20405994871E+03  0.00000000000E+00 0.  1.
        -11    1    3    3    0    0 -0.18880103885E+02  0.49776482265E+02 -0.10810126667E+03  0.12049913014E+03  0.00000000000E+00 0. -1.
         11    1    3    3    0    0 -0.89244769422E+01 -0.39146498704E+02 -0.49819727283E+02  0.63985153559E+02  0.00000000000E+00 0.  1.
         21    1    1    2  502  501  0.30535759056E+02 -0.15064896951E+02 -0.17081302579E+02  0.38094023141E+02  0.00000000000E+00 0.  1.
<scales pt_clust_5="13000.00000" pt_clust_6="13000.00000" pt_clust_7="13000.00000" pt_clust_8="13000.00000" pt_clust_9="34.04972"></scales>
<clustering>
<clus scale="   34.050">  1  9  2 -1</clus>
<clus scale="   90.605">  7  8 -1 -1</clus>
<clus scale="   90.894">  1  7  2 -1</clus>
<clus scale="   91.743">  5  6 -1 -1</clus>
<clus scale="   92.029">  2  5  1 -1</clus>
</clustering>
</event>
<event>
 9    1  0.1434065E-005  0.9603061E+02  0.7546771E-02  0.1289188E+00
          1   -1    0    0  502    0  0.00000000000E+00  0.00000000000E+00  0.18047089383E+03  0.18047089383E+03  0.00000000000E+00 0. -1.
         -1   -1    0    0    0  501 -0.00000000000E+00 -0.00000000000E+00 -0.23251893122E+03  0.23251893122E+03  0.00000000000E+00 0.  1.
         23    2    1    2    0    0 -0.95790113003E+01  0.27050449012E+02 -0.72965512634E+01  0.95925288812E+02  0.91241093396E+02 0.  0.
         23    2    1    2    0    0 -0.30807620283E+02  0.41286895306E+02  0.10429026237E+03  0.14820212054E+03  0.91835137706E+02 0.  0.
        -11    1    4    4    0    0  0.20733484652E+02  0.24665782744E+00 -0.43110553229E+01  0.21178371606E+02  0.00000000000E+00 0.  1.
         11    1    4    4    0    0 -0.51541104935E+02  0.41040237479E+02  0.10860131769E+03  0.12702374894E+03  0.00000000000E+00 0. -1.
        -13    1    3    3    0    0  0.72587694104E+01  0.54612141941E+02  0.14490114489E+02  0.56966123254E+02  0.00000000000E+00 0. -1.
         13    1    3    3    0    0 -0.16837780711E+02 -0.27561692929E+02 -0.21786665752E+02  0.38959165558E+02  0.00000000000E+00 0.  1.
         21    1    1    2  502  501  0.40386631583E+02 -0.68337344318E+02 -0.14904174850E+03  0.16886241569E+03  0.00000000000E+00 0.  1.
<scales pt_clust_5="13000.00000" pt_clust_6="13000.00000" pt_clust_7="13000.00000" pt_clust_8="13000.00000" pt_clust_9="79.37930"></scales>
<clustering>
<clus scale="   79.379">  2  9  1 -1</clus>
<clus scale="   91.241">  7  8 -1 -1</clus>
<clus scale="   91.835">  5  6 -1 -1</clus>
<clus scale="   95.463">  2  7  1 -1</clus>
<clus scale="   96.031">  1  5  2 -1</clus>
</clustering>
</event>
<event>
 9    1  0.1434065E-005  0.2035630E+03  0.7546771E-02  0.1147193E+00
         -2   -1    0    0    0  501 -0.00000000000E+00  0.00000000000E+00  0.50287844318E+02  0.50287844318E+02  0.00000000000E+00 0.  1.
          2   -1    0    0  502    0  0.00000000000E+00 -0.00000000000E+00 -0.97628397348E+03  0.97628397348E+03  0.00000000000E+00 0. -1.
         23    2    1    2    0    0  0.70573302505E+01  0.18941638622E+03 -0.40980853108E+03  0.46148036613E+03  0.95355770167E+02 0.  0.
         23    2    1    2    0    0 -0.18619268243E+02 -0.17216911242E+03 -0.50490488463E+03  0.54145997929E+03  0.90890517800E+02 0.  0.
        -13    1    4    4    0    0  0.24125007854E+02 -0.94260269808E+02 -0.17991326676E+03  0.20453801119E+03  0.00000000000E+00 0.  1.
         13    1    4    4    0    0 -0.42744276097E+02 -0.77908842609E+02 -0.32499161787E+03  0.33692196809E+03  0.00000000000E+00 0. -1.
        -13    1    3    3    0    0  0.43539153463E+02  0.12524473837E+03 -0.20878072457E+03  0.24732831081E+03  0.00000000000E+00 0.  1.
         13    1    3    3    0    0 -0.36481823212E+02  0.64171647853E+02 -0.20102780651E+03  0.21415205533E+03  0.00000000000E+00 0. -1.
         21    1    1    2  502  501  0.11561937992E+02 -0.17247273805E+02 -0.11282713455E+02  0.23631472378E+02  0.00000000000E+00 0.  1.
<scales pt_clust_5="13000.00000" pt_clust_6="13000.00000" pt_clust_7="13000.00000" pt_clust_8="13000.00000" pt_clust_9="20.76408"></scales>
<clustering>
<clus scale="   20.764">  1  9  2 -1</clus>
<clus scale="   90.891">  5  6 -1 -1</clus>
<clus scale="   95.356">  7  8 -1 -1</clus>
<clus scale="  201.510">  2  5  1 -1</clus>
<clus scale="  201.510">  2  5  1 -1</clus>
</clustering>
</event>
<event>
 9    1  0.1434065E-005  0.1138251E+03  0.7546771E-02  0.1260630E+00
         -2   -1    0    0    0  501 -0.00000000000E+00  0.00000000000E+00  0.12491492863E+03  0.12491492863E+03  0.00000000000E+00 0.  1.
          2   -1    0    0  502    0  0.00000000000E+00 -0.00000000000E+00 -0.34562790967E+03  0.34562790967E+03  0.00000000000E+00 0. -1.
         23    2    1    2    0    0 -0.51785340057E+02  0.14754703435E+02  0.44590142626E+02  0.12740220548E+03  0.10650642432E+03 0.  0.
         23    2    1    2    0    0  0.96899790792E+01 -0.40133040737E+02 -0.27548341804E+03  0.29294384195E+03  0.90666555379E+02 0.  0.
        -11    1    3    3    0    0 -0.55552236544E+02  0.54408265520E+02  0.18958592056E+02  0.80035857930E+02  0.00000000000E+00 0.  1.
         11    1    3    3    0    0  0.37668964869E+01 -0.39653562085E+02  0.25631550570E+02  0.47366347546E+02  0.00000000000E+00 0. -1.
        -11    1    4    4    0    0  0.24059314867E+02  0.15288168930E+02 -0.32158360966E+02  0.42973700343E+02  0.00000000000E+00 0.  1.
         11    1    4    4    0    0 -0.14369335788E+02 -0.55421209667E+02 -0.24332505708E+03  0.24997014160E+03  0.00000000000E+00 0. -1.
         21    1    1    2  502  501  0.42095360977E+02  0.25378337303E+02  0.10180294376E+02  0.50196790870E+02  0.00000000000E+00 0.  1.
<scales pt_clust_5="13000.00000" pt_clust_6="13000.00000" pt_clust_7="13000.00000" pt_clust_8="13000.00000" pt_clust_9="49.15363"></scales>
<clustering>
<clus scale="   49.154">  1  9  2 -1</clus>
<clus scale="   90.667">  7  8 -1 -1</clus>
<clus scale="   99.161">  2  7  1 -1</clus>
<clus scale="  106.506">  5  6 -1 -1</clus>
<clus scale="   99.161">  2  5  1 -1</clus>
</clustering>
</event>
<event>
 9    1  0.1434065E-005  0.1134257E+03  0.7546771E-02  0.1254446E+00
          2   -1    0    0  502    0  0.00000000000E+00  0.00000000000E+00  0.97110260167E+02  0.97110260167E+02  0.00000000000E+00 0. -1.
         -2   -1    0    0    0  501 -0.00000000000E+00 -0.00000000000E+00 -0.19655551905E+03  0.19655551905E+03  0.00000000000E+00 0.  1.
         23    2    1    2    0    0  0.74131335467E+02  0.28676072166E+02 -0.93087615306E+02  0.15227488446E+03  0.90579050007E+02 0.  0.
         23    2    1    2    0    0 -0.49384124629E+02 -0.12750299307E+01  0.24611489690E+01  0.10343022219E+03  0.90836865545E+02 0.  0.
        -11    1    4    4    0    0 -0.74700951078E+02 -0.59898754317E+01  0.12143186734E+02  0.75918164385E+02  0.00000000000E+00 0. -1.
         11    1    4    4    0    0  0.25316826449E+02  0.47148455010E+01 -0.96820377653E+01  0.27512057808E+02  0.00000000000E+00 0.  1.
        -13    1    3    3    0    0  0.20173947774E+02  0.47033835438E+02 -0.11009234676E+02  0.52348572979E+02  0.00000000000E+00 0. -1.
         13    1    3    3    0    0  0.53957387692E+02 -0.18357763272E+02 -0.82078380630E+02  0.99926311478E+02  0.00000000000E+00 0.  1.
         21    1    1    2  502  501 -0.24747210838E+02 -0.27401042235E+02 -0.88187925479E+01  0.37960672568E+02  0.00000000000E+00 0. -1.
<scales pt_clust_5="13000.00000" pt_clust_6="13000.00000" pt_clust_7="13000.00000" pt_clust_8="13000.00000" pt_clust_9="36.92210"></scales>
<clustering>
<clus scale="   36.922">  1  9  2 -1</clus>
<clus scale="   90.579">  7  8 -1 -1</clus>
<clus scale="   90.837">  5  6 -1 -1</clus>
<clus scale="  113.219">  2  7  1 -1</clus>
<clus scale="   36.922">  1  5  2 -1</clus>
</clustering>
</event>
<event>
 9    1  0.1434065E-005  0.1136841E+03  0.7546771E-02  0.1264005E+00
         -2   -1    0    0    0  501 -0.00000000000E+00  0.00000000000E+00  0.39553081571E+02  0.39553081571E+02  0.00000000000E+00 0.  1.
          2   -1    0    0  502    0  0.00000000000E+00 -0.00000000000E+00 -0.44209909549E+03  0.44209909549E+03  0.00000000000E+00 0. -1.
         23    2    1    2    0    0 -0.21158790334E+02 -0.11223481645E+02 -0.91145839968E+02  0.13079031621E+03  0.90691133652E+02 0.  0.
         23    2    1    2    0    0 -0.11310359379E+02  0.27146535418E+02 -0.28034176059E+03  0.30319201330E+03  0.11166483594E+03 0.  0.
        -11    1    3    3    0    0 -0.20847918313E+02  0.88219148027E+01 -0.10435493862E+03  0.10678209163E+03  0.00000000000E+00 0. -1.
         11    1    3    3    0    0 -0.31087202047E+00 -0.20045396447E+02  0.13209098655E+02  0.24008224579E+02  0.00000000000E+00 0.  1.
        -13    1    4    4    0    0 -0.27928446644E+02  0.64048254842E+02 -0.21748215553E+03  0.22843087588E+03  0.00000000000E+00 0. -1.
         13    1    4    4    0    0  0.16618087265E+02 -0.36901719423E+02 -0.62859605057E+02  0.74761137422E+02  0.00000000000E+00 0.  1.
         21    1    1    2  502  501  0.32469149713E+02 -0.15923053774E+02 -0.31058413366E+02  0.47669847550E+02  0.00000000000E+00 0.  1.
<scales pt_clust_5="13000.00000" pt_clust_6="13000.00000" pt_clust_7="13000.00000" pt_clust_8="13000.00000" pt_clust_9="36.16337"></scales>
<clustering>
<clus scale="   36.163">  1  9  2 -1</clus>
<clus scale="   90.691">  5  6 -1 -1</clus>
<clus scale="   93.166">  1  5  2 -1</clus>
<clus scale="  111.665">  7  8 -1 -1</clus>
<clus scale="  113.684">  2  5  1 -1</clus>
</clustering>
</event>
<event>
 9    1  0.1434065E-005  0.1576736E+03  0.7546771E-02  0.1196824E+00
          1   -1    0    0  502    0  0.00000000000E+00  0.00000000000E+00  0.34149595125E+03  0.34149595125E+03  0.00000000000E+00 0. -1.
         -1   -1    0    0    0  501 -0.00000000000E+00 -0.00000000000E+00 -0.32277642961E+03  0.32277642961E+03  0.00000000000E+00 0.  1.
         23    2    1    2    0    0 -0.63062164209E+02  0.16803637093E+02 -0.78208895550E+02  0.15595921299E+03  0.11809930567E+03 0.  0.
         23    2    1    2    0    0  0.34374749718E+02 -0.11016440814E+03  0.27091413402E+03  0.30878815445E+03  0.92939959516E+02 0.  0.
        -11    1    3    3    0    0 -0.23619228903E+02 -0.51149280674E+02 -0.31271696018E+02  0.64436293029E+02  0.00000000000E+00 0.  1.
         11    1    3    3    0    0 -0.39442935306E+02  0.67952917767E+02 -0.46937199532E+02  0.91522919963E+02  0.00000000000E+00 0. -1.
        -13    1    4    4    0    0  0.50513506339E+02 -0.44007745442E+02  0.19796870272E+03  0.20899737615E+03  0.00000000000E+00 0. -1.
         13    1    4    4    0    0 -0.16138756621E+02 -0.66156662701E+02  0.72945431297E+02  0.99790778292E+02  0.00000000000E+00 0.  1.
         21    1    1    2  502  501  0.28687414491E+02  0.93360771049E+02 -0.17398571683E+03  0.19952501343E+03  0.00000000000E+00 0. -1.
<scales pt_clust_5="13000.00000" pt_clust_6="13000.00000" pt_clust_7="13000.00000" pt_clust_8="13000.00000" pt_clust_9="97.66883"></scales>
<clustering>
<clus scale="   92.940">  7  8 -1 -1</clus>
<clus scale="   97.669">  2  9  1 -1</clus>
<clus scale="  118.099">  5  6 -1 -1</clus>
<clus scale="  139.826">  1  7  2 -1</clus>
<clus scale="  139.826">  1  5  2 -1</clus>
</clustering>
</event>
<event>
 9    1  0.1434065E-005  0.2015401E+03  0.7546771E-02  0.1149408E+00
          2   -1    0    0  502    0  0.00000000000E+00  0.00000000000E+00  0.13765369447E+03  0.13765369447E+03  0.00000000000E+00 0. -1.
         -2   -1    0    0    0  501 -0.00000000000E+00 -0.00000000000E+00 -0.50642452508E+03  0.50642452508E+03  0.00000000000E+00 0.  1.
         23    2    1    2    0    0 -0.16324342038E+03 -0.12791075442E+02 -0.10508431084E+03  0.21098666640E+03  0.81612714115E+02 0.  0.
         23    2    1    2    0    0  0.19275731273E+03  0.51697738909E+01 -0.52914290976E+02  0.22012656423E+03  0.92052560621E+02 0.  0.
        -11    1    4    4    0    0  0.54141392835E+02  0.16021705833E+01  0.26535916923E+02  0.60315936995E+02  0.00000000000E+00 0. -1.
         11    1    4    4    0    0  0.13861591990E+03  0.35676033076E+01 -0.79450207899E+02  0.15981062724E+03  0.00000000000E+00 0.  1.
        -11    1    3    3    0    0 -0.44571351072E+02  0.33134923982E+02 -0.27808493020E+02  0.62111519123E+02  0.00000000000E+00 0.  1.
         11    1    3    3    0    0 -0.11867206931E+03 -0.45925999424E+02 -0.77275817824E+02  0.14887514728E+03  0.00000000000E+00 0. -1.
         21    1    1    2  502  501 -0.29513892353E+02  0.76213015513E+01 -0.21077222879E+03  0.21296498892E+03  0.00000000000E+00 0.  1.
<scales pt_clust_5="13000.00000" pt_clust_6="13000.00000" pt_clust_7="13000.00000" pt_clust_8="13000.00000" pt_clust_9="30.48203"></scales>
<clustering>
<clus scale="   30.482">  2  9  1 -1</clus>
<clus scale="   81.613">  7  8 -1 -1</clus>
<clus scale="   92.053">  5  6 -1 -1</clus>
<clus scale="  196.991">  2  7  1 -1</clus>
<clus scale="  201.540">  1  5  2 -1</clus>
</clustering>
</event>
<event>
 9    1  0.1434065E-005  0.1080331E+03  0.7546771E-02  0.1265611E+00
         -3   -1    0    0    0  501 -0.00000000000E+00  0.00000000000E+00  0.10366984379E+03  0.10366984379E+03  0.00000000000E+00 0.  1.
          3   -1    0    0  502    0  0.00000000000E+00 -0.00000000000E+00 -0.20563188151E+03  0.20563188151E+03  0.00000000000E+00 0. -1.
         23    2    1    2    0    0  0.12242517983E+02 -0.35657189128E+02  0.33683779447E+02  0.10370801005E+03  0.90550759064E+02 0.  0.
         23    2    1    2    0    0 -0.37288749750E+02  0.45201339950E+02 -0.14002089913E+03  0.17843591927E+03  0.93807852031E+02 0.  0.
        -11    1    4    4    0    0 -0.57246720046E+02  0.22944492135E+02 -0.38731250288E+02  0.72826824895E+02  0.00000000000E+00 0.  1.
         11    1    4    4    0    0  0.19957970296E+02  0.22256847815E+02 -0.10128964884E+03  0.10560909438E+03  0.00000000000E+00 0. -1.
        -13    1    3    3    0    0  0.20719315609E+02 -0.62263754238E+02  0.37411543212E+02  0.75536009272E+02  0.00000000000E+00 0.  1.
         13    1    3    3    0    0 -0.84767976262E+01  0.26606565111E+02 -0.37277637654E+01  0.28172000775E+02  0.00000000000E+00 0. -1.
         21    1    1    2  502  501  0.25046231767E+02 -0.95441508224E+01  0.43750819637E+01  0.27157795986E+02  0.00000000000E+00 0.  1.
<scales pt_clust_5="13000.00000" pt_clust_6="13000.00000" pt_clust_7="13000.00000" pt_clust_8="13000.00000" pt_clust_9="26.80307"></scales>
<clustering>
<clus scale="   26.803">  1  9  2 -1</clus>
<clus scale="   90.551">  7  8 -1 -1</clus>
<clus scale="   93.808">  5  6 -1 -1</clus>
<clus scale="  105.217">  1  7  2 -1</clus>
<clus scale="  108.033">  2  5  1 -1</clus>
</clustering>
</event>
<event>
 9    1  0.1434065E-005  0.1352520E+03  0.7546771E-02  0.1220769E+00
         -2   -1    0    0    0  501 -0.00000000000E+00  0.00000000000E+00  0.14250705887E+03  0.14250705887E+03  0.00000000000E+00 0.  1.
          2   -1    0    0  502    0  0.00000000000E+00 -0.00000000000E+00 -0.31709019566E+03  0.31709019566E+03  0.00000000000E+00 0. -1.
         23    2    1    2    0    0 -0.49134150426E+02 -0.19634433651E+02  0.60424356121E+02  0.12069092257E+03  0.90086182376E+02 0.  0.
         23    2    1    2    0    0  0.97935909318E+02  0.42696884250E+02 -0.24571415291E+03  0.28387796776E+03  0.93791200995E+02 0.  0.
        -13    1    3    3    0    0 -0.30848150487E+02  0.12083008480E+02  0.74447199062E+02  0.81486151771E+02  0.00000000000E+00 0.  1.
         13    1    3    3    0    0 -0.18285999939E+02 -0.31717442131E+02 -0.14022842941E+02  0.39204770797E+02  0.00000000000E+00 0. -1.
        -13    1    4    4    0    0 -0.10642293679E+02  0.17909810336E+02 -0.98554260032E+01  0.23046673138E+02  0.00000000000E+00 0.  1.
         13    1    4    4    0    0  0.10857820300E+03  0.24787073914E+02 -0.23585872690E+03  0.26083129463E+03  0.00000000000E+00 0. -1.
         21    1    1    2  502  501 -0.48801758892E+02 -0.23062450599E+02  0.10706659995E+02  0.55028364202E+02  0.00000000000E+00 0.  1.
<scales pt_clust_5="13000.00000" pt_clust_6="13000.00000" pt_clust_7="13000.00000" pt_clust_8="13000.00000" pt_clust_9="53.97674"></scales>
<clustering>
<clus scale="   53.977">  1  9  2 -1</clus>
<clus scale="   90.086">  5  6 -1 -1</clus>
<clus scale="   93.791">  7  8 -1 -1</clus>
<clus scale="  132.710">  1  5  2 -1</clus>
<clus scale="  135.252">  2  5  1 -1</clus>
</clustering>
</event>
<event>
 9    1  0.1434065E-005  0.1032079E+03  0.7546771E-02  0.1274582E+00
         -2   -1    0    0    0  501 -0.00000000000E+00  0.00000000000E+00  0.11783023570E+03  0.11783023570E+03  0.00000000000E+00 0.  1.
          2   -1    0    0  502    0  0.00000000000E+00 -0.00000000000E+00 -0.16792128815E+03  0.16792128815E+03  0.00000000000E+00 0. -1.
         23    2    1    2    0    0 -0.38583111423E+02 -0.46990334693E+02  0.19126273328E+02  0.10983825890E+03  0.89453232167E+02 0.  0.
         23    2    1    2    0    0  0.35446083291E+02  0.26019646956E+02 -0.97401220506E+02  0.14064369432E+03  0.91434151980E+02 0.  0.
        -11    1    4    4    0    0  0.13375093506E+01  0.48175035480E+02 -0.18025574515E+02  0.51454293420E+02  0.00000000000E+00 0.  1.
         11    1    4    4    0    0  0.34108573940E+02 -0.22155388524E+02 -0.79375645991E+02  0.89189400903E+02  0.00000000000E+00 0. -1.
        -11    1    3    3    0    0  0.15330588704E+02  0.14653978864E+02  0.18187556391E+02  0.27938383168E+02  0.00000000000E+00 0. -1.
         11    1    3    3    0    0 -0.53913700127E+02 -0.61644313557E+02  0.93871693686E+00  0.81899875732E+02  0.00000000000E+00 0.  1.
         21    1    1    2  502  501  0.31370281326E+01  0.20970687738E+02  0.28183894737E+02  0.35269570627E+02  0.00000000000E+00 0. -1.
<scales pt_clust_5="13000.00000" pt_clust_6="13000.00000" pt_clust_7="13000.00000" pt_clust_8="13000.00000" pt_clust_9="21.20403"></scales>
<clustering>
<clus scale="   21.204">  1  9  2 -1</clus>
<clus scale="   89.453">  7  8 -1 -1</clus>
<clus scale="   91.434">  5  6 -1 -1</clus>
<clus scale="  101.457">  1  7  2 -1</clus>
<clus scale="  103.208">  2  5  1 -1</clus>
</clustering>
</event>
<event>
 9    1  0.1434065E-005  0.1107480E+03  0.7546771E-02  0.1265252E+00
          1   -1    0    0  502    0  0.00000000000E+00  0.00000000000E+00  0.53829429351E+02  0.53829429351E+02  0.00000000000E+00 0. -1.
         -1   -1    0    0    0  501 -0.00000000000E+00 -0.00000000000E+00 -0.24788890019E+03  0.24788890019E+03  0.00000000000E+00 0.  1.
         23    2    1    2    0    0  0.33321566820E+02 -0.31389691868E+02 -0.92192164731E+02  0.14660715703E+03  0.10439647353E+03 0.  0.
         23    2    1    2    0    0 -0.28290820315E+02  0.11734708166E+02 -0.78180247779E+02  0.12392297719E+03  0.91140985532E+02 0.  0.
        -11    1    3    3    0    0 -0.33054622532E+02 -0.26596709777E+02 -0.57791333397E+02  0.71692616478E+02  0.00000000000E+00 0.  1.
         11    1    3    3    0    0  0.66376189351E+02 -0.47929820909E+01 -0.34400831334E+02  0.74914540555E+02  0.00000000000E+00 0. -1.
        -11    1    4    4    0    0 -0.53812846281E+02  0.17181706624E+02 -0.79806185416E+02  0.97775562888E+02  0.00000000000E+00 0.  1.
         11    1    4    4    0    0  0.25522025967E+02 -0.54469984575E+01  0.16259376372E+01  0.26147414305E+02  0.00000000000E+00 0. -1.
         21    1    1    2  502  501 -0.50307465049E+01  0.19654983702E+02 -0.23687058332E+02  0.31188195317E+02  0.00000000000E+00 0. -1.
<scales pt_clust_5="13000.00000" pt_clust_6="13000.00000" pt_clust_7="13000.00000" pt_clust_8="13000.00000" pt_clust_9="20.28859"></scales>
<clustering>
<clus scale="   20.289">  2  9  1 -1</clus>
<clus scale="   91.141">  7  8 -1 -1</clus>
<clus scale="   98.352">  1  7  2 -1</clus>
<clus scale="  104.396">  5  6 -1 -1</clus>
<clus scale="   98.352">  1  5  2 -1</clus>
</clustering>
</event>
<event>
 9    1  0.1434065E-005  0.1635417E+03  0.7546771E-02  0.1186293E+00
         -1   -1    0    0    0  501 -0.00000000000E+00  0.00000000000E+00  0.40888554193E+03  0.40888554193E+03  0.00000000000E+00 0.  1.
          1   -1    0    0  502    0  0.00000000000E+00 -0.00000000000E+00 -0.92463451166E+02  0.92463451166E+02  0.00000000000E+00 0. -1.
         23    2    1    2    0    0  0.12945595640E+03 -0.83716266979E+02  0.18224370404E+03  0.25856443079E+03  0.99375747564E+02 0.  0.
         23    2    1    2    0    0 -0.10112526062E+03  0.60443171012E+02  0.59833988899E+02  0.15989092680E+03  0.90029478440E+02 0.  0.
        -11    1    3    3    0    0  0.37007845249E+02  0.13799250569E+02  0.11205096012E+02  0.41055500275E+02  0.00000000000E+00 0. -1.
         11    1    3    3    0    0  0.92448111152E+02 -0.97515517548E+02  0.17103860803E+03  0.21750893052E+03  0.00000000000E+00 0.  1.
        -13    1    4    4    0    0 -0.55685751869E+02  0.17096890267E+02  0.75314219759E+02  0.95212595364E+02  0.00000000000E+00 0.  1.
         13    1    4    4    0    0 -0.45439508748E+02  0.43346280745E+02 -0.15480230860E+02  0.64678331435E+02  0.00000000000E+00 0. -1.
         21    1    1    2  502  501 -0.28330695783E+02  0.23273095967E+02  0.74344397824E+02  0.82893635505E+02  0.00000000000E+00 0.  1.
<scales pt_clust_5="13000.00000" pt_clust_6="13000.00000" pt_clust_7="13000.00000" pt_clust_8="13000.00000" pt_clust_9="36.66422"></scales>
<clustering>
<clus scale="   36.664">  1  9  2 -1</clus>
<clus scale="   90.029">  7  8 -1 -1</clus>
<clus scale="   99.376">  5  6 -1 -1</clus>
<clus scale="  158.037">  2  7  1 -1</clus>
<clus scale="  158.037">  2  5  1 -1</clus>
</clustering>
</event>
<event>
 9    1  0.1434065E-005  0.9877737E+02  0.7546771E-02  0.1283644E+00
         -1   -1    0    0    0  501 -0.00000000000E+00  0.00000000000E+00  0.26618305134E+03  0.26618305134E+03  0.00000000000E+00 0.  1.
          1   -1    0    0  502    0  0.00000000000E+00 -0.00000000000E+00 -0.30305524192E+03  0.30305524192E+03  0.00000000000E+00 0. -1.
         23    2    1    2    0    0 -0.43750174279E+01 -0.12808788397E+02 -0.78491245307E+02  0.12066030737E+03  0.90635690250E+02 0.  0.
         23    2    1    2    0    0  0.52562143078E+02 -0.56027676066E+02 -0.17803763535E+03  0.21339822610E+03  0.89104006261E+02 0.  0.
        -11    1    4    4    0    0  0.42169194128E+02 -0.30483866140E+02 -0.17838483756E+03  0.18581888305E+03  0.00000000000E+00 0. -1.
         11    1    4    4    0    0  0.10392948950E+02 -0.25543809926E+02  0.34720221214E+00  0.27579343045E+02  0.00000000000E+00 0.  1.
        -13    1    3    3    0    0  0.30740280683E+02 -0.32405685978E+02 -0.18295994474E+02  0.48268382550E+02  0.00000000000E+00 0. -1.
         13    1    3    3    0    0 -0.35115298111E+02  0.19596897581E+02 -0.60195250833E+02  0.72391924820E+02  0.00000000000E+00 0.  1.
         21    1    1    2  502  501 -0.48187125650E+02  0.68836464463E+02  0.21965669008E+03  0.23517975979E+03  0.00000000000E+00 0.  1.
<scales pt_clust_5="13000.00000" pt_clust_6="13000.00000" pt_clust_7="13000.00000" pt_clust_8="13000.00000" pt_clust_9="84.02653"></scales>
<clustering>
<clus scale="   84.027">  1  9  2 -1</clus>
<clus scale="   89.104">  5  6 -1 -1</clus>
<clus scale="   90.636">  7  8 -1 -1</clus>
<clus scale="   97.374">  2  5  1 -1</clus>
<clus scale="   97.374">  2  5  1 -1</clus>
</clustering>
</event>
<event>
 9    1  0.1434065E-005  0.1017706E+03  0.7546771E-02  0.1281824E+00
         -2   -1    0    0    0  501 -0.00000000000E+00  0.00000000000E+00  0.79995481459E+02  0.79995481459E+02  0.00000000000E+00 0.  1.
          2   -1    0    0  502    0  0.00000000000E+00 -0.00000000000E+00 -0.23094489256E+03  0.23094489256E+03  0.00000000000E+00 0. -1.
         23    2    1    2    0    0 -0.25475373367E+02  0.47404856799E+02 -0.73953911808E+02  0.12335352496E+03  0.82768931075E+02 0.  0.
         23    2    1    2    0    0 -0.25339855576E+02 -0.33885626491E+02 -0.86540467006E+02  0.13414469820E+03  0.93355255139E+02 0.  0.
        -11    1    3    3    0    0 -0.53185749426E+02  0.17733664095E+02 -0.30258974560E+02  0.63708808855E+02  0.00000000000E+00 0.  1.
         11    1    3    3    0    0  0.27710376059E+02  0.29671192705E+02 -0.43694937248E+02  0.59644716103E+02  0.00000000000E+00 0. -1.
        -13    1    4    4    0    0 -0.15530342906E+02  0.17753144979E+02  0.88811730049E+01  0.25203986617E+02  0.00000000000E+00 0.  1.
         13    1    4    4    0    0 -0.98095126700E+01 -0.51638771470E+02 -0.95421640011E+02  0.10894071158E+03  0.00000000000E+00 0. -1.
         21    1    1    2  502  501  0.50815228944E+02 -0.13519230308E+02  0.95449677089E+01  0.53442150867E+02  0.00000000000E+00 0.  1.
<scales pt_clust_5="13000.00000" pt_clust_6="13000.00000" pt_clust_7="13000.00000" pt_clust_8="13000.00000" pt_clust_9="52.58286"></scales>
<clustering>
<clus scale="   52.583">  1  9  2 -1</clus>
<clus scale="   82.769">  5  6 -1 -1</clus>
<clus scale="   92.156">  1  5  2 -1</clus>
<clus scale="   93.355">  7  8 -1 -1</clus>
<clus scale="  101.771">  2  5  1 -1</clus>
</clustering>
</event>
<event>
 9    1  0.1434065E-005  0.1108245E+03  0.7546771E-02  0.1259351E+00
         -1   -1    0    0    0  501 -0.00000000000E+00  0.00000000000E+00  0.98717679267E+02  0.98717679267E+02  0.00000000000E+00 0.  1.
          1   -1    0    0  502    0  0.00000000000E+00 -0.00000000000E+00 -0.21505940864E+03  0.21505940864E+03  0.00000000000E+00 0. -1.
         23    2    1    2    0    0 -0.33758565486E+02  0.65238167472E+02 -0.21759235126E+02  0.11961444069E+03  0.91861258811E+02 0.  0.
         23    2    1    2    0    0  0.15565068197E+02 -0.53605633167E+02 -0.11950655313E+03  0.16118495917E+03  0.92644155599E+02 0.  0.
        -13    1    4    4    0    0 -0.17512304422E+02  0.18348367438E+02 -0.13112306156E+02  0.28553037781E+02  0.00000000000E+00 0.  1.
         13    1    4    4    0    0  0.33077372619E+02 -0.71954000605E+02 -0.10639424697E+03  0.13263192139E+03  0.00000000000E+00 0. -1.
        -13    1    3    3    0    0 -0.16018618709E+02  0.78454326771E+02  0.10227276110E+02  0.80723445857E+02  0.00000000000E+00 0.  1.
         13    1    3    3    0    0 -0.17739946776E+02 -0.13216159299E+02 -0.31986511236E+02  0.38890994836E+02  0.00000000000E+00 0. -1.
         21    1    1    2  502  501  0.18193497289E+02 -0.11632534305E+02  0.24924058879E+02  0.32977688047E+02  0.00000000000E+00 0.  1.
<scales pt_clust_5="13000.00000" pt_clust_6="13000.00000" pt_clust_7="13000.00000" pt_clust_8="13000.00000" pt_clust_9="21.59443"></scales>
<clustering>
<clus scale="   21.594">  1  9  2 -1</clus>
<clus scale="   91.861">  7  8 -1 -1</clus>
<clus scale="   92.644">  5  6 -1 -1</clus>
<clus scale="  110.171">  1  7  2 -1</clus>
<clus scale="  110.825">  2  5  1 -1</clus>
</clustering>
</event>
<event>
 9    1  0.1434065E-005  0.1817938E+03  0.7546771E-02  0.1166098E+00
          2   -1    0    0  502    0  0.00000000000E+00  0.00000000000E+00  0.30802060243E+03  0.30802060243E+03  0.00000000000E+00 0. -1.
         -2   -1    0    0    0  501 -0.00000000000E+00 -0.00000000000E+00 -0.27974446101E+03  0.27974446101E+03  0.00000000000E+00 0.  1.
         23    2    1    2    0    0 -0.13852782745E+03  0.28194063003E+02 -0.17098003752E+03  0.23995964514E+03  0.91441751382E+02 0.  0.
         23    2    1    2    0    0  0.14441071534E+03 -0.69050241793E+02  0.23110047179E+03  0.29567198659E+03  0.91608432991E+02 0.  0.
        -11    1    4    4    0    0  0.17983386374E+02 -0.38836591767E+02  0.18816626252E+02  0.46751988932E+02  0.00000000000E+00 0.  1.
         11    1    4    4    0    0  0.12642732896E+03 -0.30213650027E+02  0.21228384554E+03  0.24891999766E+03  0.00000000000E+00 0. -1.
        -11    1    3    3    0    0 -0.68440586348E+02  0.59177315677E+02 -0.10705256216E+03  0.14016532958E+03  0.00000000000E+00 0.  1.
         11    1    3    3    0    0 -0.70087241107E+02 -0.30983252674E+02 -0.63927475362E+02  0.99794315561E+02  0.00000000000E+00 0. -1.
         21    1    1    2  502  501 -0.58828878833E+01  0.40856178791E+02 -0.31844292851E+02  0.52133431715E+02  0.00000000000E+00 0. -1.
<scales pt_clust_5="13000.00000" pt_clust_6="13000.00000" pt_clust_7="13000.00000" pt_clust_8="13000.00000" pt_clust_9="41.27754"></scales>
<clustering>
<clus scale="   41.278">  2  9  1 -1</clus>
<clus scale="   91.442">  7  8 -1 -1</clus>
<clus scale="   91.608">  5  6 -1 -1</clus>
<clus scale="  181.710">  2  7  1 -1</clus>
<clus scale="  181.794">  1  5  2 -1</clus>
</clustering>
</event>
<event>
 9    1  0.1434065E-005  0.1221981E+03  0.7546771E-02  0.1240990E+00
         -2   -1    0    0    0  501 -0.00000000000E+00  0.00000000000E+00  0.33415777599E+03  0.33415777599E+03  0.00000000000E+00 0.  1.
          2   -1    0    0  502    0  0.00000000000E+00 -0.00000000000E+00 -0.23342024702E+03  0.23342024702E+03  0.00000000000E+00 0. -1.
         23    2    1    2    0    0  0.56048576115E+02 -0.42649040042E+02  0.10405899138E+03  0.15416848922E+03  0.89326736636E+02 0.  0.
         23    2    1    2    0    0 -0.80917501774E+02  0.81968635904E+00 -0.18642873802E+03  0.22394599462E+03  0.94062852219E+02 0.  0.
        -13    1    4    4    0    0 -0.67077897643E+02 -0.15515405548E+02 -0.19013639005E+03  0.20221775140E+03  0.00000000000E+00 0. -1.
         13    1    4    4    0    0 -0.13839604132E+02  0.16335091907E+02  0.37076520206E+01  0.21728243225E+02  0.00000000000E+00 0.  1.
        -13    1    3    3    0    0  0.17867016215E+02 -0.62641647787E+02  0.84880457444E+02  0.10699485203E+03  0.00000000000E+00 0.  1.
         13    1    3    3    0    0  0.38181559900E+02  0.19992607745E+02  0.19178533941E+02  0.47173637182E+02  0.00000000000E+00 0. -1.
         21    1    1    2  502  501  0.24868925659E+02  0.41829353683E+02  0.18310727561E+03  0.18946353917E+03  0.00000000000E+00 0.  1.
<scales pt_clust_5="13000.00000" pt_clust_6="13000.00000" pt_clust_7="13000.00000" pt_clust_8="13000.00000" pt_clust_9="48.66373"></scales>
<clustering>
<clus scale="   48.664">  1  9  2 -1</clus>
<clus scale="   89.327">  7  8 -1 -1</clus>
<clus scale="   94.063">  5  6 -1 -1</clus>
<clus scale="  118.591">  1  7  2 -1</clus>
<clus scale="  122.198">  2  5  1 -1</clus>
</clustering>
</event>
<event>
 9    1  0.1434065E-005  0.9874231E+02  0.7546771E-02  0.1284484E+00
          2   -1    0    0  502    0  0.00000000000E+00  0.00000000000E+00  0.34477217168E+03  0.34477217168E+03  0.00000000000E+00 0. -1.
         -2   -1    0    0    0  501 -0.00000000000E+00 -0.00000000000E+00 -0.57589479296E+02  0.57589479296E+02  0.00000000000E+00 0.  1.
         23    2    1    2    0    0  0.45058432871E+02 -0.11307550339E+02  0.53735005336E+02  0.11297031362E+03  0.87844851260E+02 0.  0.
         23    2    1    2    0    0 -0.36139830783E+02 -0.96728378980E+01  0.24489273254E+03  0.26388237384E+03  0.90894475146E+02 0.  0.
        -11    1    3    3    0    0 -0.19016774509E+02  0.11985592804E+02 -0.49462687237E+01  0.23016466320E+02  0.00000000000E+00 0. -1.
         11    1    3    3    0    0  0.64075207379E+02 -0.23293143143E+02  0.58681274060E+02  0.89953847297E+02  0.00000000000E+00 0.  1.
        -11    1    4    4    0    0 -0.43995087912E+02  0.30320221251E+02  0.17498962706E+03  0.18296516925E+03  0.00000000000E+00 0.  1.
         11    1    4    4    0    0  0.78552571293E+01 -0.39993059149E+02  0.69903105473E+02  0.80917204595E+02  0.00000000000E+00 0. -1.
         21    1    1    2  502  501 -0.89186020882E+01  0.20980388237E+02 -0.11445045486E+02  0.25508963522E+02  0.00000000000E+00 0.  1.
<scales pt_clust_5="13000.00000" pt_clust_6="13000.00000" pt_clust_7="13000.00000" pt_clust_8="13000.00000" pt_clust_9="22.79733"></scales>
<clustering>
<clus scale="   22.797">  2  9  1 -1</clus>
<clus scale="   87.845">  5  6 -1 -1</clus>
<clus scale="   90.894">  7  8 -1 -1</clus>
<clus scale="   95.942">  2  5  1 -1</clus>
<clus scale="   98.742">  1  5  2 -1</clus>
</clustering>
</event>
<event>
 9    1  0.1434065E-005  0.9868747E+02  0.7546771E-02  0.1284078E+00
         -1   -1    0    0    0  501 -0.00000000000E+00  0.00000000000E+00  0.93262550198E+02  0.93262550198E+02  0.00000000000E+00 0.  1.
          1   -1    0    0  502    0  0.00000000000E+00 -0.00000000000E+00 -0.39130908295E+03  0.39130908295E+03  0.00000000000E+00 0. -1.
         23    2    1    2    0    0  0.44548352601E+01 -0.90722445837E+01  0.31108013613E+02  0.97683311956E+02  0.92044390077E+02 0.  0.
         23    2    1    2    0    0 -0.14275552377E+02  0.28948169732E+02 -0.34539537339E+03  0.35940626619E+03  0.93984638603E+02 0.  0.
        -11    1    3    3    0    0 -0.38959686353E+01  0.40507946560E+02  0.49135046269E+01  0.40990423684E+02  0.00000000000E+00 0. -1.
         11    1    3    3    0    0  0.83508038954E+01 -0.49580191144E+02  0.26194508986E+02  0.56692888272E+02  0.00000000000E+00 0.  1.
        -13    1    4    4    0    0  0.40125322684E+02  0.73198529008E+01 -0.14701815130E+03  0.15257115906E+03  0.00000000000E+00 0.  1.
         13    1    4    4    0    0 -0.54400875061E+02  0.21628316831E+02 -0.19837722209E+03  0.20683510713E+03  0.00000000000E+00 0. -1.
         21    1    1    2  502  501  0.98207171173E+01 -0.19875925148E+02  0.16240827017E+02  0.27482055007E+02  0.00000000000E+00 0.  1.
<scales pt_clust_5="13000.00000" pt_clust_6="13000.00000" pt_clust_7="13000.00000" pt_clust_8="13000.00000" pt_clust_9="22.16977"></scales>
<clustering>
<clus scale="   22.170">  1  9  2 -1</clus>
<clus scale="   92.044">  5  6 -1 -1</clus>
<clus scale="   93.985">  7  8 -1 -1</clus>
<clus scale="   96.841">  1  5  2 -1</clus>
<clus scale="   98.687">  2  5  1 -1</clus>
</clustering>
</event>
<event>
 9    1  0.1434065E-005  0.9945458E+02  0.7546771E-02  0.1282384E+00
          1   -1    0    0  502    0  0.00000000000E+00  0.00000000000E+00  0.21168309569E+03  0.21168309569E+03  0.00000000000E+00 0. -1.
         -1   -1    0    0    0  501 -0.00000000000E+00 -0.00000000000E+00 -0.98665399719E+02  0.98665399719E+02  0.00000000000E+00 0.  1.
         23    2    1    2    0    0  0.56771946250E+02  0.13568473831E+02  0.78650361885E+02  0.13312283345E+03  0.90159037247E+02 0.  0.
         23    2    1    2    0    0 -0.27138598990E+02 -0.11253654133E+02  0.80069087925E+02  0.12270828892E+03  0.88221975962E+02 0.  0.
        -13    1    3    3    0    0  0.10262369558E+02 -0.32487456651E+02  0.47435455591E+01  0.34398434457E+02  0.00000000000E+00 0.  1.
         13    1    3    3    0    0  0.46509576692E+02  0.46055930482E+02  0.73906816326E+02  0.98724398991E+02  0.00000000000E+00 0. -1.
        -13    1    4    4    0    0 -0.26268321478E+02 -0.45790658592E+02  0.26765253458E+02  0.59187734542E+02  0.00000000000E+00 0.  1.
         13    1    4    4    0    0 -0.87027751273E+00  0.34537004459E+02  0.53303834467E+02  0.63520554381E+02  0.00000000000E+00 0. -1.
         21    1    1    2  502  501 -0.29633347260E+02 -0.23148196974E+01 -0.45701753835E+02  0.54517373044E+02  0.00000000000E+00 0.  1.
<scales pt_clust_5="13000.00000" pt_clust_6="13000.00000" pt_clust_7="13000.00000" pt_clust_8="13000.00000" pt_clust_9="29.72362"></scales>
<clustering>
<clus scale="   29.724">  2  9  1 -1</clus>
<clus scale="   88.222">  7  8 -1 -1</clus>
<clus scale="   90.159">  5  6 -1 -1</clus>
<clus scale="   97.702">  1  7  2 -1</clus>
<clus scale="   97.702">  1  5  2 -1</clus>
</clustering>
</event>
<event>
 9    1  0.1434065E-005  0.1285408E+03  0.7546771E-02  0.1230356E+00
         -1   -1    0    0    0  501 -0.00000000000E+00  0.00000000000E+00  0.63598438954E+02  0.63598438954E+02  0.00000000000E+00 0.  1.
          1   -1    0    0  502    0  0.00000000000E+00 -0.00000000000E+00 -0.36791515785E+03  0.36791515785E+03  0.00000000000E+00 0. -1.
         23    2    1    2    0    0 -0.55852307204E+02  0.72135300801E+02 -0.11040887051E+03  0.16816198361E+03  0.88121235816E+02 0.  0.
         23    2    1    2    0    0  0.82229745594E+02 -0.45486964685E+02 -0.18190004018E+03  0.22398042409E+03  0.90822963734E+02 0.  0.
        -11    1    3    3    0    0 -0.31737500195E+02  0.29970255963E+02  0.40336075340E+01  0.43837827853E+02  0.00000000000E+00 0.  1.
         11    1    3    3    0    0 -0.24114807009E+02  0.42165044838E+02 -0.11444247804E+03  0.12432415575E+03  0.00000000000E+00 0. -1.
        -13    1    4    4    0    0 -0.10571356623E+02 -0.32259561052E+02 -0.29072539939E+02  0.44695027001E+02  0.00000000000E+00 0. -1.
         13    1    4    4    0    0  0.92801102217E+02 -0.13227403633E+02 -0.15282750024E+03  0.17928539709E+03  0.00000000000E+00 0.  1.
         21    1    1    2  502  501 -0.26377438390E+02 -0.26648336115E+02 -0.12007808206E+02  0.39371189106E+02  0.00000000000E+00 0. -1.
<scales pt_clust_5="13000.00000" pt_clust_6="13000.00000" pt_clust_7="13000.00000" pt_clust_8="13000.00000" pt_clust_9="37.49537"></scales>
<clustering>
<clus scale="   37.495">  1  9  2 -1</clus>
<clus scale="   88.121">  5  6 -1 -1</clus>
<clus scale="   90.823">  7  8 -1 -1</clus>
<clus scale="  126.646">  1  5  2 -1</clus>
<clus scale="  128.541">  2  5  1 -1</clus>
</clustering>
</event>
<event>
 9    1  0.1434065E-005  0.1071647E+03  0.7546771E-02  0.1267615E+00
         -1   -1    0    0    0  501 -0.00000000000E+00  0.00000000000E+00  0.14435621169E+03  0.14435621169E+03  0.00000000000E+00 0.  1.
          1   -1    0    0  502    0  0.00000000000E+00 -0.00000000000E+00 -0.10939904502E+03  0.10939904502E+03  0.00000000000E+00 0. -1.
         23    2    1    2    0    0 -0.20975253444E+02 -0.17837611751E+02  0.46664296003E+02  0.11070934402E+03  0.96544604621E+02 0.  0.
         23    2    1    2    0    0  0.38389202946E+02  0.42699511979E+02 -0.21593006342E+02  0.11112271918E+03  0.92655391474E+02 0.  0.
        -11    1    4    4    0    0  0.61705669032E+02  0.18543812661E+02  0.97831891598E+01  0.65170341174E+02  0.00000000000E+00 0.  1.
         11    1    4    4    0    0 -0.23316466086E+02  0.24155699318E+02 -0.31376195501E+02  0.45952378006E+02  0.00000000000E+00 0. -1.
        -13    1    3    3    0    0 -0.50983613684E+02 -0.15072762495E+02 -0.22998325966E+01  0.53214718485E+02  0.00000000000E+00 0.  1.
         13    1    3    3    0    0  0.30008360239E+02 -0.27648492560E+01  0.48964128600E+02  0.57494625533E+02  0.00000000000E+00 0. -1.
         21    1    1    2  502  501 -0.17413949501E+02 -0.24861900228E+02  0.98858770036E+01  0.31923193516E+02  0.00000000000E+00 0.  1.
<scales pt_clust_5="13000.00000" pt_clust_6="13000.00000" pt_clust_7="13000.00000" pt_clust_8="13000.00000" pt_clust_9="30.35391"></scales>
<clustering>
<clus scale="   30.354">  1  9  2 -1</clus>
<clus scale="   92.655">  5  6 -1 -1</clus>
<clus scale="   96.545">  7  8 -1 -1</clus>
<clus scale="  103.675">  2  5  1 -1</clus>
<clus scale="  103.675">  2  5  1 -1</clus>
</clustering>
</event>
<event>
 9    1  0.1434065E-005  0.1080293E+03  0.7546771E-02  0.1264782E+00
         -3   -1    0    0    0  501 -0.00000000000E+00  0.00000000000E+00  0.41504740172E+02  0.41504740172E+02  0.00000000000E+00 0.  1.
          3   -1    0    0  502    0  0.00000000000E+00 -0.00000000000E+00 -0.39416099103E+03  0.39416099103E+03  0.00000000000E+00 0. -1.
         23    2    1    2    0    0  0.61160175968E+02 -0.11498857312E+02 -0.12015592163E+03  0.16268702365E+03  0.90315177677E+02 0.  0.
         23    2    1    2    0    0 -0.54789266102E+02 -0.12800485589E+02 -0.22013111623E+03  0.24497792206E+03  0.91601079970E+02 0.  0.
        -11    1    3    3    0    0  0.14508421552E+02  0.26656115381E+02 -0.90628147745E+02  0.95574598858E+02  0.00000000000E+00 0. -1.
         11    1    3    3    0    0  0.46651754416E+02 -0.38154972693E+02 -0.29527773881E+02  0.67112424793E+02  0.00000000000E+00 0.  1.
        -13    1    4    4    0    0 -0.37380791918E+02 -0.51483008709E+02 -0.15119874066E+03  0.16403927264E+03  0.00000000000E+00 0.  1.
         13    1    4    4    0    0 -0.17408474184E+02  0.38682523120E+02 -0.68932375570E+02  0.80938649421E+02  0.00000000000E+00 0. -1.
         21    1    1    2  502  501 -0.63709098660E+01  0.24299342901E+02 -0.12369213003E+02  0.28000785493E+02  0.00000000000E+00 0. -1.
<scales pt_clust_5="13000.00000" pt_clust_6="13000.00000" pt_clust_7="13000.00000" pt_clust_8="13000.00000" pt_clust_9="25.12064"></scales>
<clustering>
<clus scale="   25.121">  1  9  2 -1</clus>
<clus scale="   90.315">  5  6 -1 -1</clus>
<clus scale="   91.601">  7  8 -1 -1</clus>
<clus scale="  106.941">  1  5  2 -1</clus>
<clus scale="  108.029">  2  5  1 -1</clus>
</clustering>
</event>
<event>
 9    1  0.1434065E-005  0.9311050E+02  0.7546771E-02  0.1296507E+00
          1   -1    0    0  502    0  0.00000000000E+00  0.00000000000E+00  0.21573686586E+03  0.21573686586E+03  0.00000000000E+00 0. -1.
         -1   -1    0    0    0  501 -0.00000000000E+00 -0.00000000000E+00 -0.11107126712E+03  0.11107126712E+03  0.00000000000E+00 0.  1.
         23    2    1    2    0    0  0.39837354481E+02  0.36842618784E+00 -0.37416194285E+02  0.10577167084E+03  0.90556745787E+02 0.  0.
         23    2    1    2    0    0 -0.82056907107E+01 -0.20366982333E+02  0.15623406115E+03  0.18102657469E+03  0.88765936888E+02 0.  0.
        -11    1    3    3    0    0  0.60513514907E+02  0.16328329220E+02 -0.32455362088E+01  0.62761718641E+02  0.00000000000E+00 0.  1.
         11    1    3    3    0    0 -0.20676160426E+02 -0.15959903032E+02 -0.34170658076E+02  0.43009952199E+02  0.00000000000E+00 0. -1.
        -13    1    4    4    0    0 -0.99376850805E+01  0.17553464033E+02 -0.77833194413E-01  0.20171458607E+02  0.00000000000E+00 0.  1.
         13    1    4    4    0    0  0.17319943699E+01 -0.37920446367E+02  0.15631189434E+03  0.16085511608E+03  0.00000000000E+00 0. -1.
         21    1    1    2  502  501 -0.31631663770E+02  0.19998556146E+02 -0.14152268125E+02  0.40009887451E+02  0.00000000000E+00 0. -1.
<scales pt_clust_5="13000.00000" pt_clust_6="13000.00000" pt_clust_7="13000.00000" pt_clust_8="13000.00000" pt_clust_9="37.42331"></scales>
<clustering>
<clus scale="   37.423">  2  9  1 -1</clus>
<clus scale="   88.766">  7  8 -1 -1</clus>
<clus scale="   90.557">  5  6 -1 -1</clus>
<clus scale="   91.370">  1  7  2 -1</clus>
<clus scale="   91.370">  1  5  2 -1</clus>
</clustering>
</event>
<event>
 9    1  0.1434065E-005  0.9581000E+02  0.7546771E-02  0.1292212E+00
          1   -1    0    0  502    0  0.00000000000E+00  0.00000000000E+00  0.15255478863E+03  0.15255478863E+03  0.00000000000E+00 0. -1.
         -1   -1    0    0    0  501 -0.00000000000E+00 -0.00000000000E+00 -0.14009176061E+03  0.14009176061E+03  0.00000000000E+00 0.  1.
         23    2    1    2    0    0  0.14897739326E+02 -0.27716123309E+02 -0.68508029324E+02  0.11665745837E+03  0.89025200836E+02 0.  0.
         23    2    1    2    0    0 -0.38440427157E+02  0.34620462377E+01  0.10099733666E+03  0.13670079403E+03  0.83648029686E+02 0.  0.
        -13    1    4    4    0    0 -0.62346927489E+02  0.15854578491E+02  0.62274198554E+02  0.89535371959E+02  0.00000000000E+00 0. -1.
         13    1    4    4    0    0  0.23906500332E+02 -0.12392532253E+02  0.38723138107E+02  0.47165422066E+02  0.00000000000E+00 0.  1.
        -13    1    3    3    0    0 -0.12646315139E+02  0.28169802377E+02 -0.31885014684E+02  0.44386047515E+02  0.00000000000E+00 0.  1.
         13    1    3    3    0    0  0.27544054465E+02 -0.55885925686E+02 -0.36623014639E+02  0.72271410858E+02  0.00000000000E+00 0. -1.
         21    1    1    2  502  501  0.23542687831E+02  0.24254077071E+02 -0.20026279321E+02  0.39288296836E+02  0.00000000000E+00 0. -1.
<scales pt_clust_5="13000.00000" pt_clust_6="13000.00000" pt_clust_7="13000.00000" pt_clust_8="13000.00000" pt_clust_9="33.80116"></scales>
<clustering>
<clus scale="   33.801">  2  9  1 -1</clus>
<clus scale="   83.648">  5  6 -1 -1</clus>
<clus scale="   89.025">  7  8 -1 -1</clus>
<clus scale="   90.835">  1  5  2 -1</clus>
<clus scale="   90.835">  1  5  2 -1</clus>
</clustering>
</event>
<event>
 9    1  0.1434065E-005  0.9260526E+02  0.7546771E-02  0.1296876E+00
         -2   -1    0    0    0  501 -0.00000000000E+00  0.00000000000E+00  0.32972698786E+02  0.32972698786E+02  0.00000000000E+00 0.  1.
          2   -1    0    0  502    0  0.00000000000E+00 -0.00000000000E+00 -0.47353554864E+03  0.47353554864E+03  0.00000000000E+00 0. -1.
         23    2    1    2    0    0 -0.22316113479E+02 -0.21499206492E+01 -0.79484355060E+02  0.12242965497E+03  0.90380454947E+02 0.  0.
         23    2    1    2    0    0  0.64248838344E+01  0.19342765085E+02 -0.34027579925E+03  0.35275963301E+03  0.90754159291E+02 0.  0.
        -11    1    4    4    0    0 -0.38662874095E+02  0.25145932375E+02 -0.20218155558E+03  0.20737530510E+03  0.00000000000E+00 0.  1.
         11    1    4    4    0    0  0.45087757929E+02 -0.58031672897E+01 -0.13809424368E+03  0.14538432791E+03  0.00000000000E+00 0. -1.
        -11    1    3    3    0    0  0.34349273997E+02 -0.97754602039E+01 -0.34790716368E+02  0.49858060449E+02  0.00000000000E+00 0. -1.
         11    1    3    3    0    0 -0.56665387476E+02  0.76255395547E+01 -0.44693638691E+02  0.72571594517E+02  0.00000000000E+00 0.  1.
         21    1    1    2  502  501  0.15891229644E+02 -0.17192844436E+02 -0.20802695540E+02  0.31318959452E+02  0.00000000000E+00 0.  1.
<scales pt_clust_5="13000.00000" pt_clust_6="13000.00000" pt_clust_7="13000.00000" pt_clust_8="13000.00000" pt_clust_9="23.41207"></scales>
<clustering>
<clus scale="   23.412">  1  9  2 -1</clus>
<clus scale="   90.380">  7  8 -1 -1</clus>
<clus scale="   90.754">  5  6 -1 -1</clus>
<clus scale="   92.239">  1  7  2 -1</clus>
<clus scale="   92.605">  2  5  1 -1</clus>
</clustering>
</event>
<event>
 9    1  0.1434065E-005  0.1217522E+03  0.7546771E-02  0.1240311E+00
         -2   -1    0    0    0  501 -0.00000000000E+00  0.00000000000E+00  0.19426629743E+03  0.19426629743E+03  0.00000000000E+00 0.  1.
          2   -1    0    0  502    0  0.00000000000E+00 -0.00000000000E+00 -0.13357046904E+03  0.13357046904E+03  0.00000000000E+00 0. -1.
         23    2    1    2    0    0 -0.89682147969E+02 -0.27952148962E+02  0.27635250976E+02  0.13383484589E+03  0.91235128007E+02 0.  0.
         23    2    1    2    0    0  0.71160490606E+02  0.16654407288E+02 -0.35285367499E+02  0.12229516396E+03  0.91486967725E+02 0.  0.
        -13    1    4    4    0    0  0.61206720902E+02 -0.21757500907E+02  0.57493326505E+01  0.65212777546E+02  0.00000000000E+00 0.  1.
         13    1    4    4    0    0  0.99537697036E+01  0.38411908195E+02 -0.41034700150E+02  0.57082386416E+02  0.00000000000E+00 0. -1.
        -13    1    3    3    0    0 -0.48782980213E+02 -0.52648421053E+02 -0.10714542056E+02  0.72570219851E+02  0.00000000000E+00 0.  1.
         13    1    3    3    0    0 -0.40899167756E+02  0.24696272091E+02  0.38349793032E+02  0.61264626041E+02  0.00000000000E+00 0. -1.
         21    1    1    2  502  501  0.18521657363E+02  0.11297741674E+02  0.68345944914E+02  0.71706756618E+02  0.00000000000E+00 0. -1.
<scales pt_clust_5="13000.00000" pt_clust_6="13000.00000" pt_clust_7="13000.00000" pt_clust_8="13000.00000" pt_clust_9="21.69541"></scales>
<clustering>
<clus scale="   21.695">  1  9  2 -1</clus>
<clus scale="   91.235">  7  8 -1 -1</clus>
<clus scale="   91.487">  5  6 -1 -1</clus>
<clus scale="  121.563">  1  7  2 -1</clus>
<clus scale="  121.752">  2  5  1 -1</clus>
</clustering>
</event>
<event>
 9    1  0.1434065E-005  0.9673040E+02  0.7546771E-02  0.1287663E+00
          2   -1    0    0  502    0  0.00000000000E+00  0.00000000000E+00  0.13617423022E+03  0.13617423022E+03  0.00000000000E+00 0. -1.
         -2   -1    0    0    0  501 -0.00000000000E+00 -0.00000000000E+00 -0.12247401130E+03  0.12247401130E+03  0.00000000000E+00 0.  1.
         23    2    1    2    0    0  0.15224140481E+02  0.12083210082E+02 -0.42722187657E+02  0.10227611565E+03  0.90870457772E+02 0.  0.
         23    2    1    2    0    0 -0.14303940317E+01 -0.39971500837E+02  0.71433410431E+02  0.12182716330E+03  0.90218394385E+02 0.  0.
        -13    1    4    4    0    0 -0.25583511580E+02 -0.57449354744E+02  0.66643403377E+02  0.91631259071E+02  0.00000000000E+00 0. -1.
         13    1    4    4    0    0  0.24153117549E+02  0.17477853908E+02  0.47900070541E+01  0.30195904227E+02  0.00000000000E+00 0.  1.
        -13    1    3    3    0    0 -0.29157269001E+02 -0.21324252997E+02 -0.87704783079E+01  0.37172454737E+02  0.00000000000E+00 0. -1.
         13    1    3    3    0    0  0.44381409482E+02  0.33407463079E+02 -0.33951709349E+02  0.65103660916E+02  0.00000000000E+00 0.  1.
         21    1    1    2  502  501 -0.13793746450E+02  0.27888290754E+02 -0.15011003850E+02  0.34544962569E+02  0.00000000000E+00 0.  1.
<scales pt_clust_5="13000.00000" pt_clust_6="13000.00000" pt_clust_7="13000.00000" pt_clust_8="13000.00000" pt_clust_9="31.11309"></scales>
<clustering>
<clus scale="   31.113">  2  9  1 -1</clus>
<clus scale="   90.218">  5  6 -1 -1</clus>
<clus scale="   90.870">  7  8 -1 -1</clus>
<clus scale="   96.118">  1  5  2 -1</clus>
<clus scale="   96.118">  1  5  2 -1</clus>
</clustering>
</event>
<event>
 9    1  0.1434065E-005  0.9814859E+02  0.7546771E-02  0.1285612E+00
         -2   -1    0    0    0  501 -0.00000000000E+00  0.00000000000E+00  0.71898374083E+02  0.71898374083E+02  0.00000000000E+00 0.  1.
          2   -1    0    0  502    0  0.00000000000E+00 -0.00000000000E+00 -0.32473720634E+03  0.32473720634E+03  0.00000000000E+00 0. -1.
         23    2    1    2    0    0  0.27365687792E+02  0.44779643389E+02 -0.66434189568E+02  0.12788385934E+03  0.95847183605E+02 0.  0.
         23    2    1    2    0    0 -0.25446503842E+01 -0.10602669440E+02 -0.20276480804E+03  0.22345487289E+03  0.93271758816E+02 0.  0.
        -13    1    4    4    0    0 -0.81707664197E+01 -0.44855763773E+02 -0.16895332840E+03  0.17499722325E+03  0.00000000000E+00 0. -1.
         13    1    4    4    0    0  0.56261160355E+01  0.34253094333E+02 -0.33811479641E+02  0.48457649639E+02  0.00000000000E+00 0.  1.
        -13    1    3    3    0    0 -0.14148044583E+02  0.15709829681E+02 -0.73712197985E+02  0.76684118603E+02  0.00000000000E+00 0. -1.
         13    1    3    3    0    0  0.41513732375E+02  0.29069813708E+02  0.72780084167E+01  0.51199740734E+02  0.00000000000E+00 0.  1.
         21    1    1    2  502  501 -0.24821037408E+02 -0.34176973949E+02  0.16360165352E+02  0.45296848198E+02  0.00000000000E+00 0. -1.
<scales pt_clust_5="13000.00000" pt_clust_6="13000.00000" pt_clust_7="13000.00000" pt_clust_8="13000.00000" pt_clust_9="42.23919"></scales>
<clustering>
<clus scale="   42.239">  1  9  2 -1</clus>
<clus scale="   93.272">  5  6 -1 -1</clus>
<clus scale="   95.635">  2  5  1 -1</clus>
<clus scale="   95.847">  7  8 -1 -1</clus>
<clus scale="   95.635">  2  5  1 -1</clus>
</clustering>
</event>
<event>
 9    1  0.1434065E-005  0.9119207E+02  0.7546771E-02  0.1302233E+00
          4   -1    0    0  502    0  0.00000000000E+00  0.00000000000E+00  0.50757273950E+03  0.50757273950E+03  0.00000000000E+00 0. -1.
         -4   -1    0    0    0  501 -0.00000000000E+00 -0.00000000000E+00 -0.27188635927E+02  0.27188635927E+02  0.00000000000E+00 0.  1.
         23    2    1    2    0    0  0.31999008978E+02  0.63684450307E+01  0.11575476564E+03  0.14774092881E+03  0.85812135560E+02 0.  0.
         23    2    1    2    0    0 -0.90792920634E+01 -0.84682832855E+01  0.34536475366E+03  0.35700633408E+03  0.89568767646E+02 0.  0.
        -11    1    4    4    0    0 -0.45186700594E+02 -0.23640143111E+02  0.20869178152E+03  0.21483238571E+03  0.00000000000E+00 0.  1.
         11    1    4    4    0    0  0.36107408531E+02  0.15171859825E+02  0.13667297213E+03  0.14217394836E+03  0.00000000000E+00 0. -1.
        -13    1    3    3    0    0  0.12209857141E+02 -0.39763612069E+02  0.51268559039E+02  0.66020380203E+02  0.00000000000E+00 0.  1.
         13    1    3    3    0    0  0.19789151837E+02  0.46132057100E+02  0.64486206600E+02  0.81720548606E+02  0.00000000000E+00 0. -1.
         21    1    1    2  502  501 -0.22919716915E+02  0.20998382548E+01  0.19264584274E+02  0.30014112537E+02  0.00000000000E+00 0.  1.
<scales pt_clust_5="13000.00000" pt_clust_6="13000.00000" pt_clust_7="13000.00000" pt_clust_8="13000.00000" pt_clust_9="23.01571"></scales>
<clustering>
<clus scale="   23.016">  2  9  1 -1</clus>
<clus scale="   85.812">  7  8 -1 -1</clus>
<clus scale="   87.505">  2  7  1 -1</clus>
<clus scale="   89.569">  5  6 -1 -1</clus>
<clus scale="   91.192">  1  5  2 -1</clus>
</clustering>
</event>
<event>
 9    1  0.1434065E-005  0.1362694E+03  0.7546771E-02  0.1218580E+00
          2   -1    0    0  502    0  0.00000000000E+00  0.00000000000E+00  0.98915985948E+03  0.98915985948E+03  0.00000000000E+00 0. -1.
         -2   -1    0    0    0  501 -0.00000000000E+00 -0.00000000000E+00 -0.27565860841E+02  0.27565860841E+02  0.00000000000E+00 0.  1.
         23    2    1    2    0    0 -0.51910683182E+02 -0.83837801707E+02  0.28450091110E+03  0.31422046484E+03  0.89834492751E+02 0.  0.
         23    2    1    2    0    0  0.77826670406E+02  0.70327322417E+02  0.64231078790E+03  0.65707421089E+03  0.90445826050E+02 0.  0.
        -11    1    4    4    0    0 -0.17016351085E+02  0.20556463890E+02  0.71858864403E+02  0.76653902740E+02  0.00000000000E+00 0.  1.
         11    1    4    4    0    0  0.94843021490E+02  0.49770858527E+02  0.57045192350E+03  0.58042030815E+03  0.00000000000E+00 0. -1.
        -13    1    3    3    0    0 -0.21036944818E+02 -0.68017142171E+02  0.81248356933E+02  0.10802860816E+03  0.00000000000E+00 0.  1.
         13    1    3    3    0    0 -0.30873738364E+02 -0.15820659535E+02  0.20325255416E+03  0.20619185669E+03  0.00000000000E+00 0. -1.
         21    1    1    2  502  501 -0.25915987224E+02  0.13510479289E+02  0.34782299633E+02  0.45431044586E+02  0.00000000000E+00 0. -1.
<scales pt_clust_5="13000.00000" pt_clust_6="13000.00000" pt_clust_7="13000.00000" pt_clust_8="13000.00000" pt_clust_9="29.22621"></scales>
<clustering>
<clus scale="   29.226">  2  9  1 -1</clus>
<clus scale="   89.834">  7  8 -1 -1</clus>
<clus scale="   90.446">  5  6 -1 -1</clus>
<clus scale="  135.864">  2  7  1 -1</clus>
<clus scale="  136.269">  1  5  2 -1</clus>
</clustering>
</event>
<event>
 9    1  0.1434065E-005  0.9466200E+02  0.7546771E-02  0.1291957E+00
          1   -1    0    0  502    0  0.00000000000E+00  0.00000000000E+00  0.59093558103E+03  0.59093558103E+03  0.00000000000E+00 0. -1.
         -1   -1    0    0    0  501 -0.00000000000E+00 -0.00000000000E+00 -0.43068861328E+02  0.43068861328E+02  0.00000000000E+00 0.  1.
         23    2    1    2    0    0  0.12059125030E+02  0.39652761309E+02  0.97408658181E+02  0.14018610568E+03  0.91901760380E+02 0.  0.
         23    2    1    2    0    0  0.22671988949E+02 -0.10500221960E+02  0.43592732201E+03  0.44620254917E+03  0.91868444353E+02 0.  0.
        -11    1    3    3    0    0 -0.35759641421E+00  0.68076375708E+02  0.54311325581E+02  0.87087547279E+02  0.00000000000E+00 0.  1.
         11    1    3    3    0    0  0.12416721444E+02 -0.28423614399E+02  0.43097332599E+02  0.53098558399E+02  0.00000000000E+00 0. -1.
        -13    1    4    4    0    0 -0.33020412577E+02  0.10562022224E+02  0.13056128499E+03  0.13508572500E+03  0.00000000000E+00 0.  1.
         13    1    4    4    0    0  0.55692401526E+02 -0.21062244184E+02  0.30536603702E+03  0.31111682417E+03  0.00000000000E+00 0. -1.
         21    1    1    2  502  501 -0.34731113980E+02 -0.29152539349E+02  0.14530739503E+02  0.47615787500E+02  0.00000000000E+00 0. -1.
<scales pt_clust_5="13000.00000" pt_clust_6="13000.00000" pt_clust_7="13000.00000" pt_clust_8="13000.00000" pt_clust_9="45.34447"></scales>
<clustering>
<clus scale="   45.344">  2  9  1 -1</clus>
<clus scale="   91.868">  7  8 -1 -1</clus>
<clus scale="   91.902">  5  6 -1 -1</clus>
<clus scale="   94.630">  1  7  2 -1</clus>
<clus scale="   94.630">  1  5  2 -1</clus>
</clustering>
</event>
<event>
 9    1  0.1434065E-005  0.1144877E+03  0.7546771E-02  0.1253949E+00
         -2   -1    0    0    0  501 -0.00000000000E+00  0.00000000000E+00  0.88259266755E+03  0.88259266755E+03  0.00000000000E+00 0.  1.
          2   -1    0    0  502    0  0.00000000000E+00 -0.00000000000E+00 -0.30538644669E+02  0.30538644669E+02  0.00000000000E+00 0. -1.
         23    2    1    2    0    0  0.42741912144E+02  0.81361136643E+02  0.51933963941E+03  0.53571622955E+03  0.93977188408E+02 0.  0.
         23    2    1    2    0    0  0.83401120842E+01 -0.60417243116E+02  0.14160842688E+03  0.17849422775E+03  0.89930206492E+02 0.  0.
        -11    1    3    3    0    0  0.57548465684E+02  0.18209839993E+02  0.33258191361E+03  0.33801501955E+03  0.00000000000E+00 0.  1.
         11    1    3    3    0    0 -0.14806553540E+02  0.63151296651E+02  0.18675772579E+03  0.19770121001E+03  0.00000000000E+00 0. -1.
        -13    1    4    4    0    0 -0.77399915172E+01 -0.79440357326E+02  0.84746531544E+02  0.11641585996E+03  0.00000000000E+00 0. -1.
         13    1    4    4    0    0  0.16080103601E+02  0.19023114210E+02  0.56861895338E+02  0.62078367791E+02  0.00000000000E+00 0.  1.
         21    1    1    2  502  501 -0.51082024228E+02 -0.20943893527E+02  0.19110595659E+03  0.19892085492E+03  0.00000000000E+00 0. -1.
<scales pt_clust_5="13000.00000" pt_clust_6="13000.00000" pt_clust_7="13000.00000" pt_clust_8="13000.00000" pt_clust_9="55.20887"></scales>
<clustering>
<clus scale="   55.209">  1  9  2 -1</clus>
<clus scale="   89.930">  7  8 -1 -1</clus>
<clus scale="   93.977">  5  6 -1 -1</clus>
<clus scale="  111.190">  2  7  1 -1</clus>
<clus scale="  111.190">  2  5  1 -1</clus>
</clustering>
</event>
<event>
 9    1  0.1434065E-005  0.1588202E+03  0.7546771E-02  0.1190384E+00
         -1   -1    0    0    0  501 -0.00000000000E+00  0.00000000000E+00  0.25516004873E+03  0.25516004873E+03  0.00000000000E+00 0.  1.
          1   -1    0    0  502    0  0.00000000000E+00 -0.00000000000E+00 -0.27285554843E+03  0.27285554843E+03  0.00000000000E+00 0. -1.
         23    2    1    2    0    0  0.14476591758E+03 -0.42430892684E+02  0.96649490312E+02  0.20022985428E+03  0.89405363479E+02 0.  0.
         23    2    1    2    0    0 -0.11332152445E+03  0.59672600163E+02 -0.18933690697E+03  0.24466045224E+03  0.87222046745E+02 0.  0.
        -13    1    4    4    0    0 -0.94367501471E+01  0.48706958006E+02 -0.49186829192E+02  0.69862466157E+02  0.00000000000E+00 0.  1.
         13    1    4    4    0    0 -0.10388477430E+03  0.10965642157E+02 -0.14015007778E+03  0.17479798609E+03  0.00000000000E+00 0. -1.
        -13    1    3    3    0    0  0.10439344953E+03 -0.48193455090E+02  0.10815665120E+03  0.15785582858E+03  0.00000000000E+00 0.  1.
         13    1    3    3    0    0  0.40372468052E+02  0.57625624056E+01 -0.11507160887E+02  0.42374025697E+02  0.00000000000E+00 0. -1.
         21    1    1    2  502  501 -0.31444393137E+02 -0.17241707479E+02  0.74991916950E+02  0.83125290642E+02  0.00000000000E+00 0.  1.
<scales pt_clust_5="13000.00000" pt_clust_6="13000.00000" pt_clust_7="13000.00000" pt_clust_8="13000.00000" pt_clust_9="35.86121"></scales>
<clustering>
<clus scale="   35.861">  1  9  2 -1</clus>
<clus scale="   87.222">  5  6 -1 -1</clus>
<clus scale="   89.405">  7  8 -1 -1</clus>
<clus scale="  157.601">  2  5  1 -1</clus>
<clus scale="  157.601">  2  5  1 -1</clus>
</clustering>
</event>
<event>
 9    1  0.1434065E-005  0.1099848E+03  0.7546771E-02  0.1260839E+00
         -2   -1    0    0    0  501 -0.00000000000E+00  0.00000000000E+00  0.61421958414E+02  0.61421958414E+02  0.00000000000E+00 0.  1.
          2   -1    0    0  502    0  0.00000000000E+00 -0.00000000000E+00 -0.26970999317E+03  0.26970999317E+03  0.00000000000E+00 0. -1.
         23    2    1    2    0    0 -0.36627144666E+02  0.62557758309E+02 -0.43334592409E+02  0.12083806721E+03  0.86422975745E+02 0.  0.
         23    2    1    2    0    0  0.47175840645E+02 -0.45542554106E+02 -0.14940826456E+03  0.18494739126E+03  0.87080559472E+02 0.  0.
        -13    1    4    4    0    0 -0.16280261702E+02  0.13822840114E+02 -0.21419565152E+02  0.30247571823E+02  0.00000000000E+00 0.  1.
         13    1    4    4    0    0  0.63456102347E+02 -0.59365394220E+02 -0.12798869941E+03  0.15469981943E+03  0.00000000000E+00 0. -1.
        -13    1    3    3    0    0  0.14373327656E+02  0.54632564160E+02 -0.53295674459E+01  0.56742522889E+02  0.00000000000E+00 0.  1.
         13    1    3    3    0    0 -0.51000472322E+02  0.79251941489E+01 -0.38005024963E+02  0.64095544321E+02  0.00000000000E+00 0. -1.
         21    1    1    2  502  501 -0.10548695980E+02 -0.17015204203E+02 -0.15545177780E+02  0.25346493113E+02  0.00000000000E+00 0. -1.
<scales pt_clust_5="13000.00000" pt_clust_6="13000.00000" pt_clust_7="13000.00000" pt_clust_8="13000.00000" pt_clust_9="20.01979"></scales>
<clustering>
<clus scale="   20.020">  1  9  2 -1</clus>
<clus scale="   86.423">  7  8 -1 -1</clus>
<clus scale="   87.081">  5  6 -1 -1</clus>
<clus scale="  109.465">  1  7  2 -1</clus>
<clus scale="  109.985">  2  5  1 -1</clus>
</clustering>
</event>
<event>
 9    1  0.1434065E-005  0.1281031E+03  0.7546771E-02  0.1236653E+00
         -2   -1    0    0    0  501 -0.00000000000E+00  0.00000000000E+00  0.59522121119E+02  0.59522121119E+02  0.00000000000E+00 0.  1.
          2   -1    0    0  502    0  0.00000000000E+00 -0.00000000000E+00 -0.37159546452E+03  0.37159546452E+03  0.00000000000E+00 0. -1.
         23    2    1    2    0    0  0.38972223083E+02  0.81528012937E+02 -0.18016285415E+03  0.22930165023E+03  0.10933865611E+03 0.  0.
         23    2    1    2    0    0 -0.33458493709E+02 -0.35335293407E+02 -0.10960852808E+03  0.15022576172E+03  0.90474837910E+02 0.  0.
        -11    1    4    4    0    0  0.16048487493E+02  0.18406608669E+02 -0.93134536974E+01  0.26136136158E+02  0.00000000000E+00 0. -1.
         11    1    4    4    0    0 -0.49506981202E+02 -0.53741902076E+02 -0.10029507438E+03  0.12408962556E+03  0.00000000000E+00 0.  1.
        -13    1    3    3    0    0  0.41067607723E+02  0.38458320721E+02 -0.17738218042E+03  0.18609145270E+03  0.00000000000E+00 0. -1.
         13    1    3    3    0    0 -0.20953846397E+01  0.43069692216E+02 -0.27806737221E+01  0.43210197531E+02  0.00000000000E+00 0.  1.
         21    1    1    2  502  501 -0.55137293742E+01 -0.46192719530E+02 -0.22301961182E+02  0.51590173693E+02  0.00000000000E+00 0. -1.
<scales pt_clust_5="13000.00000" pt_clust_6="13000.00000" pt_clust_7="13000.00000" pt_clust_8="13000.00000" pt_clust_9="46.52062"></scales>
<clustering>
<clus scale="   46.521">  1  9  2 -1</clus>
<clus scale="   90.475">  5  6 -1 -1</clus>
<clus scale="  109.339">  7  8 -1 -1</clus>
<clus scale="  112.433">  2  5  1 -1</clus>
<clus scale="  112.433">  2  5  1 -1</clus>
</clustering>
</event>
<event>
 9    1  0.1434065E-005  0.9869153E+02  0.7546771E-02  0.1286726E+00
         -1   -1    0    0    0  501 -0.00000000000E+00  0.00000000000E+00  0.37382355495E+02  0.37382355495E+02  0.00000000000E+00 0.  1.
          1   -1    0    0  502    0  0.00000000000E+00 -0.00000000000E+00 -0.40317563287E+03  0.40317563287E+03  0.00000000000E+00 0. -1.
         23    2    1    2    0    0 -0.14091525229E+02 -0.45890839703E+02 -0.88587471119E+02  0.13613750829E+03  0.91548571110E+02 0.  0.
         23    2    1    2    0    0 -0.38262268496E+01  0.33957040397E+02 -0.26375878787E+03  0.27903773576E+03  0.84413501261E+02 0.  0.
        -11    1    4    4    0    0  0.39697999684E+02  0.20550764447E+02 -0.11195093424E+03  0.12054574557E+03  0.00000000000E+00 0. -1.
         11    1    4    4    0    0 -0.43524226533E+02  0.13406275950E+02 -0.15180785363E+03  0.15849199019E+03  0.00000000000E+00 0.  1.
        -13    1    3    3    0    0 -0.45642413923E+02 -0.49171662740E+02 -0.77568677176E+02  0.10255721352E+03  0.00000000000E+00 0.  1.
         13    1    3    3    0    0  0.31550888694E+02  0.32808230369E+01 -0.11018793943E+02  0.33580294774E+02  0.00000000000E+00 0. -1.
         21    1    1    2  502  501  0.17917752079E+02  0.11933799306E+02 -0.13447018382E+02  0.25382744312E+02  0.00000000000E+00 0. -1.
<scales pt_clust_5="13000.00000" pt_clust_6="13000.00000" pt_clust_7="13000.00000" pt_clust_8="13000.00000" pt_clust_9="21.52815"></scales>
<clustering>
<clus scale="   21.528">  1  9  2 -1</clus>
<clus scale="   84.414">  5  6 -1 -1</clus>
<clus scale="   91.549">  7  8 -1 -1</clus>
<clus scale="   92.111">  2  5  1 -1</clus>
<clus scale="   92.111">  2  5  1 -1</clus>
</clustering>
</event>
<event>
 9    1  0.1434065E-005  0.1597662E+03  0.7546771E-02  0.1189751E+00
          2   -1    0    0  502    0  0.00000000000E+00  0.00000000000E+00  0.35313102693E+03  0.35313102693E+03  0.00000000000E+00 0. -1.
         -2   -1    0    0    0  501 -0.00000000000E+00 -0.00000000000E+00 -0.10834020299E+03  0.10834020299E+03  0.00000000000E+00 0.  1.
         23    2    1    2    0    0 -0.12848252898E+03  0.61791902307E+02  0.21648348535E+02  0.17378290395E+03  0.96983747427E+02 0.  0.
         23    2    1    2    0    0  0.11519758155E+03 -0.40229486748E+02  0.20783222460E+03  0.25809387764E+03  0.92354326869E+02 0.  0.
        -11    1    4    4    0    0  0.16675882108E+02 -0.51034552927E+02  0.79838000634E+02  0.96211833897E+02  0.00000000000E+00 0. -1.
         11    1    4    4    0    0  0.98521699443E+02  0.10805066180E+02  0.12799422397E+03  0.16188204374E+03  0.00000000000E+00 0.  1.
        -13    1    3    3    0    0  0.70822148961E+01  0.32118856830E+02  0.10658009658E+02  0.34574150774E+02  0.00000000000E+00 0.  1.
         13    1    3    3    0    0 -0.13556474388E+03  0.29673045477E+02  0.10990338878E+02  0.13920875317E+03  0.00000000000E+00 0. -1.
         21    1    1    2  502  501  0.13284947433E+02 -0.21562415559E+02  0.15310250797E+02  0.29594448340E+02  0.00000000000E+00 0.  1.
<scales pt_clust_5="13000.00000" pt_clust_6="13000.00000" pt_clust_7="13000.00000" pt_clust_8="13000.00000" pt_clust_9="25.32642"></scales>
<clustering>
<clus scale="   25.326">  2  9  1 -1</clus>
<clus scale="   92.354">  5  6 -1 -1</clus>
<clus scale="   96.984">  7  8 -1 -1</clus>
<clus scale="  156.999">  1  5  2 -1</clus>
<clus scale="  156.999">  1  5  2 -1</clus>
</clustering>
</event>
<event>
 9    1  0.1434065E-005  0.1156630E+03  0.7546771E-02  0.1251271E+00
         -1   -1    0    0    0  501 -0.00000000000E+00  0.00000000000E+00  0.29872324651E+03  0.29872324651E+03  0.00000000000E+00 0.  1.
          1   -1    0    0  502    0  0.00000000000E+00 -0.00000000000E+00 -0.66634261652E+02  0.66634261652E+02  0.00000000000E+00 0. -1.
         23    2    1    2    0    0 -0.10062372966E+02  0.74004250784E+02  0.10236645028E+03  0.15555883589E+03  0.90231816987E+02 0.  0.
         23    2    1    2    0    0  0.33537741772E+02 -0.58772646397E+02  0.49715055703E+02  0.12503847295E+03  0.92650034363E+02 0.  0.
        -13    1    4    4    0    0  0.44344543121E+02  0.31194598002E+01  0.43007117079E+02  0.61852903356E+02  0.00000000000E+00 0.  1.
         13    1    4    4    0    0 -0.10806801349E+02 -0.61892106197E+02  0.67079386240E+01  0.63185569598E+02  0.00000000000E+00 0. -1.
        -13    1    3    3    0    0 -0.37874540934E+02  0.33140981601E+02  0.10755782784E+02  0.51463505281E+02  0.00000000000E+00 0.  1.
         13    1    3    3    0    0  0.27812167969E+02  0.40863269183E+02  0.91610667500E+02  0.10409533061E+03  0.00000000000E+00 0. -1.
         21    1    1    2  502  501 -0.23475368806E+02 -0.15231604387E+02  0.80007478871E+02  0.84760199316E+02  0.00000000000E+00 0.  1.
<scales pt_clust_5="13000.00000" pt_clust_6="13000.00000" pt_clust_7="13000.00000" pt_clust_8="13000.00000" pt_clust_9="27.98383"></scales>
<clustering>
<clus scale="   27.984">  1  9  2 -1</clus>
<clus scale="   90.232">  7  8 -1 -1</clus>
<clus scale="   92.650">  5  6 -1 -1</clus>
<clus scale="  113.735">  1  7  2 -1</clus>
<clus scale="  115.663">  2  5  1 -1</clus>
</clustering>
</event>
<event>
 9    1  0.1434065E-005  0.1216919E+03  0.7546771E-02  0.1241279E+00
         -2   -1    0    0    0  501 -0.00000000000E+00  0.00000000000E+00  0.90648383040E+03  0.90648383040E+03  0.00000000000E+00 0.  1.
          2   -1    0    0  502    0  0.00000000000E+00 -0.00000000000E+00 -0.32852250455E+02  0.32852250455E+02  0.00000000000E+00 0. -1.
         23    2    1    2    0    0  0.44097656341E+01  0.84130424047E+02  0.70298563987E+03  0.71431414353E+03  0.94649413640E+02 0.  0.
         23    2    1    2    0    0 -0.75952384809E+00 -0.54630383164E+02  0.16214861746E+03  0.19410622661E+03  0.91651499841E+02 0.  0.
        -11    1    4    4    0    0  0.11799655578E+02  0.24166870327E+02  0.42310947607E+02  0.50134676428E+02  0.00000000000E+00 0.  1.
         11    1    4    4    0    0 -0.12559179427E+02 -0.78797253491E+02  0.11983766985E+03  0.14397155018E+03  0.00000000000E+00 0. -1.
        -13    1    3    3    0    0  0.14221079797E+02  0.10301643077E+03  0.61894820018E+03  0.62762369190E+03  0.00000000000E+00 0.  1.
         13    1    3    3    0    0 -0.98113141632E+01 -0.18886006724E+02  0.84037439688E+02  0.86690451637E+02  0.00000000000E+00 0. -1.
         21    1    1    2  502  501 -0.36502417860E+01 -0.29500040883E+02  0.84973226122E+01  0.30915710711E+02  0.00000000000E+00 0.  1.
<scales pt_clust_5="13000.00000" pt_clust_6="13000.00000" pt_clust_7="13000.00000" pt_clust_8="13000.00000" pt_clust_9="29.72502"></scales>
<clustering>
<clus scale="   29.725">  2  9  1 -1</clus>
<clus scale="   91.651">  5  6 -1 -1</clus>
<clus scale="   94.649">  7  8 -1 -1</clus>
<clus scale="  119.375">  2  5  1 -1</clus>
<clus scale="   29.725">  2  5  1 -1</clus>
</clustering>
</event>
<event>
 9    1  0.1434065E-005  0.1026190E+03  0.7546771E-02  0.1276344E+00
         -1   -1    0    0    0  501 -0.00000000000E+00  0.00000000000E+00  0.23307666769E+02  0.23307666769E+02  0.00000000000E+00 0.  1.
          1   -1    0    0  502    0  0.00000000000E+00 -0.00000000000E+00 -0.60849206677E+03  0.60849206677E+03  0.00000000000E+00 0. -1.
         23    2    1    2    0    0  0.21698357755E+02  0.24373167112E+02 -0.24022855626E+03  0.25915750767E+03  0.91585940686E+02 0.  0.
         23    2    1    2    0    0 -0.46897508306E+02 -0.36521895281E+02 -0.31046798749E+03  0.32823500784E+03  0.88400361970E+02 0.  0.
        -11    1    3    3    0    0  0.43560211327E+02  0.48124414164E+02 -0.15719860248E+03  0.17007307803E+03  0.00000000000E+00 0.  1.
         11    1    3    3    0    0 -0.21861853572E+02 -0.23751247052E+02 -0.83029953786E+02  0.89084429638E+02  0.00000000000E+00 0. -1.
        -11    1    4    4    0    0  0.96798220139E+01 -0.47607226575E+02 -0.12995451241E+03  0.13873832301E+03  0.00000000000E+00 0.  1.
         11    1    4    4    0    0 -0.56577330320E+02  0.11085331294E+02 -0.18051347509E+03  0.18949668484E+03  0.00000000000E+00 0. -1.
         21    1    1    2  502  501  0.25199150551E+02  0.12148728169E+02 -0.34487856249E+02  0.44407218031E+02  0.00000000000E+00 0.  1.
<scales pt_clust_5="13000.00000" pt_clust_6="13000.00000" pt_clust_7="13000.00000" pt_clust_8="13000.00000" pt_clust_9="27.97479"></scales>
<clustering>
<clus scale="   27.975">  1  9  2 -1</clus>
<clus scale="   88.400">  7  8 -1 -1</clus>
<clus scale="   91.586">  5  6 -1 -1</clus>
<clus scale="   99.786">  2  7  1 -1</clus>
<clus scale="   99.786">  2  5  1 -1</clus>
</clustering>
</event>
<event>
 9    1  0.1434065E-005  0.1045870E+03  0.7546771E-02  0.1271314E+00
          4   -1    0    0  502    0  0.00000000000E+00  0.00000000000E+00  0.11754463935E+03  0.11754463935E+03  0.00000000000E+00 0. -1.
         -4   -1    0    0    0  501 -0.00000000000E+00 -0.00000000000E+00 -0.24140748746E+03  0.24140748746E+03  0.00000000000E+00 0.  1.
         23    2    1    2    0    0  0.81041017084E+02  0.15320143314E+02 -0.65229104576E+02  0.13962014202E+03  0.91850937570E+02 0.  0.
         23    2    1    2    0    0 -0.37598254016E+02 -0.48286180285E+00  0.42168497449E+02  0.10856867692E+03  0.92709835347E+02 0.  0.
        -11    1    3    3    0    0  0.38126210873E+02 -0.35135678575E+02 -0.49188233715E+02  0.71467518499E+02  0.00000000000E+00 0.  1.
         11    1    3    3    0    0  0.42914806212E+02  0.50455821889E+02 -0.16040870861E+02  0.68152623521E+02  0.00000000000E+00 0. -1.
        -13    1    4    4    0    0  0.17850517758E+02 -0.30321425391E+02  0.25433255225E+02  0.43415208088E+02  0.00000000000E+00 0.  1.
         13    1    4    4    0    0 -0.55448771774E+02  0.29838563589E+02  0.16735242223E+02  0.65153468830E+02  0.00000000000E+00 0. -1.
         21    1    1    2  502  501 -0.43442763068E+02 -0.14837281511E+02 -0.10080224098E+03  0.11076330788E+03  0.00000000000E+00 0.  1.
<scales pt_clust_5="13000.00000" pt_clust_6="13000.00000" pt_clust_7="13000.00000" pt_clust_8="13000.00000" pt_clust_9="45.90663"></scales>
<clustering>
<clus scale="   45.907">  2  9  1 -1</clus>
<clus scale="   91.851">  5  6 -1 -1</clus>
<clus scale="   92.710">  7  8 -1 -1</clus>
<clus scale="  103.826">  2  5  1 -1</clus>
<clus scale="  104.587">  1  5  2 -1</clus>
</clustering>
</event>
<event>
 9    1  0.1434065E-005  0.1036435E+03  0.7546771E-02  0.1272873E+00
         -1   -1    0    0    0  501 -0.00000000000E+00  0.00000000000E+00  0.38007697367E+03  0.38007697367E+03  0.00000000000E+00 0.  1.
          1   -1    0    0  502    0  0.00000000000E+00 -0.00000000000E+00 -0.43306907863E+02  0.43306907863E+02  0.00000000000E+00 0. -1.
         23    2    1    2    0    0 -0.21771362857E+02  0.28274295024E+02  0.12911168510E+03  0.16147665685E+03  0.90174583331E+02 0.  0.
         23    2    1    2    0    0  0.46550639330E+02 -0.43563667992E+02  0.95666421970E+02  0.14619215958E+03  0.90306854893E+02 0.  0.
        -13    1    4    4    0    0 -0.10167865592E+02 -0.51873359669E+02  0.40018464364E+02  0.66300138945E+02  0.00000000000E+00 0. -1.
         13    1    4    4    0    0  0.56718504922E+02  0.83096916770E+01  0.55647957605E+02  0.79892020640E+02  0.00000000000E+00 0.  1.
        -13    1    3    3    0    0  0.25708424614E+02  0.40479001114E+02  0.63246399362E+02  0.79369891391E+02  0.00000000000E+00 0.  1.
         13    1    3    3    0    0 -0.47479787471E+02 -0.12204706090E+02  0.65865285736E+02  0.82106765458E+02  0.00000000000E+00 0. -1.
         21    1    1    2  502  501 -0.24779276472E+02  0.15289372968E+02  0.11199195874E+03  0.11571506510E+03  0.00000000000E+00 0.  1.
<scales pt_clust_5="13000.00000" pt_clust_6="13000.00000" pt_clust_7="13000.00000" pt_clust_8="13000.00000" pt_clust_9="29.11662"></scales>
<clustering>
<clus scale="   29.117">  1  9  2 -1</clus>
<clus scale="   90.175">  7  8 -1 -1</clus>
<clus scale="   90.307">  5  6 -1 -1</clus>
<clus scale="  103.528">  1  7  2 -1</clus>
<clus scale="  103.644">  2  5  1 -1</clus>
</clustering>
</event>
<event>
 9    1  0.1434065E-005  0.9448264E+02  0.7546771E-02  0.1292891E+00
          4   -1    0    0  502    0  0.00000000000E+00  0.00000000000E+00  0.73755965421E+02  0.73755965421E+02  0.00000000000E+00 0. -1.
         -4   -1    0    0    0  501 -0.00000000000E+00 -0.00000000000E+00 -0.17193724936E+03  0.17193724936E+03  0.00000000000E+00 0.  1.
         23    2    1    2    0    0  0.16341072785E+02 -0.29800779773E+02 -0.36521448434E+02  0.10415805411E+03  0.91432854633E+02 0.  0.
         23    2    1    2    0    0 -0.21473614574E+02  0.32880780804E+00 -0.29305208040E+02  0.97469731644E+02  0.90445171961E+02 0.  0.
        -11    1    4    4    0    0 -0.18063278457E+02  0.41316632365E+02  0.29673863265E+01  0.45190170614E+02  0.00000000000E+00 0.  1.
         11    1    4    4    0    0 -0.34103361175E+01 -0.40987824556E+02 -0.32272594366E+02  0.52279561030E+02  0.00000000000E+00 0. -1.
        -13    1    3    3    0    0 -0.15652337074E+02  0.13313530062E+02 -0.45313253485E+02  0.49754765400E+02  0.00000000000E+00 0.  1.
         13    1    3    3    0    0  0.31993409859E+02 -0.43114309834E+02  0.87918050514E+01  0.54403288715E+02  0.00000000000E+00 0. -1.
         21    1    1    2  502  501  0.51325417889E+01  0.29471971965E+02 -0.32354627470E+02  0.44065429028E+02  0.00000000000E+00 0.  1.
<scales pt_clust_5="13000.00000" pt_clust_6="13000.00000" pt_clust_7="13000.00000" pt_clust_8="13000.00000" pt_clust_9="29.91555"></scales>
<clustering>
<clus scale="   29.916">  2  9  1 -1</clus>
<clus scale="   90.445">  5  6 -1 -1</clus>
<clus scale="   91.433">  7  8 -1 -1</clus>
<clus scale="   93.527">  1  5  2 -1</clus>
<clus scale="   93.527">  1  5  2 -1</clus>
</clustering>
</event>
<event>
 9    1  0.1434065E-005  0.1210518E+03  0.7546771E-02  0.1241745E+00
         -1   -1    0    0    0  501 -0.00000000000E+00  0.00000000000E+00  0.36466429904E+03  0.36466429904E+03  0.00000000000E+00 0.  1.
          1   -1    0    0  502    0  0.00000000000E+00 -0.00000000000E+00 -0.89069457405E+02  0.89069457405E+02  0.00000000000E+00 0. -1.
         23    2    1    2    0    0  0.27914558328E+02 -0.12251068477E+03  0.18863648322E+03  0.24434278251E+03  0.91277500598E+02 0.  0.
         23    2    1    2    0    0 -0.30474003759E+02  0.56805548975E+02  0.18079974017E+02  0.11416520290E+03  0.92473092265E+02 0.  0.
        -13    1    4    4    0    0 -0.53182781934E+02  0.14447326467E+02  0.32509449359E+02  0.63984356165E+02  0.00000000000E+00 0.  1.
         13    1    4    4    0    0  0.22708778175E+02  0.42358222508E+02 -0.14429475342E+02  0.50180846734E+02  0.00000000000E+00 0. -1.
        -13    1    3    3    0    0  0.23541154253E+02 -0.15976824466E+02  0.92862432331E+00  0.28465895502E+02  0.00000000000E+00 0. -1.
         13    1    3    3    0    0  0.43734040748E+01 -0.10653386031E+03  0.18770785889E+03  0.21587688701E+03  0.00000000000E+00 0.  1.
         21    1    1    2  502  501  0.25594454306E+01  0.65705135798E+02  0.68878384399E+02  0.95225771032E+02  0.00000000000E+00 0. -1.
<scales pt_clust_5="13000.00000" pt_clust_6="13000.00000" pt_clust_7="13000.00000" pt_clust_8="13000.00000" pt_clust_9="65.75497"></scales>
<clustering>
<clus scale="   65.755">  1  9  2 -1</clus>
<clus scale="   91.278">  7  8 -1 -1</clus>
<clus scale="   92.473">  5  6 -1 -1</clus>
<clus scale="  120.141">  1  7  2 -1</clus>
<clus scale="  121.052">  2  5  1 -1</clus>
</clustering>
</event>
<event>
 9    1  0.1434065E-005  0.1394758E+03  0.7546771E-02  0.1215692E+00
          1   -1    0    0  502    0  0.00000000000E+00  0.00000000000E+00  0.59945243352E+03  0.59945243352E+03  0.00000000000E+00 0. -1.
         -1   -1    0    0    0  501 -0.00000000000E+00 -0.00000000000E+00 -0.15565840232E+03  0.15565840232E+03  0.00000000000E+00 0.  1.
         23    2    1    2    0    0 -0.48869215461E+02 -0.14088095227E+03  0.11533410113E+03  0.20560543290E+03  0.82073115098E+02 0.  0.
         23    2    1    2    0    0  0.31587967864E+02  0.91995035929E+02  0.42215884900E+03  0.44241683331E+03  0.89742265700E+02 0.  0.
        -11    1    3    3    0    0 -0.29396308261E+02 -0.28988958081E+02  0.74011312935E+02  0.84747726061E+02  0.00000000000E+00 0. -1.
         11    1    3    3    0    0 -0.19472907199E+02 -0.11189199419E+03  0.41322788198E+02  0.12085770684E+03  0.00000000000E+00 0.  1.
        -13    1    4    4    0    0 -0.29275430895E+02  0.51070945758E+02  0.19787980135E+03  0.20645025584E+03  0.00000000000E+00 0.  1.
         13    1    4    4    0    0  0.60863398760E+02  0.40924090171E+02  0.22427904765E+03  0.23596657746E+03  0.00000000000E+00 0. -1.
         21    1    1    2  502  501  0.17281247596E+02  0.48885916339E+02 -0.93698918935E+02  0.10708856962E+03  0.00000000000E+00 0.  1.
<scales pt_clust_5="13000.00000" pt_clust_6="13000.00000" pt_clust_7="13000.00000" pt_clust_8="13000.00000" pt_clust_9="51.85050"></scales>
<clustering>
<clus scale="   51.850">  2  9  1 -1</clus>
<clus scale="   82.073">  5  6 -1 -1</clus>
<clus scale="   89.742">  7  8 -1 -1</clus>
<clus scale="  134.669">  2  5  1 -1</clus>
<clus scale="  139.476">  1  5  2 -1</clus>
</clustering>
</event>
<event>
 9    1  0.1434065E-005  0.9170628E+02  0.7546771E-02  0.1299876E+00
          1   -1    0    0  502    0  0.00000000000E+00  0.00000000000E+00  0.90576564472E+02  0.90576564472E+02  0.00000000000E+00 0. -1.
         -1   -1    0    0    0  501 -0.00000000000E+00 -0.00000000000E+00 -0.16525184669E+03  0.16525184669E+03  0.00000000000E+00 0.  1.
         23    2    1    2    0    0  0.11192550812E+02 -0.35718774842E+02 -0.26970175323E+02  0.99913535379E+02  0.88624038077E+02 0.  0.
         23    2    1    2    0    0 -0.43807359118E+01 -0.24166745947E+01  0.46836291065E+01  0.90758962883E+02  0.90499844192E+02 0.  0.
        -11    1    4    4    0    0 -0.17716404784E+02 -0.31040967976E+02 -0.27932136624E+02  0.45360962817E+02  0.00000000000E+00 0.  1.
         11    1    4    4    0    0  0.13335668872E+02  0.28624293381E+02  0.32615765730E+02  0.45398000066E+02  0.00000000000E+00 0. -1.
        -11    1    3    3    0    0 -0.14144633254E+02 -0.59433019285E+02 -0.21588251687E+02  0.64795115882E+02  0.00000000000E+00 0. -1.
         11    1    3    3    0    0  0.25337184067E+02  0.23714244443E+02 -0.53819236359E+01  0.35118419497E+02  0.00000000000E+00 0.  1.
         21    1    1    2  502  501 -0.68118149007E+01  0.38135449437E+02 -0.52388736000E+02  0.65155912899E+02  0.00000000000E+00 0. -1.
<scales pt_clust_5="13000.00000" pt_clust_6="13000.00000" pt_clust_7="13000.00000" pt_clust_8="13000.00000" pt_clust_9="38.73904"></scales>
<clustering>
<clus scale="   38.739">  2  9  1 -1</clus>
<clus scale="   88.624">  7  8 -1 -1</clus>
<clus scale="   89.856">  2  7  1 -1</clus>
<clus scale="   90.500">  5  6 -1 -1</clus>
<clus scale="   91.706">  1  5  2 -1</clus>
</clustering>
</event>
<event>
 9    1  0.1434065E-005  0.1115979E+03  0.7546771E-02  0.1258934E+00
         -2   -1    0    0    0  501 -0.00000000000E+00  0.00000000000E+00  0.17632266993E+03  0.17632266993E+03  0.00000000000E+00 0.  1.
          2   -1    0    0  502    0  0.00000000000E+00 -0.00000000000E+00 -0.14015984659E+03  0.14015984659E+03  0.00000000000E+00 0. -1.
         23    2    1    2    0    0  0.52278967964E+02 -0.37826532578E+02  0.11002278611E+03  0.15538030465E+03  0.88736061163E+02 0.  0.
         23    2    1    2    0    0 -0.33426901034E+02  0.53937584785E+02 -0.77395177145E+02  0.13605297693E+03  0.92161696604E+02 0.  0.
        -11    1    4    4    0    0 -0.15712634891E+02  0.15170545271E+02  0.20078526667E+02  0.29667820482E+02  0.00000000000E+00 0.  1.
         11    1    4    4    0    0 -0.17714266143E+02  0.38767039514E+02 -0.97473703811E+02  0.10638515645E+03  0.00000000000E+00 0. -1.
        -11    1    3    3    0    0  0.10283233247E+02  0.28893633954E+02  0.26567456646E+02  0.40576060943E+02  0.00000000000E+00 0. -1.
         11    1    3    3    0    0  0.41995734716E+02 -0.66720166532E+02  0.83455329466E+02  0.11480424371E+03  0.00000000000E+00 0.  1.
         21    1    1    2  502  501 -0.18852066930E+02 -0.16111052207E+02  0.35352143743E+01  0.25049234947E+02  0.00000000000E+00 0. -1.
<scales pt_clust_5="13000.00000" pt_clust_6="13000.00000" pt_clust_7="13000.00000" pt_clust_8="13000.00000" pt_clust_9="24.79852"></scales>
<clustering>
<clus scale="   24.799">  1  9  2 -1</clus>
<clus scale="   88.736">  7  8 -1 -1</clus>
<clus scale="   92.162">  5  6 -1 -1</clus>
<clus scale="  108.786">  1  7  2 -1</clus>
<clus scale="  111.598">  2  5  1 -1</clus>
</clustering>
</event>
<event>
 9    1  0.1434065E-005  0.1020060E+03  0.7546771E-02  0.1276351E+00
          1   -1    0    0  502    0  0.00000000000E+00  0.00000000000E+00  0.46317829503E+03  0.46317829503E+03  0.00000000000E+00 0. -1.
         -1   -1    0    0    0  501 -0.00000000000E+00 -0.00000000000E+00 -0.35441271826E+02  0.35441271826E+02  0.00000000000E+00 0.  1.
         23    2    1    2    0    0  0.62221130109E+02 -0.83345094326E+01  0.18490522929E+03  0.21615650549E+03  0.92697130313E+02 0.  0.
         23    2    1    2    0    0 -0.21467258443E+02  0.20170966793E+02  0.19761208752E+03  0.22044853383E+03  0.93162802925E+02 0.  0.
        -13    1    4    4    0    0  0.29591172154E+02  0.12972814757E+02  0.26658954537E+02  0.41888318767E+02  0.00000000000E+00 0. -1.
         13    1    4    4    0    0 -0.51058430597E+02  0.71981520361E+01  0.17095313298E+03  0.17856021506E+03  0.00000000000E+00 0.  1.
        -13    1    3    3    0    0 -0.67891599385E+01 -0.36709900776E+02  0.62657437101E+02  0.72936026295E+02  0.00000000000E+00 0.  1.
         13    1    3    3    0    0  0.69010290047E+02  0.28375391343E+02  0.12224779219E+03  0.14322047920E+03  0.00000000000E+00 0. -1.
         21    1    1    2  502  501 -0.40753871666E+02 -0.11836457360E+02  0.45219706397E+02  0.62014527534E+02  0.00000000000E+00 0.  1.
<scales pt_clust_5="13000.00000" pt_clust_6="13000.00000" pt_clust_7="13000.00000" pt_clust_8="13000.00000" pt_clust_9="42.43795"></scales>
<clustering>
<clus scale="   42.438">  2  9  1 -1</clus>
<clus scale="   92.697">  7  8 -1 -1</clus>
<clus scale="   93.163">  5  6 -1 -1</clus>
<clus scale="  101.581">  2  7  1 -1</clus>
<clus scale="  102.006">  1  5  2 -1</clus>
</clustering>
</event>
<event>
 9    1  0.1434065E-005  0.2138263E+03  0.7546771E-02  0.1138624E+00
          1   -1    0    0  502    0  0.00000000000E+00  0.00000000000E+00  0.19655686030E+03  0.19655686030E+03  0.00000000000E+00 0. -1.
         -1   -1    0    0    0  501 -0.00000000000E+00 -0.00000000000E+00 -0.66964201223E+03  0.66964201223E+03  0.00000000000E+00 0.  1.
         23    2    1    2    0    0 -0.13830349034E+03  0.94764037737E+02 -0.50755507792E+03  0.54232198658E+03  0.91612781403E+02 0.  0.
         23    2    1    2    0    0  0.14539707666E+03 -0.13192598914E+03  0.10715027155E+03  0.24193933515E+03  0.92242531891E+02 0.  0.
        -13    1    3    3    0    0 -0.76397684364E+02  0.65499479293E+00 -0.16765000384E+03  0.18423777838E+03  0.00000000000E+00 0. -1.
         13    1    3    3    0    0 -0.61905805976E+02  0.94109042944E+02 -0.33990507408E+03  0.35808420820E+03  0.00000000000E+00 0.  1.
        -13    1    4    4    0    0  0.59513375779E+02 -0.11344272740E+03  0.52289864399E+02  0.13836662970E+03  0.00000000000E+00 0.  1.
         13    1    4    4    0    0  0.85883700883E+02 -0.18483261738E+02  0.54860407151E+02  0.10357270545E+03  0.00000000000E+00 0. -1.
         21    1    1    2  502  501 -0.70935863218E+01  0.37161951398E+02 -0.72680345565E+02  0.81937550794E+02  0.00000000000E+00 0.  1.
<scales pt_clust_5="13000.00000" pt_clust_6="13000.00000" pt_clust_7="13000.00000" pt_clust_8="13000.00000" pt_clust_9="37.83292"></scales>
<clustering>
<clus scale="   37.833">  2  9  1 -1</clus>
<clus scale="   91.613">  5  6 -1 -1</clus>
<clus scale="   92.243">  7  8 -1 -1</clus>
<clus scale="  213.555">  2  5  1 -1</clus>
<clus scale="  213.826">  1  5  2 -1</clus>
</clustering>
</event>
<event>
 9    1  0.1434065E-005  0.2643717E+03  0.7546771E-02  0.1104568E+00
          1   -1    0    0  502    0  0.00000000000E+00  0.00000000000E+00  0.11650827863E+04  0.11650827863E+04  0.00000000000E+00 0. -1.
         -1   -1    0    0    0  501 -0.00000000000E+00 -0.00000000000E+00 -0.82188847918E+02  0.82188847918E+02  0.00000000000E+00 0.  1.
         23    2    1    2    0    0 -0.12910463993E+03 -0.24442132971E+03  0.41060944500E+03  0.50339860538E+03  0.91652851057E+02 0.  0.
         23    2    1    2    0    0  0.12698577054E+03  0.19617734269E+03  0.63534582877E+03  0.68307469962E+03  0.91190939413E+02 0.  0.
        -11    1    3    3    0    0 -0.97582007878E+02 -0.22044132926E+03  0.39064938571E+03  0.45904637071E+03  0.00000000000E+00 0.  1.
         11    1    3    3    0    0 -0.31522632050E+02 -0.23980000460E+02  0.19960059283E+02  0.44352234667E+02  0.00000000000E+00 0. -1.
        -13    1    4    4    0    0  0.50321824466E+02  0.15704930745E+02  0.17341293728E+03  0.18124838670E+03  0.00000000000E+00 0.  1.
         13    1    4    4    0    0  0.76663946075E+02  0.18047241194E+03  0.46193289149E+03  0.50182631292E+03  0.00000000000E+00 0. -1.
         21    1    1    2  502  501  0.21188693871E+01  0.48243987030E+02  0.36938664625E+02  0.60798329223E+02  0.00000000000E+00 0. -1.
<scales pt_clust_5="13000.00000" pt_clust_6="13000.00000" pt_clust_7="13000.00000" pt_clust_8="13000.00000" pt_clust_9="48.29049"></scales>
<clustering>
<clus scale="   48.290">  2  9  1 -1</clus>
<clus scale="   91.191">  7  8 -1 -1</clus>
<clus scale="   91.653">  5  6 -1 -1</clus>
<clus scale="  264.212">  1  7  2 -1</clus>
<clus scale="  264.212">  1  5  2 -1</clus>
</clustering>
</event>
<event>
 9    1  0.1434065E-005  0.9303068E+02  0.7546771E-02  0.1297940E+00
          2   -1    0    0  502    0  0.00000000000E+00  0.00000000000E+00  0.57337317041E+02  0.57337317041E+02  0.00000000000E+00 0. -1.
         -2   -1    0    0    0  501 -0.00000000000E+00 -0.00000000000E+00 -0.19250814442E+03  0.19250814442E+03  0.00000000000E+00 0.  1.
         23    2    1    2    0    0  0.12833088315E+02  0.37129664525E+01 -0.61736986440E+02  0.10911259867E+03  0.88969823081E+02 0.  0.
         23    2    1    2    0    0  0.46573222920E+01  0.13542041114E+02 -0.48345713601E+02  0.10561785342E+03  0.92804878156E+02 0.  0.
        -11    1    3    3    0    0  0.27769211219E+01  0.34072276268E+02 -0.68379501544E+02  0.76448594051E+02  0.00000000000E+00 0.  1.
         11    1    3    3    0    0  0.10056167193E+02 -0.30359309815E+02  0.66425151044E+01  0.32664004622E+02  0.00000000000E+00 0. -1.
        -11    1    4    4    0    0  0.40248855422E+02 -0.18993982924E+02 -0.31552592643E+02  0.54555548321E+02  0.00000000000E+00 0. -1.
         11    1    4    4    0    0 -0.35591533130E+02  0.32536024038E+02 -0.16793120958E+02  0.51062305101E+02  0.00000000000E+00 0.  1.
         21    1    1    2  502  501 -0.17490410607E+02 -0.17255007567E+02 -0.25088127338E+02  0.35115009364E+02  0.00000000000E+00 0. -1.
<scales pt_clust_5="13000.00000" pt_clust_6="13000.00000" pt_clust_7="13000.00000" pt_clust_8="13000.00000" pt_clust_9="24.56928"></scales>
<clustering>
<clus scale="   24.569">  2  9  1 -1</clus>
<clus scale="   88.970">  5  6 -1 -1</clus>
<clus scale="   89.205">  2  5  1 -1</clus>
<clus scale="   92.805">  7  8 -1 -1</clus>
<clus scale="   93.031">  1  5  2 -1</clus>
</clustering>
</event>
<event>
 9    1  0.1434065E-005  0.1142706E+03  0.7546771E-02  0.1254175E+00
          2   -1    0    0  502    0  0.00000000000E+00  0.00000000000E+00  0.86407130870E+03  0.86407130870E+03  0.00000000000E+00 0. -1.
         -2   -1    0    0    0  501 -0.00000000000E+00 -0.00000000000E+00 -0.21901641177E+02  0.21901641177E+02  0.00000000000E+00 0.  1.
         23    2    1    2    0    0 -0.28401675255E+02  0.40288537848E+02  0.33262157991E+03  0.34881714095E+03  0.92771013591E+02 0.  0.
         23    2    1    2    0    0  0.22355525498E+02 -0.84197146591E+02  0.34815104325E+03  0.36978338653E+03  0.89116076122E+02 0.  0.
        -11    1    3    3    0    0 -0.17152617718E+02  0.58937735217E+02  0.31464694450E+03  0.32057849056E+03  0.00000000000E+00 0. -1.
         11    1    3    3    0    0 -0.11249057536E+02 -0.18649197369E+02  0.17974635412E+02  0.28238650395E+02  0.00000000000E+00 0.  1.
        -13    1    4    4    0    0  0.50371746613E+02 -0.41708244412E+02  0.12697085319E+03  0.14282327566E+03  0.00000000000E+00 0. -1.
         13    1    4    4    0    0 -0.28016221115E+02 -0.42488902178E+02  0.22118019006E+03  0.22696011087E+03  0.00000000000E+00 0.  1.
         21    1    1    2  502  501  0.60461497566E+01  0.43908608743E+02  0.16139704437E+03  0.16737242240E+03  0.00000000000E+00 0. -1.
<scales pt_clust_5="13000.00000" pt_clust_6="13000.00000" pt_clust_7="13000.00000" pt_clust_8="13000.00000" pt_clust_9="44.32293"></scales>
<clustering>
<clus scale="   44.323">  1  9  2 -1</clus>
<clus scale="   89.116">  7  8 -1 -1</clus>
<clus scale="   92.771">  5  6 -1 -1</clus>
<clus scale="  111.324">  1  7  2 -1</clus>
<clus scale="   44.323">  1  5  2 -1</clus>
</clustering>
</event>
<event>
 9    1  0.1434065E-005  0.1286966E+03  0.7546771E-02  0.1229624E+00
          3   -1    0    0  502    0  0.00000000000E+00  0.00000000000E+00  0.19344590680E+03  0.19344590680E+03  0.00000000000E+00 0. -1.
         -3   -1    0    0    0  501 -0.00000000000E+00 -0.00000000000E+00 -0.23307559464E+03  0.23307559464E+03  0.00000000000E+00 0.  1.
         23    2    1    2    0    0  0.56829292320E+02 -0.47589403275E+02 -0.13395199330E+03  0.17779181326E+03  0.90401728887E+02 0.  0.
         23    2    1    2    0    0 -0.20050752235E+02  0.94304768440E+02  0.12455860829E+03  0.18202721175E+03  0.91233967912E+02 0.  0.
        -13    1    3    3    0    0  0.81048061472E+02 -0.29816141151E+02 -0.91861609522E+02  0.12608071163E+03  0.00000000000E+00 0.  1.
         13    1    3    3    0    0 -0.24218769152E+02 -0.17773262125E+02 -0.42090383776E+02  0.51711101634E+02  0.00000000000E+00 0. -1.
        -13    1    4    4    0    0 -0.27220501806E+02  0.56861447991E+02  0.13314365305E+02  0.64431764757E+02  0.00000000000E+00 0.  1.
         13    1    4    4    0    0  0.71697495715E+01  0.37443320450E+02  0.11124424298E+03  0.11759544699E+03  0.00000000000E+00 0. -1.
         21    1    1    2  502  501 -0.36778540085E+02 -0.46715365165E+02 -0.30236302834E+02  0.66702476433E+02  0.00000000000E+00 0.  1.
<scales pt_clust_5="13000.00000" pt_clust_6="13000.00000" pt_clust_7="13000.00000" pt_clust_8="13000.00000" pt_clust_9="59.45575"></scales>
<clustering>
<clus scale="   59.456">  2  9  1 -1</clus>
<clus scale="   90.402">  5  6 -1 -1</clus>
<clus scale="   91.234">  7  8 -1 -1</clus>
<clus scale="  128.108">  2  5  1 -1</clus>
<clus scale="  128.697">  1  5  2 -1</clus>
</clustering>
</event>
<event>
 9    1  0.1434065E-005  0.1011572E+03  0.7546771E-02  0.1285227E+00
         -1   -1    0    0    0  501 -0.00000000000E+00  0.00000000000E+00  0.20473979291E+02  0.20473979291E+02  0.00000000000E+00 0.  1.
          1   -1    0    0  502    0  0.00000000000E+00 -0.00000000000E+00 -0.68347804685E+03  0.68347804685E+03  0.00000000000E+00 0. -1.
         23    2    1    2    0    0  0.37203047840E+01  0.36728143641E+02 -0.24359057501E+03  0.25904281173E+03  0.80025076544E+02 0.  0.
         23    2    1    2    0    0 -0.37430425788E+02 -0.23468433879E+02 -0.36479336764E+03  0.37936876730E+03  0.94311485871E+02 0.  0.
        -11    1    4    4    0    0 -0.66314190973E+02 -0.47448149106E+00 -0.20940526658E+03  0.21965509948E+03  0.00000000000E+00 0.  1.
         11    1    4    4    0    0  0.28883765184E+02 -0.22993952388E+02 -0.15538810106E+03  0.15971366782E+03  0.00000000000E+00 0. -1.
        -11    1    3    3    0    0  0.18801867613E+02 -0.13526605683E+02 -0.24331456319E+02  0.33593139979E+02  0.00000000000E+00 0. -1.
         11    1    3    3    0    0 -0.15081562829E+02  0.50254749323E+02 -0.21925911869E+03  0.22544967176E+03  0.00000000000E+00 0.  1.
         21    1    1    2  502  501  0.33710121004E+02 -0.13259709761E+02 -0.54620124909E+02  0.65540447101E+02  0.00000000000E+00 0. -1.
<scales pt_clust_5="13000.00000" pt_clust_6="13000.00000" pt_clust_7="13000.00000" pt_clust_8="13000.00000" pt_clust_9="36.22419"></scales>
<clustering>
<clus scale="   36.224">  1  9  2 -1</clus>
<clus scale="   80.025">  7  8 -1 -1</clus>
<clus scale="   87.989">  1  7  2 -1</clus>
<clus scale="   94.311">  5  6 -1 -1</clus>
<clus scale="  101.157">  2  5  1 -1</clus>
</clustering>
</event>
<event>
 9    1  0.1434065E-005  0.1151121E+03  0.7546771E-02  0.1252005E+00
         -1   -1    0    0    0  501 -0.00000000000E+00  0.00000000000E+00  0.53609135041E+02  0.53609135041E+02  0.00000000000E+00 0.  1.
          1   -1    0    0  502    0  0.00000000000E+00 -0.00000000000E+00 -0.32287040743E+03  0.32287040743E+03  0.00000000000E+00 0. -1.
         23    2    1    2    0    0  0.63472490989E+02  0.15306019604E+02 -0.70770858631E+02  0.13251312868E+03  0.91039461183E+02 0.  0.
         23    2    1    2    0    0 -0.74413530485E+02  0.65767404039E+01 -0.17410257759E+03  0.20942183269E+03  0.89247798005E+02 0.  0.
        -13    1    4    4    0    0 -0.64643413651E+02 -0.24607807529E+02 -0.62812545185E+02  0.93433029237E+02  0.00000000000E+00 0.  1.
         13    1    4    4    0    0 -0.97701168332E+01  0.31184547933E+02 -0.11129003241E+03  0.11598880345E+03  0.00000000000E+00 0. -1.
        -13    1    3    3    0    0  0.69271965168E+02  0.43873337260E+02 -0.44614946263E+02  0.93348638504E+02  0.00000000000E+00 0. -1.
         13    1    3    3    0    0 -0.57994741792E+01 -0.28567317656E+02 -0.26155912368E+02  0.39164490174E+02  0.00000000000E+00 0.  1.
         21    1    1    2  502  501  0.10941039496E+02 -0.21882760008E+02 -0.24387836165E+02  0.34544581103E+02  0.00000000000E+00 0. -1.
<scales pt_clust_5="13000.00000" pt_clust_6="13000.00000" pt_clust_7="13000.00000" pt_clust_8="13000.00000" pt_clust_9="24.46552"></scales>
<clustering>
<clus scale="   24.466">  1  9  2 -1</clus>
<clus scale="   89.248">  5  6 -1 -1</clus>
<clus scale="   91.039">  7  8 -1 -1</clus>
<clus scale="  113.700">  2  5  1 -1</clus>
<clus scale="  113.700">  2  5  1 -1</clus>
</clustering>
</event>
<event>
 9    1  0.1434065E-005  0.9851051E+02  0.7546771E-02  0.1286113E+00
          2   -1    0    0  502    0  0.00000000000E+00  0.00000000000E+00  0.21218752710E+03  0.21218752710E+03  0.00000000000E+00 0. -1.
         -2   -1    0    0    0  501 -0.00000000000E+00 -0.00000000000E+00 -0.79830598737E+02  0.79830598737E+02  0.00000000000E+00 0.  1.
         23    2    1    2    0    0  0.25966203534E+02  0.12728922410E+02  0.16116724944E+02  0.98151114862E+02  0.92399260463E+02 0.  0.
         23    2    1    2    0    0 -0.76693889690E+01 -0.39049345155E+02  0.12781214779E+03  0.15978698789E+03  0.87248297939E+02 0.  0.
        -11    1    4    4    0    0 -0.23318698913E+02 -0.54434285455E+02  0.12413364027E+03  0.13753550014E+03  0.00000000000E+00 0.  1.
         11    1    4    4    0    0  0.15649309944E+02  0.15384940300E+02  0.36785075223E+01  0.22251487756E+02  0.00000000000E+00 0. -1.
        -13    1    3    3    0    0 -0.28329060338E+02  0.28452242981E+02  0.93182850124E+01  0.41217668855E+02  0.00000000000E+00 0. -1.
         13    1    3    3    0    0  0.54295263872E+02 -0.15723320571E+02  0.67984399312E+01  0.56933446007E+02  0.00000000000E+00 0.  1.
         21    1    1    2  502  501 -0.18296814565E+02  0.26320422745E+02 -0.11571944370E+02  0.34080023081E+02  0.00000000000E+00 0.  1.
<scales pt_clust_5="13000.00000" pt_clust_6="13000.00000" pt_clust_7="13000.00000" pt_clust_8="13000.00000" pt_clust_9="32.05523"></scales>
<clustering>
<clus scale="   32.055">  2  9  1 -1</clus>
<clus scale="   87.248">  5  6 -1 -1</clus>
<clus scale="   92.399">  7  8 -1 -1</clus>
<clus scale="   93.696">  1  5  2 -1</clus>
<clus scale="   93.696">  1  5  2 -1</clus>
</clustering>
</event>
<event>
 9    1  0.1434065E-005  0.1174603E+03  0.7546771E-02  0.1248196E+00
         -2   -1    0    0    0  501 -0.00000000000E+00  0.00000000000E+00  0.14507340744E+03  0.14507340744E+03  0.00000000000E+00 0.  1.
          2   -1    0    0  502    0  0.00000000000E+00 -0.00000000000E+00 -0.34983539627E+03  0.34983539627E+03  0.00000000000E+00 0. -1.
         23    2    1    2    0    0  0.10224336528E+02  0.98538490582E+02  0.76627297893E+02  0.15578006707E+03  0.92635389198E+02 0.  0.
         23    2    1    2    0    0 -0.29901780355E+02 -0.63378765272E+02 -0.27575183256E+03  0.29844472296E+03  0.90106576594E+02 0.  0.
        -13    1    3    3    0    0  0.78576901630E+00  0.31160815301E+02  0.81810314989E+02  0.87547367075E+02  0.00000000000E+00 0.  1.
         13    1    3    3    0    0  0.94385675116E+01  0.67377675281E+02 -0.51830170967E+01  0.68232699999E+02  0.00000000000E+00 0. -1.
        -13    1    4    4    0    0  0.28186065452E+00 -0.78267783817E+02 -0.21769977488E+03  0.23134199232E+03  0.00000000000E+00 0. -1.
         13    1    4    4    0    0 -0.30183641010E+02  0.14889018545E+02 -0.58052057683E+02  0.67102730638E+02  0.00000000000E+00 0.  1.
         21    1    1    2  502  501  0.19677443827E+02 -0.35159725310E+02 -0.56374541631E+01  0.40684013677E+02  0.00000000000E+00 0. -1.
<scales pt_clust_5="13000.00000" pt_clust_6="13000.00000" pt_clust_7="13000.00000" pt_clust_8="13000.00000" pt_clust_9="40.29154"></scales>
<clustering>
<clus scale="   40.292">  1  9  2 -1</clus>
<clus scale="   90.107">  7  8 -1 -1</clus>
<clus scale="   92.635">  5  6 -1 -1</clus>
<clus scale="  115.476">  2  7  1 -1</clus>
<clus scale="  115.476">  2  5  1 -1</clus>
</clustering>
</event>
<event>
 9    1  0.1434065E-005  0.1164032E+03  0.7546771E-02  0.1250816E+00
          3   -1    0    0  502    0  0.00000000000E+00  0.00000000000E+00  0.25688493013E+03  0.25688493013E+03  0.00000000000E+00 0. -1.
         -3   -1    0    0    0  501 -0.00000000000E+00 -0.00000000000E+00 -0.79189676149E+02  0.79189676149E+02  0.00000000000E+00 0.  1.
         23    2    1    2    0    0  0.83668124196E+02  0.65747648116E+01  0.99893391536E+02  0.15590535014E+03  0.85347559954E+02 0.  0.
         23    2    1    2    0    0 -0.63961530481E+02  0.12694272601E+02  0.96073800718E+02  0.14710100299E+03  0.90312280219E+02 0.  0.
        -11    1    4    4    0    0 -0.10458508136E+01  0.41799972811E+02  0.41055638178E+02  0.58599462089E+02  0.00000000000E+00 0. -1.
         11    1    4    4    0    0 -0.62915679667E+02 -0.29105700211E+02  0.55018162540E+02  0.88501540902E+02  0.00000000000E+00 0.  1.
        -13    1    3    3    0    0  0.81209907936E+02  0.36721489923E+02  0.69446412427E+02  0.11298814614E+03  0.00000000000E+00 0. -1.
         13    1    3    3    0    0  0.24582162599E+01 -0.30146725111E+02  0.30446979109E+02  0.42917203997E+02  0.00000000000E+00 0.  1.
         21    1    1    2  502  501 -0.19706593715E+02 -0.19269037412E+02 -0.18271938268E+02  0.33068253155E+02  0.00000000000E+00 0.  1.
<scales pt_clust_5="13000.00000" pt_clust_6="13000.00000" pt_clust_7="13000.00000" pt_clust_8="13000.00000" pt_clust_9="27.56167"></scales>
<clustering>
<clus scale="   27.562">  2  9  1 -1</clus>
<clus scale="   85.348">  7  8 -1 -1</clus>
<clus scale="   90.312">  5  6 -1 -1</clus>
<clus scale="  112.595">  2  7  1 -1</clus>
<clus scale="  116.403">  1  5  2 -1</clus>
</clustering>
</event>
<event>
 9    1  0.1434065E-005  0.1715025E+03  0.7546771E-02  0.1177519E+00
         -2   -1    0    0    0  501 -0.00000000000E+00  0.00000000000E+00  0.16991480710E+03  0.16991480710E+03  0.00000000000E+00 0.  1.
          2   -1    0    0  502    0  0.00000000000E+00 -0.00000000000E+00 -0.39299092152E+03  0.39299092152E+03  0.00000000000E+00 0. -1.
         23    2    1    2    0    0  0.11967541583E+03  0.22569320996E+02 -0.16370435878E+02  0.14769079639E+03  0.81932904024E+02 0.  0.
         23    2    1    2    0    0 -0.20518534928E+03  0.68089463410E+02 -0.12105918818E+03  0.26399891052E+03  0.91120223483E+02 0.  0.
        -13    1    4    4    0    0 -0.19803609312E+02 -0.16241156496E+02 -0.33858898204E+02  0.42454482610E+02  0.00000000000E+00 0. -1.
         13    1    4    4    0    0 -0.18538173997E+03  0.84330619906E+02 -0.87200289977E+02  0.22154442791E+03  0.00000000000E+00 0.  1.
        -13    1    3    3    0    0  0.88022735473E+00  0.27227092558E+02  0.23373925290E+01  0.27341411324E+02  0.00000000000E+00 0.  1.
         13    1    3    3    0    0  0.11879518848E+03 -0.46577715612E+01 -0.18707828407E+02  0.12034938507E+03  0.00000000000E+00 0. -1.
         21    1    1    2  502  501  0.85509933446E+02 -0.90658784407E+02 -0.85646490365E+02  0.15121602170E+03  0.00000000000E+00 0. -1.
<scales pt_clust_5="13000.00000" pt_clust_6="13000.00000" pt_clust_7="13000.00000" pt_clust_8="13000.00000" pt_clust_9="124.62329"></scales>
<clustering>
<clus scale="   81.933">  7  8 -1 -1</clus>
<clus scale="   91.120">  5  6 -1 -1</clus>
<clus scale="  124.623">  2  9  1 -1</clus>
<clus scale="  166.803">  1  7  2 -1</clus>
<clus scale="  124.623">  2  5  1 -1</clus>
</clustering>
</event>
<event>
 9    1  0.1434065E-005  0.1604205E+03  0.7546771E-02  0.1196945E+00
         -1   -1    0    0    0  501 -0.00000000000E+00  0.00000000000E+00  0.10703503909E+03  0.10703503909E+03  0.00000000000E+00 0.  1.
          1   -1    0    0  502    0  0.00000000000E+00 -0.00000000000E+00 -0.67877142734E+03  0.67877142734E+03  0.00000000000E+00 0. -1.
         23    2    1    2    0    0  0.17893092802E+02 -0.12504843356E+03 -0.80429796906E+02  0.17580398710E+03  0.92091346746E+02 0.  0.
         23    2    1    2    0    0  0.93486169268E+02  0.22965016626E+02 -0.42474386825E+03  0.44490565883E+03  0.90921041612E+02 0.  0.
        -11    1    4    4    0    0  0.66364239581E+02 -0.16748738782E+02 -0.13673312422E+03  0.15290742234E+03  0.00000000000E+00 0.  1.
         11    1    4    4    0    0  0.27121929687E+02  0.39713755408E+02 -0.28801074403E+03  0.29199823649E+03  0.00000000000E+00 0. -1.
        -11    1    3    3    0    0  0.37534520522E+02 -0.10755390373E+03 -0.28244237403E+02  0.11736447241E+03  0.00000000000E+00 0. -1.
         11    1    3    3    0    0 -0.19641427721E+02 -0.17494529832E+02 -0.52185559502E+02  0.58439514693E+02  0.00000000000E+00 0.  1.
         21    1    1    2  502  501 -0.11137926207E+03  0.10208341693E+03 -0.66562723096E+02  0.16509682049E+03  0.00000000000E+00 0.  1.
<scales pt_clust_5="13000.00000" pt_clust_6="13000.00000" pt_clust_7="13000.00000" pt_clust_8="13000.00000" pt_clust_9="131.35419"></scales>
<clustering>
<clus scale="   90.921">  5  6 -1 -1</clus>
<clus scale="   92.091">  7  8 -1 -1</clus>
<clus scale="  132.415">  2  5  1 -1</clus>
<clus scale="  131.354">  2  9  1 -1</clus>
<clus scale="  132.415">  2  5  1 -1</clus>
</clustering>
</event>
<event>
 9    1  0.1434065E-005  0.1078961E+03  0.7546771E-02  0.1269291E+00
          3   -1    0    0  502    0  0.00000000000E+00  0.00000000000E+00  0.54133911872E+03  0.54133911872E+03  0.00000000000E+00 0. -1.
         -3   -1    0    0    0  501 -0.00000000000E+00 -0.00000000000E+00 -0.11308853879E+03  0.11308853879E+03  0.00000000000E+00 0.  1.
         23    2    1    2    0    0  0.50068427471E+02 -0.47180530405E+01 -0.63931329818E+02  0.12304597352E+03  0.92325452680E+02 0.  0.
         23    2    1    2    0    0 -0.25330218536E+02  0.21690769939E+02  0.48955004332E+03  0.50126559493E+03  0.10244921799E+03 0.  0.
        -11    1    4    4    0    0 -0.24897197690E+01 -0.38212415718E+02  0.11339322397E+03  0.11968463001E+03  0.00000000000E+00 0.  1.
         11    1    4    4    0    0 -0.22840498767E+02  0.59903185658E+02  0.37615681936E+03  0.38158096491E+03  0.00000000000E+00 0. -1.
        -13    1    3    3    0    0  0.20033757833E+02  0.42275501757E+00 -0.84132892263E+02  0.86486263275E+02  0.00000000000E+00 0.  1.
         13    1    3    3    0    0  0.30034669638E+02 -0.51408080580E+01  0.20201562446E+02  0.36559710242E+02  0.00000000000E+00 0. -1.
         21    1    1    2  502  501 -0.24738208934E+02 -0.16972716899E+02  0.26318664212E+01  0.30116089073E+02  0.00000000000E+00 0. -1.
<scales pt_clust_5="13000.00000" pt_clust_6="13000.00000" pt_clust_7="13000.00000" pt_clust_8="13000.00000" pt_clust_9="30.00087"></scales>
<clustering>
<clus scale="   30.001">  2  9  1 -1</clus>
<clus scale="   92.325">  7  8 -1 -1</clus>
<clus scale="   98.335">  2  7  1 -1</clus>
<clus scale="  102.449">  5  6 -1 -1</clus>
<clus scale="  107.896">  1  5  2 -1</clus>
</clustering>
</event>
<event>
 9    1  0.1434065E-005  0.1088475E+03  0.7546771E-02  0.1265508E+00
         -1   -1    0    0    0  501 -0.00000000000E+00  0.00000000000E+00  0.40216023277E+02  0.40216023277E+02  0.00000000000E+00 0.  1.
          1   -1    0    0  502    0  0.00000000000E+00 -0.00000000000E+00 -0.52224675688E+03  0.52224675688E+03  0.00000000000E+00 0. -1.
         23    2    1    2    0    0  0.29866465080E+02  0.53886419332E+01 -0.70796568262E+02  0.11790401887E+03  0.89264552819E+02 0.  0.
         23    2    1    2    0    0 -0.58646192647E+02 -0.18659791042E+01 -0.39632650491E+03  0.41195630414E+03  0.95866783818E+02 0.  0.
        -13    1    4    4    0    0  0.42524068201E+01 -0.35404828446E+02 -0.19854045053E+03  0.20171736499E+03  0.00000000000E+00 0.  1.
         13    1    4    4    0    0 -0.62898599467E+02  0.33538849342E+02 -0.19778605438E+03  0.21023893916E+03  0.00000000000E+00 0. -1.
        -13    1    3    3    0    0 -0.30016225652E+02 -0.91196474358E+01 -0.33426864384E+02  0.45842088022E+02  0.00000000000E+00 0. -1.
         13    1    3    3    0    0  0.59882690732E+02  0.14508289369E+02 -0.37369703878E+02  0.72061930849E+02  0.00000000000E+00 0.  1.
         21    1    1    2  502  501  0.28779727566E+02 -0.35226628290E+01 -0.14907660431E+02  0.32602457142E+02  0.00000000000E+00 0.  1.
<scales pt_clust_5="13000.00000" pt_clust_6="13000.00000" pt_clust_7="13000.00000" pt_clust_8="13000.00000" pt_clust_9="28.99451"></scales>
<clustering>
<clus scale="   28.995">  1  9  2 -1</clus>
<clus scale="   89.265">  7  8 -1 -1</clus>
<clus scale="   95.867">  5  6 -1 -1</clus>
<clus scale="  103.080">  1  7  2 -1</clus>
<clus scale="  108.847">  2  5  1 -1</clus>
</clustering>
</event>
<event>
 9    1  0.1434065E-005  0.1148579E+03  0.7546771E-02  0.1255123E+00
         -1   -1    0    0    0  501 -0.00000000000E+00  0.00000000000E+00  0.39127804300E+02  0.39127804300E+02  0.00000000000E+00 0.  1.
          1   -1    0    0  502    0  0.00000000000E+00 -0.00000000000E+00 -0.58533116882E+03  0.58533116882E+03  0.00000000000E+00 0. -1.
         23    2    1    2    0    0 -0.65217415387E+02  0.22724967396E+02 -0.12074732979E+03  0.16249399462E+03  0.83991935467E+02 0.  0.
         23    2    1    2    0    0  0.53883112813E+02 -0.40550250140E+02 -0.42558241312E+03  0.44084098523E+03  0.93127177925E+02 0.  0.
        -13    1    3    3    0    0  0.63804495110E+01 -0.19111457443E+02 -0.61994872378E+01  0.21080597325E+02  0.00000000000E+00 0. -1.
         13    1    3    3    0    0 -0.71597864898E+02  0.41836424840E+02 -0.11454784256E+03  0.14141339730E+03  0.00000000000E+00 0.  1.
        -13    1    4    4    0    0 -0.23947986462E+02 -0.26516706143E+02 -0.14355528285E+03  0.14793498908E+03  0.00000000000E+00 0.  1.
         13    1    4    4    0    0  0.77831099275E+02 -0.14033543996E+02 -0.28202713027E+03  0.29290599615E+03  0.00000000000E+00 0. -1.
         21    1    1    2  502  501  0.11334302575E+02  0.17825282743E+02  0.12637840077E+00  0.21123993260E+02  0.00000000000E+00 0.  1.
<scales pt_clust_5="13000.00000" pt_clust_6="13000.00000" pt_clust_7="13000.00000" pt_clust_8="13000.00000" pt_clust_9="21.12362"></scales>
<clustering>
<clus scale="   21.124">  1  9  2 -1</clus>
<clus scale="   83.992">  5  6 -1 -1</clus>
<clus scale="   93.127">  7  8 -1 -1</clus>
<clus scale="  107.584">  1  5  2 -1</clus>
<clus scale="  114.858">  2  5  1 -1</clus>
</clustering>
</event>
<event>
 9    1  0.1434065E-005  0.1461572E+03  0.7546771E-02  0.1205403E+00
         -2   -1    0    0    0  501 -0.00000000000E+00  0.00000000000E+00  0.12358283736E+03  0.12358283736E+03  0.00000000000E+00 0.  1.
          2   -1    0    0  502    0  0.00000000000E+00 -0.00000000000E+00 -0.64528464075E+03  0.64528464075E+03  0.00000000000E+00 0. -1.
         23    2    1    2    0    0  0.86295997277E+02 -0.22548041223E+02 -0.17542913659E+03  0.21517884946E+03  0.87012309377E+02 0.  0.
         23    2    1    2    0    0 -0.13595886296E+03  0.28674338532E+02 -0.42781029718E+03  0.45802088635E+03  0.86339167539E+02 0.  0.
        -11    1    4    4    0    0 -0.51685875869E+02 -0.24519235342E+02 -0.22344489849E+03  0.23065178370E+03  0.00000000000E+00 0.  1.
         11    1    4    4    0    0 -0.84272987088E+02  0.53193573875E+02 -0.20436539869E+03  0.22736910265E+03  0.00000000000E+00 0. -1.
        -13    1    3    3    0    0  0.11041950674E+02  0.25390455209E+02 -0.79430312258E+02  0.84117622386E+02  0.00000000000E+00 0. -1.
         13    1    3    3    0    0  0.75254046602E+02 -0.47938496432E+02 -0.95998824333E+02  0.13106122708E+03  0.00000000000E+00 0.  1.
         21    1    1    2  502  501  0.49662865681E+02 -0.61262973095E+01  0.81537630385E+02  0.95667742291E+02  0.00000000000E+00 0.  1.
<scales pt_clust_5="13000.00000" pt_clust_6="13000.00000" pt_clust_7="13000.00000" pt_clust_8="13000.00000" pt_clust_9="50.03930"></scales>
<clustering>
<clus scale="   50.039">  1  9  2 -1</clus>
<clus scale="   86.339">  5  6 -1 -1</clus>
<clus scale="   87.012">  7  8 -1 -1</clus>
<clus scale="  145.757">  2  5  1 -1</clus>
<clus scale="  145.757">  2  5  1 -1</clus>
</clustering>
</event>
<event>
 9    1  0.1434065E-005  0.1404135E+03  0.7546771E-02  0.1213115E+00
         -1   -1    0    0    0  501 -0.00000000000E+00  0.00000000000E+00  0.84758397711E+02  0.84758397711E+02  0.00000000000E+00 0.  1.
          1   -1    0    0  502    0  0.00000000000E+00 -0.00000000000E+00 -0.35643934141E+03  0.35643934141E+03  0.00000000000E+00 0. -1.
         23    2    1    2    0    0  0.82306445570E+01  0.12286178451E+03 -0.64863168022E+02  0.16893156791E+03  0.95749059879E+02 0.  0.
         23    2    1    2    0    0 -0.24895567291E+02 -0.89482184794E+02 -0.18610039481E+03  0.22959150428E+03  0.97221660267E+02 0.  0.
        -11    1    4    4    0    0  0.27993931160E+01  0.20629787347E+02 -0.32094636001E+02  0.38255592896E+02  0.00000000000E+00 0.  1.
         11    1    4    4    0    0 -0.27694960407E+02 -0.11011197214E+03 -0.15400575881E+03  0.19133591139E+03  0.00000000000E+00 0. -1.
        -13    1    3    3    0    0 -0.43346998114E+02  0.47732066697E+02 -0.32673173271E+02  0.72283114821E+02  0.00000000000E+00 0. -1.
         13    1    3    3    0    0  0.51577642671E+02  0.75129717816E+02 -0.32189994751E+02  0.96648453090E+02  0.00000000000E+00 0.  1.
         21    1    1    2  502  501  0.16664922734E+02 -0.33379599719E+02 -0.20717380867E+02  0.42674666925E+02  0.00000000000E+00 0. -1.
<scales pt_clust_5="13000.00000" pt_clust_6="13000.00000" pt_clust_7="13000.00000" pt_clust_8="13000.00000" pt_clust_9="37.30841"></scales>
<clustering>
<clus scale="   37.308">  1  9  2 -1</clus>
<clus scale="   95.749">  7  8 -1 -1</clus>
<clus scale="   97.222">  5  6 -1 -1</clus>
<clus scale="  139.398">  1  7  2 -1</clus>
<clus scale="  140.413">  2  5  1 -1</clus>
</clustering>
</event>
<event>
 9    1  0.1434065E-005  0.1072194E+03  0.7546771E-02  0.1268135E+00
         -3   -1    0    0    0  501 -0.00000000000E+00  0.00000000000E+00  0.22036342634E+03  0.22036342634E+03  0.00000000000E+00 0.  1.
          3   -1    0    0  502    0  0.00000000000E+00 -0.00000000000E+00 -0.37479238633E+03  0.37479238633E+03  0.00000000000E+00 0. -1.
         23    2    1    2    0    0  0.24753472461E+02 -0.68233991079E+02 -0.17957879752E+03  0.21435494578E+03  0.91819858006E+02 0.  0.
         23    2    1    2    0    0 -0.32902844647E+02  0.57892598681E+01 -0.15726992568E+03  0.18781711956E+03  0.97084129289E+02 0.  0.
        -11    1    3    3    0    0  0.56018533717E+02 -0.36268867336E+02 -0.13803672715E+03  0.15332203005E+03  0.00000000000E+00 0.  1.
         11    1    3    3    0    0 -0.31265061257E+02 -0.31965123743E+02 -0.41542070367E+02  0.61032915723E+02  0.00000000000E+00 0. -1.
        -13    1    4    4    0    0 -0.62272563686E+00 -0.43626462402E+02 -0.68479480157E+02  0.81197876890E+02  0.00000000000E+00 0.  1.
         13    1    4    4    0    0 -0.32280119010E+02  0.49415722270E+02 -0.88790445527E+02  0.10661924267E+03  0.00000000000E+00 0. -1.
         21    1    1    2  502  501  0.81493721863E+01  0.62444731211E+02  0.18241976321E+03  0.19298374733E+03  0.00000000000E+00 0.  1.
<scales pt_clust_5="13000.00000" pt_clust_6="13000.00000" pt_clust_7="13000.00000" pt_clust_8="13000.00000" pt_clust_9="62.97425"></scales>
<clustering>
<clus scale="   62.974">  1  9  2 -1</clus>
<clus scale="   91.820">  5  6 -1 -1</clus>
<clus scale="   97.084">  7  8 -1 -1</clus>
<clus scale="  102.477">  1  5  2 -1</clus>
<clus scale="  107.219">  2  5  1 -1</clus>
</clustering>
</event>
<event>
 9    1  0.1434065E-005  0.2042150E+03  0.7546771E-02  0.1180245E+00
         -2   -1    0    0    0  501 -0.00000000000E+00  0.00000000000E+00  0.10772350477E+03  0.10772350477E+03  0.00000000000E+00 0.  1.
          2   -1    0    0  502    0  0.00000000000E+00 -0.00000000000E+00 -0.56991485363E+03  0.56991485363E+03  0.00000000000E+00 0. -1.
         23    2    1    2    0    0  0.41528116638E+02  0.27559976697E+02 -0.66469970584E+02  0.11424360702E+03  0.78416885741E+02 0.  0.
         23    2    1    2    0    0  0.13040736627E+03 -0.11129643826E+03 -0.12114620717E+03  0.22878284205E+03  0.90951673760E+02 0.  0.
        -11    1    4    4    0    0  0.10211932022E+03 -0.12010088112E+03 -0.76567992309E+02  0.17525762367E+03  0.00000000000E+00 0.  1.
         11    1    4    4    0    0  0.28288046044E+02  0.88044428546E+01 -0.44578214861E+02  0.53525218385E+02  0.00000000000E+00 0. -1.
        -13    1    3    3    0    0  0.41330114020E+02 -0.19437944128E+02 -0.28620717815E+02  0.53899512847E+02  0.00000000000E+00 0. -1.
         13    1    3    3    0    0  0.19800261790E+00  0.46997920825E+02 -0.37849252768E+02  0.60344094177E+02  0.00000000000E+00 0.  1.
         21    1    1    2  502  501 -0.17193548291E+03  0.83736461563E+02 -0.27457517111E+03  0.33461190933E+03  0.00000000000E+00 0.  1.
<scales pt_clust_5="13000.00000" pt_clust_6="13000.00000" pt_clust_7="13000.00000" pt_clust_8="13000.00000" pt_clust_9="182.84294"></scales>
<clustering>
<clus scale="   78.417">  7  8 -1 -1</clus>
<clus scale="   90.952">  5  6 -1 -1</clus>
<clus scale="   92.916">  1  7  2 -1</clus>
<clus scale="  182.843">  2  9  1 -1</clus>
<clus scale="  182.843">  2  5  1 -1</clus>
</clustering>
</event>
<event>
 9    1  0.1434065E-005  0.1067289E+03  0.7546771E-02  0.1274662E+00
          1   -1    0    0  502    0  0.00000000000E+00  0.00000000000E+00  0.64577035717E+02  0.64577035717E+02  0.00000000000E+00 0. -1.
         -1   -1    0    0    0  501 -0.00000000000E+00 -0.00000000000E+00 -0.47546306367E+03  0.47546306367E+03  0.00000000000E+00 0.  1.
         23    2    1    2    0    0 -0.90395252158E+01 -0.32931851110E+02 -0.14104898282E+03  0.17993253317E+03  0.10637048983E+03 0.  0.
         23    2    1    2    0    0  0.11531030838E+01  0.97594673360E+00 -0.29973941412E+01  0.91245566629E+02  0.91183808535E+02 0.  0.
        -13    1    4    4    0    0  0.18980912987E+02 -0.38437382755E+02  0.13507161169E+02  0.44946088302E+02  0.00000000000E+00 0.  1.
         13    1    4    4    0    0 -0.17827809903E+02  0.39413329488E+02 -0.16504555310E+02  0.46299478326E+02  0.00000000000E+00 0. -1.
        -13    1    3    3    0    0  0.34118913139E+02 -0.53455294300E+02 -0.88865197821E+02  0.10917230467E+03  0.00000000000E+00 0.  1.
         13    1    3    3    0    0 -0.43158438355E+02  0.20523443190E+02 -0.52183784997E+02  0.70760228506E+02  0.00000000000E+00 0. -1.
         21    1    1    2  502  501  0.78864221319E+01  0.31955904376E+02 -0.26683965099E+03  0.26886199959E+03  0.00000000000E+00 0.  1.
<scales pt_clust_5="13000.00000" pt_clust_6="13000.00000" pt_clust_7="13000.00000" pt_clust_8="13000.00000" pt_clust_9="32.91467"></scales>
<clustering>
<clus scale="   32.915">  2  9  1 -1</clus>
<clus scale="   91.184">  5  6 -1 -1</clus>
<clus scale="   91.602">  1  5  2 -1</clus>
<clus scale="  106.370">  7  8 -1 -1</clus>
<clus scale="   91.602">  1  5  2 -1</clus>
</clustering>
</event>
<event>
 9    1  0.1434065E-005  0.9904477E+02  0.7546771E-02  0.1283375E+00
          1   -1    0    0  502    0  0.00000000000E+00  0.00000000000E+00  0.80314380747E+02  0.80314380747E+02  0.00000000000E+00 0. -1.
         -1   -1    0    0    0  501 -0.00000000000E+00 -0.00000000000E+00 -0.35174261407E+03  0.35174261407E+03  0.00000000000E+00 0.  1.
         23    2    1    2    0    0  0.46773298092E+02  0.27830187638E+02 -0.24180677399E+03  0.26327728934E+03  0.88781497930E+02 0.  0.
         23    2    1    2    0    0 -0.14608606716E+02 -0.35495135288E+02  0.27785051885E+02  0.10253148796E+03  0.90925138970E+02 0.  0.
        -11    1    4    4    0    0  0.26815826224E+02 -0.45271016748E+02  0.17669831155E+01  0.52646706666E+02  0.00000000000E+00 0. -1.
         11    1    4    4    0    0 -0.41424432939E+02  0.97758814597E+01  0.26018068769E+02  0.49884781298E+02  0.00000000000E+00 0.  1.
        -11    1    3    3    0    0  0.87575863128E+01  0.30866350698E+02 -0.19122540442E+02  0.37351017073E+02  0.00000000000E+00 0. -1.
         11    1    3    3    0    0  0.38015711780E+02 -0.30361630594E+01 -0.22268423355E+03  0.22592627227E+03  0.00000000000E+00 0.  1.
         21    1    1    2  502  501 -0.32164691377E+02  0.76649476500E+01 -0.57406511213E+02  0.66248217512E+02  0.00000000000E+00 0. -1.
<scales pt_clust_5="13000.00000" pt_clust_6="13000.00000" pt_clust_7="13000.00000" pt_clust_8="13000.00000" pt_clust_9="33.06537"></scales>
<clustering>
<clus scale="   33.065">  2  9  1 -1</clus>
<clus scale="   88.781">  7  8 -1 -1</clus>
<clus scale="   90.925">  5  6 -1 -1</clus>
<clus scale="   97.081">  2  7  1 -1</clus>
<clus scale="   99.045">  1  5  2 -1</clus>
</clustering>
</event>
<event>
 9    1  0.1434065E-005  0.1372421E+03  0.7546771E-02  0.1217853E+00
         -1   -1    0    0    0  501 -0.00000000000E+00  0.00000000000E+00  0.11667855439E+03  0.11667855439E+03  0.00000000000E+00 0.  1.
          1   -1    0    0  502    0  0.00000000000E+00 -0.00000000000E+00 -0.40545583499E+03  0.40545583499E+03  0.00000000000E+00 0. -1.
         23    2    1    2    0    0 -0.89930806038E+02  0.41409870349E+02 -0.92901739080E+02  0.16573068071E+03  0.95045242732E+02 0.  0.
         23    2    1    2    0    0  0.98859007879E+02 -0.16048267218E+02 -0.25639418607E+03  0.29018112915E+03  0.91850197300E+02 0.  0.
        -11    1    3    3    0    0 -0.33566807686E+02 -0.14259252608E+02  0.81080783438E+01  0.37360377375E+02  0.00000000000E+00 0.  1.
         11    1    3    3    0    0 -0.56363998352E+02  0.55669122957E+02 -0.10100981742E+03  0.12837030333E+03  0.00000000000E+00 0. -1.
        -11    1    4    4    0    0  0.57809473997E+01 -0.22085794943E+02 -0.69433650078E+01  0.23862355473E+02  0.00000000000E+00 0.  1.
         11    1    4    4    0    0  0.93078060480E+02  0.60375277241E+01 -0.24945082106E+03  0.26631877367E+03  0.00000000000E+00 0. -1.
         21    1    1    2  502  501 -0.89282018412E+01 -0.25361603131E+02  0.60518644545E+02  0.66222579526E+02  0.00000000000E+00 0.  1.
<scales pt_clust_5="13000.00000" pt_clust_6="13000.00000" pt_clust_7="13000.00000" pt_clust_8="13000.00000" pt_clust_9="26.88724"></scales>
<clustering>
<clus scale="   26.887">  1  9  2 -1</clus>
<clus scale="   91.850">  7  8 -1 -1</clus>
<clus scale="   95.045">  5  6 -1 -1</clus>
<clus scale="  135.049">  2  7  1 -1</clus>
<clus scale="  135.049">  2  5  1 -1</clus>
</clustering>
</event>
<event>
 9    1  0.1434065E-005  0.1986763E+03  0.7546771E-02  0.1151132E+00
          1   -1    0    0  502    0  0.00000000000E+00  0.00000000000E+00  0.50495124875E+03  0.50495124875E+03  0.00000000000E+00 0. -1.
         -1   -1    0    0    0  501 -0.00000000000E+00 -0.00000000000E+00 -0.22949306571E+03  0.22949306571E+03  0.00000000000E+00 0.  1.
         23    2    1    2    0    0 -0.12851777177E+03 -0.10979527034E+03 -0.12665150351E+03  0.22911258523E+03  0.88770233302E+02 0.  0.
         23    2    1    2    0    0  0.14779000382E+03  0.98062018250E+02  0.42723442941E+03  0.47156279623E+03  0.91565105078E+02 0.  0.
        -11    1    3    3    0    0 -0.11082893487E+03 -0.59819141180E+02 -0.12289169647E+03  0.17596519973E+03  0.00000000000E+00 0.  1.
         11    1    3    3    0    0 -0.17688836901E+02 -0.49976129156E+02 -0.37598070410E+01  0.53147385498E+02  0.00000000000E+00 0. -1.
        -11    1    4    4    0    0  0.10065127234E+03  0.10850370183E+03  0.28143371101E+03  0.31797588843E+03  0.00000000000E+00 0. -1.
         11    1    4    4    0    0  0.47138731479E+02 -0.10441683577E+02  0.14580071840E+03  0.15358690780E+03  0.00000000000E+00 0.  1.
         21    1    1    2  502  501 -0.19272232047E+02  0.11733252086E+02 -0.25124742852E+02  0.33768933000E+02  0.00000000000E+00 0. -1.
<scales pt_clust_5="13000.00000" pt_clust_6="13000.00000" pt_clust_7="13000.00000" pt_clust_8="13000.00000" pt_clust_9="22.56298"></scales>
<clustering>
<clus scale="   22.563">  2  9  1 -1</clus>
<clus scale="   88.770">  5  6 -1 -1</clus>
<clus scale="   91.565">  7  8 -1 -1</clus>
<clus scale="  197.404">  2  5  1 -1</clus>
<clus scale="  198.676">  1  5  2 -1</clus>
</clustering>
</event>
<event>
 9    1  0.1434065E-005  0.1251285E+03  0.7546771E-02  0.1236432E+00
          2   -1    0    0  502    0  0.00000000000E+00  0.00000000000E+00  0.16749013500E+03  0.16749013500E+03  0.00000000000E+00 0. -1.
         -2   -1    0    0    0  501 -0.00000000000E+00 -0.00000000000E+00 -0.19237326626E+03  0.19237326626E+03  0.00000000000E+00 0.  1.
         23    2    1    2    0    0 -0.94281066025E+02  0.14192166099E+02 -0.35871173584E+02  0.13790656451E+03  0.92957745516E+02 0.  0.
         23    2    1    2    0    0  0.71435824029E+02  0.48636211031E+02  0.62079855234E+02  0.13781598222E+03  0.87582980943E+02 0.  0.
        -11    1    4    4    0    0  0.26410725161E+02  0.33984130152E+02  0.76965216925E+02  0.88182153081E+02  0.00000000000E+00 0. -1.
         11    1    4    4    0    0  0.45025098868E+02  0.14652080879E+02 -0.14885361691E+02  0.49633829137E+02  0.00000000000E+00 0.  1.
        -11    1    3    3    0    0 -0.37811291824E+02  0.41411531465E+02  0.14003745767E+02  0.57798906765E+02  0.00000000000E+00 0. -1.
         11    1    3    3    0    0 -0.56469774201E+02 -0.27219365366E+02 -0.49874919351E+02  0.80107657746E+02  0.00000000000E+00 0.  1.
         21    1    1    2  502  501  0.22845241996E+02 -0.62828377130E+02 -0.51091812910E+02  0.84140854531E+02  0.00000000000E+00 0.  1.
<scales pt_clust_5="13000.00000" pt_clust_6="13000.00000" pt_clust_7="13000.00000" pt_clust_8="13000.00000" pt_clust_9="66.85290"></scales>
<clustering>
<clus scale="   66.853">  2  9  1 -1</clus>
<clus scale="   87.583">  5  6 -1 -1</clus>
<clus scale="   92.958">  7  8 -1 -1</clus>
<clus scale="  121.189">  1  5  2 -1</clus>
<clus scale="  121.189">  1  5  2 -1</clus>
</clustering>
</event>
<event>
 9    1  0.1434065E-005  0.9436813E+02  0.7546771E-02  0.1292808E+00
         -1   -1    0    0    0  501 -0.00000000000E+00  0.00000000000E+00  0.16127067353E+03  0.16127067353E+03  0.00000000000E+00 0.  1.
          1   -1    0    0  502    0  0.00000000000E+00 -0.00000000000E+00 -0.17032105173E+03  0.17032105173E+03  0.00000000000E+00 0. -1.
         23    2    1    2    0    0 -0.33803752056E+02 -0.89405334838E+01  0.14495070434E+02  0.99584418083E+02  0.92110381966E+02 0.  0.
         23    2    1    2    0    0 -0.37242640849E+01  0.20943035911E+02 -0.10500053393E+03  0.14152336948E+03  0.92473083035E+02 0.  0.
        -11    1    4    4    0    0 -0.43358495698E+02  0.16431268772E+02 -0.85175326384E+02  0.96978255126E+02  0.00000000000E+00 0. -1.
         11    1    4    4    0    0  0.39634231613E+02  0.45117671391E+01 -0.19825207551E+02  0.44545114353E+02  0.00000000000E+00 0.  1.
        -11    1    3    3    0    0 -0.63938764007E+02 -0.16288372735E+02  0.16206388188E+01  0.66000781050E+02  0.00000000000E+00 0.  1.
         11    1    3    3    0    0  0.30135011951E+02  0.73478392511E+01  0.12874431615E+02  0.33583637033E+02  0.00000000000E+00 0. -1.
         21    1    1    2  502  501  0.37528016141E+02 -0.12002502427E+02  0.81455085305E+02  0.90483937702E+02  0.00000000000E+00 0.  1.
<scales pt_clust_5="13000.00000" pt_clust_6="13000.00000" pt_clust_7="13000.00000" pt_clust_8="13000.00000" pt_clust_9="39.40066"></scales>
<clustering>
<clus scale="   39.401">  1  9  2 -1</clus>
<clus scale="   92.110">  7  8 -1 -1</clus>
<clus scale="   92.473">  5  6 -1 -1</clus>
<clus scale="   94.013">  1  7  2 -1</clus>
<clus scale="   94.368">  2  5  1 -1</clus>
</clustering>
</event>
<event>
 9    1  0.1434065E-005  0.1086363E+03  0.7546771E-02  0.1263479E+00
          2   -1    0    0  502    0  0.00000000000E+00  0.00000000000E+00  0.49990535688E+03  0.49990535688E+03  0.00000000000E+00 0. -1.
         -2   -1    0    0    0  501 -0.00000000000E+00 -0.00000000000E+00 -0.12193580881E+03  0.12193580881E+03  0.00000000000E+00 0.  1.
         23    2    1    2    0    0  0.17266433531E+02  0.85093448660E+01  0.10545291892E+03  0.13859228547E+03  0.87846256650E+02 0.  0.
         23    2    1    2    0    0 -0.27334474627E+02 -0.95445610872E+02  0.34486946858E+03  0.36969619125E+03  0.88787867034E+02 0.  0.
        -11    1    4    4    0    0  0.50637543214E+00 -0.93701636992E+02  0.18463347787E+03  0.20705017349E+03  0.00000000000E+00 0. -1.
         11    1    4    4    0    0 -0.27840850059E+02 -0.17439738796E+01  0.16023599071E+03  0.16264601776E+03  0.00000000000E+00 0.  1.
        -13    1    3    3    0    0 -0.34970965280E+02 -0.56999771773E+01  0.35724310796E+02  0.50315847744E+02  0.00000000000E+00 0.  1.
         13    1    3    3    0    0  0.52237398810E+02  0.14209322043E+02  0.69728608121E+02  0.88276437728E+02  0.00000000000E+00 0. -1.
         21    1    1    2  502  501  0.10068041096E+02  0.86936266006E+02 -0.72352839424E+02  0.11355268897E+03  0.00000000000E+00 0.  1.
<scales pt_clust_5="13000.00000" pt_clust_6="13000.00000" pt_clust_7="13000.00000" pt_clust_8="13000.00000" pt_clust_9="87.51731"></scales>
<clustering>
<clus scale="   87.517">  2  9  1 -1</clus>
<clus scale="   87.846">  7  8 -1 -1</clus>
<clus scale="   88.788">  5  6 -1 -1</clus>
<clus scale="  107.868">  2  7  1 -1</clus>
<clus scale="  108.636">  1  5  2 -1</clus>
</clustering>
</event>
<event>
 9    1  0.1434065E-005  0.9214384E+02  0.7546771E-02  0.1298128E+00
         -2   -1    0    0    0  501 -0.00000000000E+00  0.00000000000E+00  0.14942505868E+03  0.14942505868E+03  0.00000000000E+00 0.  1.
          2   -1    0    0  502    0  0.00000000000E+00 -0.00000000000E+00 -0.12538182025E+03  0.12538182025E+03  0.00000000000E+00 0. -1.
         23    2    1    2    0    0  0.96233291778E+01  0.42624819073E+01  0.55758591032E+02  0.10575240850E+03  0.89239981029E+02 0.  0.
         23    2    1    2    0    0  0.57714627565E+01  0.27132345985E+02 -0.69946156536E+02  0.11724492299E+03  0.89913476028E+02 0.  0.
        -11    1    3    3    0    0  0.40377220438E+02 -0.10771411593E+01  0.61926445587E+02  0.73934868813E+02  0.00000000000E+00 0.  1.
         11    1    3    3    0    0 -0.30753891260E+02  0.53396230666E+01 -0.61678545552E+01  0.31817539691E+02  0.00000000000E+00 0. -1.
        -11    1    4    4    0    0 -0.12566793783E+02  0.50682259800E+02 -0.70082735812E+02  0.87396828451E+02  0.00000000000E+00 0. -1.
         11    1    4    4    0    0  0.18338256540E+02 -0.23549913815E+02  0.13657927539E+00  0.29848094538E+02  0.00000000000E+00 0.  1.
         21    1    1    2  502  501 -0.15394791934E+02 -0.31394827892E+02  0.38230803931E+02  0.51809547444E+02  0.00000000000E+00 0.  1.
<scales pt_clust_5="13000.00000" pt_clust_6="13000.00000" pt_clust_7="13000.00000" pt_clust_8="13000.00000" pt_clust_9="34.96620"></scales>
<clustering>
<clus scale="   34.966">  1  9  2 -1</clus>
<clus scale="   89.240">  5  6 -1 -1</clus>
<clus scale="   89.913">  7  8 -1 -1</clus>
<clus scale="   91.487">  1  5  2 -1</clus>
<clus scale="   92.144">  2  5  1 -1</clus>
</clustering>
</event>
<event>
 9    1  0.1434065E-005  0.9898835E+02  0.7546771E-02  0.1282861E+00
         -1   -1    0    0    0  501 -0.00000000000E+00  0.00000000000E+00  0.65815146682E+02  0.65815146682E+02  0.00000000000E+00 0.  1.
          1   -1    0    0  502    0  0.00000000000E+00 -0.00000000000E+00 -0.37337750630E+03  0.37337750630E+03  0.00000000000E+00 0. -1.
         23    2    1    2    0    0 -0.49118738872E+02 -0.34816497907E+02 -0.72544036896E+02  0.13175202008E+03  0.92038679209E+02 0.  0.
         23    2    1    2    0    0  0.28138345059E+02 -0.31641960481E+02 -0.21099514560E+03  0.23372484996E+03  0.91188671970E+02 0.  0.
        -11    1    4    4    0    0  0.48690115239E+02 -0.97696449960E+01 -0.51931171690E+02  0.71854157002E+02  0.00000000000E+00 0.  1.
         11    1    4    4    0    0 -0.20551770181E+02 -0.21872315485E+02 -0.15906397391E+03  0.16187069296E+03  0.00000000000E+00 0. -1.
        -13    1    3    3    0    0 -0.34023318050E+02  0.25668523034E+02 -0.10706111165E+02  0.43944056050E+02  0.00000000000E+00 0. -1.
         13    1    3    3    0    0 -0.15095420823E+02 -0.60485020941E+02 -0.61837925730E+02  0.87807964027E+02  0.00000000000E+00 0.  1.
         21    1    1    2  502  501  0.20980393814E+02  0.66458458388E+02 -0.24023177119E+02  0.73715782942E+02  0.00000000000E+00 0.  1.
<scales pt_clust_5="13000.00000" pt_clust_6="13000.00000" pt_clust_7="13000.00000" pt_clust_8="13000.00000" pt_clust_9="69.69149"></scales>
<clustering>
<clus scale="   69.691">  1  9  2 -1</clus>
<clus scale="   91.189">  5  6 -1 -1</clus>
<clus scale="   92.039">  7  8 -1 -1</clus>
<clus scale="   98.199">  2  5  1 -1</clus>
<clus scale="   98.199">  2  5  1 -1</clus>
</clustering>
</event>
<event>
 9    1  0.1434065E-005  0.2705108E+03  0.7546771E-02  0.1125314E+00
         -2   -1    0    0    0  501 -0.00000000000E+00  0.00000000000E+00  0.27589115166E+03  0.27589115166E+03  0.00000000000E+00 0.  1.
          2   -1    0    0  502    0  0.00000000000E+00 -0.00000000000E+00 -0.43085500335E+03  0.43085500335E+03  0.00000000000E+00 0. -1.
         23    2    1    2    0    0 -0.26271278156E+03  0.18175829182E+03 -0.50299778483E+02  0.33594872270E+03  0.90980186463E+02 0.  0.
         23    2    1    2    0    0  0.75209977987E+02 -0.88119464707E+02 -0.46082502897E+02  0.15318003487E+03  0.88988455202E+02 0.  0.
        -11    1    3    3    0    0 -0.26291356674E+03  0.15815474561E+03 -0.55454949462E+02  0.31178793844E+03  0.00000000000E+00 0. -1.
         11    1    3    3    0    0  0.20078518209E+00  0.23603546209E+02  0.51551709792E+01  0.24160784262E+02  0.00000000000E+00 0.  1.
        -13    1    4    4    0    0  0.27434769002E+00 -0.65334516237E+02 -0.34871335102E+02  0.74058654392E+02  0.00000000000E+00 0. -1.
         13    1    4    4    0    0  0.74935630296E+02 -0.22784948470E+02 -0.11211167795E+02  0.79121380474E+02  0.00000000000E+00 0.  1.
         21    1    1    2  502  501  0.18750280358E+03 -0.93638827111E+02 -0.58581570310E+02  0.21761739745E+03  0.00000000000E+00 0.  1.
<scales pt_clust_5="13000.00000" pt_clust_6="13000.00000" pt_clust_7="13000.00000" pt_clust_8="13000.00000" pt_clust_9="254.75221"></scales>
<clustering>
<clus scale="   88.988">  7  8 -1 -1</clus>
<clus scale="   90.980">  5  6 -1 -1</clus>
<clus scale="  146.084">  2  7  1 -1</clus>
<clus scale="  254.752">  1  9  2 -1</clus>
<clus scale="  146.084">  2  5  1 -1</clus>
</clustering>
</event>
<event>
 9    1  0.1434065E-005  0.1079656E+03  0.7546771E-02  0.1264952E+00
         -1   -1    0    0    0  501 -0.00000000000E+00  0.00000000000E+00  0.48823429525E+02  0.48823429525E+02  0.00000000000E+00 0.  1.
          1   -1    0    0  502    0  0.00000000000E+00 -0.00000000000E+00 -0.75051311445E+03  0.75051311445E+03  0.00000000000E+00 0. -1.
         23    2    1    2    0    0  0.26740777265E+02 -0.12442003741E+02 -0.11651130536E+03  0.15086039035E+03  0.91181689361E+02 0.  0.
         23    2    1    2    0    0 -0.58350973387E+01  0.68397533225E+02 -0.57674946522E+03  0.58815107319E+03  0.92571422915E+02 0.  0.
        -13    1    4    4    0    0  0.20345587229E+02 -0.16375622148E+02 -0.11157544951E+03  0.11459138211E+03  0.00000000000E+00 0.  1.
         13    1    4    4    0    0 -0.26180684567E+02  0.84773155373E+02 -0.46517401571E+03  0.47355969107E+03  0.00000000000E+00 0. -1.
        -13    1    3    3    0    0 -0.29323907745E+02  0.35029175729E+01 -0.13434520273E+02  0.32444542406E+02  0.00000000000E+00 0. -1.
         13    1    3    3    0    0  0.56064685011E+02 -0.15944921314E+02 -0.10307678508E+03  0.11841584794E+03  0.00000000000E+00 0.  1.
         21    1    1    2  502  501 -0.20905679927E+02 -0.55955529484E+02 -0.84289143422E+01  0.60325080439E+02  0.00000000000E+00 0.  1.
<scales pt_clust_5="13000.00000" pt_clust_6="13000.00000" pt_clust_7="13000.00000" pt_clust_8="13000.00000" pt_clust_9="59.73331"></scales>
<clustering>
<clus scale="   59.733">  1  9  2 -1</clus>
<clus scale="   91.182">  7  8 -1 -1</clus>
<clus scale="   92.571">  5  6 -1 -1</clus>
<clus scale="  106.776">  1  7  2 -1</clus>
<clus scale="  107.966">  2  5  1 -1</clus>
</clustering>
</event>
<event>
 9    1  0.1434065E-005  0.1117014E+03  0.7546771E-02  0.1257485E+00
         -2   -1    0    0    0  501 -0.00000000000E+00  0.00000000000E+00  0.34646524733E+02  0.34646524733E+02  0.00000000000E+00 0.  1.
          2   -1    0    0  502    0  0.00000000000E+00 -0.00000000000E+00 -0.62305426122E+03  0.62305426122E+03  0.00000000000E+00 0. -1.
         23    2    1    2    0    0  0.47127200858E+02 -0.66790986365E+01 -0.21165381851E+03  0.23545424496E+03  0.91519282985E+02 0.  0.
         23    2    1    2    0    0 -0.76413171744E+02  0.87357866587E+01 -0.37416207865E+03  0.39277425422E+03  0.91427932789E+02 0.  0.
        -11    1    3    3    0    0  0.24042312899E+02 -0.37174785226E+02 -0.40245849624E+02  0.59830810441E+02  0.00000000000E+00 0. -1.
         11    1    3    3    0    0  0.23084887958E+02  0.30495686589E+02 -0.17140796889E+03  0.17562343451E+03  0.00000000000E+00 0.  1.
        -11    1    4    4    0    0 -0.89119601354E+02  0.26514822794E+02 -0.25057133928E+03  0.26726641249E+03  0.00000000000E+00 0.  1.
         11    1    4    4    0    0  0.12706429610E+02 -0.17779036136E+02 -0.12359073937E+03  0.12550784174E+03  0.00000000000E+00 0. -1.
         21    1    1    2  502  501  0.29285970886E+02 -0.20566880221E+01 -0.25918393185E+01  0.29472286769E+02  0.00000000000E+00 0.  1.
<scales pt_clust_5="13000.00000" pt_clust_6="13000.00000" pt_clust_7="13000.00000" pt_clust_8="13000.00000" pt_clust_9="29.35810"></scales>
<clustering>
<clus scale="   29.358">  1  9  2 -1</clus>
<clus scale="   91.428">  7  8 -1 -1</clus>
<clus scale="   91.519">  5  6 -1 -1</clus>
<clus scale="  111.627">  2  7  1 -1</clus>
<clus scale="  111.627">  2  5  1 -1</clus>
</clustering>
</event>
<event>
 9    1  0.1434065E-005  0.9231432E+02  0.7546771E-02  0.1299504E+00
         -1   -1    0    0    0  501 -0.00000000000E+00  0.00000000000E+00  0.21806645880E+02  0.21806645880E+02  0.00000000000E+00 0.  1.
          1   -1    0    0  502    0  0.00000000000E+00 -0.00000000000E+00 -0.50333240241E+03  0.50333240241E+03  0.00000000000E+00 0. -1.
         23    2    1    2    0    0  0.65282586943E+01  0.29083266658E+02 -0.22782447718E+03  0.24680390506E+03  0.90109492216E+02 0.  0.
         23    2    1    2    0    0 -0.14285152518E+02 -0.62754096829E+01 -0.22030760430E+03  0.23715862960E+03  0.86402133843E+02 0.  0.
        -11    1    3    3    0    0  0.97246061902E+01 -0.18672553569E+02 -0.91548328775E+01  0.22957421183E+02  0.00000000000E+00 0. -1.
         11    1    3    3    0    0 -0.31963474959E+01  0.47755820227E+02 -0.21866964431E+03  0.22384648388E+03  0.00000000000E+00 0.  1.
        -11    1    4    4    0    0 -0.40661316177E+02 -0.14772124274E+02 -0.19462943217E+03  0.19937947275E+03  0.00000000000E+00 0. -1.
         11    1    4    4    0    0  0.26376163659E+02  0.84967145908E+01 -0.25678172133E+02  0.37779156850E+02  0.00000000000E+00 0.  1.
         21    1    1    2  502  501  0.77568938242E+01 -0.22807856975E+02 -0.33393675042E+02  0.41176513626E+02  0.00000000000E+00 0.  1.
<scales pt_clust_5="13000.00000" pt_clust_6="13000.00000" pt_clust_7="13000.00000" pt_clust_8="13000.00000" pt_clust_9="24.09082"></scales>
<clustering>
<clus scale="   24.091">  1  9  2 -1</clus>
<clus scale="   86.402">  7  8 -1 -1</clus>
<clus scale="   88.699">  2  7  1 -1</clus>
<clus scale="   90.109">  5  6 -1 -1</clus>
<clus scale="   88.699">  2  5  1 -1</clus>
</clustering>
</event>
<event>
 9    1  0.1434065E-005  0.1006943E+03  0.7546771E-02  0.1279838E+00
         -2   -1    0    0    0  501 -0.00000000000E+00  0.00000000000E+00  0.69365444813E+02  0.69365444813E+02  0.00000000000E+00 0.  1.
          2   -1    0    0  502    0  0.00000000000E+00 -0.00000000000E+00 -0.54002523395E+03  0.54002523395E+03  0.00000000000E+00 0. -1.
         23    2    1    2    0    0  0.26968451826E+02  0.63507025177E+02 -0.65315802125E+02  0.13228605068E+03  0.92048930227E+02 0.  0.
         23    2    1    2    0    0 -0.15311206899E+02 -0.26191117870E+02 -0.42286442740E+03  0.43426382826E+03  0.94076250291E+02 0.  0.
        -13    1    4    4    0    0  0.10963063215E+02  0.31158614722E+02 -0.10061640970E+03  0.10589952751E+03  0.00000000000E+00 0.  1.
         13    1    4    4    0    0 -0.26274270114E+02 -0.57349732592E+02 -0.32224801770E+03  0.32836430075E+03  0.00000000000E+00 0. -1.
        -13    1    3    3    0    0 -0.55774132742E+01  0.66795762010E+02 -0.96485539506E+01  0.67719095938E+02  0.00000000000E+00 0.  1.
         13    1    3    3    0    0  0.32545865100E+02 -0.32887368325E+01 -0.55667248174E+02  0.64566954740E+02  0.00000000000E+00 0. -1.
         21    1    1    2  502  501 -0.11657244927E+02 -0.37315907308E+02  0.17520440390E+02  0.42840799817E+02  0.00000000000E+00 0.  1.
<scales pt_clust_5="13000.00000" pt_clust_6="13000.00000" pt_clust_7="13000.00000" pt_clust_8="13000.00000" pt_clust_9="39.09435"></scales>
<clustering>
<clus scale="   39.094">  1  9  2 -1</clus>
<clus scale="   92.049">  7  8 -1 -1</clus>
<clus scale="   94.076">  5  6 -1 -1</clus>
<clus scale="   98.803">  1  7  2 -1</clus>
<clus scale="  100.694">  2  5  1 -1</clus>
</clustering>
</event>
<event>
 9    1  0.1434065E-005  0.1169478E+03  0.7546771E-02  0.1249911E+00
         -2   -1    0    0    0  501 -0.00000000000E+00  0.00000000000E+00  0.10387298643E+03  0.10387298643E+03  0.00000000000E+00 0.  1.
          2   -1    0    0  502    0  0.00000000000E+00 -0.00000000000E+00 -0.20171944242E+03  0.20171944242E+03  0.00000000000E+00 0. -1.
         23    2    1    2    0    0  0.35378410297E+02 -0.35731358464E+02 -0.41972473432E+02  0.11649514021E+03  0.96338295984E+02 0.  0.
         23    2    1    2    0    0 -0.76252134469E+02  0.34000323267E+02 -0.74020181045E+02  0.14434304493E+03  0.91572470890E+02 0.  0.
        -13    1    3    3    0    0  0.59481189131E+02 -0.52435637427E+02 -0.29030994932E+02  0.84441142813E+02  0.00000000000E+00 0.  1.
         13    1    3    3    0    0 -0.24102778834E+02  0.16704278962E+02 -0.12941478501E+02  0.32053997395E+02  0.00000000000E+00 0. -1.
        -13    1    4    4    0    0 -0.24322628526E+02 -0.24840605354E+02  0.23410815246E+01  0.34844319415E+02  0.00000000000E+00 0.  1.
         13    1    4    4    0    0 -0.51929505943E+02  0.58840928622E+02 -0.76361262570E+02  0.10949872552E+03  0.00000000000E+00 0. -1.
         21    1    1    2  502  501  0.40873724172E+02  0.17310351969E+01  0.18146198491E+02  0.44754243712E+02  0.00000000000E+00 0.  1.
<scales pt_clust_5="13000.00000" pt_clust_6="13000.00000" pt_clust_7="13000.00000" pt_clust_8="13000.00000" pt_clust_9="40.91036"></scales>
<clustering>
<clus scale="   40.910">  1  9  2 -1</clus>
<clus scale="   91.572">  7  8 -1 -1</clus>
<clus scale="   96.338">  5  6 -1 -1</clus>
<clus scale="  113.054">  2  7  1 -1</clus>
<clus scale="  113.054">  2  5  1 -1</clus>
</clustering>
</event>
<event>
 9    1  0.1434065E-005  0.1437164E+03  0.7546771E-02  0.1208422E+00
         -2   -1    0    0    0  501 -0.00000000000E+00  0.00000000000E+00  0.30023092517E+03  0.30023092517E+03  0.00000000000E+00 0. -1.
          2   -1    0    0  502    0  0.00000000000E+00 -0.00000000000E+00 -0.39239682972E+03  0.39239682972E+03  0.00000000000E+00 0.  1.
         23    2    1    2    0    0  0.10924575164E+03 -0.85265561611E+02  0.17820491288E+03  0.24305923350E+03  0.90088566233E+02 0.  0.
         23    2    1    2    0    0 -0.94149786817E+02  0.57344303307E+02 -0.34242529606E+03  0.37083268007E+03  0.90051328424E+02 0.  0.
        -13    1    3    3    0    0  0.41176403048E+02 -0.27461065958E+02  0.13513577526E+03  0.14391415520E+03  0.00000000000E+00 0. -1.
         13    1    3    3    0    0  0.68069348593E+02 -0.57804495654E+02  0.43069137620E+02  0.99145078299E+02  0.00000000000E+00 0.  1.
        -13    1    4    4    0    0 -0.10499023180E+03  0.25878316056E+02 -0.24265330365E+03  0.26565628505E+03  0.00000000000E+00 0.  1.
         13    1    4    4    0    0  0.10840444980E+02  0.31465987250E+02 -0.99771992406E+02  0.10517639502E+03  0.00000000000E+00 0. -1.
         21    1    1    2  502  501 -0.15095964823E+02  0.27921258305E+02  0.72054478624E+02  0.78735841324E+02  0.00000000000E+00 0.  1.
<scales pt_clust_5="13000.00000" pt_clust_6="13000.00000" pt_clust_7="13000.00000" pt_clust_8="13000.00000" pt_clust_9="31.74090"></scales>
<clustering>
<clus scale="   31.741">  1  9  2 -1</clus>
<clus scale="   90.051">  7  8 -1 -1</clus>
<clus scale="   90.089">  5  6 -1 -1</clus>
<clus scale="  143.693">  2  7  1 -1</clus>
<clus scale="  143.693">  2  5  1 -1</clus>
</clustering>
</event>
<event>
 9    1  0.1434065E-005  0.9206960E+02  0.7546771E-02  0.1301372E+00
         -3   -1    0    0    0  501 -0.00000000000E+00  0.00000000000E+00  0.30725175330E+03  0.30725175330E+03  0.00000000000E+00 0.  1.
          3   -1    0    0  502    0  0.00000000000E+00 -0.00000000000E+00 -0.64212883707E+02  0.64212883707E+02  0.00000000000E+00 0. -1.
         23    2    1    2    0    0 -0.23659245890E+02 -0.12853451375E+02  0.20794438156E+03  0.22529538029E+03  0.82414631166E+02 0.  0.
         23    2    1    2    0    0  0.32348306343E+02 -0.26659200538E+02  0.94091417474E+01  0.98247586808E+02  0.88356836004E+02 0.  0.
        -11    1    4    4    0    0  0.13527922685E+02  0.19385348820E+02 -0.27532325648E+02  0.36288088909E+02  0.00000000000E+00 0. -1.
         11    1    4    4    0    0  0.18820383658E+02 -0.46044549359E+02  0.36941467395E+02  0.61959497900E+02  0.00000000000E+00 0.  1.
        -13    1    3    3    0    0 -0.15981131944E+02  0.33129902703E+02  0.62047180663E+02  0.72130712318E+02  0.00000000000E+00 0. -1.
         13    1    3    3    0    0 -0.76781139454E+01 -0.45983354078E+02  0.14589720090E+03  0.15316466797E+03  0.00000000000E+00 0.  1.
         21    1    1    2  502  501 -0.86890604537E+01  0.39512651913E+02  0.25685346287E+02  0.47921669907E+02  0.00000000000E+00 0. -1.
<scales pt_clust_5="13000.00000" pt_clust_6="13000.00000" pt_clust_7="13000.00000" pt_clust_8="13000.00000" pt_clust_9="40.45676"></scales>
<clustering>
<clus scale="   40.457">  2  9  1 -1</clus>
<clus scale="   82.415">  7  8 -1 -1</clus>
<clus scale="   86.383">  1  7  2 -1</clus>
<clus scale="   88.357">  5  6 -1 -1</clus>
<clus scale="   40.457">  2  5  1 -1</clus>
</clustering>
</event>
<event>
 9    1  0.1434065E-005  0.1298109E+03  0.7546771E-02  0.1227876E+00
          1   -1    0    0  502    0  0.00000000000E+00  0.00000000000E+00  0.20487620577E+03  0.20487620577E+03  0.00000000000E+00 0. -1.
         -1   -1    0    0    0  501 -0.00000000000E+00 -0.00000000000E+00 -0.37749169508E+03  0.37749169508E+03  0.00000000000E+00 0.  1.
         23    2    1    2    0    0 -0.91042171275E+02  0.82487163159E+02 -0.19687509069E+03  0.24904930833E+03  0.90404356135E+02 0.  0.
         23    2    1    2    0    0  0.22502309738E+02 -0.89095138715E+02  0.14534486712E+03  0.19402387065E+03  0.89865645817E+02 0.  0.
        -11    1    3    3    0    0 -0.50729459566E+02  0.29603803146E+02 -0.16532352341E+03  0.17544723030E+03  0.00000000000E+00 0.  1.
         11    1    3    3    0    0 -0.40312711709E+02  0.52883360013E+02 -0.31551567277E+02  0.73602078023E+02  0.00000000000E+00 0. -1.
        -13    1    4    4    0    0  0.43921825106E+02 -0.92382820788E+02  0.13660036663E+03  0.17065571324E+03  0.00000000000E+00 0. -1.
         13    1    4    4    0    0 -0.21419515368E+02  0.32876820736E+01  0.87445004900E+01  0.23368157412E+02  0.00000000000E+00 0.  1.
         21    1    1    2  502  501  0.68539861537E+02  0.66079755555E+01 -0.12108526574E+03  0.13929472187E+03  0.00000000000E+00 0. -1.
<scales pt_clust_5="13000.00000" pt_clust_6="13000.00000" pt_clust_7="13000.00000" pt_clust_8="13000.00000" pt_clust_9="68.85766"></scales>
<clustering>
<clus scale="   68.858">  2  9  1 -1</clus>
<clus scale="   89.866">  7  8 -1 -1</clus>
<clus scale="   90.404">  5  6 -1 -1</clus>
<clus scale="  129.436">  1  7  2 -1</clus>
<clus scale="  129.436">  1  5  2 -1</clus>
</clustering>
</event>
<event>
 9    1  0.1434065E-005  0.9663556E+02  0.7546771E-02  0.1287582E+00
         -1   -1    0    0    0  501 -0.00000000000E+00  0.00000000000E+00  0.66020534309E+02  0.66020534309E+02  0.00000000000E+00 0.  1.
          1   -1    0    0  502    0  0.00000000000E+00 -0.00000000000E+00 -0.33134125312E+03  0.33134125312E+03  0.00000000000E+00 0. -1.
         23    2    1    2    0    0 -0.13067323604E+02 -0.24320525078E+02  0.10171694725E+01  0.96326420077E+02  0.92279475968E+02 0.  0.
         23    2    1    2    0    0 -0.16925225539E+02  0.41626031406E+02 -0.22332811057E+03  0.24581875271E+03  0.92370040945E+02 0.  0.
        -11    1    3    3    0    0 -0.20638502100E+02 -0.55196780101E+02 -0.14885216327E+02  0.60779947085E+02  0.00000000000E+00 0.  1.
         11    1    3    3    0    0  0.75711784967E+01  0.30876255023E+02  0.15902385800E+02  0.35546472993E+02  0.00000000000E+00 0. -1.
        -11    1    4    4    0    0  0.29913615064E+02  0.11397157838E+02 -0.15177013594E+03  0.15510929609E+03  0.00000000000E+00 0. -1.
         11    1    4    4    0    0 -0.46838840602E+02  0.30228873567E+02 -0.71557974634E+02  0.90709456617E+02  0.00000000000E+00 0.  1.
         21    1    1    2  502  501  0.29992549142E+02 -0.17305506328E+02 -0.43009777712E+02  0.55216614638E+02  0.00000000000E+00 0.  1.
<scales pt_clust_5="13000.00000" pt_clust_6="13000.00000" pt_clust_7="13000.00000" pt_clust_8="13000.00000" pt_clust_9="34.62706"></scales>
<clustering>
<clus scale="   34.627">  2  9  1 -1</clus>
<clus scale="   92.279">  5  6 -1 -1</clus>
<clus scale="   92.370">  7  8 -1 -1</clus>
<clus scale="   96.549">  1  5  2 -1</clus>
<clus scale="   34.627">  2  5  1 -1</clus>
</clustering>
</event>
<event>
 9    1  0.1434065E-005  0.9711262E+02  0.7546771E-02  0.1289123E+00
          1   -1    0    0  502    0  0.00000000000E+00  0.00000000000E+00  0.75271325414E+02  0.75271325414E+02  0.00000000000E+00 0. -1.
         -1   -1    0    0    0  501 -0.00000000000E+00 -0.00000000000E+00 -0.37152894842E+03  0.37152894842E+03  0.00000000000E+00 0.  1.
         23    2    1    2    0    0  0.32614339124E+02 -0.18727054302E+02 -0.73463632904E+02  0.12564406894E+03  0.94737157554E+02 0.  0.
         23    2    1    2    0    0  0.30133038528E+02 -0.52646618916E+02 -0.40881367705E+02  0.11591576829E+03  0.89919478525E+02 0.  0.
        -11    1    3    3    0    0 -0.24824521124E+02 -0.77035444271E+01  0.62905934066E+01  0.26742718844E+02  0.00000000000E+00 0. -1.
         11    1    3    3    0    0  0.57438860248E+02 -0.11023509874E+02 -0.79754226311E+02  0.98901350097E+02  0.00000000000E+00 0.  1.
        -13    1    4    4    0    0  0.24536973131E+02  0.75669583977E+01  0.18120927371E+02  0.31427534402E+02  0.00000000000E+00 0. -1.
         13    1    4    4    0    0  0.55960653977E+01 -0.60213577313E+02 -0.59002295077E+02  0.84488233886E+02  0.00000000000E+00 0.  1.
         21    1    1    2  502  501 -0.62747377652E+02  0.71373673217E+02 -0.18191262240E+03  0.20524043661E+03  0.00000000000E+00 0. -1.
<scales pt_clust_5="13000.00000" pt_clust_6="13000.00000" pt_clust_7="13000.00000" pt_clust_8="13000.00000" pt_clust_9="95.03386"></scales>
<clustering>
<clus scale="   89.919">  7  8 -1 -1</clus>
<clus scale="   94.737">  5  6 -1 -1</clus>
<clus scale="   95.034">  2  9  1 -1</clus>
<clus scale="   92.419">  1  7  2 -1</clus>
<clus scale="   92.419">  1  5  2 -1</clus>
</clustering>
</event>
<event>
 9    1  0.1434065E-005  0.9735102E+02  0.7546771E-02  0.1288025E+00
         -2   -1    0    0    0  501 -0.00000000000E+00  0.00000000000E+00  0.30514915075E+02  0.30514915075E+02  0.00000000000E+00 0.  1.
          2   -1    0    0  502    0  0.00000000000E+00 -0.00000000000E+00 -0.58152260485E+03  0.58152260485E+03  0.00000000000E+00 0. -1.
         23    2    1    2    0    0  0.26238024956E+02 -0.26530045831E+02 -0.12512437850E+03  0.15955262420E+03  0.91698705058E+02 0.  0.
         23    2    1    2    0    0  0.17065864888E+02  0.15204872125E+02 -0.35766391272E+03  0.37089217071E+03  0.95473011662E+02 0.  0.
        -11    1    3    3    0    0  0.56726179862E+02 -0.23653674461E+02 -0.10852442965E+03  0.12471931538E+03  0.00000000000E+00 0.  1.
         11    1    3    3    0    0 -0.30488154906E+02 -0.28763713698E+01 -0.16599948848E+02  0.34833308824E+02  0.00000000000E+00 0. -1.
        -13    1    4    4    0    0  0.50176045855E+02  0.19232647971E+02 -0.29549232855E+03  0.30033855323E+03  0.00000000000E+00 0.  1.
         13    1    4    4    0    0 -0.33110180967E+02 -0.40277758462E+01 -0.62171584172E+02  0.70553617486E+02  0.00000000000E+00 0. -1.
         21    1    1    2  502  501 -0.43303889844E+02  0.11325173706E+02 -0.68219398564E+02  0.81592725016E+02  0.00000000000E+00 0. -1.
<scales pt_clust_5="13000.00000" pt_clust_6="13000.00000" pt_clust_7="13000.00000" pt_clust_8="13000.00000" pt_clust_9="44.76032"></scales>
<clustering>
<clus scale="   44.760">  1  9  2 -1</clus>
<clus scale="   91.699">  5  6 -1 -1</clus>
<clus scale="   93.652">  1  5  2 -1</clus>
<clus scale="   95.473">  7  8 -1 -1</clus>
<clus scale="   97.351">  2  5  1 -1</clus>
</clustering>
</event>
<event>
 9    1  0.1434065E-005  0.9776903E+02  0.7546771E-02  0.1285235E+00
         -2   -1    0    0    0  501 -0.00000000000E+00  0.00000000000E+00  0.46479387133E+02  0.46479387133E+02  0.00000000000E+00 0.  1.
          2   -1    0    0  502    0  0.00000000000E+00 -0.00000000000E+00 -0.38965395247E+03  0.38965395247E+03  0.00000000000E+00 0. -1.
         23    2    1    2    0    0 -0.36530869345E+02  0.22102175896E+02 -0.35328883272E+02  0.10569503084E+03  0.90001660858E+02 0.  0.
         23    2    1    2    0    0  0.22558343445E+02 -0.46038384772E-01 -0.22293376231E+03  0.24160284963E+03  0.90352607018E+02 0.  0.
        -11    1    3    3    0    0  0.15039071481E+02  0.20182652881E+02  0.18414523707E+02  0.31186661118E+02  0.00000000000E+00 0.  1.
         11    1    3    3    0    0 -0.51569940826E+02  0.19195230150E+01 -0.53743406979E+02  0.74508369725E+02  0.00000000000E+00 0. -1.
        -13    1    4    4    0    0 -0.80204577432E+01  0.34767514871E+02 -0.43391109446E+02  0.56177363872E+02  0.00000000000E+00 0.  1.
         13    1    4    4    0    0  0.30578801188E+02 -0.34813553255E+02 -0.17954265286E+03  0.18542548576E+03  0.00000000000E+00 0. -1.
         21    1    1    2  502  501  0.13972525900E+02 -0.22056137511E+02 -0.84911919760E+02  0.88835459132E+02  0.00000000000E+00 0. -1.
<scales pt_clust_5="13000.00000" pt_clust_6="13000.00000" pt_clust_7="13000.00000" pt_clust_8="13000.00000" pt_clust_9="26.10947"></scales>
<clustering>
<clus scale="   26.109">  2  9  1 -1</clus>
<clus scale="   90.002">  5  6 -1 -1</clus>
<clus scale="   90.353">  7  8 -1 -1</clus>
<clus scale="   97.445">  1  5  2 -1</clus>
<clus scale="   26.109">  2  5  1 -1</clus>
</clustering>
</event>
<event>
 9    1  0.1434065E-005  0.1129076E+03  0.7546771E-02  0.1258424E+00
         -1   -1    0    0    0  501 -0.00000000000E+00  0.00000000000E+00  0.38498489007E+02  0.38498489007E+02  0.00000000000E+00 0.  1.
          1   -1    0    0  502    0  0.00000000000E+00 -0.00000000000E+00 -0.48997978165E+03  0.48997978165E+03  0.00000000000E+00 0. -1.
         23    2    1    2    0    0  0.54399310331E+02 -0.12348751967E+02 -0.14293241728E+03  0.17958940601E+03  0.93332214161E+02 0.  0.
         23    2    1    2    0    0 -0.53346034983E+02  0.45838842793E+02 -0.29069951690E+03  0.31092447120E+03  0.84975400619E+02 0.  0.
        -11    1    3    3    0    0  0.33415971926E+02 -0.22361281858E+02 -0.59471052226E+01  0.40645075552E+02  0.00000000000E+00 0.  1.
         11    1    3    3    0    0  0.20983338405E+02  0.10012529891E+02 -0.13698531206E+03  0.13894433046E+03  0.00000000000E+00 0. -1.
        -11    1    4    4    0    0  0.68296630627E+01  0.34900629244E+02 -0.18847002283E+03  0.19179584908E+03  0.00000000000E+00 0. -1.
         11    1    4    4    0    0 -0.60175698046E+02  0.10938213550E+02 -0.10222949407E+03  0.11912862212E+03  0.00000000000E+00 0.  1.
         21    1    1    2  502  501 -0.10532753477E+01 -0.33490090826E+02 -0.17849358465E+02  0.37964393451E+02  0.00000000000E+00 0.  1.
<scales pt_clust_5="13000.00000" pt_clust_6="13000.00000" pt_clust_7="13000.00000" pt_clust_8="13000.00000" pt_clust_9="33.50665"></scales>
<clustering>
<clus scale="   33.507">  1  9  2 -1</clus>
<clus scale="   84.975">  7  8 -1 -1</clus>
<clus scale="   93.332">  5  6 -1 -1</clus>
<clus scale="  106.104">  2  7  1 -1</clus>
<clus scale="  106.104">  2  5  1 -1</clus>
</clustering>
</event>
<event>
 9    1  0.1434065E-005  0.1019847E+03  0.7546771E-02  0.1280743E+00
         -1   -1    0    0    0  501 -0.00000000000E+00  0.00000000000E+00  0.13355235098E+03  0.13355235098E+03  0.00000000000E+00 0.  1.
          1   -1    0    0  502    0  0.00000000000E+00 -0.00000000000E+00 -0.15443298082E+03  0.15443298082E+03  0.00000000000E+00 0. -1.
         23    2    1    2    0    0 -0.19062941241E+02  0.73640379693E+01  0.60059099816E+02  0.10938788176E+03  0.89112223748E+02 0.  0.
         23    2    1    2    0    0  0.27784257478E+02  0.15539815468E+02 -0.10294934702E+03  0.14565703237E+03  0.97999756113E+02 0.  0.
        -11    1    4    4    0    0 -0.63293874313E+01  0.24477921999E+02  0.10106975953E+02  0.27228308312E+02  0.00000000000E+00 0.  1.
         11    1    4    4    0    0  0.34113644910E+02 -0.89381065310E+01 -0.11305632297E+03  0.11842872406E+03  0.00000000000E+00 0. -1.
        -13    1    3    3    0    0  0.33677988881E+02  0.17131641112E+02  0.24404894995E+02  0.44981095606E+02  0.00000000000E+00 0. -1.
         13    1    3    3    0    0 -0.52740930121E+02 -0.97676031427E+01  0.35654204821E+02  0.64406786154E+02  0.00000000000E+00 0.  1.
         21    1    1    2  502  501 -0.87213162377E+01 -0.22903853437E+02  0.22009617365E+02  0.32940417662E+02  0.00000000000E+00 0.  1.
<scales pt_clust_5="13000.00000" pt_clust_6="13000.00000" pt_clust_7="13000.00000" pt_clust_8="13000.00000" pt_clust_9="24.50812"></scales>
<clustering>
<clus scale="   24.508">  1  9  2 -1</clus>
<clus scale="   89.112">  7  8 -1 -1</clus>
<clus scale="   93.477">  1  7  2 -1</clus>
<clus scale="   98.000">  5  6 -1 -1</clus>
<clus scale="  101.985">  2  5  1 -1</clus>
</clustering>
</event>
<event>
 9    1  0.1434065E-005  0.1102298E+03  0.7546771E-02  0.1260196E+00
          3   -1    0    0  502    0  0.00000000000E+00  0.00000000000E+00  0.61667850669E+03  0.61667850669E+03  0.00000000000E+00 0. -1.
         -3   -1    0    0    0  501 -0.00000000000E+00 -0.00000000000E+00 -0.35607756978E+02  0.35607756978E+02  0.00000000000E+00 0.  1.
         23    2    1    2    0    0 -0.48450154074E+02  0.47019145175E+02  0.13228750451E+03  0.17415670975E+03  0.90952505511E+02 0.  0.
         23    2    1    2    0    0  0.26852484686E+02 -0.55398414765E+02  0.43980550342E+03  0.45328460816E+03  0.90818582180E+02 0.  0.
        -11    1    4    4    0    0  0.45618072934E+02 -0.27770483625E+01  0.11570143582E+03  0.12440073483E+03  0.00000000000E+00 0.  1.
         11    1    4    4    0    0 -0.18765588248E+02 -0.52621366402E+02  0.32410406760E+03  0.32888387334E+03  0.00000000000E+00 0. -1.
        -13    1    3    3    0    0 -0.64281321038E+01  0.36656216624E+02  0.24508314696E+01  0.37296188470E+02  0.00000000000E+00 0.  1.
         13    1    3    3    0    0 -0.42022021970E+02  0.10362928551E+02  0.12983667304E+03  0.13686052128E+03  0.00000000000E+00 0. -1.
         21    1    1    2  502  501  0.21597669388E+02  0.83792695897E+01  0.89777417782E+01  0.24844945749E+02  0.00000000000E+00 0.  1.
<scales pt_clust_5="13000.00000" pt_clust_6="13000.00000" pt_clust_7="13000.00000" pt_clust_8="13000.00000" pt_clust_9="23.16617"></scales>
<clustering>
<clus scale="   23.166">  2  9  1 -1</clus>
<clus scale="   90.819">  5  6 -1 -1</clus>
<clus scale="   90.953">  7  8 -1 -1</clus>
<clus scale="  110.119">  1  5  2 -1</clus>
<clus scale="  110.119">  1  5  2 -1</clus>
</clustering>
</event>
<event>
 9    1  0.1434065E-005  0.9394526E+02  0.7546771E-02  0.1293600E+00
         -2   -1    0    0    0  501 -0.00000000000E+00  0.00000000000E+00  0.77233510699E+02  0.77233510699E+02  0.00000000000E+00 0.  1.
          2   -1    0    0  502    0  0.00000000000E+00 -0.00000000000E+00 -0.35202233221E+03  0.35202233221E+03  0.00000000000E+00 0. -1.
         23    2    1    2    0    0  0.14875120222E+02  0.54434005828E+01 -0.68836537138E+02  0.11594299125E+03  0.91942419828E+02 0.  0.
         23    2    1    2    0    0  0.32372367888E+02  0.82846883418E+01 -0.23611756269E+03  0.25560037836E+03  0.91996976836E+02 0.  0.
        -13    1    3    3    0    0  0.54733666369E+01  0.48650094562E+02 -0.33203324085E+02  0.59154460301E+02  0.00000000000E+00 0.  1.
         13    1    3    3    0    0  0.94017535847E+01 -0.43206693979E+02 -0.35633213052E+02  0.56788530951E+02  0.00000000000E+00 0. -1.
        -13    1    4    4    0    0  0.22910870953E+02  0.49710670625E+02 -0.11815440519E+03  0.13021721179E+03  0.00000000000E+00 0.  1.
         13    1    4    4    0    0  0.94614969348E+01 -0.41425982283E+02 -0.11796315750E+03  0.12538316657E+03  0.00000000000E+00 0. -1.
         21    1    1    2  502  501 -0.47247488109E+02 -0.13728088925E+02  0.30165278312E+02  0.57712473295E+02  0.00000000000E+00 0.  1.
<scales pt_clust_5="13000.00000" pt_clust_6="13000.00000" pt_clust_7="13000.00000" pt_clust_8="13000.00000" pt_clust_9="49.20148"></scales>
<clustering>
<clus scale="   49.201">  1  9  2 -1</clus>
<clus scale="   91.942">  5  6 -1 -1</clus>
<clus scale="   91.997">  7  8 -1 -1</clus>
<clus scale="   93.892">  1  5  2 -1</clus>
<clus scale="   93.945">  2  5  1 -1</clus>
</clustering>
</event>
<event>
 9    1  0.1434065E-005  0.9321705E+02  0.7546771E-02  0.1310266E+00
         -1   -1    0    0    0  501 -0.00000000000E+00  0.00000000000E+00  0.84547340132E+02  0.84547340132E+02  0.00000000000E+00 0.  1.
          1   -1    0    0  502    0  0.00000000000E+00 -0.00000000000E+00 -0.27934884281E+03  0.27934884281E+03  0.00000000000E+00 0. -1.
         23    2    1    2    0    0 -0.73712399981E+01  0.18306897334E+02  0.29172140299E+02  0.77809586731E+02  0.69381844516E+02 0.  0.
         23    2    1    2    0    0 -0.17447109738E+02  0.35310873890E+01 -0.23351261298E+03  0.25167962005E+03  0.92182539075E+02 0.  0.
        -13    1    4    4    0    0  0.30284459584E+02  0.23076078010E+02 -0.63748465912E+02  0.74253085961E+02  0.00000000000E+00 0.  1.
         13    1    4    4    0    0 -0.47731569322E+02 -0.19544990621E+02 -0.16976414707E+03  0.17742653409E+03  0.00000000000E+00 0. -1.
        -13    1    3    3    0    0  0.31038576126E+02  0.87813779137E+01  0.95643297467E+01  0.33644943298E+02  0.00000000000E+00 0.  1.
         13    1    3    3    0    0 -0.38409816124E+02  0.95255194203E+01  0.19607810553E+02  0.44164643433E+02  0.00000000000E+00 0. -1.
         21    1    1    2  502  501  0.24818349736E+02 -0.21837984723E+02  0.95389699974E+01  0.34406976167E+02  0.00000000000E+00 0.  1.
<scales pt_clust_5="13000.00000" pt_clust_6="13000.00000" pt_clust_7="13000.00000" pt_clust_8="13000.00000" pt_clust_9="33.05825"></scales>
<clustering>
<clus scale="   33.058">  1  9  2 -1</clus>
<clus scale="   69.382">  7  8 -1 -1</clus>
<clus scale="   70.751">  1  7  2 -1</clus>
<clus scale="   92.183">  5  6 -1 -1</clus>
<clus scale="   93.217">  2  5  1 -1</clus>
</clustering>
</event>
<event>
 9    1  0.1434065E-005  0.1002741E+03  0.7546771E-02  0.1280544E+00
         -3   -1    0    0    0  501 -0.00000000000E+00  0.00000000000E+00  0.67129185840E+03  0.67129185840E+03  0.00000000000E+00 0.  1.
          3   -1    0    0  502    0  0.00000000000E+00 -0.00000000000E+00 -0.37101758460E+02  0.37101758460E+02  0.00000000000E+00 0. -1.
         23    2    1    2    0    0 -0.37966120977E+02  0.67609384191E+02  0.43125132603E+03  0.44740551325E+03  0.90451820954E+02 0.  0.
         23    2    1    2    0    0  0.19319392144E+02 -0.24849846389E+02  0.69515275529E+02  0.11964487424E+03  0.92150792837E+02 0.  0.
        -11    1    4    4    0    0  0.26104231186E+02 -0.50060119752E+02  0.13805145403E+02  0.58120809655E+02  0.00000000000E+00 0. -1.
         11    1    4    4    0    0 -0.67848390423E+01  0.25210273362E+02  0.55710130126E+02  0.61524064580E+02  0.00000000000E+00 0.  1.
        -13    1    3    3    0    0 -0.26878208964E+02  0.84398192189E+02  0.40362317335E+03  0.41322773264E+03  0.00000000000E+00 0. -1.
         13    1    3    3    0    0 -0.11087912013E+02 -0.16788807998E+02  0.27628152683E+02  0.34177780611E+02  0.00000000000E+00 0.  1.
         21    1    1    2  502  501  0.18646728834E+02 -0.42759537801E+02  0.13342349838E+03  0.14134322937E+03  0.00000000000E+00 0. -1.
<scales pt_clust_5="13000.00000" pt_clust_6="13000.00000" pt_clust_7="13000.00000" pt_clust_8="13000.00000" pt_clust_9="46.64846"></scales>
<clustering>
<clus scale="   46.648">  1  9  2 -1</clus>
<clus scale="   90.452">  7  8 -1 -1</clus>
<clus scale="   92.151">  5  6 -1 -1</clus>
<clus scale="   98.715">  1  7  2 -1</clus>
<clus scale="  100.274">  2  5  1 -1</clus>
</clustering>
</event>
<event>
 9    1  0.1434065E-005  0.1191506E+03  0.7546771E-02  0.1246071E+00
         -1   -1    0    0    0  501 -0.00000000000E+00  0.00000000000E+00  0.82684142613E+02  0.82684142613E+02  0.00000000000E+00 0.  1.
          1   -1    0    0  502    0  0.00000000000E+00 -0.00000000000E+00 -0.34657734972E+03  0.34657734972E+03  0.00000000000E+00 0. -1.
         23    2    1    2    0    0 -0.52888921504E+02  0.27982588831E+02 -0.40568820179E+02  0.11912550798E+03  0.94682597058E+02 0.  0.
         23    2    1    2    0    0  0.76660795706E+02 -0.11785935106E+02 -0.24621330779E+03  0.27337545807E+03  0.89985344784E+02 0.  0.
        -11    1    4    4    0    0  0.52229524814E+02 -0.28688255418E+02 -0.23363428858E+03  0.24111391512E+03  0.00000000000E+00 0. -1.
         11    1    4    4    0    0  0.24431270892E+02  0.16902320312E+02 -0.12579019207E+02  0.32261542951E+02  0.00000000000E+00 0.  1.
        -11    1    3    3    0    0 -0.59786357820E+02 -0.40692887118E+01  0.80730883161E+01  0.60466043752E+02  0.00000000000E+00 0.  1.
         11    1    3    3    0    0  0.68974363159E+01  0.32051877542E+02 -0.48641908495E+02  0.58659464230E+02  0.00000000000E+00 0. -1.
         21    1    1    2  502  501 -0.23771874202E+02 -0.16196653725E+02  0.22888920858E+02  0.36760526288E+02  0.00000000000E+00 0. -1.
<scales pt_clust_5="13000.00000" pt_clust_6="13000.00000" pt_clust_7="13000.00000" pt_clust_8="13000.00000" pt_clust_9="28.76515"></scales>
<clustering>
<clus scale="   28.765">  1  9  2 -1</clus>
<clus scale="   89.985">  5  6 -1 -1</clus>
<clus scale="   94.683">  7  8 -1 -1</clus>
<clus scale="  115.453">  2  5  1 -1</clus>
<clus scale="  115.453">  2  5  1 -1</clus>
</clustering>
</event>
<event>
 9    1  0.1434065E-005  0.9153473E+02  0.7546771E-02  0.1299908E+00
          2   -1    0    0  502    0  0.00000000000E+00  0.00000000000E+00  0.72045487950E+03  0.72045487950E+03  0.00000000000E+00 0. -1.
         -2   -1    0    0    0  501 -0.00000000000E+00 -0.00000000000E+00 -0.28051098570E+02  0.28051098570E+02  0.00000000000E+00 0.  1.
         23    2    1    2    0    0  0.11409897926E+02  0.27961784817E+02  0.17633433436E+03  0.19957553230E+03  0.88456477652E+02 0.  0.
         23    2    1    2    0    0  0.17846320175E+02  0.41350641939E+02  0.38432993064E+03  0.39722204502E+03  0.89707807527E+02 0.  0.
        -11    1    4    4    0    0 -0.25570123353E+02 -0.12453915806E+02  0.15901322852E+03  0.16153680098E+03  0.00000000000E+00 0.  1.
         11    1    4    4    0    0  0.43416443528E+02  0.53804557745E+02  0.22531670212E+03  0.23568524404E+03  0.00000000000E+00 0. -1.
        -11    1    3    3    0    0  0.26112623918E+02 -0.26345516215E+02  0.65295890826E+02  0.75096662451E+02  0.00000000000E+00 0. -1.
         11    1    3    3    0    0 -0.14702725992E+02  0.54307301032E+02  0.11103844354E+03  0.12447886985E+03  0.00000000000E+00 0.  1.
         21    1    1    2  502  501 -0.29256218101E+02 -0.69312426756E+02  0.13173951592E+03  0.15170840074E+03  0.00000000000E+00 0.  1.
<scales pt_clust_5="13000.00000" pt_clust_6="13000.00000" pt_clust_7="13000.00000" pt_clust_8="13000.00000" pt_clust_9="75.23389"></scales>
<clustering>
<clus scale="   75.234">  2  9  1 -1</clus>
<clus scale="   88.456">  7  8 -1 -1</clus>
<clus scale="   89.708">  5  6 -1 -1</clus>
<clus scale="   90.309">  2  7  1 -1</clus>
<clus scale="   91.535">  1  5  2 -1</clus>
</clustering>
</event>
<event>
 9    1  0.1434065E-005  0.9153031E+02  0.7546771E-02  0.1299523E+00
         -1   -1    0    0    0  501 -0.00000000000E+00  0.00000000000E+00  0.18366112596E+03  0.18366112596E+03  0.00000000000E+00 0.  1.
          1   -1    0    0  502    0  0.00000000000E+00 -0.00000000000E+00 -0.60329038627E+02  0.60329038627E+02  0.00000000000E+00 0. -1.
         23    2    1    2    0    0 -0.57625615579E+01 -0.20049380690E+02  0.59596124499E+02  0.11094695235E+03  0.91226878706E+02 0.  0.
         23    2    1    2    0    0  0.51933038207E+00 -0.40401711055E+01  0.41291367204E+02  0.99703178468E+02  0.90659550542E+02 0.  0.
        -11    1    4    4    0    0  0.17604714439E+02 -0.16281163286E+02  0.64248752881E+02  0.68577725941E+02  0.00000000000E+00 0. -1.
         11    1    4    4    0    0 -0.17085384057E+02  0.12240992180E+02 -0.22957385677E+02  0.31125452528E+02  0.00000000000E+00 0.  1.
        -11    1    3    3    0    0 -0.19817966328E+02  0.21827846082E+02  0.59911598974E+02  0.66772796449E+02  0.00000000000E+00 0.  1.
         11    1    3    3    0    0  0.14055404770E+02 -0.41877226771E+02 -0.31547447520E+00  0.44174155900E+02  0.00000000000E+00 0. -1.
         21    1    1    2  502  501  0.52432311759E+01  0.24089551795E+02  0.22444595634E+02  0.33340033774E+02  0.00000000000E+00 0. -1.
<scales pt_clust_5="13000.00000" pt_clust_6="13000.00000" pt_clust_7="13000.00000" pt_clust_8="13000.00000" pt_clust_9="24.65356"></scales>
<clustering>
<clus scale="   24.654">  1  9  2 -1</clus>
<clus scale="   90.660">  5  6 -1 -1</clus>
<clus scale="   90.965">  2  5  1 -1</clus>
<clus scale="   91.227">  7  8 -1 -1</clus>
<clus scale="   90.965">  2  5  1 -1</clus>
</clustering>
</event>
<event>
 9    1  0.1434065E-005  0.9053241E+02  0.7546771E-02  0.1303798E+00
         -2   -1    0    0    0  501 -0.00000000000E+00  0.00000000000E+00  0.10412427945E+03  0.10412427945E+03  0.00000000000E+00 0.  1.
          2   -1    0    0  502    0  0.00000000000E+00 -0.00000000000E+00 -0.16607226868E+03  0.16607226868E+03  0.00000000000E+00 0. -1.
         23    2    1    2    0    0 -0.21068958511E+02  0.61980826589E+01 -0.19372116299E+02  0.94967927693E+02  0.90339975420E+02 0.  0.
         23    2    1    2    0    0 -0.25262482497E+01 -0.16508125357E+01 -0.88168294369E+02  0.12369144609E+03  0.86699588193E+02 0.  0.
        -11    1    3    3    0    0  0.30916387340E+01 -0.40358962887E+02 -0.70382345016E+01  0.41084557443E+02  0.00000000000E+00 0.  1.
         11    1    3    3    0    0 -0.24160597245E+02  0.46557045546E+02 -0.12333881797E+02  0.53883370249E+02  0.00000000000E+00 0. -1.
        -13    1    4    4    0    0 -0.40869052499E+02 -0.18117076692E+02 -0.40299733649E+02  0.60187843060E+02  0.00000000000E+00 0.  1.
         13    1    4    4    0    0  0.38342804249E+02  0.16466264156E+02 -0.47868560720E+02  0.63503603035E+02  0.00000000000E+00 0. -1.
         21    1    1    2  502  501  0.23595206761E+02 -0.45472701233E+01  0.45592421436E+02  0.51537174351E+02  0.00000000000E+00 0. -1.
<scales pt_clust_5="13000.00000" pt_clust_6="13000.00000" pt_clust_7="13000.00000" pt_clust_8="13000.00000" pt_clust_9="24.02939"></scales>
<clustering>
<clus scale="   24.029">  1  9  2 -1</clus>
<clus scale="   86.700">  7  8 -1 -1</clus>
<clus scale="   86.900">  2  7  1 -1</clus>
<clus scale="   90.340">  5  6 -1 -1</clus>
<clus scale="   86.900">  2  5  1 -1</clus>
</clustering>
</event>
<event>
 9    1  0.1434065E-005  0.1708097E+03  0.7546771E-02  0.1177970E+00
         -3   -1    0    0    0  501 -0.00000000000E+00  0.00000000000E+00  0.19879039210E+03  0.19879039210E+03  0.00000000000E+00 0.  1.
          3   -1    0    0  502    0  0.00000000000E+00 -0.00000000000E+00 -0.21988264801E+03  0.21988264801E+03  0.00000000000E+00 0. -1.
         23    2    1    2    0    0  0.12302123190E+03  0.88528941062E+02  0.24426201552E+02  0.17643796768E+03  0.86960452003E+02 0.  0.
         23    2    1    2    0    0 -0.83785069677E+02 -0.11266774559E+03 -0.77849095022E+02  0.18595516096E+03  0.93834330048E+02 0.  0.
        -11    1    4    4    0    0 -0.48218730250E+02 -0.12260542226E+03 -0.64498128920E+02  0.14668723240E+03  0.00000000000E+00 0.  1.
         11    1    4    4    0    0 -0.35566339428E+02  0.99376766702E+01 -0.13350966102E+02  0.39267928564E+02  0.00000000000E+00 0. -1.
        -13    1    3    3    0    0  0.10230813403E+03  0.21704729929E+02  0.18694548458E+02  0.10624281497E+03  0.00000000000E+00 0.  1.
         13    1    3    3    0    0  0.20713097869E+02  0.66824211133E+02  0.57316530945E+01  0.70195152711E+02  0.00000000000E+00 0. -1.
         21    1    1    2  502  501 -0.39236162226E+02  0.24138804526E+02  0.32330637558E+02  0.56279911470E+02  0.00000000000E+00 0.  1.
<scales pt_clust_5="13000.00000" pt_clust_6="13000.00000" pt_clust_7="13000.00000" pt_clust_8="13000.00000" pt_clust_9="46.06689"></scales>
<clustering>
<clus scale="   46.067">  1  9  2 -1</clus>
<clus scale="   86.960">  7  8 -1 -1</clus>
<clus scale="   93.834">  5  6 -1 -1</clus>
<clus scale="  167.132">  1  7  2 -1</clus>
<clus scale="  170.810">  2  5  1 -1</clus>
</clustering>
</event>
<event>
 9    1  0.1434065E-005  0.1722443E+03  0.7546771E-02  0.1192950E+00
          2   -1    0    0  502    0  0.00000000000E+00  0.00000000000E+00  0.64635936954E+03  0.64635936954E+03  0.00000000000E+00 0. -1.
         -2   -1    0    0    0  501 -0.00000000000E+00 -0.00000000000E+00 -0.90816124907E+02  0.90816124907E+02  0.00000000000E+00 0.  1.
         23    2    1    2    0    0 -0.12941454794E+03  0.98332373449E+02  0.20008049264E+03  0.27316777864E+03  0.90393865204E+02 0.  0.
         23    2    1    2    0    0  0.27098211706E+02 -0.39109358309E+01  0.28494898380E+03  0.30794288297E+03  0.11350456954E+03 0.  0.
        -13    1    3    3    0    0 -0.63482341415E+02  0.51023965702E+02  0.33874749367E+02  0.88209701236E+02  0.00000000000E+00 0.  1.
         13    1    3    3    0    0 -0.65932206524E+02  0.47308407747E+02  0.16620574327E+03  0.18495807740E+03  0.00000000000E+00 0. -1.
        -13    1    4    4    0    0  0.43060561149E+02 -0.49680647949E+02  0.19469214394E+03  0.20549308898E+03  0.00000000000E+00 0. -1.
         13    1    4    4    0    0 -0.15962349443E+02  0.45769712118E+02  0.90256839861E+02  0.10244979399E+03  0.00000000000E+00 0.  1.
         21    1    1    2  502  501  0.10231633623E+03 -0.94421437619E+02  0.70513768192E+02  0.15606483283E+03  0.00000000000E+00 0. -1.
<scales pt_clust_5="13000.00000" pt_clust_6="13000.00000" pt_clust_7="13000.00000" pt_clust_8="13000.00000" pt_clust_9="146.61876"></scales>
<clustering>
<clus scale="   90.394">  5  6 -1 -1</clus>
<clus scale="  113.505">  7  8 -1 -1</clus>
<clus scale="  116.760">  1  7  2 -1</clus>
<clus scale="  146.619">  2  9  1 -1</clus>
<clus scale="  116.760">  1  5  2 -1</clus>
</clustering>
</event>
<event>
 9    1  0.1434065E-005  0.1019233E+03  0.7546771E-02  0.1278182E+00
         -1   -1    0    0    0  501 -0.00000000000E+00  0.00000000000E+00  0.73218827172E+02  0.73218827172E+02  0.00000000000E+00 0.  1.
          1   -1    0    0  502    0  0.00000000000E+00 -0.00000000000E+00 -0.20452894803E+03  0.20452894803E+03  0.00000000000E+00 0. -1.
         23    2    1    2    0    0 -0.45107615573E+02  0.17708958753E+02 -0.18107212163E+02  0.10035183957E+03  0.85990210895E+02 0.  0.
         23    2    1    2    0    0  0.48786043567E+02  0.43580172386E+01 -0.11603309299E+03  0.15484616390E+03  0.90080993811E+02 0.  0.
        -13    1    3    3    0    0 -0.54256293561E+02 -0.21950382205E+01  0.18774837282E+02  0.57454835295E+02  0.00000000000E+00 0.  1.
         13    1    3    3    0    0  0.91486779877E+01  0.19903996974E+02 -0.36882049445E+02  0.42897004274E+02  0.00000000000E+00 0. -1.
        -13    1    4    4    0    0  0.21182417964E+02 -0.24434274045E+02 -0.10981531647E+03  0.11447764983E+03  0.00000000000E+00 0. -1.
         13    1    4    4    0    0  0.27603625603E+02  0.28792291284E+02 -0.62177765182E+01  0.40368514075E+02  0.00000000000E+00 0.  1.
         21    1    1    2  502  501 -0.36784279936E+01 -0.22066975992E+02  0.28301842919E+01  0.22549771729E+02  0.00000000000E+00 0.  1.
<scales pt_clust_5="13000.00000" pt_clust_6="13000.00000" pt_clust_7="13000.00000" pt_clust_8="13000.00000" pt_clust_9="22.37146"></scales>
<clustering>
<clus scale="   22.371">  1  9  2 -1</clus>
<clus scale="   85.990">  5  6 -1 -1</clus>
<clus scale="   90.081">  7  8 -1 -1</clus>
<clus scale="   98.326">  1  5  2 -1</clus>
<clus scale="  101.923">  2  5  1 -1</clus>
</clustering>
</event>
<event>
 9    1  0.1434065E-005  0.1578493E+03  0.7546771E-02  0.1192302E+00
          2   -1    0    0  502    0  0.00000000000E+00  0.00000000000E+00  0.19419627301E+03  0.19419627301E+03  0.00000000000E+00 0. -1.
         -2   -1    0    0    0  501 -0.00000000000E+00 -0.00000000000E+00 -0.19568823796E+03  0.19568823796E+03  0.00000000000E+00 0.  1.
         23    2    1    2    0    0 -0.31361139121E+02 -0.12848740185E+03 -0.85650395516E+02  0.18095046417E+03  0.88963738393E+02 0.  0.
         23    2    1    2    0    0 -0.47029068373E+01  0.11103478970E+03  0.83747484822E+02  0.16886687873E+03  0.95663679943E+02 0.  0.
        -11    1    4    4    0    0 -0.27627684139E+02  0.15972696832E+02 -0.99581167610E+01  0.33430226808E+02  0.00000000000E+00 0.  1.
         11    1    4    4    0    0  0.22924777302E+02  0.95062092871E+02  0.93705601583E+02  0.13543665192E+03  0.00000000000E+00 0. -1.
        -13    1    3    3    0    0 -0.27519684843E+02 -0.64722765423E+02 -0.93054395191E+02  0.11664257320E+03  0.00000000000E+00 0.  1.
         13    1    3    3    0    0 -0.38414542780E+01 -0.63764636427E+02  0.74039996752E+01  0.64307890969E+02  0.00000000000E+00 0. -1.
         21    1    1    2  502  501  0.36064045958E+02  0.17452612148E+02  0.41094574474E+00  0.40067168081E+02  0.00000000000E+00 0. -1.
<scales pt_clust_5="13000.00000" pt_clust_6="13000.00000" pt_clust_7="13000.00000" pt_clust_8="13000.00000" pt_clust_9="40.06506"></scales>
<clustering>
<clus scale="   40.065">  1  9  2 -1</clus>
<clus scale="   88.964">  7  8 -1 -1</clus>
<clus scale="   95.664">  5  6 -1 -1</clus>
<clus scale="  153.881">  2  7  1 -1</clus>
<clus scale="   40.065">  1  5  2 -1</clus>
</clustering>
</event>
<event>
 9    1  0.1434065E-005  0.9162663E+02  0.7546771E-02  0.1299312E+00
         -2   -1    0    0    0  501 -0.00000000000E+00  0.00000000000E+00  0.28183733700E+02  0.28183733700E+02  0.00000000000E+00 0.  1.
          2   -1    0    0  502    0  0.00000000000E+00 -0.00000000000E+00 -0.44744257620E+03  0.44744257620E+03  0.00000000000E+00 0. -1.
         23    2    1    2    0    0  0.68023456980E+01  0.24191615316E+02 -0.12708737489E+03  0.15847090407E+03  0.91270589031E+02 0.  0.
         23    2    1    2    0    0 -0.62468942029E+01  0.51057145528E+01 -0.24769923530E+03  0.26389734061E+03  0.90674159534E+02 0.  0.
        -13    1    4    4    0    0  0.37148307086E+02 -0.29224768663E+01 -0.17441392131E+03  0.17835008701E+03  0.00000000000E+00 0. -1.
         13    1    4    4    0    0 -0.43395201289E+02  0.80281914190E+01 -0.73285313987E+02  0.85547253600E+02  0.00000000000E+00 0.  1.
        -13    1    3    3    0    0 -0.27655474609E+02  0.14741340731E+01 -0.11062050944E+03  0.11403462394E+03  0.00000000000E+00 0. -1.
         13    1    3    3    0    0  0.34457820307E+02  0.22717481243E+02 -0.16466865444E+02  0.44436280131E+02  0.00000000000E+00 0.  1.
         21    1    1    2  502  501 -0.55545149507E+00 -0.29297329869E+02 -0.44472232316E+02  0.53258065220E+02  0.00000000000E+00 0. -1.
<scales pt_clust_5="13000.00000" pt_clust_6="13000.00000" pt_clust_7="13000.00000" pt_clust_8="13000.00000" pt_clust_9="29.30259"></scales>
<clustering>
<clus scale="   29.303">  1  9  2 -1</clus>
<clus scale="   90.674">  5  6 -1 -1</clus>
<clus scale="   91.033">  2  5  1 -1</clus>
<clus scale="   91.271">  7  8 -1 -1</clus>
<clus scale="   91.033">  2  5  1 -1</clus>
</clustering>
</event>
<event>
 9    1  0.1434065E-005  0.2113086E+03  0.7546771E-02  0.1140670E+00
         -2   -1    0    0    0  501 -0.00000000000E+00  0.00000000000E+00  0.33321710846E+03  0.33321710846E+03  0.00000000000E+00 0.  1.
          2   -1    0    0  502    0  0.00000000000E+00 -0.00000000000E+00 -0.25233056836E+03  0.25233056836E+03  0.00000000000E+00 0. -1.
         23    2    1    2    0    0  0.12027948867E+03  0.16983262721E+03  0.11914266291E+03  0.25644912779E+03  0.90889517327E+02 0.  0.
         23    2    1    2    0    0 -0.40452676984E+02 -0.18443477127E+03 -0.95632285669E+02  0.22971260163E+03  0.89273407893E+02 0.  0.
        -11    1    3    3    0    0  0.82473959207E+02  0.13904455258E+03  0.45173929393E+02  0.16785715787E+03  0.00000000000E+00 0.  1.
         11    1    3    3    0    0  0.37805529465E+02  0.30788074630E+02  0.73968733516E+02  0.88591969926E+02  0.00000000000E+00 0. -1.
        -13    1    4    4    0    0 -0.63343352450E+02 -0.14928389548E+03 -0.94621420959E+02  0.18775322914E+03  0.00000000000E+00 0. -1.
         13    1    4    4    0    0  0.22890675466E+02 -0.35150875792E+02 -0.10108647106E+01  0.41959372489E+02  0.00000000000E+00 0.  1.
         21    1    1    2  502  501 -0.79826811687E+02  0.14602144059E+02  0.57376162852E+02  0.99385947391E+02  0.00000000000E+00 0.  1.
<scales pt_clust_5="13000.00000" pt_clust_6="13000.00000" pt_clust_7="13000.00000" pt_clust_8="13000.00000" pt_clust_9="81.15136"></scales>
<clustering>
<clus scale="   81.151">  1  9  2 -1</clus>
<clus scale="   89.273">  7  8 -1 -1</clus>
<clus scale="   90.890">  5  6 -1 -1</clus>
<clus scale="  210.619">  2  7  1 -1</clus>
<clus scale="  210.619">  2  5  1 -1</clus>
</clustering>
</event>
<event>
 9    1  0.1434065E-005  0.9587223E+02  0.7546771E-02  0.1290204E+00
         -2   -1    0    0    0  501 -0.00000000000E+00  0.00000000000E+00  0.23237464494E+02  0.23237464494E+02  0.00000000000E+00 0.  1.
          2   -1    0    0  502    0  0.00000000000E+00 -0.00000000000E+00 -0.53432162541E+03  0.53432162541E+03  0.00000000000E+00 0. -1.
         23    2    1    2    0    0  0.10187314080E+00 -0.38768886939E+02 -0.20899793979E+03  0.23104546437E+03  0.90547395292E+02 0.  0.
         23    2    1    2    0    0  0.85405370551E+01  0.15476500348E+02 -0.27016976652E+03  0.28606753052E+03  0.92360524275E+02 0.  0.
        -11    1    4    4    0    0 -0.71930938891E+00 -0.38834493062E+02 -0.10523473205E+03  0.11217390110E+03  0.00000000000E+00 0. -1.
         11    1    4    4    0    0  0.92598464440E+01  0.54310993410E+02 -0.16493503447E+03  0.17389362943E+03  0.00000000000E+00 0.  1.
        -13    1    3    3    0    0 -0.32187136352E+02 -0.19674771628E+02 -0.30111221443E+02  0.48267940105E+02  0.00000000000E+00 0.  1.
         13    1    3    3    0    0  0.32289009492E+02 -0.19094115312E+02 -0.17888671835E+03  0.18277752426E+03  0.00000000000E+00 0. -1.
         21    1    1    2  502  501 -0.86424101959E+01  0.23292386592E+02 -0.31916454610E+02  0.40446095015E+02  0.00000000000E+00 0.  1.
<scales pt_clust_5="13000.00000" pt_clust_6="13000.00000" pt_clust_7="13000.00000" pt_clust_8="13000.00000" pt_clust_9="24.84404"></scales>
<clustering>
<clus scale="   24.844">  1  9  2 -1</clus>
<clus scale="   90.547">  7  8 -1 -1</clus>
<clus scale="   92.361">  5  6 -1 -1</clus>
<clus scale="   94.127">  1  7  2 -1</clus>
<clus scale="   95.872">  2  5  1 -1</clus>
</clustering>
</event>
<event>
 9    1  0.1434065E-005  0.9505407E+02  0.7546771E-02  0.1292296E+00
         -1   -1    0    0    0  501 -0.00000000000E+00  0.00000000000E+00  0.49515655503E+02  0.49515655503E+02  0.00000000000E+00 0.  1.
          1   -1    0    0  502    0  0.00000000000E+00 -0.00000000000E+00 -0.36517309656E+03  0.36517309656E+03  0.00000000000E+00 0. -1.
         23    2    1    2    0    0 -0.18299438416E+02 -0.56148779953E+01 -0.76430009629E+02  0.12133156913E+03  0.92268125556E+02 0.  0.
         23    2    1    2    0    0 -0.14534551572E+01  0.29100612579E+02 -0.24454480098E+03  0.26221186303E+03  0.90021904246E+02 0.  0.
        -11    1    4    4    0    0  0.50762190346E+01 -0.30733744006E+02 -0.11861627536E+03  0.12263829664E+03  0.00000000000E+00 0. -1.
         11    1    4    4    0    0 -0.65296741918E+01  0.59834356585E+02 -0.12592852561E+03  0.13957356639E+03  0.00000000000E+00 0.  1.
        -11    1    3    3    0    0  0.33489585944E+02  0.15902264887E+02 -0.21631917159E+02  0.42922887079E+02  0.00000000000E+00 0. -1.
         11    1    3    3    0    0 -0.51789024360E+02 -0.21517142882E+02 -0.54798092470E+02  0.78408682047E+02  0.00000000000E+00 0.  1.
         21    1    1    2  502  501  0.19752893573E+02 -0.23485734584E+02  0.53173695455E+01  0.31145319911E+02  0.00000000000E+00 0.  1.
<scales pt_clust_5="13000.00000" pt_clust_6="13000.00000" pt_clust_7="13000.00000" pt_clust_8="13000.00000" pt_clust_9="30.68805"></scales>
<clustering>
<clus scale="   30.688">  1  9  2 -1</clus>
<clus scale="   90.022">  5  6 -1 -1</clus>
<clus scale="   92.268">  7  8 -1 -1</clus>
<clus scale="   92.875">  2  5  1 -1</clus>
<clus scale="   92.875">  2  5  1 -1</clus>
</clustering>
</event>
<event>
 9    1  0.1434065E-005  0.9871531E+02  0.7546771E-02  0.1283216E+00
          2   -1    0    0  502    0  0.00000000000E+00  0.00000000000E+00  0.15458996700E+03  0.15458996700E+03  0.00000000000E+00 0. -1.
         -2   -1    0    0    0  501 -0.00000000000E+00 -0.00000000000E+00 -0.17537178896E+03  0.17537178896E+03  0.00000000000E+00 0.  1.
         23    2    1    2    0    0  0.14265288423E+02  0.41689930000E+01 -0.96471449402E+02  0.13436497649E+03  0.92338114566E+02 0.  0.
         23    2    1    2    0    0 -0.23964814363E+02 -0.30299495139E+02  0.11190361011E+03  0.14989845908E+03  0.91949759898E+02 0.  0.
        -13    1    3    3    0    0  0.63294933359E+01 -0.22487165371E+02 -0.10314977154E+03  0.10576204641E+03  0.00000000000E+00 0.  1.
         13    1    3    3    0    0  0.79357950872E+01  0.26656158371E+02  0.66783221368E+01  0.28602930083E+02  0.00000000000E+00 0. -1.
        -13    1    4    4    0    0 -0.10339815876E+02  0.31180136186E+02  0.59536758496E+02  0.67998075687E+02  0.00000000000E+00 0.  1.
         13    1    4    4    0    0 -0.13624998487E+02 -0.61479631325E+02  0.52366851610E+02  0.81900383388E+02  0.00000000000E+00 0. -1.
         21    1    1    2  502  501  0.96995259403E+01  0.26130502139E+02 -0.36213982664E+02  0.45698320383E+02  0.00000000000E+00 0. -1.
<scales pt_clust_5="13000.00000" pt_clust_6="13000.00000" pt_clust_7="13000.00000" pt_clust_8="13000.00000" pt_clust_9="27.87264"></scales>
<clustering>
<clus scale="   27.873">  2  9  1 -1</clus>
<clus scale="   91.950">  7  8 -1 -1</clus>
<clus scale="   92.338">  5  6 -1 -1</clus>
<clus scale="   98.352">  1  7  2 -1</clus>
<clus scale="   98.352">  1  5  2 -1</clus>
</clustering>
</event>
<event>
 9    1  0.1434065E-005  0.1069251E+03  0.7546771E-02  0.1270862E+00
         -1   -1    0    0    0  501 -0.00000000000E+00  0.00000000000E+00  0.12394083410E+03  0.12394083410E+03  0.00000000000E+00 0.  1.
          1   -1    0    0  502    0  0.00000000000E+00 -0.00000000000E+00 -0.22592388920E+03  0.22592388920E+03  0.00000000000E+00 0. -1.
         23    2    1    2    0    0  0.59571172989E+02 -0.47415106365E-01 -0.72298754477E+02  0.13117959451E+03  0.91827279271E+02 0.  0.
         23    2    1    2    0    0 -0.43101309587E+02 -0.38533409161E+02 -0.97153251636E+02  0.13923831795E+03  0.81277354609E+02 0.  0.
        -13    1    4    4    0    0  0.16152576138E+02 -0.17982691261E+02 -0.69273380587E+00  0.24181868849E+02  0.00000000000E+00 0. -1.
         13    1    4    4    0    0 -0.59253885724E+02 -0.20550717900E+02 -0.96460517830E+02  0.11505644910E+03  0.00000000000E+00 0.  1.
        -13    1    3    3    0    0  0.26634823231E+02  0.73188734718E+01 -0.89239375080E+02  0.93416517716E+02  0.00000000000E+00 0. -1.
         13    1    3    3    0    0  0.32936349758E+02 -0.73662885781E+01  0.16940620603E+02  0.37763076797E+02  0.00000000000E+00 0.  1.
         21    1    1    2  502  501 -0.16469863402E+02  0.38580824267E+02  0.67468951013E+02  0.79446810839E+02  0.00000000000E+00 0. -1.
<scales pt_clust_5="13000.00000" pt_clust_6="13000.00000" pt_clust_7="13000.00000" pt_clust_8="13000.00000" pt_clust_9="41.94921"></scales>
<clustering>
<clus scale="   41.949">  1  9  2 -1</clus>
<clus scale="   81.277">  5  6 -1 -1</clus>
<clus scale="   91.827">  7  8 -1 -1</clus>
<clus scale="   98.014">  2  5  1 -1</clus>
<clus scale="   98.014">  2  5  1 -1</clus>
</clustering>
</event>
<event>
 9    1  0.1434065E-005  0.2431826E+03  0.7546771E-02  0.1118698E+00
          2   -1    0    0  502    0  0.00000000000E+00  0.00000000000E+00  0.15101417345E+04  0.15101417345E+04  0.00000000000E+00 0. -1.
         -2   -1    0    0    0  501 -0.00000000000E+00 -0.00000000000E+00 -0.49302804462E+02  0.49302804462E+02  0.00000000000E+00 0.  1.
         23    2    1    2    0    0 -0.78331622414E+02  0.19907344539E+03  0.54319724263E+03  0.59088829396E+03  0.91212125356E+02 0.  0.
         23    2    1    2    0    0  0.58529588668E+02 -0.21497009843E+03  0.90875515410E+03  0.94165281416E+03  0.10600111482E+03 0.  0.
        -13    1    4    4    0    0 -0.20232670402E+02 -0.32501042298E+01  0.62951734266E+02  0.66203058662E+02  0.00000000000E+00 0. -1.
         13    1    4    4    0    0  0.78762259070E+02 -0.21171999420E+03  0.84580341983E+03  0.87544975550E+03  0.00000000000E+00 0.  1.
        -13    1    3    3    0    0  0.88384166460E+01  0.54679887237E+02  0.74994597491E+02  0.93231954446E+02  0.00000000000E+00 0.  1.
         13    1    3    3    0    0 -0.87170039060E+02  0.14439355815E+03  0.46820264514E+03  0.49765633951E+03  0.00000000000E+00 0. -1.
         21    1    1    2  502  501  0.19802033747E+02  0.15896653041E+02  0.88865333562E+01  0.26903430887E+02  0.00000000000E+00 0.  1.
<scales pt_clust_5="13000.00000" pt_clust_6="13000.00000" pt_clust_7="13000.00000" pt_clust_8="13000.00000" pt_clust_9="25.39339"></scales>
<clustering>
<clus scale="   25.393">  2  9  1 -1</clus>
<clus scale="   91.212">  7  8 -1 -1</clus>
<clus scale="  106.001">  5  6 -1 -1</clus>
<clus scale="  237.110">  2  7  1 -1</clus>
<clus scale="  243.183">  1  5  2 -1</clus>
</clustering>
</event>
<event>
 9    1  0.1434065E-005  0.1308573E+03  0.7546771E-02  0.1226192E+00
          1   -1    0    0  502    0  0.00000000000E+00  0.00000000000E+00  0.80502725273E+03  0.80502725273E+03  0.00000000000E+00 0. -1.
         -1   -1    0    0    0  501 -0.00000000000E+00 -0.00000000000E+00 -0.10293791330E+03  0.10293791330E+03  0.00000000000E+00 0.  1.
         23    2    1    2    0    0  0.27831171691E+02  0.11332266568E+03  0.41278993947E+03  0.43815664269E+03  0.89269864607E+02 0.  0.
         23    2    1    2    0    0 -0.61152279249E+00 -0.80760327089E+02  0.36427552757E+03  0.38365380847E+03  0.89280347089E+02 0.  0.
        -11    1    3    3    0    0  0.38573485595E+02  0.67711535322E+01  0.92928317730E+02  0.10084361431E+03  0.00000000000E+00 0.  1.
         11    1    3    3    0    0 -0.10742313904E+02  0.10655151215E+03  0.31986162174E+03  0.33731302838E+03  0.00000000000E+00 0. -1.
        -11    1    4    4    0    0  0.30766568352E+02 -0.29015941243E+01  0.15723518587E+03  0.16024326710E+03  0.00000000000E+00 0.  1.
         11    1    4    4    0    0 -0.31378091145E+02 -0.77858732965E+02  0.20704034171E+03  0.22341054137E+03  0.00000000000E+00 0. -1.
         21    1    1    2  502  501 -0.27219648899E+02 -0.32562338594E+02 -0.74976127620E+02  0.86154714867E+02  0.00000000000E+00 0.  1.
<scales pt_clust_5="13000.00000" pt_clust_6="13000.00000" pt_clust_7="13000.00000" pt_clust_8="13000.00000" pt_clust_9="42.44073"></scales>
<clustering>
<clus scale="   42.441">  2  9  1 -1</clus>
<clus scale="   89.270">  5  6 -1 -1</clus>
<clus scale="   89.280">  7  8 -1 -1</clus>
<clus scale="  130.850">  2  5  1 -1</clus>
<clus scale="  130.857">  1  5  2 -1</clus>
</clustering>
</event>
<event>
 9    1  0.1434065E-005  0.1069619E+03  0.7546771E-02  0.1269215E+00
         -1   -1    0    0    0  501 -0.00000000000E+00  0.00000000000E+00  0.19345210679E+02  0.19345210679E+02  0.00000000000E+00 0.  1.
          1   -1    0    0  502    0  0.00000000000E+00 -0.00000000000E+00 -0.92784308229E+03  0.92784308229E+03  0.00000000000E+00 0. -1.
         23    2    1    2    0    0 -0.30288076625E+02 -0.33168710893E+02 -0.33901181139E+03  0.35228642800E+03  0.84611985713E+02 0.  0.
         23    2    1    2    0    0  0.55423134203E+01  0.72199534276E+02 -0.48229657460E+03  0.49622175363E+03  0.91556282781E+02 0.  0.
        -13    1    3    3    0    0 -0.40494644705E+02  0.15942017541E+02 -0.12129174945E+03  0.12886292197E+03  0.00000000000E+00 0. -1.
         13    1    3    3    0    0  0.10206568080E+02 -0.49110728433E+02 -0.21772006194E+03  0.22342350604E+03  0.00000000000E+00 0.  1.
        -13    1    4    4    0    0 -0.34130915287E+02  0.66326345972E+02 -0.35519010546E+03  0.36293816906E+03  0.00000000000E+00 0. -1.
         13    1    4    4    0    0  0.39673228707E+02  0.58731883034E+01 -0.12710646914E+03  0.13328358457E+03  0.00000000000E+00 0.  1.
         21    1    1    2  502  501  0.24745763204E+02 -0.39030823383E+02 -0.87189485629E+02  0.98680111344E+02  0.00000000000E+00 0.  1.
<scales pt_clust_5="13000.00000" pt_clust_6="13000.00000" pt_clust_7="13000.00000" pt_clust_8="13000.00000" pt_clust_9="46.21426"></scales>
<clustering>
<clus scale="   46.214">  1  9  2 -1</clus>
<clus scale="   84.612">  5  6 -1 -1</clus>
<clus scale="   91.556">  7  8 -1 -1</clus>
<clus scale="  101.082">  1  5  2 -1</clus>
<clus scale="  106.962">  2  5  1 -1</clus>
</clustering>
</event>
<event>
 9    1  0.1434065E-005  0.1614357E+03  0.7546771E-02  0.1187894E+00
          1   -1    0    0  502    0  0.00000000000E+00  0.00000000000E+00  0.96905455338E+03  0.96905455338E+03  0.00000000000E+00 0. -1.
         -1   -1    0    0    0  501 -0.00000000000E+00 -0.00000000000E+00 -0.47331735463E+02  0.47331735463E+02  0.00000000000E+00 0.  1.
         23    2    1    2    0    0  0.15071174789E+02  0.95802637443E+02  0.12115577598E+03  0.17838176246E+03  0.87954792217E+02 0.  0.
         23    2    1    2    0    0 -0.43830339328E+01 -0.14404792066E+03  0.74106780619E+03  0.76066111837E+03  0.93031334529E+02 0.  0.
        -11    1    4    4    0    0  0.44258252096E+02 -0.71324872495E+02  0.37601311508E+03  0.38526859855E+03  0.00000000000E+00 0. -1.
         11    1    4    4    0    0 -0.48641286029E+02 -0.72723048169E+02  0.36505469111E+03  0.37539251982E+03  0.00000000000E+00 0.  1.
        -13    1    3    3    0    0 -0.27061094089E+02  0.73232177639E+02  0.50164036435E+02  0.92799165979E+02  0.00000000000E+00 0.  1.
         13    1    3    3    0    0  0.42132268878E+02  0.22570459804E+02  0.70991739541E+02  0.85582596476E+02  0.00000000000E+00 0. -1.
         21    1    1    2  502  501 -0.10688140856E+02  0.48245283221E+02  0.59499235757E+02  0.77343408017E+02  0.00000000000E+00 0.  1.
<scales pt_clust_5="13000.00000" pt_clust_6="13000.00000" pt_clust_7="13000.00000" pt_clust_8="13000.00000" pt_clust_9="49.41502"></scales>
<clustering>
<clus scale="   49.415">  2  9  1 -1</clus>
<clus scale="   87.955">  7  8 -1 -1</clus>
<clus scale="   93.031">  5  6 -1 -1</clus>
<clus scale="  158.565">  2  7  1 -1</clus>
<clus scale="  161.436">  1  5  2 -1</clus>
</clustering>
</event>
<event>
 9    1  0.1434065E-005  0.1035342E+03  0.7546771E-02  0.1275002E+00
          2   -1    0    0  502    0  0.00000000000E+00  0.00000000000E+00  0.13364499189E+03  0.13364499189E+03  0.00000000000E+00 0. -1.
         -2   -1    0    0    0  501 -0.00000000000E+00 -0.00000000000E+00 -0.16067162319E+03  0.16067162319E+03  0.00000000000E+00 0.  1.
         23    2    1    2    0    0 -0.86044492517E+01  0.25192006073E+02 -0.97272821770E+02  0.13564810102E+03  0.90717868906E+02 0.  0.
         23    2    1    2    0    0  0.29493865311E+02 -0.33943688546E+02  0.81906170262E+02  0.13319470834E+03  0.94921796857E+02 0.  0.
        -11    1    4    4    0    0  0.76017782562E+01 -0.63294487393E+02  0.32093408511E+02  0.71372025590E+02  0.00000000000E+00 0.  1.
         11    1    4    4    0    0  0.21892087055E+02  0.29350798847E+02  0.49812761751E+02  0.61822682746E+02  0.00000000000E+00 0. -1.
        -13    1    3    3    0    0 -0.29443543102E+01  0.56834995161E+02 -0.82611532617E+02  0.10031725285E+03  0.00000000000E+00 0.  1.
         13    1    3    3    0    0 -0.56600949415E+01 -0.31642989089E+02 -0.14661289153E+02  0.35330848176E+02  0.00000000000E+00 0. -1.
         21    1    1    2  502  501 -0.20889416059E+02  0.87516824732E+01 -0.11659979787E+02  0.25473805724E+02  0.00000000000E+00 0.  1.
<scales pt_clust_5="13000.00000" pt_clust_6="13000.00000" pt_clust_7="13000.00000" pt_clust_8="13000.00000" pt_clust_9="22.64861"></scales>
<clustering>
<clus scale="   22.649">  2  9  1 -1</clus>
<clus scale="   90.718">  7  8 -1 -1</clus>
<clus scale="   94.922">  5  6 -1 -1</clus>
<clus scale="   99.694">  2  7  1 -1</clus>
<clus scale="  103.534">  1  5  2 -1</clus>
</clustering>
</event>
<event>
 9    1  0.1434065E-005  0.9914028E+02  0.7546771E-02  0.1283377E+00
         -1   -1    0    0    0  501 -0.00000000000E+00  0.00000000000E+00  0.20706377459E+03  0.20706377459E+03  0.00000000000E+00 0.  1.
          1   -1    0    0  502    0  0.00000000000E+00 -0.00000000000E+00 -0.76076829478E+02  0.76076829478E+02  0.00000000000E+00 0. -1.
         23    2    1    2    0    0  0.32467847255E+02  0.10323465155E+02  0.81019010621E+02  0.12785958577E+03  0.92861502002E+02 0.  0.
         23    2    1    2    0    0 -0.16764816634E+02  0.30834005718E+02  0.24785893215E+02  0.10453993255E+03  0.95301951763E+02 0.  0.
        -11    1    3    3    0    0 -0.19275703195E+02  0.35872100703E+02  0.39809465509E+02  0.56948695215E+02  0.00000000000E+00 0. -1.
         11    1    3    3    0    0  0.51743550450E+02 -0.25548635548E+02  0.41209545112E+02  0.70910890560E+02  0.00000000000E+00 0.  1.
        -11    1    4    4    0    0 -0.55555076254E+02  0.25724973362E+02  0.71995103085E+01  0.61643926714E+02  0.00000000000E+00 0. -1.
         11    1    4    4    0    0  0.38790259620E+02  0.51090323562E+01  0.17586382906E+02  0.42896005837E+02  0.00000000000E+00 0.  1.
         21    1    1    2  502  501 -0.15703030621E+02 -0.41157470873E+02  0.25182041274E+02  0.50741085740E+02  0.00000000000E+00 0.  1.
<scales pt_clust_5="13000.00000" pt_clust_6="13000.00000" pt_clust_7="13000.00000" pt_clust_8="13000.00000" pt_clust_9="44.05136"></scales>
<clustering>
<clus scale="   44.051">  1  9  2 -1</clus>
<clus scale="   92.862">  5  6 -1 -1</clus>
<clus scale="   95.302">  7  8 -1 -1</clus>
<clus scale="   96.797">  1  5  2 -1</clus>
<clus scale="   99.140">  2  5  1 -1</clus>
</clustering>
</event>
<event>
 9    1  0.1434065E-005  0.1197036E+03  0.7546771E-02  0.1245886E+00
         -1   -1    0    0    0  501 -0.00000000000E+00  0.00000000000E+00  0.72487094101E+02  0.72487094101E+02  0.00000000000E+00 0.  1.
          1   -1    0    0  502    0  0.00000000000E+00 -0.00000000000E+00 -0.62352212362E+03  0.62352212362E+03  0.00000000000E+00 0. -1.
         23    2    1    2    0    0 -0.41415483244E+02  0.45962547362E+02 -0.19173427914E+03  0.21796352390E+03  0.83176113991E+02 0.  0.
         23    2    1    2    0    0  0.63872379217E+02 -0.64668407565E+02 -0.40443039133E+03  0.42427854889E+03  0.90480173819E+02 0.  0.
        -11    1    4    4    0    0  0.83731371242E+02 -0.53375116808E+02 -0.36895678525E+03  0.38208501018E+03  0.00000000000E+00 0. -1.
         11    1    4    4    0    0 -0.19858992026E+02 -0.11293290757E+02 -0.35473606076E+02  0.42193538705E+02  0.00000000000E+00 0.  1.
        -13    1    3    3    0    0 -0.62993090055E+02  0.44805612645E+02 -0.17252257024E+03  0.18904948972E+03  0.00000000000E+00 0.  1.
         13    1    3    3    0    0  0.21577606812E+02  0.11569347168E+01 -0.19211708900E+02  0.28914034179E+02  0.00000000000E+00 0. -1.
         21    1    1    2  502  501 -0.22456895973E+02  0.18705860203E+02  0.45129640949E+02  0.53767144938E+02  0.00000000000E+00 0.  1.
<scales pt_clust_5="13000.00000" pt_clust_6="13000.00000" pt_clust_7="13000.00000" pt_clust_8="13000.00000" pt_clust_9="29.22707"></scales>
<clustering>
<clus scale="   29.227">  1  9  2 -1</clus>
<clus scale="   83.176">  7  8 -1 -1</clus>
<clus scale="   90.480">  5  6 -1 -1</clus>
<clus scale="  114.283">  1  7  2 -1</clus>
<clus scale="  119.704">  2  5  1 -1</clus>
</clustering>
</event>
<event>
 9    1  0.1434065E-005  0.1643733E+03  0.7546771E-02  0.1183861E+00
         -2   -1    0    0    0  501 -0.00000000000E+00  0.00000000000E+00  0.83441090684E+02  0.83441090684E+02  0.00000000000E+00 0.  1.
          2   -1    0    0  502    0  0.00000000000E+00 -0.00000000000E+00 -0.81067908989E+03  0.81067908989E+03  0.00000000000E+00 0. -1.
         23    2    1    2    0    0 -0.12630727576E+03  0.10315934047E+02 -0.58844161470E+02  0.16719517256E+03  0.91823983703E+02 0.  0.
         23    2    1    2    0    0  0.13318531994E+03 -0.37691160275E+02 -0.67725580457E+03  0.69734046882E+03  0.91920354760E+02 0.  0.
        -11    1    4    4    0    0  0.10250796732E+02 -0.27090653522E+02 -0.47693076330E+02  0.55799747954E+02  0.00000000000E+00 0.  1.
         11    1    4    4    0    0  0.12293452321E+03 -0.10600506753E+02 -0.62956272824E+03  0.64154072087E+03  0.00000000000E+00 0. -1.
        -11    1    3    3    0    0 -0.46614457189E+02 -0.37897799225E+02 -0.66963488121E+01  0.60448257978E+02  0.00000000000E+00 0.  1.
         11    1    3    3    0    0 -0.79692818572E+02  0.48213733272E+02 -0.52147812658E+02  0.10674691458E+03  0.00000000000E+00 0. -1.
         21    1    1    2  502  501 -0.68780441827E+01  0.27375226228E+02  0.88619668383E+01  0.29584539190E+02  0.00000000000E+00 0. -1.
<scales pt_clust_5="13000.00000" pt_clust_6="13000.00000" pt_clust_7="13000.00000" pt_clust_8="13000.00000" pt_clust_9="28.22606"></scales>
<clustering>
<clus scale="   28.226">  1  9  2 -1</clus>
<clus scale="   91.824">  7  8 -1 -1</clus>
<clus scale="   91.920">  5  6 -1 -1</clus>
<clus scale="  164.319">  1  7  2 -1</clus>
<clus scale="  164.373">  2  5  1 -1</clus>
</clustering>
</event>
<event>
 9    1  0.1434065E-005  0.9662053E+02  0.7546771E-02  0.1287860E+00
         -1   -1    0    0    0  501 -0.00000000000E+00  0.00000000000E+00  0.22912192961E+03  0.22912192961E+03  0.00000000000E+00 0.  1.
          1   -1    0    0  502    0  0.00000000000E+00 -0.00000000000E+00 -0.91628519024E+02  0.91628519024E+02  0.00000000000E+00 0. -1.
         23    2    1    2    0    0 -0.32675449478E+02 -0.22459268236E+02  0.13224943006E+03  0.16547874661E+03  0.91220612248E+02 0.  0.
         23    2    1    2    0    0  0.29546626783E+02 -0.78183669329E+01 -0.36687761770E+02  0.10345668746E+03  0.91777798515E+02 0.  0.
        -11    1    3    3    0    0 -0.24334797243E+02  0.35161687830E+01  0.13576321264E+03  0.13797172067E+03  0.00000000000E+00 0.  1.
         11    1    3    3    0    0 -0.83406522343E+01 -0.25975437019E+02 -0.35137825717E+01  0.27507025938E+02  0.00000000000E+00 0. -1.
        -13    1    4    4    0    0  0.24818109461E+02 -0.48293217211E+02 -0.11347334303E+02  0.55470130535E+02  0.00000000000E+00 0.  1.
         13    1    4    4    0    0  0.47285173216E+01  0.40474850278E+02 -0.25340427466E+02  0.47986556922E+02  0.00000000000E+00 0. -1.
         21    1    1    2  502  501  0.31288226950E+01  0.30277635169E+02  0.41931742288E+02  0.51815014563E+02  0.00000000000E+00 0.  1.
<scales pt_clust_5="13000.00000" pt_clust_6="13000.00000" pt_clust_7="13000.00000" pt_clust_8="13000.00000" pt_clust_9="30.43887"></scales>
<clustering>
<clus scale="   30.439">  1  9  2 -1</clus>
<clus scale="   91.221">  5  6 -1 -1</clus>
<clus scale="   91.778">  7  8 -1 -1</clus>
<clus scale="   96.091">  1  5  2 -1</clus>
<clus scale="   96.621">  2  5  1 -1</clus>
</clustering>
</event>
<event>
 9    1  0.1434065E-005  0.1198255E+03  0.7546771E-02  0.1243914E+00
          1   -1    0    0  502    0  0.00000000000E+00  0.00000000000E+00  0.77133982742E+03  0.77133982742E+03  0.00000000000E+00 0. -1.
         -1   -1    0    0    0  501 -0.00000000000E+00 -0.00000000000E+00 -0.26379618715E+03  0.26379618715E+03  0.00000000000E+00 0.  1.
         23    2    1    2    0    0  0.65015526406E+02 -0.25803367207E+02  0.20339918760E+03  0.23365317138E+03  0.91267423251E+02 0.  0.
         23    2    1    2    0    0 -0.36441186291E+02  0.80420443737E+02  0.54167339813E+03  0.55608618899E+03  0.89590019051E+02 0.  0.
        -13    1    3    3    0    0  0.40700987123E+02  0.15898781242E+02  0.16853326426E+03  0.17410572294E+03  0.00000000000E+00 0. -1.
         13    1    3    3    0    0  0.24314539283E+02 -0.41702148449E+02  0.34865923344E+02  0.59547448447E+02  0.00000000000E+00 0.  1.
        -13    1    4    4    0    0 -0.58724504989E+02  0.80527625313E+02  0.48609071933E+03  0.49620303641E+03  0.00000000000E+00 0. -1.
         13    1    4    4    0    0  0.22283318698E+02 -0.10718157668E+00  0.55582678800E+02  0.59883152578E+02  0.00000000000E+00 0.  1.
         21    1    1    2  502  501 -0.28574340115E+02 -0.54617076530E+02 -0.23752894546E+03  0.24539665420E+03  0.00000000000E+00 0.  1.
<scales pt_clust_5="13000.00000" pt_clust_6="13000.00000" pt_clust_7="13000.00000" pt_clust_8="13000.00000" pt_clust_9="61.64023"></scales>
<clustering>
<clus scale="   61.640">  2  9  1 -1</clus>
<clus scale="   89.590">  7  8 -1 -1</clus>
<clus scale="   91.267">  5  6 -1 -1</clus>
<clus scale="  118.553">  1  7  2 -1</clus>
<clus scale="  118.553">  1  5  2 -1</clus>
</clustering>
</event>
<event>
 9    1  0.1434065E-005  0.8945857E+02  0.7546771E-02  0.1308499E+00
          4   -1    0    0  502    0  0.00000000000E+00  0.00000000000E+00  0.17795031316E+03  0.17795031316E+03  0.00000000000E+00 0. -1.
         -4   -1    0    0    0  501 -0.00000000000E+00 -0.00000000000E+00 -0.10313222166E+03  0.10313222166E+03  0.00000000000E+00 0.  1.
         23    2    1    2    0    0 -0.58967266979E+01  0.10530082852E+01 -0.55958412913E+02  0.99902648544E+02  0.82542807065E+02 0.  0.
         23    2    1    2    0    0 -0.87271837413E+01  0.21365108263E+02  0.12208225551E+03  0.15303702447E+03  0.89351117296E+02 0.  0.
        -11    1    3    3    0    0  0.13662823972E+02  0.37217861439E+02 -0.38402696203E+02  0.55196096281E+02  0.00000000000E+00 0.  1.
         11    1    3    3    0    0 -0.19559550670E+02 -0.36164853154E+02 -0.17555716710E+02  0.44706552263E+02  0.00000000000E+00 0. -1.
        -13    1    4    4    0    0 -0.23128918544E+02 -0.28469149437E+02  0.72637993969E+02  0.81373936310E+02  0.00000000000E+00 0. -1.
         13    1    4    4    0    0  0.14401734803E+02  0.49834257700E+02  0.49444261538E+02  0.71663088162E+02  0.00000000000E+00 0.  1.
         21    1    1    2  502  501  0.14623910439E+02 -0.22418116548E+02  0.86942489077E+01  0.28142861798E+02  0.00000000000E+00 0. -1.
<scales pt_clust_5="13000.00000" pt_clust_6="13000.00000" pt_clust_7="13000.00000" pt_clust_8="13000.00000" pt_clust_9="26.76622"></scales>
<clustering>
<clus scale="   26.766">  1  9  2 -1</clus>
<clus scale="   82.543">  5  6 -1 -1</clus>
<clus scale="   82.659">  2  5  1 -1</clus>
<clus scale="   89.351">  7  8 -1 -1</clus>
<clus scale="   26.766">  1  5  2 -1</clus>
</clustering>
</event>
<event>
 9    1  0.1434065E-005  0.1150113E+03  0.7546771E-02  0.1252559E+00
          1   -1    0    0  502    0  0.00000000000E+00  0.00000000000E+00  0.76969607962E+03  0.76969607962E+03  0.00000000000E+00 0. -1.
         -1   -1    0    0    0  501 -0.00000000000E+00 -0.00000000000E+00 -0.32023036465E+02  0.32023036465E+02  0.00000000000E+00 0.  1.
         23    2    1    2    0    0 -0.10624011374E+02  0.96571776908E+02  0.20026751714E+03  0.23952963614E+03  0.88478191968E+02 0.  0.
         23    2    1    2    0    0  0.11567086539E+01 -0.61490335075E+02  0.49128261380E+03  0.50347269859E+03  0.91344142229E+02 0.  0.
        -11    1    4    4    0    0 -0.42981803968E+02 -0.45716431468E+02  0.25724562246E+03  0.26478809991E+03  0.00000000000E+00 0. -1.
         11    1    4    4    0    0  0.44138512622E+02 -0.15773903607E+02  0.23403699134E+03  0.23868459868E+03  0.00000000000E+00 0.  1.
        -13    1    3    3    0    0 -0.37131259725E+02  0.67950369059E+01  0.60550911425E+02  0.71353457168E+02  0.00000000000E+00 0. -1.
         13    1    3    3    0    0  0.26507248351E+02  0.89776740002E+02  0.13971660571E+03  0.16817617897E+03  0.00000000000E+00 0.  1.
         21    1    1    2  502  501  0.94673027200E+01 -0.35081441832E+02  0.46122912213E+02  0.58716781357E+02  0.00000000000E+00 0.  1.
<scales pt_clust_5="13000.00000" pt_clust_6="13000.00000" pt_clust_7="13000.00000" pt_clust_8="13000.00000" pt_clust_9="36.33645"></scales>
<clustering>
<clus scale="   36.336">  2  9  1 -1</clus>
<clus scale="   88.478">  7  8 -1 -1</clus>
<clus scale="   91.344">  5  6 -1 -1</clus>
<clus scale="  112.749">  2  7  1 -1</clus>
<clus scale="  115.011">  1  5  2 -1</clus>
</clustering>
</event>
<event>
 9    1  0.1434065E-005  0.2568822E+03  0.7546771E-02  0.1109181E+00
          1   -1    0    0  502    0  0.00000000000E+00  0.00000000000E+00  0.33795242526E+03  0.33795242526E+03  0.00000000000E+00 0. -1.
         -1   -1    0    0    0  501 -0.00000000000E+00 -0.00000000000E+00 -0.23110825118E+03  0.23110825118E+03  0.00000000000E+00 0.  1.
         23    2    1    2    0    0 -0.87739366950E+02 -0.21809073760E+03  0.29828713419E+02  0.25333669309E+03  0.89598892726E+02 0.  0.
         23    2    1    2    0    0  0.12853640544E+03  0.20895960383E+03  0.79263624916E+02  0.27385716838E+03  0.92354225036E+02 0.  0.
        -11    1    4    4    0    0  0.13553135888E+03  0.14976972943E+03  0.53709296973E+02  0.20900815696E+03  0.00000000000E+00 0. -1.
         11    1    4    4    0    0 -0.69949534472E+01  0.59189874404E+02  0.25554327943E+02  0.64849011421E+02  0.00000000000E+00 0.  1.
        -13    1    3    3    0    0  0.12668939924E+02 -0.78946570064E+02  0.11256700306E+02  0.80745131528E+02  0.00000000000E+00 0. -1.
         13    1    3    3    0    0 -0.10040830687E+03 -0.13914416754E+03  0.18572013113E+02  0.17259156156E+03  0.00000000000E+00 0.  1.
         21    1    1    2  502  501 -0.40797038486E+02  0.91311337744E+01 -0.22481642604E+01  0.41866814971E+02  0.00000000000E+00 0.  1.
<scales pt_clust_5="13000.00000" pt_clust_6="13000.00000" pt_clust_7="13000.00000" pt_clust_8="13000.00000" pt_clust_9="41.80641"></scales>
<clustering>
<clus scale="   41.806">  2  9  1 -1</clus>
<clus scale="   89.599">  7  8 -1 -1</clus>
<clus scale="   92.354">  5  6 -1 -1</clus>
<clus scale="  255.905">  2  7  1 -1</clus>
<clus scale="  256.882">  1  5  2 -1</clus>
</clustering>
</event>
<event>
 9    1  0.1434065E-005  0.9838933E+02  0.7546771E-02  0.1286930E+00
         -4   -1    0    0    0  501 -0.00000000000E+00  0.00000000000E+00  0.77397878766E+03  0.77397878766E+03  0.00000000000E+00 0.  1.
          4   -1    0    0  502    0  0.00000000000E+00 -0.00000000000E+00 -0.24279222839E+02  0.24279222839E+02  0.00000000000E+00 0. -1.
         23    2    1    2    0    0  0.12601493078E+02 -0.48506842169E+02  0.25573200585E+03  0.27533004428E+03  0.88859794632E+02 0.  0.
         23    2    1    2    0    0 -0.29194991548E+02 -0.15626430901E+02  0.23420364671E+03  0.25485015845E+03  0.94872136345E+02 0.  0.
        -11    1    4    4    0    0 -0.32745805693E+02 -0.49441094145E+02  0.19026581247E+03  0.19929322360E+03  0.00000000000E+00 0. -1.
         11    1    4    4    0    0  0.35508141449E+01  0.33814663244E+02  0.43937834247E+02  0.55556934848E+02  0.00000000000E+00 0.  1.
        -13    1    3    3    0    0 -0.31697715524E+02  0.45037226416E+01  0.64650386939E+02  0.72143615230E+02  0.00000000000E+00 0.  1.
         13    1    3    3    0    0  0.44299208602E+02 -0.53010564811E+02  0.19108161891E+03  0.20318642905E+03  0.00000000000E+00 0. -1.
         21    1    1    2  502  501  0.16593498470E+02  0.64133273070E+02  0.25976391226E+03  0.26807780777E+03  0.00000000000E+00 0.  1.
<scales pt_clust_5="13000.00000" pt_clust_6="13000.00000" pt_clust_7="13000.00000" pt_clust_8="13000.00000" pt_clust_9="66.24516"></scales>
<clustering>
<clus scale="   66.245">  1  9  2 -1</clus>
<clus scale="   88.860">  7  8 -1 -1</clus>
<clus scale="   92.606">  1  7  2 -1</clus>
<clus scale="   94.872">  5  6 -1 -1</clus>
<clus scale="   98.389">  2  5  1 -1</clus>
</clustering>
</event>
<event>
 9    1  0.1434065E-005  0.1011443E+03  0.7546771E-02  0.1279450E+00
          2   -1    0    0  502    0  0.00000000000E+00  0.00000000000E+00  0.19922577397E+03  0.19922577397E+03  0.00000000000E+00 0. -1.
         -2   -1    0    0    0  501 -0.00000000000E+00 -0.00000000000E+00 -0.32882043261E+03  0.32882043261E+03  0.00000000000E+00 0.  1.
         23    2    1    2    0    0  0.23286503965E+02 -0.36312116005E+01 -0.80109007724E+02  0.12338178669E+03  0.90830420038E+02 0.  0.
         23    2    1    2    0    0  0.90312585434E+00  0.42306881363E+02  0.15996691270E+03  0.19030182515E+03  0.93992997872E+02 0.  0.
        -11    1    4    4    0    0  0.21714981376E+02  0.66598435320E+02  0.12176280338E+03  0.14047445423E+03  0.00000000000E+00 0.  1.
         11    1    4    4    0    0 -0.20811855522E+02 -0.24291553958E+02  0.38204109313E+02  0.49827370916E+02  0.00000000000E+00 0. -1.
        -13    1    3    3    0    0  0.38571276296E+02  0.32580222061E+02 -0.62409026649E+02  0.80275157004E+02  0.00000000000E+00 0.  1.
         13    1    3    3    0    0 -0.15284772332E+02 -0.36211433661E+02 -0.17699981074E+02  0.43106629688E+02  0.00000000000E+00 0. -1.
         21    1    1    2  502  501 -0.24189629819E+02 -0.38675669762E+02 -0.20945256362E+03  0.21436259475E+03  0.00000000000E+00 0.  1.
<scales pt_clust_5="13000.00000" pt_clust_6="13000.00000" pt_clust_7="13000.00000" pt_clust_8="13000.00000" pt_clust_9="45.61738"></scales>
<clustering>
<clus scale="   45.617">  2  9  1 -1</clus>
<clus scale="   90.830">  7  8 -1 -1</clus>
<clus scale="   93.993">  5  6 -1 -1</clus>
<clus scale="   98.212">  2  7  1 -1</clus>
<clus scale="  101.144">  1  5  2 -1</clus>
</clustering>
</event>
<event>
 9    1  0.1434065E-005  0.1182976E+03  0.7546771E-02  0.1248778E+00
         -1   -1    0    0    0  501 -0.00000000000E+00  0.00000000000E+00  0.35369484650E+02  0.35369484650E+02  0.00000000000E+00 0.  1.
          1   -1    0    0  502    0  0.00000000000E+00 -0.00000000000E+00 -0.70315686614E+03  0.70315686614E+03  0.00000000000E+00 0. -1.
         23    2    1    2    0    0 -0.62459598378E+02  0.42441560671E+02 -0.15251002787E+03  0.19157240534E+03  0.87966984642E+02 0.  0.
         23    2    1    2    0    0  0.68375852498E+02  0.50165398532E+01 -0.23924443561E+03  0.26680854535E+03  0.96169002413E+02 0.  0.
        -11    1    4    4    0    0 -0.12377139667E+02 -0.27731917163E+02 -0.50672784571E+02  0.59076085788E+02  0.00000000000E+00 0.  1.
         11    1    4    4    0    0  0.80752992164E+02  0.32748457016E+02 -0.18857165104E+03  0.20773245956E+03  0.00000000000E+00 0. -1.
        -11    1    3    3    0    0 -0.11441146024E+02  0.60266264622E+02 -0.71744367304E+02  0.94393732385E+02  0.00000000000E+00 0.  1.
         11    1    3    3    0    0 -0.51018452354E+02 -0.17824703950E+02 -0.80765660561E+02  0.97178672956E+02  0.00000000000E+00 0. -1.
         21    1    1    2  502  501 -0.59162541199E+01 -0.47458100524E+02 -0.27603291802E+03  0.28014540010E+03  0.00000000000E+00 0. -1.
<scales pt_clust_5="13000.00000" pt_clust_6="13000.00000" pt_clust_7="13000.00000" pt_clust_8="13000.00000" pt_clust_9="47.82545"></scales>
<clustering>
<clus scale="   47.825">  2  9  1 -1</clus>
<clus scale="   87.967">  7  8 -1 -1</clus>
<clus scale="   96.169">  5  6 -1 -1</clus>
<clus scale="  111.732">  1  7  2 -1</clus>
<clus scale="   47.825">  2  5  1 -1</clus>
</clustering>
</event>
<event>
 9    1  0.1434065E-005  0.1018944E+03  0.7546771E-02  0.1276697E+00
          2   -1    0    0  502    0  0.00000000000E+00  0.00000000000E+00  0.56131703643E+03  0.56131703643E+03  0.00000000000E+00 0. -1.
         -2   -1    0    0    0  501 -0.00000000000E+00 -0.00000000000E+00 -0.30241930704E+02  0.30241930704E+02  0.00000000000E+00 0.  1.
         23    2    1    2    0    0 -0.46672930334E+01  0.38693551542E+02  0.17042214935E+03  0.19699285857E+03  0.90793737572E+02 0.  0.
         23    2    1    2    0    0  0.52837994769E+02 -0.36234149012E+02  0.25778510826E+03  0.28095158774E+03  0.91519753979E+02 0.  0.
        -11    1    3    3    0    0  0.20954923503E+02  0.61102008408E+02  0.11702800597E+03  0.13367168149E+03  0.00000000000E+00 0.  1.
         11    1    3    3    0    0 -0.25622216536E+02 -0.22408456867E+02  0.53394143377E+02  0.63321177077E+02  0.00000000000E+00 0. -1.
        -13    1    4    4    0    0 -0.12383990514E+02  0.21322939055E+02  0.61198719978E+02  0.65979650484E+02  0.00000000000E+00 0. -1.
         13    1    4    4    0    0  0.65221985282E+02 -0.57557088067E+02  0.19658638828E+03  0.21497193726E+03  0.00000000000E+00 0.  1.
         21    1    1    2  502  501 -0.48170701735E+02 -0.24594025298E+01  0.10286784812E+03  0.11361452083E+03  0.00000000000E+00 0. -1.
<scales pt_clust_5="13000.00000" pt_clust_6="13000.00000" pt_clust_7="13000.00000" pt_clust_8="13000.00000" pt_clust_9="48.23344"></scales>
<clustering>
<clus scale="   48.233">  1  9  2 -1</clus>
<clus scale="   90.794">  5  6 -1 -1</clus>
<clus scale="   91.520">  7  8 -1 -1</clus>
<clus scale="  101.243">  2  5  1 -1</clus>
<clus scale="   48.233">  1  5  2 -1</clus>
</clustering>
</event>
<event>
 9    1  0.1434065E-005  0.1136598E+03  0.7546771E-02  0.1254783E+00
         -2   -1    0    0    0  501 -0.00000000000E+00  0.00000000000E+00  0.12929099563E+03  0.12929099563E+03  0.00000000000E+00 0.  1.
          2   -1    0    0  502    0  0.00000000000E+00 -0.00000000000E+00 -0.16176023249E+03  0.16176023249E+03  0.00000000000E+00 0. -1.
         23    2    1    2    0    0 -0.52023616342E+02 -0.58904453510E+02  0.42357482247E+02  0.12726245858E+03  0.90693912474E+02 0.  0.
         23    2    1    2    0    0  0.49344071636E+02  0.36511426884E+02 -0.83887633393E+02  0.13948387767E+03  0.93009114579E+02 0.  0.
        -11    1    3    3    0    0 -0.60132829115E+02 -0.30884048578E+02  0.62297683542E+02  0.91928140243E+02  0.00000000000E+00 0.  1.
         11    1    3    3    0    0  0.81092127729E+01 -0.28020404932E+02 -0.19940201295E+02  0.35334318333E+02  0.00000000000E+00 0. -1.
        -11    1    4    4    0    0  0.17084514825E+02  0.56587957609E+02 -0.15274517449E+02  0.61052342104E+02  0.00000000000E+00 0. -1.
         11    1    4    4    0    0  0.32259556812E+02 -0.20076530724E+02 -0.68613115944E+02  0.78431535565E+02  0.00000000000E+00 0.  1.
         21    1    1    2  502  501  0.26795447054E+01  0.22393026626E+02  0.90609142866E+01  0.24304891874E+02  0.00000000000E+00 0.  1.
<scales pt_clust_5="13000.00000" pt_clust_6="13000.00000" pt_clust_7="13000.00000" pt_clust_8="13000.00000" pt_clust_9="22.55277"></scales>
<clustering>
<clus scale="   22.553">  1  9  2 -1</clus>
<clus scale="   90.694">  5  6 -1 -1</clus>
<clus scale="   93.009">  7  8 -1 -1</clus>
<clus scale="  111.773">  1  5  2 -1</clus>
<clus scale="  113.660">  2  5  1 -1</clus>
</clustering>
</event>
<event>
 9    1  0.1434065E-005  0.1006274E+03  0.7546771E-02  0.1283263E+00
          2   -1    0    0  502    0  0.00000000000E+00  0.00000000000E+00  0.15848999984E+03  0.15848999984E+03  0.00000000000E+00 0. -1.
         -2   -1    0    0    0  501 -0.00000000000E+00 -0.00000000000E+00 -0.24648206402E+03  0.24648206402E+03  0.00000000000E+00 0.  1.
         23    2    1    2    0    0  0.15304478596E+02  0.62425668181E+01 -0.17406176249E+02  0.91748890570E+02  0.88553301709E+02 0.  0.
         23    2    1    2    0    0 -0.58160517194E+02  0.20314773119E+02  0.96079467410E+02  0.13909886994E+03  0.79510350226E+02 0.  0.
        -11    1    4    4    0    0  0.16053992986E+02  0.16477859759E+02  0.92115422377E+01  0.24781102950E+02  0.00000000000E+00 0.  1.
         11    1    4    4    0    0 -0.74214510180E+02  0.38369133604E+01  0.86867925173E+02  0.11431776699E+03  0.00000000000E+00 0. -1.
        -11    1    3    3    0    0 -0.24959346213E+02 -0.27607955754E+02 -0.37748590916E+01  0.37408792355E+02  0.00000000000E+00 0. -1.
         11    1    3    3    0    0  0.40263824809E+02  0.33850522572E+02 -0.13631317158E+02  0.54340098216E+02  0.00000000000E+00 0.  1.
         21    1    1    2  502  501  0.42856038598E+02 -0.26557339937E+02 -0.16666535533E+03  0.17412430335E+03  0.00000000000E+00 0.  1.
<scales pt_clust_5="13000.00000" pt_clust_6="13000.00000" pt_clust_7="13000.00000" pt_clust_8="13000.00000" pt_clust_9="50.41758"></scales>
<clustering>
<clus scale="   50.418">  2  9  1 -1</clus>
<clus scale="   79.510">  5  6 -1 -1</clus>
<clus scale="   88.553">  7  8 -1 -1</clus>
<clus scale="   92.769">  1  5  2 -1</clus>
<clus scale="   92.769">  1  5  2 -1</clus>
</clustering>
</event>
<event>
 9    1  0.1434065E-005  0.1134646E+03  0.7546771E-02  0.1255387E+00
          2   -1    0    0  502    0  0.00000000000E+00  0.00000000000E+00  0.74896103691E+03  0.74896103691E+03  0.00000000000E+00 0. -1.
         -2   -1    0    0    0  501 -0.00000000000E+00 -0.00000000000E+00 -0.33641841461E+02  0.33641841461E+02  0.00000000000E+00 0.  1.
         23    2    1    2    0    0  0.29528264783E+02 -0.27314519390E+02  0.19200060683E+03  0.21503807361E+03  0.88085973273E+02 0.  0.
         23    2    1    2    0    0 -0.51489925832E+02  0.69402309842E+02  0.49833028811E+03  0.51391676823E+03  0.91156324780E+02 0.  0.
        -11    1    3    3    0    0 -0.29108667159E+02 -0.65359693112E+01  0.34008249798E+02  0.45239302083E+02  0.00000000000E+00 0.  1.
         11    1    3    3    0    0  0.58636931942E+02 -0.20778550079E+02  0.15799235703E+03  0.16979877153E+03  0.00000000000E+00 0. -1.
        -13    1    4    4    0    0 -0.65972398118E+02  0.13311635987E+02  0.28750759181E+03  0.29527982036E+03  0.00000000000E+00 0.  1.
         13    1    4    4    0    0  0.14482472286E+02  0.56090673855E+02  0.21082269630E+03  0.21863694787E+03  0.00000000000E+00 0. -1.
         21    1    1    2  502  501  0.21961661049E+02 -0.42087790452E+02  0.24988300506E+02  0.53648036528E+02  0.00000000000E+00 0. -1.
<scales pt_clust_5="13000.00000" pt_clust_6="13000.00000" pt_clust_7="13000.00000" pt_clust_8="13000.00000" pt_clust_9="47.47312"></scales>
<clustering>
<clus scale="   47.473">  2  9  1 -1</clus>
<clus scale="   88.086">  5  6 -1 -1</clus>
<clus scale="   91.156">  7  8 -1 -1</clus>
<clus scale="  111.013">  2  5  1 -1</clus>
<clus scale="  113.465">  1  5  2 -1</clus>
</clustering>
</event>
<event>
 9    1  0.1434065E-005  0.1001325E+03  0.7546771E-02  0.1282205E+00
         -3   -1    0    0    0  501 -0.00000000000E+00  0.00000000000E+00  0.48729720082E+03  0.48729720082E+03  0.00000000000E+00 0.  1.
          3   -1    0    0  502    0  0.00000000000E+00 -0.00000000000E+00 -0.60977855844E+02  0.60977855844E+02  0.00000000000E+00 0. -1.
         23    2    1    2    0    0 -0.33104639973E+02  0.24776380173E+02  0.32769606399E+03  0.34337762115E+03  0.93881276879E+02 0.  0.
         23    2    1    2    0    0 -0.49193507999E+01 -0.36243389574E+02 -0.19942983342E+01  0.96725288235E+02  0.89521063769E+02 0.  0.
        -11    1    4    4    0    0  0.42097808677E+02 -0.15951319511E+02  0.38540376170E+01  0.45183223607E+02  0.00000000000E+00 0.  1.
         11    1    4    4    0    0 -0.47017159477E+02 -0.20292070062E+02 -0.58483359512E+01  0.51542064628E+02  0.00000000000E+00 0. -1.
        -11    1    3    3    0    0 -0.22524342448E+02 -0.28243606898E+02  0.58111608011E+02  0.68425187753E+02  0.00000000000E+00 0. -1.
         11    1    3    3    0    0 -0.10580297525E+02  0.53019987071E+02  0.26958445598E+03  0.27495243339E+03  0.00000000000E+00 0.  1.
         21    1    1    2  502  501  0.38023990773E+02  0.11467009400E+02  0.10061757932E+03  0.10817214728E+03  0.00000000000E+00 0.  1.
<scales pt_clust_5="13000.00000" pt_clust_6="13000.00000" pt_clust_7="13000.00000" pt_clust_8="13000.00000" pt_clust_9="39.71544"></scales>
<clustering>
<clus scale="   39.715">  1  9  2 -1</clus>
<clus scale="   89.521">  5  6 -1 -1</clus>
<clus scale="   93.881">  7  8 -1 -1</clus>
<clus scale="   96.056">  2  5  1 -1</clus>
<clus scale="   96.056">  2  5  1 -1</clus>
</clustering>
</event>
<event>
 9    1  0.1434065E-005  0.1030240E+03  0.7546771E-02  0.1274635E+00
         -3   -1    0    0    0  501 -0.00000000000E+00  0.00000000000E+00  0.10286320046E+03  0.10286320046E+03  0.00000000000E+00 0.  1.
          3   -1    0    0  502    0  0.00000000000E+00 -0.00000000000E+00 -0.23643417183E+03  0.23643417183E+03  0.00000000000E+00 0. -1.
         23    2    1    2    0    0 -0.32326782074E+02  0.19857073010E+02 -0.43601837168E+02  0.10877476901E+03  0.92149367769E+02 0.  0.
         23    2    1    2    0    0  0.24725780540E+02 -0.46317421449E+02 -0.13906715299E+03  0.17423281102E+03  0.90888567164E+02 0.  0.
        -11    1    4    4    0    0  0.30307669853E+02  0.84906968195E+00 -0.34211168062E+01  0.30511961776E+02  0.00000000000E+00 0.  1.
         11    1    4    4    0    0 -0.55818893125E+01 -0.47166491131E+02 -0.13564603619E+03  0.14372084924E+03  0.00000000000E+00 0. -1.
        -11    1    3    3    0    0  0.62375448604E+01  0.38336891406E+02  0.10093900833E+02  0.40131172953E+02  0.00000000000E+00 0. -1.
         11    1    3    3    0    0 -0.38564326934E+02 -0.18479818395E+02 -0.53695738000E+02  0.68643596054E+02  0.00000000000E+00 0.  1.
         21    1    1    2  502  501  0.76010015337E+01  0.26460348439E+02  0.49098018788E+02  0.56289792260E+02  0.00000000000E+00 0.  1.
<scales pt_clust_5="13000.00000" pt_clust_6="13000.00000" pt_clust_7="13000.00000" pt_clust_8="13000.00000" pt_clust_9="27.53044"></scales>
<clustering>
<clus scale="   27.530">  1  9  2 -1</clus>
<clus scale="   90.889">  5  6 -1 -1</clus>
<clus scale="   92.149">  7  8 -1 -1</clus>
<clus scale="  101.898">  2  5  1 -1</clus>
<clus scale="  101.898">  2  5  1 -1</clus>
</clustering>
</event>
<event>
 9    1  0.1434065E-005  0.9380240E+02  0.7546771E-02  0.1294128E+00
         -1   -1    0    0    0  501 -0.00000000000E+00  0.00000000000E+00  0.60708848041E+02  0.60708848041E+02  0.00000000000E+00 0.  1.
          1   -1    0    0  502    0  0.00000000000E+00 -0.00000000000E+00 -0.21238630219E+03  0.21238630219E+03  0.00000000000E+00 0. -1.
         23    2    1    2    0    0  0.20809484781E+02 -0.43361927867E+00 -0.68744970421E+02  0.11678629836E+03  0.92086621412E+02 0.  0.
         23    2    1    2    0    0 -0.97573371679E+01  0.17996533100E+02 -0.93916064761E+02  0.13283024542E+03  0.91676420341E+02 0.  0.
        -11    1    4    4    0    0  0.33321740024E+02  0.21911712467E+02 -0.76359401760E+02  0.86146501604E+02  0.00000000000E+00 0.  1.
         11    1    4    4    0    0 -0.43079077192E+02 -0.39151793673E+01 -0.17556663001E+02  0.46683743818E+02  0.00000000000E+00 0. -1.
        -11    1    3    3    0    0 -0.33878332654E+02 -0.81026706817E+01 -0.44404216932E+02  0.56436948686E+02  0.00000000000E+00 0. -1.
         11    1    3    3    0    0  0.54687817436E+02  0.76690514030E+01 -0.24340753489E+02  0.60349349671E+02  0.00000000000E+00 0.  1.
         21    1    1    2  502  501 -0.11052147614E+02 -0.17562913821E+02  0.10983581031E+02  0.23478606454E+02  0.00000000000E+00 0.  1.
<scales pt_clust_5="13000.00000" pt_clust_6="13000.00000" pt_clust_7="13000.00000" pt_clust_8="13000.00000" pt_clust_9="20.75105"></scales>
<clustering>
<clus scale="   20.751">  1  9  2 -1</clus>
<clus scale="   91.676">  5  6 -1 -1</clus>
<clus scale="   92.087">  7  8 -1 -1</clus>
<clus scale="   93.400">  2  5  1 -1</clus>
<clus scale="   93.400">  2  5  1 -1</clus>
</clustering>
</event>
<event>
 9    1  0.1434065E-005  0.3162937E+03  0.7546771E-02  0.1077417E+00
         -1   -1    0    0    0  501 -0.00000000000E+00  0.00000000000E+00  0.14470312269E+04  0.14470312269E+04  0.00000000000E+00 0.  1.
          1   -1    0    0  502    0  0.00000000000E+00 -0.00000000000E+00 -0.48211707595E+03  0.48211707595E+03  0.00000000000E+00 0. -1.
         23    2    1    2    0    0 -0.23344351927E+03  0.18221142718E+03  0.13044554593E+04  0.13408445924E+04  0.92538071136E+02 0.  0.
         23    2    1    2    0    0  0.24988050927E+03 -0.17009810899E+03 -0.40826744705E+03  0.51660859731E+03  0.93960092061E+02 0.  0.
        -11    1    4    4    0    0  0.20495683538E+02 -0.15905694585E+02 -0.96678108706E+02  0.10009855577E+03  0.00000000000E+00 0.  1.
         11    1    4    4    0    0  0.22938482573E+03 -0.15419241441E+03 -0.31158933834E+03  0.41651004154E+03  0.00000000000E+00 0. -1.
        -13    1    3    3    0    0 -0.32303250484E+02  0.73317206959E+02  0.39738323980E+03  0.40537926945E+03  0.00000000000E+00 0. -1.
         13    1    3    3    0    0 -0.20114026879E+03  0.10889422022E+03  0.90707221952E+03  0.93546532290E+03  0.00000000000E+00 0.  1.
         21    1    1    2  502  501 -0.16436990001E+02 -0.12113318190E+02  0.68726138639E+02  0.71695113154E+02  0.00000000000E+00 0. -1.
<scales pt_clust_5="13000.00000" pt_clust_6="13000.00000" pt_clust_7="13000.00000" pt_clust_8="13000.00000" pt_clust_9="20.41830"></scales>
<clustering>
<clus scale="   20.418">  1  9  2 -1</clus>
<clus scale="   92.538">  7  8 -1 -1</clus>
<clus scale="   93.960">  5  6 -1 -1</clus>
<clus scale="  315.874">  1  7  2 -1</clus>
<clus scale="  316.294">  2  5  1 -1</clus>
</clustering>
</event>
<event>
 9    1  0.1434065E-005  0.1073529E+03  0.7546771E-02  0.1272090E+00
         -1   -1    0    0    0  501 -0.00000000000E+00  0.00000000000E+00  0.87152819923E+02  0.87152819923E+02  0.00000000000E+00 0.  1.
          1   -1    0    0  502    0  0.00000000000E+00 -0.00000000000E+00 -0.29421964295E+03  0.29421964295E+03  0.00000000000E+00 0. -1.
         23    2    1    2    0    0  0.14094800223E+02 -0.21829864519E+02 -0.66977048582E+02  0.11692243084E+03  0.92248162145E+02 0.  0.
         23    2    1    2    0    0  0.32645046607E+02  0.10953759172E+02 -0.17358483547E+03  0.20592805271E+03  0.10530424436E+03 0.  0.
        -11    1    4    4    0    0  0.66291090726E+02  0.17577219913E+02 -0.75387615874E+02  0.10191545514E+03  0.00000000000E+00 0.  1.
         11    1    4    4    0    0 -0.33646044119E+02 -0.66234607417E+01 -0.98197219596E+02  0.10401259757E+03  0.00000000000E+00 0. -1.
        -13    1    3    3    0    0 -0.31439448770E+02 -0.25509659364E+02 -0.57407559832E+02  0.70248199875E+02  0.00000000000E+00 0. -1.
         13    1    3    3    0    0  0.45534248993E+02  0.36797948445E+01 -0.95694887501E+01  0.46674230968E+02  0.00000000000E+00 0.  1.
         21    1    1    2  502  501 -0.46739846830E+02  0.10876105348E+02  0.33495061030E+02  0.58521979313E+02  0.00000000000E+00 0.  1.
<scales pt_clust_5="13000.00000" pt_clust_6="13000.00000" pt_clust_7="13000.00000" pt_clust_8="13000.00000" pt_clust_9="47.98857"></scales>
<clustering>
<clus scale="   47.989">  1  9  2 -1</clus>
<clus scale="   92.248">  7  8 -1 -1</clus>
<clus scale="   94.580">  1  7  2 -1</clus>
<clus scale="  105.304">  5  6 -1 -1</clus>
<clus scale="  107.353">  2  5  1 -1</clus>
</clustering>
</event>
<event>
 9    1  0.1434065E-005  0.1192857E+03  0.7546771E-02  0.1244618E+00
          1   -1    0    0  502    0  0.00000000000E+00  0.00000000000E+00  0.36162870136E+03  0.36162870136E+03  0.00000000000E+00 0. -1.
         -1   -1    0    0    0  501 -0.00000000000E+00 -0.00000000000E+00 -0.54675418763E+02  0.54675418763E+02  0.00000000000E+00 0.  1.
         23    2    1    2    0    0 -0.62473422392E+02 -0.36248881901E+02  0.66940387369E+02  0.13386179530E+03  0.90670032730E+02 0.  0.
         23    2    1    2    0    0  0.77028867170E+02  0.18118989539E+02  0.22247676028E+03  0.25332068341E+03  0.91726308214E+02 0.  0.
        -11    1    4    4    0    0  0.95870028203E+02  0.27827062281E+02  0.17907814395E+03  0.20502289956E+03  0.00000000000E+00 0.  1.
         11    1    4    4    0    0 -0.18841161033E+02 -0.97080727422E+01  0.43398616330E+02  0.48297783850E+02  0.00000000000E+00 0. -1.
        -11    1    3    3    0    0 -0.62501051359E+02  0.89455449325E+01  0.61844984211E+02  0.88381028887E+02  0.00000000000E+00 0. -1.
         11    1    3    3    0    0  0.27628966244E-01 -0.45194426833E+02  0.50954031585E+01  0.45480766413E+02  0.00000000000E+00 0.  1.
         21    1    1    2  502  501 -0.14555444778E+02  0.18129892362E+02  0.17536134946E+02  0.29121641413E+02  0.00000000000E+00 0. -1.
<scales pt_clust_5="13000.00000" pt_clust_6="13000.00000" pt_clust_7="13000.00000" pt_clust_8="13000.00000" pt_clust_9="23.24982"></scales>
<clustering>
<clus scale="   23.250">  2  9  1 -1</clus>
<clus scale="   90.670">  7  8 -1 -1</clus>
<clus scale="   91.726">  5  6 -1 -1</clus>
<clus scale="  118.475">  2  7  1 -1</clus>
<clus scale="  119.286">  1  5  2 -1</clus>
</clustering>
</event>
<event>
 9    1  0.1434065E-005  0.2097924E+03  0.7546771E-02  0.1141969E+00
          1   -1    0    0  502    0  0.00000000000E+00  0.00000000000E+00  0.86382177981E+03  0.86382177981E+03  0.00000000000E+00 0. -1.
         -1   -1    0    0    0  501 -0.00000000000E+00 -0.00000000000E+00 -0.94666443405E+02  0.94666443405E+02  0.00000000000E+00 0.  1.
         23    2    1    2    0    0  0.79108380460E+02 -0.15566279789E+03  0.35062804194E+03  0.40232318195E+03  0.91841583347E+02 0.  0.
         23    2    1    2    0    0 -0.11050291457E+03  0.16717987474E+03  0.45536456904E+03  0.50641321086E+03  0.94538059767E+02 0.  0.
        -11    1    3    3    0    0  0.49661193291E+02 -0.15577557495E+03  0.32261237481E+03  0.36167804503E+03  0.00000000000E+00 0.  1.
         11    1    3    3    0    0  0.29447187168E+02  0.11277706118E+00  0.28015667123E+02  0.40645136919E+02  0.00000000000E+00 0. -1.
        -13    1    4    4    0    0 -0.25108036392E+02  0.43677609175E+02  0.38725063042E+02  0.63543509049E+02  0.00000000000E+00 0.  1.
         13    1    4    4    0    0 -0.85394878181E+02  0.12350226556E+03  0.41663950600E+03  0.44286970181E+03  0.00000000000E+00 0. -1.
         21    1    1    2  502  501  0.31394534113E+02 -0.11517076842E+02 -0.36837274576E+02  0.49751830412E+02  0.00000000000E+00 0.  1.
<scales pt_clust_5="13000.00000" pt_clust_6="13000.00000" pt_clust_7="13000.00000" pt_clust_8="13000.00000" pt_clust_9="33.44039"></scales>
<clustering>
<clus scale="   33.440">  2  9  1 -1</clus>
<clus scale="   91.842">  5  6 -1 -1</clus>
<clus scale="   94.538">  7  8 -1 -1</clus>
<clus scale="  208.591">  2  5  1 -1</clus>
<clus scale="  209.792">  1  5  2 -1</clus>
</clustering>
</event>
<event>
 9    1  0.1434065E-005  0.9315515E+02  0.7546771E-02  0.1297027E+00
          3   -1    0    0  502    0  0.00000000000E+00  0.00000000000E+00  0.15838697973E+03  0.15838697973E+03  0.00000000000E+00 0. -1.
         -3   -1    0    0    0  501 -0.00000000000E+00 -0.00000000000E+00 -0.50033380092E+03  0.50033380092E+03  0.00000000000E+00 0.  1.
         23    2    1    2    0    0  0.32184786227E+02 -0.49683113709E+01 -0.41468794496E+03  0.42613345074E+03  0.92536920028E+02 0.  0.
         23    2    1    2    0    0 -0.99113157154E+01  0.14164047095E+01  0.13723197470E+03  0.16426607858E+03  0.89724518988E+02 0.  0.
        -11    1    3    3    0    0  0.46449229390E+02  0.28830506328E+02 -0.31906684763E+03  0.32371651528E+03  0.00000000000E+00 0.  1.
         11    1    3    3    0    0 -0.14264443164E+02 -0.33798817699E+02 -0.95621097325E+02  0.10241693547E+03  0.00000000000E+00 0. -1.
        -13    1    4    4    0    0 -0.16968488525E+02  0.43854939273E+02  0.77589088482E+02  0.90726247321E+02  0.00000000000E+00 0.  1.
         13    1    4    4    0    0  0.70571728094E+01 -0.42438534564E+02  0.59642886223E+02  0.73539831255E+02  0.00000000000E+00 0. -1.
         21    1    1    2  502  501 -0.22273470511E+02  0.35519066614E+01 -0.64490850931E+02  0.68321251331E+02  0.00000000000E+00 0.  1.
<scales pt_clust_5="13000.00000" pt_clust_6="13000.00000" pt_clust_7="13000.00000" pt_clust_8="13000.00000" pt_clust_9="22.55490"></scales>
<clustering>
<clus scale="   22.555">  2  9  1 -1</clus>
<clus scale="   89.725">  7  8 -1 -1</clus>
<clus scale="   90.362">  1  7  2 -1</clus>
<clus scale="   92.537">  5  6 -1 -1</clus>
<clus scale="   90.362">  1  5  2 -1</clus>
</clustering>
</event>
<event>
 9    1  0.1434065E-005  0.9632848E+02  0.7546771E-02  0.1288942E+00
          1   -1    0    0  502    0  0.00000000000E+00  0.00000000000E+00  0.29357702559E+03  0.29357702559E+03  0.00000000000E+00 0. -1.
         -1   -1    0    0    0  501 -0.00000000000E+00 -0.00000000000E+00 -0.47730622921E+02  0.47730622921E+02  0.00000000000E+00 0.  1.
         23    2    1    2    0    0 -0.39515919922E+01 -0.29188450401E+02  0.10867059539E+03  0.14390731901E+03  0.89623866496E+02 0.  0.
         23    2    1    2    0    0  0.24798101651E+02  0.26335799138E+02  0.14497893929E+03  0.17495921872E+03  0.91012720072E+02 0.  0.
        -11    1    3    3    0    0  0.20005916724E+02 -0.55266307458E+02  0.71725074642E+02  0.92731266445E+02  0.00000000000E+00 0. -1.
         11    1    3    3    0    0 -0.23957508717E+02  0.26077857058E+02  0.36945520748E+02  0.51176052563E+02  0.00000000000E+00 0.  1.
        -13    1    4    4    0    0 -0.10878876210E+02  0.34441653430E+02  0.13621900592E+02  0.38602248824E+02  0.00000000000E+00 0.  1.
         13    1    4    4    0    0  0.35676977861E+02 -0.81058542911E+01  0.13135703870E+03  0.13635696989E+03  0.00000000000E+00 0. -1.
         21    1    1    2  502  501 -0.20846509659E+02  0.28526512621E+01 -0.78031320081E+01  0.22441110786E+02  0.00000000000E+00 0.  1.
<scales pt_clust_5="13000.00000" pt_clust_6="13000.00000" pt_clust_7="13000.00000" pt_clust_8="13000.00000" pt_clust_9="21.04078"></scales>
<clustering>
<clus scale="   21.041">  2  9  1 -1</clus>
<clus scale="   89.624">  5  6 -1 -1</clus>
<clus scale="   91.013">  7  8 -1 -1</clus>
<clus scale="   95.017">  2  5  1 -1</clus>
<clus scale="   96.328">  1  5  2 -1</clus>
</clustering>
</event>
<event>
 9    1  0.1434065E-005  0.1103877E+03  0.7546771E-02  0.1269204E+00
          1   -1    0    0  502    0  0.00000000000E+00  0.00000000000E+00  0.43896792258E+02  0.43896792258E+02  0.00000000000E+00 0. -1.
         -1   -1    0    0    0  501 -0.00000000000E+00 -0.00000000000E+00 -0.33392226860E+03  0.33392226860E+03  0.00000000000E+00 0.  1.
         23    2    1    2    0    0  0.71599580057E+02 -0.36814791393E+02 -0.17776865773E+03  0.21513541463E+03  0.90552317618E+02 0.  0.
         23    2    1    2    0    0 -0.36655815995E+02  0.28667445415E+02 -0.71776184898E+02  0.10858995344E+03  0.66891598857E+02 0.  0.
        -11    1    3    3    0    0  0.55639720223E+02 -0.55023481115E+02 -0.17379394605E+03  0.19059826238E+03  0.00000000000E+00 0.  1.
         11    1    3    3    0    0  0.15959859834E+02  0.18208689721E+02 -0.39747116814E+01  0.24537152244E+02  0.00000000000E+00 0. -1.
        -13    1    4    4    0    0  0.17909735956E+02  0.17996753093E+02 -0.17103515697E+02  0.30613265313E+02  0.00000000000E+00 0. -1.
         13    1    4    4    0    0 -0.54565551951E+02  0.10670692322E+02 -0.54672669201E+02  0.77976688131E+02  0.00000000000E+00 0.  1.
         21    1    1    2  502  501 -0.34943764062E+02  0.81473459784E+01 -0.40480633713E+02  0.54093692785E+02  0.00000000000E+00 0.  1.
<scales pt_clust_5="13000.00000" pt_clust_6="13000.00000" pt_clust_7="13000.00000" pt_clust_8="13000.00000" pt_clust_9="35.88100"></scales>
<clustering>
<clus scale="   35.881">  1  9  2 -1</clus>
<clus scale="   66.892">  7  8 -1 -1</clus>
<clus scale="   90.552">  5  6 -1 -1</clus>
<clus scale="   91.979">  1  7  2 -1</clus>
<clus scale="   35.881">  1  5  2 -1</clus>
</clustering>
</event>
<event>
 9    1  0.1434065E-005  0.1316774E+03  0.7546771E-02  0.1225076E+00
          2   -1    0    0  502    0  0.00000000000E+00  0.00000000000E+00  0.36436517470E+03  0.36436517470E+03  0.00000000000E+00 0. -1.
         -2   -1    0    0    0  501 -0.00000000000E+00 -0.00000000000E+00 -0.88735669034E+02  0.88735669034E+02  0.00000000000E+00 0.  1.
         23    2    1    2    0    0 -0.81100709950E+02 -0.57643494293E+02  0.15971973290E+03  0.20910120971E+03  0.91174696247E+02 0.  0.
         23    2    1    2    0    0  0.85331042488E+02  0.34363583796E+02  0.15281616914E+03  0.20015978867E+03  0.90823547324E+02 0.  0.
        -11    1    3    3    0    0 -0.41327356758E+02 -0.19467450826E+02  0.14501974918E+03  0.15204492662E+03  0.00000000000E+00 0. -1.
         11    1    3    3    0    0 -0.39773353191E+02 -0.38176043467E+02  0.14699983723E+02  0.57056283092E+02  0.00000000000E+00 0.  1.
        -11    1    4    4    0    0  0.53051800320E+02  0.46034533518E+02  0.37050866895E+02  0.79413087908E+02  0.00000000000E+00 0. -1.
         11    1    4    4    0    0  0.32279242168E+02 -0.11670949722E+02  0.11576530224E+03  0.12074670076E+03  0.00000000000E+00 0.  1.
         21    1    1    2  502  501 -0.42303325385E+01  0.23279910497E+02 -0.36906396379E+02  0.43839845345E+02  0.00000000000E+00 0.  1.
<scales pt_clust_5="13000.00000" pt_clust_6="13000.00000" pt_clust_7="13000.00000" pt_clust_8="13000.00000" pt_clust_9="23.66115"></scales>
<clustering>
<clus scale="   23.661">  2  9  1 -1</clus>
<clus scale="   90.824">  7  8 -1 -1</clus>
<clus scale="   91.175">  5  6 -1 -1</clus>
<clus scale="  131.435">  1  7  2 -1</clus>
<clus scale="  131.435">  1  5  2 -1</clus>
</clustering>
</event>
<event>
 9    1  0.1434065E-005  0.9717292E+02  0.7546771E-02  0.1288463E+00
          1   -1    0    0  502    0  0.00000000000E+00  0.00000000000E+00  0.34081994464E+03  0.34081994464E+03  0.00000000000E+00 0. -1.
         -1   -1    0    0    0  501 -0.00000000000E+00 -0.00000000000E+00 -0.47110828701E+02  0.47110828701E+02  0.00000000000E+00 0.  1.
         23    2    1    2    0    0  0.30583214080E+02 -0.31613206407E+02  0.94080848840E+02  0.14101230319E+03  0.95386244974E+02 0.  0.
         23    2    1    2    0    0  0.12048367675E+02  0.11286880421E+02  0.16085956444E+03  0.18581508566E+03  0.91536275605E+02 0.  0.
        -11    1    4    4    0    0 -0.30774882574E+02 -0.57439584174E+01  0.18915612521E+02  0.36577135656E+02  0.00000000000E+00 0.  1.
         11    1    4    4    0    0  0.42823250249E+02  0.17030838838E+02  0.14194395192E+03  0.14923795000E+03  0.00000000000E+00 0. -1.
        -11    1    3    3    0    0 -0.13044533845E+02 -0.46828253230E+02  0.17680081737E+02  0.51726496634E+02  0.00000000000E+00 0.  1.
         11    1    3    3    0    0  0.43627747924E+02  0.15215046823E+02  0.76400767103E+02  0.89285806558E+02  0.00000000000E+00 0. -1.
         21    1    1    2  502  501 -0.42631581754E+02  0.20326325987E+02  0.38768702662E+02  0.61103384498E+02  0.00000000000E+00 0. -1.
<scales pt_clust_5="13000.00000" pt_clust_6="13000.00000" pt_clust_7="13000.00000" pt_clust_8="13000.00000" pt_clust_9="47.22935"></scales>
<clustering>
<clus scale="   47.229">  2  9  1 -1</clus>
<clus scale="   91.536">  5  6 -1 -1</clus>
<clus scale="   93.397">  1  5  2 -1</clus>
<clus scale="   95.386">  7  8 -1 -1</clus>
<clus scale="   93.397">  1  5  2 -1</clus>
</clustering>
</event>
<event>
 9    1  0.1434065E-005  0.1132301E+03  0.7546771E-02  0.1254978E+00
         -1   -1    0    0    0  501 -0.00000000000E+00  0.00000000000E+00  0.15975867829E+03  0.15975867829E+03  0.00000000000E+00 0.  1.
          1   -1    0    0  502    0  0.00000000000E+00 -0.00000000000E+00 -0.13577703261E+03  0.13577703261E+03  0.00000000000E+00 0. -1.
         23    2    1    2    0    0 -0.57534891356E+02  0.15480057760E+01  0.29071922574E+02  0.11176387372E+03  0.91287056808E+02 0.  0.
         23    2    1    2    0    0  0.66316770308E+02 -0.27726533939E+02 -0.53175310422E+02  0.12832269668E+03  0.92045782822E+02 0.  0.
        -11    1    4    4    0    0  0.72217870611E+02 -0.51886846410E+02 -0.28732827884E+02  0.93451811455E+02  0.00000000000E+00 0.  1.
         11    1    4    4    0    0 -0.59011003028E+01  0.24160312471E+02 -0.24442482537E+02  0.34870885221E+02  0.00000000000E+00 0. -1.
        -11    1    3    3    0    0 -0.11145713895E+02 -0.30463009626E+02  0.42849070576E+02  0.53742578491E+02  0.00000000000E+00 0.  1.
         11    1    3    3    0    0 -0.46389177461E+02  0.32011015402E+02 -0.13777148001E+02  0.58021295226E+02  0.00000000000E+00 0. -1.
         21    1    1    2  502  501 -0.87818789517E+01  0.26178528163E+02  0.48085033522E+02  0.55449140512E+02  0.00000000000E+00 0.  1.
<scales pt_clust_5="13000.00000" pt_clust_6="13000.00000" pt_clust_7="13000.00000" pt_clust_8="13000.00000" pt_clust_9="27.61226"></scales>
<clustering>
<clus scale="   27.612">  1  9  2 -1</clus>
<clus scale="   91.287">  7  8 -1 -1</clus>
<clus scale="   92.046">  5  6 -1 -1</clus>
<clus scale="  112.614">  1  7  2 -1</clus>
<clus scale="  113.230">  2  5  1 -1</clus>
</clustering>
</event>
<event>
 9    1  0.1434065E-005  0.1106540E+03  0.7546771E-02  0.1261034E+00
         -1   -1    0    0    0  501 -0.00000000000E+00  0.00000000000E+00  0.20130706017E+02  0.20130706017E+02  0.00000000000E+00 0.  1.
          1   -1    0    0  502    0  0.00000000000E+00 -0.00000000000E+00 -0.93601637137E+03  0.93601637137E+03  0.00000000000E+00 0. -1.
         23    2    1    2    0    0 -0.57975366878E+02  0.61417082273E+02 -0.44177153636E+03  0.45890425600E+03  0.91092396403E+02 0.  0.
         23    2    1    2    0    0  0.35349923467E+02 -0.33003337418E+02 -0.42325561622E+03  0.43474610221E+03  0.86718045134E+02 0.  0.
        -11    1    3    3    0    0 -0.40557322389E+02 -0.68490925157E+01 -0.76069817225E+02  0.86477879023E+02  0.00000000000E+00 0.  1.
         11    1    3    3    0    0 -0.17418044489E+02  0.68266174788E+02 -0.36570171913E+03  0.37242637698E+03  0.00000000000E+00 0. -1.
        -13    1    4    4    0    0  0.54672744163E+02  0.57475885577E+01 -0.20544404420E+03  0.21267204571E+03  0.00000000000E+00 0. -1.
         13    1    4    4    0    0 -0.19322820695E+02 -0.38750925976E+02 -0.21781157202E+03  0.22207405650E+03  0.00000000000E+00 0.  1.
         21    1    1    2  502  501  0.22625443410E+02 -0.28413744854E+02 -0.50858512771E+02  0.62496719173E+02  0.00000000000E+00 0. -1.
<scales pt_clust_5="13000.00000" pt_clust_6="13000.00000" pt_clust_7="13000.00000" pt_clust_8="13000.00000" pt_clust_9="36.32150"></scales>
<clustering>
<clus scale="   36.322">  1  9  2 -1</clus>
<clus scale="   86.718">  7  8 -1 -1</clus>
<clus scale="   91.092">  5  6 -1 -1</clus>
<clus scale="  107.082">  2  7  1 -1</clus>
<clus scale="  107.082">  2  5  1 -1</clus>
</clustering>
</event>
<event>
 9    1  0.1434065E-005  0.1005919E+03  0.7546771E-02  0.1279379E+00
          1   -1    0    0  502    0  0.00000000000E+00  0.00000000000E+00  0.49264006360E+03  0.49264006360E+03  0.00000000000E+00 0. -1.
         -1   -1    0    0    0  501 -0.00000000000E+00 -0.00000000000E+00 -0.54603718515E+02  0.54603718515E+02  0.00000000000E+00 0.  1.
         23    2    1    2    0    0 -0.14164320640E+02 -0.15897349461E+02  0.12272490681E+02  0.95394411765E+02  0.92174432840E+02 0.  0.
         23    2    1    2    0    0  0.34107550535E+02  0.26365097420E+02  0.41450712801E+03  0.42666961548E+03  0.91500591463E+02 0.  0.
        -13    1    4    4    0    0 -0.19658140602E+02  0.36548912084E+02  0.24667953617E+03  0.25014607539E+03  0.00000000000E+00 0.  1.
         13    1    4    4    0    0  0.53765691137E+02 -0.10183814664E+02  0.16782759184E+03  0.17652354010E+03  0.00000000000E+00 0. -1.
        -13    1    3    3    0    0  0.82709764944E+01 -0.42355068799E+02  0.33582635716E+02  0.54682303597E+02  0.00000000000E+00 0. -1.
         13    1    3    3    0    0 -0.22435297134E+02  0.26457719338E+02 -0.21310145034E+02  0.40712108167E+02  0.00000000000E+00 0.  1.
         21    1    1    2  502  501 -0.19943229896E+02 -0.10467747959E+02  0.11256726389E+02  0.25179754864E+02  0.00000000000E+00 0.  1.
<scales pt_clust_5="13000.00000" pt_clust_6="13000.00000" pt_clust_7="13000.00000" pt_clust_8="13000.00000" pt_clust_9="22.52346"></scales>
<clustering>
<clus scale="   22.523">  2  9  1 -1</clus>
<clus scale="   91.501">  5  6 -1 -1</clus>
<clus scale="   92.174">  7  8 -1 -1</clus>
<clus scale="   99.975">  1  5  2 -1</clus>
<clus scale="   99.975">  1  5  2 -1</clus>
</clustering>
</event>
<event>
 9    1  0.1434065E-005  0.1175439E+03  0.7546771E-02  0.1251225E+00
          3   -1    0    0  502    0  0.00000000000E+00  0.00000000000E+00  0.36850350761E+03  0.36850350761E+03  0.00000000000E+00 0. -1.
         -3   -1    0    0    0  501 -0.00000000000E+00 -0.00000000000E+00 -0.48556114993E+02  0.48556114993E+02  0.00000000000E+00 0.  1.
         23    2    1    2    0    0  0.50286442193E+02 -0.17594488727E+02  0.10483989857E+03  0.14728892455E+03  0.88681061456E+02 0.  0.
         23    2    1    2    0    0 -0.53802731020E+02  0.47660508527E+02  0.20280974089E+03  0.23709709148E+03  0.99584044149E+02 0.  0.
        -11    1    3    3    0    0 -0.12337454527E+02 -0.25095896381E+02  0.69673499868E+02  0.75076050664E+02  0.00000000000E+00 0.  1.
         11    1    3    3    0    0  0.62623896720E+02  0.75014076542E+01  0.35166398699E+02  0.72212873884E+02  0.00000000000E+00 0. -1.
        -11    1    4    4    0    0 -0.72475764399E+02  0.64900588831E+02  0.15659187531E+03  0.18435248376E+03  0.00000000000E+00 0. -1.
         11    1    4    4    0    0  0.18673033378E+02 -0.17240080304E+02  0.46217865578E+02  0.52744607715E+02  0.00000000000E+00 0.  1.
         21    1    1    2  502  501  0.35162888272E+01 -0.30066019800E+02  0.12297753155E+02  0.32673606572E+02  0.00000000000E+00 0.  1.
<scales pt_clust_5="13000.00000" pt_clust_6="13000.00000" pt_clust_7="13000.00000" pt_clust_8="13000.00000" pt_clust_9="30.27094"></scales>
<clustering>
<clus scale="   30.271">  2  9  1 -1</clus>
<clus scale="   88.681">  5  6 -1 -1</clus>
<clus scale="   99.584">  7  8 -1 -1</clus>
<clus scale="  108.462">  2  5  1 -1</clus>
<clus scale="  117.544">  1  5  2 -1</clus>
</clustering>
</event>
<event>
 9    1  0.1982184E-005  0.1031495E+03  0.7546771E-02  0.1276075E+00
          2   -1    0    0  502    0  0.00000000000E+00  0.00000000000E+00  0.16503209654E+03  0.16503209654E+03  0.00000000000E+00 0. -1.
         -2   -1    0    0    0  501 -0.00000000000E+00 -0.00000000000E+00 -0.19473294696E+03  0.19473294696E+03  0.00000000000E+00 0.  1.
         23    2    1    2    0    0  0.87387694859E+01  0.94356863873E+01 -0.13822805590E+03  0.16544428956E+03  0.89996773504E+02 0.  0.
         23    2    1    2    0    0 -0.38164475557E+02 -0.22522150443E+02  0.12083506416E+03  0.15984451423E+03  0.94791252463E+02 0.  0.
        -11    1    3    3    0    0 -0.30260887743E+02  0.30032555081E+02 -0.92817332475E+02  0.10214075044E+03  0.00000000000E+00 0. -1.
         11    1    3    3    0    0  0.38999657229E+02 -0.20596868694E+02 -0.45410723422E+02  0.63303539125E+02  0.00000000000E+00 0.  1.
        -13    1    4    4    0    0 -0.63268533042E+02  0.70398690024E+01  0.90300701927E+02  0.11048386216E+03  0.00000000000E+00 0. -1.
         13    1    4    4    0    0  0.25104057485E+02 -0.29562019445E+02  0.30534362229E+02  0.49360652069E+02  0.00000000000E+00 0.  1.
         21    1    1    2  502  501  0.29425706071E+02  0.13086464056E+02 -0.12307858687E+02  0.34476239713E+02  0.00000000000E+00 0.  1.
<scales pt_clust_5="13000.00000" pt_clust_6="13000.00000" pt_clust_7="13000.00000" pt_clust_8="13000.00000" pt_clust_9="32.20447"></scales>
<clustering>
<clus scale="   32.204">  2  9  1 -1</clus>
<clus scale="   89.997">  5  6 -1 -1</clus>
<clus scale="   94.791">  7  8 -1 -1</clus>
<clus scale="   98.762">  2  5  1 -1</clus>
<clus scale="  103.149">  1  5  2 -1</clus>
</clustering>
</event>
<event>
 9    1  0.1434065E-005  0.9109505E+02  0.7546771E-02  0.1302248E+00
         -2   -1    0    0    0  501 -0.00000000000E+00  0.00000000000E+00  0.34561864027E+03  0.34561864027E+03  0.00000000000E+00 0.  1.
          2   -1    0    0  502    0  0.00000000000E+00 -0.00000000000E+00 -0.45337039950E+02  0.45337039950E+02  0.00000000000E+00 0. -1.
         23    2    1    2    0    0 -0.32704636147E+02  0.19431992296E+02  0.12417759178E+03  0.15763860092E+03  0.89345725398E+02 0.  0.
         23    2    1    2    0    0  0.89730452582E+01  0.10940360986E+01  0.42924602076E+02  0.96491421797E+02  0.85943938476E+02 0.  0.
        -11    1    3    3    0    0 -0.43183759772E+02  0.49249577539E+02  0.84131827589E+02  0.10662327330E+03  0.00000000000E+00 0. -1.
         11    1    3    3    0    0  0.10479123624E+02 -0.29817585243E+02  0.40045764196E+02  0.51015327615E+02  0.00000000000E+00 0.  1.
        -11    1    4    4    0    0  0.32180623928E+02  0.29103573429E+02  0.41573840364E+02  0.60091553028E+02  0.00000000000E+00 0.  1.
         11    1    4    4    0    0 -0.23207578670E+02 -0.28009537330E+02  0.13507617122E+01  0.36399868769E+02  0.00000000000E+00 0. -1.
         21    1    1    2  502  501  0.23731590889E+02 -0.20526028395E+02  0.13317940646E+03  0.13682565751E+03  0.00000000000E+00 0.  1.
<scales pt_clust_5="13000.00000" pt_clust_6="13000.00000" pt_clust_7="13000.00000" pt_clust_8="13000.00000" pt_clust_9="31.37684"></scales>
<clustering>
<clus scale="   31.377">  1  9  2 -1</clus>
<clus scale="   85.944">  7  8 -1 -1</clus>
<clus scale="   87.761">  2  7  1 -1</clus>
<clus scale="   89.346">  5  6 -1 -1</clus>
<clus scale="   87.761">  2  5  1 -1</clus>
</clustering>
</event>
<event>
 9    1  0.1434065E-005  0.1081079E+03  0.7546771E-02  0.1264819E+00
         -1   -1    0    0    0  501 -0.00000000000E+00  0.00000000000E+00  0.36323623007E+02  0.36323623007E+02  0.00000000000E+00 0.  1.
          1   -1    0    0  502    0  0.00000000000E+00 -0.00000000000E+00 -0.60555363481E+03  0.60555363481E+03  0.00000000000E+00 0. -1.
         23    2    1    2    0    0 -0.18126696070E+01 -0.32762201711E+02 -0.21612903166E+03  0.23751354742E+03  0.92866997650E+02 0.  0.
         23    2    1    2    0    0  0.10169814354E+02  0.76392131305E+02 -0.33632765746E+03  0.35687942901E+03  0.91145218356E+02 0.  0.
        -11    1    4    4    0    0  0.15333661077E+02 -0.15516747182E+02 -0.30503387012E+02  0.37501296302E+02  0.00000000000E+00 0. -1.
         11    1    4    4    0    0 -0.51638467224E+01  0.91908878487E+02 -0.30582427044E+03  0.31937813271E+03  0.00000000000E+00 0.  1.
        -11    1    3    3    0    0  0.39211076475E+02 -0.25733174335E+02 -0.16526172258E+03  0.17178807214E+03  0.00000000000E+00 0. -1.
         11    1    3    3    0    0 -0.41023746082E+02 -0.70290273763E+01 -0.50867309079E+02  0.65725475285E+02  0.00000000000E+00 0.  1.
         21    1    1    2  502  501 -0.83571447474E+01 -0.43629929594E+02 -0.16773322689E+02  0.47484281386E+02  0.00000000000E+00 0.  1.
<scales pt_clust_5="13000.00000" pt_clust_6="13000.00000" pt_clust_7="13000.00000" pt_clust_8="13000.00000" pt_clust_9="44.42311"></scales>
<clustering>
<clus scale="   44.423">  1  9  2 -1</clus>
<clus scale="   91.145">  5  6 -1 -1</clus>
<clus scale="   92.867">  7  8 -1 -1</clus>
<clus scale="  106.632">  2  5  1 -1</clus>
<clus scale="  106.632">  2  5  1 -1</clus>
</clustering>
</event>
<event>
 9    1  0.1434065E-005  0.1106168E+03  0.7546771E-02  0.1259806E+00
         -1   -1    0    0    0  501 -0.00000000000E+00  0.00000000000E+00  0.84034274957E+02  0.84034274957E+02  0.00000000000E+00 0.  1.
          1   -1    0    0  502    0  0.00000000000E+00 -0.00000000000E+00 -0.23183958872E+03  0.23183958872E+03  0.00000000000E+00 0. -1.
         23    2    1    2    0    0 -0.75639696427E+02  0.66877027746E+01 -0.10349650965E+02  0.11816621859E+03  0.89944710225E+02 0.  0.
         23    2    1    2    0    0  0.53433945406E+02 -0.25928659809E+02 -0.12553716730E+03  0.16600022732E+03  0.90934114488E+02 0.  0.
        -11    1    3    3    0    0 -0.75601808314E+01  0.18743306009E+02  0.31442634089E+02  0.37377895779E+02  0.00000000000E+00 0.  1.
         11    1    3    3    0    0 -0.68079515596E+02 -0.12055603235E+02 -0.41792285055E+02  0.80788322814E+02  0.00000000000E+00 0. -1.
        -13    1    4    4    0    0 -0.16364072544E+02 -0.34412652815E+02 -0.39445963238E+02  0.54845214557E+02  0.00000000000E+00 0. -1.
         13    1    4    4    0    0  0.69798017950E+02  0.84839930058E+01 -0.86091204060E+02  0.11115501277E+03  0.00000000000E+00 0.  1.
         21    1    1    2  502  501  0.22205751021E+02  0.19240957034E+02 -0.11918495503E+02  0.31707417761E+02  0.00000000000E+00 0. -1.
<scales pt_clust_5="13000.00000" pt_clust_6="13000.00000" pt_clust_7="13000.00000" pt_clust_8="13000.00000" pt_clust_9="29.38213"></scales>
<clustering>
<clus scale="   29.382">  1  9  2 -1</clus>
<clus scale="   89.945">  5  6 -1 -1</clus>
<clus scale="   90.934">  7  8 -1 -1</clus>
<clus scale="  109.805">  1  5  2 -1</clus>
<clus scale="  110.617">  2  5  1 -1</clus>
</clustering>
</event>
<event>
 9    1  0.1434065E-005  0.1028237E+03  0.7546771E-02  0.1275912E+00
          1   -1    0    0  502    0  0.00000000000E+00  0.00000000000E+00  0.66374638823E+02  0.66374638823E+02  0.00000000000E+00 0. -1.
         -1   -1    0    0    0  501 -0.00000000000E+00 -0.00000000000E+00 -0.20957465519E+03  0.20957465519E+03  0.00000000000E+00 0.  1.
         23    2    1    2    0    0 -0.44197459592E+01 -0.31594871947E+02 -0.74838385771E+02  0.12108033477E+03  0.89676604503E+02 0.  0.
         23    2    1    2    0    0  0.16192875971E+02  0.51080780143E+02 -0.31762897096E+02  0.11176705091E+03  0.92798365848E+02 0.  0.
        -11    1    3    3    0    0  0.11148633234E+02 -0.44174939256E+02 -0.20674937840E+01  0.45606927235E+02  0.00000000000E+00 0.  1.
         11    1    3    3    0    0 -0.15568379193E+02  0.12580067309E+02 -0.72770891987E+02  0.75473407534E+02  0.00000000000E+00 0. -1.
        -11    1    4    4    0    0  0.21263977245E+02  0.25988426932E+02 -0.62993976137E+02  0.71384844976E+02  0.00000000000E+00 0.  1.
         11    1    4    4    0    0 -0.50711012740E+01  0.25092353212E+02  0.31231079040E+02  0.40382205931E+02  0.00000000000E+00 0. -1.
         21    1    1    2  502  501 -0.11773130012E+02 -0.19485908197E+02 -0.36598733497E+02  0.43101908335E+02  0.00000000000E+00 0.  1.
<scales pt_clust_5="13000.00000" pt_clust_6="13000.00000" pt_clust_7="13000.00000" pt_clust_8="13000.00000" pt_clust_9="22.76636"></scales>
<clustering>
<clus scale="   22.766">  2  9  1 -1</clus>
<clus scale="   89.677">  5  6 -1 -1</clus>
<clus scale="   92.798">  7  8 -1 -1</clus>
<clus scale="  100.015">  2  5  1 -1</clus>
<clus scale="  102.824">  1  5  2 -1</clus>
</clustering>
</event>
<event>
 9    1  0.1434065E-005  0.1894833E+03  0.7546771E-02  0.1159184E+00
         -2   -1    0    0    0  501 -0.00000000000E+00  0.00000000000E+00  0.12526137199E+03  0.12526137199E+03  0.00000000000E+00 0.  1.
          2   -1    0    0  502    0  0.00000000000E+00 -0.00000000000E+00 -0.96536157779E+03  0.96536157779E+03  0.00000000000E+00 0. -1.
         23    2    1    2    0    0 -0.10538069816E+02  0.11658281122E+03 -0.18759837663E+03  0.24010798649E+03  0.93573989301E+02 0.  0.
         23    2    1    2    0    0 -0.46447651740E+02 -0.19166571149E+03 -0.70836280523E+03  0.74094643212E+03  0.91272241849E+02 0.  0.
        -11    1    3    3    0    0 -0.48285358177E+02  0.57715677045E+02 -0.12678131885E+03  0.14743160448E+03  0.00000000000E+00 0. -1.
         11    1    3    3    0    0  0.37747288361E+02  0.58867134176E+02 -0.60817057782E+02  0.92676382007E+02  0.00000000000E+00 0.  1.
        -11    1    4    4    0    0  0.22907187795E+02 -0.16330775721E+02 -0.74541736714E+02  0.79673734698E+02  0.00000000000E+00 0.  1.
         11    1    4    4    0    0 -0.69354839535E+02 -0.17533493577E+03 -0.63382106851E+03  0.66127269743E+03  0.00000000000E+00 0. -1.
         21    1    1    2  502  501  0.56985721556E+02  0.75082900269E+02  0.55860976060E+02  0.10956853116E+03  0.00000000000E+00 0.  1.
<scales pt_clust_5="13000.00000" pt_clust_6="13000.00000" pt_clust_7="13000.00000" pt_clust_8="13000.00000" pt_clust_9="94.25929"></scales>
<clustering>
<clus scale="   91.272">  7  8 -1 -1</clus>
<clus scale="   93.574">  5  6 -1 -1</clus>
<clus scale="   94.259">  1  9  2 -1</clus>
<clus scale="  188.357">  2  7  1 -1</clus>
<clus scale="  188.357">  2  5  1 -1</clus>
</clustering>
</event>
<event>
 9    1  0.1434065E-005  0.1688384E+03  0.7546771E-02  0.1194375E+00
         -1   -1    0    0    0  501 -0.00000000000E+00  0.00000000000E+00  0.92872290854E+02  0.92872290854E+02  0.00000000000E+00 0.  1.
          1   -1    0    0  502    0  0.00000000000E+00 -0.00000000000E+00 -0.57068555889E+03  0.57068555889E+03  0.00000000000E+00 0. -1.
         23    2    1    2    0    0 -0.48844325117E+02  0.60681584313E+02 -0.54624608047E+02  0.13198422680E+03  0.91476584706E+02 0.  0.
         23    2    1    2    0    0 -0.98694017180E+02 -0.10214030865E+03 -0.22849645047E+03  0.28380065283E+03  0.90327354604E+02 0.  0.
        -11    1    3    3    0    0 -0.69107574789E+02  0.26818779383E+02 -0.55352718575E+02  0.92515011077E+02  0.00000000000E+00 0.  1.
         11    1    3    3    0    0  0.20263249673E+02  0.33862804930E+02  0.72811052840E+00  0.39469215725E+02  0.00000000000E+00 0. -1.
        -11    1    4    4    0    0 -0.11391672739E+03 -0.73372428683E+02 -0.17761881381E+03  0.22340317162E+03  0.00000000000E+00 0.  1.
         11    1    4    4    0    0  0.15222710213E+02 -0.28767879970E+02 -0.50877636664E+02  0.60397481211E+02  0.00000000000E+00 0. -1.
         21    1    1    2  502  501  0.14753834230E+03  0.41458724340E+02 -0.19469220952E+03  0.24777297011E+03  0.00000000000E+00 0.  1.
<scales pt_clust_5="13000.00000" pt_clust_6="13000.00000" pt_clust_7="13000.00000" pt_clust_8="13000.00000" pt_clust_9="142.64427"></scales>
<clustering>
<clus scale="   90.327">  7  8 -1 -1</clus>
<clus scale="   91.477">  5  6 -1 -1</clus>
<clus scale="  120.150">  1  5  2 -1</clus>
<clus scale="  142.644">  1  9  2 -1</clus>
<clus scale="  168.838">  2  5  1 -1</clus>
</clustering>
</event>
<event>
 9    1  0.1434065E-005  0.1286123E+03  0.7546771E-02  0.1241984E+00
         -1   -1    0    0    0  501 -0.00000000000E+00  0.00000000000E+00  0.71227829334E+02  0.71227829334E+02  0.00000000000E+00 0.  1.
          1   -1    0    0  502    0  0.00000000000E+00 -0.00000000000E+00 -0.49767211612E+03  0.49767211612E+03  0.00000000000E+00 0. -1.
         23    2    1    2    0    0 -0.76113265299E+02  0.16212375005E+02 -0.88947938033E+02  0.15023637547E+03  0.92753234862E+02 0.  0.
         23    2    1    2    0    0  0.26419935108E+01  0.54617791959E+02 -0.28892640674E+03  0.30564153851E+03  0.83355852963E+02 0.  0.
        -11    1    4    4    0    0 -0.22816091095E+02 -0.41934890578E+01 -0.25248591226E+02  0.34287763448E+02  0.00000000000E+00 0.  1.
         11    1    4    4    0    0  0.25458084606E+02  0.58811281017E+02 -0.26367781552E+03  0.27135377506E+03  0.00000000000E+00 0. -1.
        -13    1    3    3    0    0 -0.30617239803E+01 -0.25155513243E+02  0.32440980370E+01  0.25547958281E+02  0.00000000000E+00 0.  1.
         13    1    3    3    0    0 -0.73051541319E+02  0.41367888249E+02 -0.92192036070E+02  0.12468841719E+03  0.00000000000E+00 0. -1.
         21    1    1    2  502  501  0.73471271789E+02 -0.70830166965E+02 -0.48569942015E+02  0.11302203147E+03  0.00000000000E+00 0.  1.
<scales pt_clust_5="13000.00000" pt_clust_6="13000.00000" pt_clust_7="13000.00000" pt_clust_8="13000.00000" pt_clust_9="89.09519"></scales>
<clustering>
<clus scale="   83.356">  5  6 -1 -1</clus>
<clus scale="   92.753">  7  8 -1 -1</clus>
<clus scale="   99.691">  2  5  1 -1</clus>
<clus scale="   89.095">  1  9  2 -1</clus>
<clus scale="   99.691">  2  5  1 -1</clus>
</clustering>
</event>
<event>
 9    1  0.1434065E-005  0.3254907E+03  0.7546771E-02  0.1120305E+00
         -2   -1    0    0    0  501 -0.00000000000E+00  0.00000000000E+00  0.85988965283E+02  0.85988965283E+02  0.00000000000E+00 0.  1.
          2   -1    0    0  502    0  0.00000000000E+00 -0.00000000000E+00 -0.26903542582E+04  0.26903542582E+04  0.00000000000E+00 0. -1.
         23    2    1    2    0    0  0.45638601663E+01 -0.28323480691E+02 -0.11986679485E+02  0.95741072257E+02  0.90551775542E+02 0.  0.
         23    2    1    2    0    0 -0.31082925731E+03  0.57915302113E+02 -0.18161247282E+04  0.18455906162E+04  0.89031930188E+02 0.  0.
        -11    1    4    4    0    0 -0.37926584801E+02 -0.14475170409E+02 -0.13678174024E+03  0.14267866294E+03  0.00000000000E+00 0.  1.
         11    1    4    4    0    0 -0.27290267251E+03  0.72390472522E+02 -0.16793429880E+04  0.17029119532E+04  0.00000000000E+00 0. -1.
        -11    1    3    3    0    0  0.41069848820E+02 -0.10238164012E+02  0.17134156099E+02  0.45663243310E+02  0.00000000000E+00 0. -1.
         11    1    3    3    0    0 -0.36505988653E+02 -0.18085316678E+02 -0.29120835584E+02  0.50077828947E+02  0.00000000000E+00 0.  1.
         21    1    1    2  502  501  0.30626539715E+03 -0.29591821422E+02 -0.77625388522E+03  0.83501153507E+03  0.00000000000E+00 0.  1.
<scales pt_clust_5="13000.00000" pt_clust_6="13000.00000" pt_clust_7="13000.00000" pt_clust_8="13000.00000" pt_clust_9="313.07747"></scales>
<clustering>
<clus scale="   89.032">  5  6 -1 -1</clus>
<clus scale="   90.552">  7  8 -1 -1</clus>
<clus scale="   94.988">  1  7  2 -1</clus>
<clus scale="  313.077">  1  9  2 -1</clus>
<clus scale="  325.491">  2  5  1 -1</clus>
</clustering>
</event>
<event>
 9    1  0.1434065E-005  0.1611377E+03  0.7546771E-02  0.1187632E+00
         -1   -1    0    0    0  501 -0.00000000000E+00  0.00000000000E+00  0.41535354716E+03  0.41535354716E+03  0.00000000000E+00 0.  1.
          1   -1    0    0  502    0  0.00000000000E+00 -0.00000000000E+00 -0.12246239160E+03  0.12246239160E+03  0.00000000000E+00 0. -1.
         23    2    1    2    0    0  0.90118489285E+02 -0.88187150951E+02  0.14577451980E+03  0.21333712868E+03  0.91456023023E+02 0.  0.
         23    2    1    2    0    0 -0.11144380000E+03  0.77886208272E+02 -0.12053587545E+02  0.16355634961E+03  0.90107760649E+02 0.  0.
        -11    1    4    4    0    0 -0.85606847575E+02  0.29862875379E+02 -0.43548627806E+02  0.10058233772E+03  0.00000000000E+00 0. -1.
         11    1    4    4    0    0 -0.25836952420E+02  0.48023332893E+02  0.31495040261E+02  0.62974011890E+02  0.00000000000E+00 0.  1.
        -11    1    3    3    0    0  0.23068294790E+00 -0.61829519301E+02  0.64063790121E+02  0.89034329762E+02  0.00000000000E+00 0. -1.
         11    1    3    3    0    0  0.89887806337E+02 -0.26357631650E+02  0.81710729675E+02  0.12430279892E+03  0.00000000000E+00 0.  1.
         21    1    1    2  502  501  0.21325310710E+02  0.10300942678E+02  0.15917022331E+03  0.16092246048E+03  0.00000000000E+00 0.  1.
<scales pt_clust_5="13000.00000" pt_clust_6="13000.00000" pt_clust_7="13000.00000" pt_clust_8="13000.00000" pt_clust_9="23.68287"></scales>
<clustering>
<clus scale="   23.683">  1  9  2 -1</clus>
<clus scale="   90.108">  5  6 -1 -1</clus>
<clus scale="   91.456">  7  8 -1 -1</clus>
<clus scale="  160.376">  2  5  1 -1</clus>
<clus scale="  160.376">  2  5  1 -1</clus>
</clustering>
</event>
<event>
 9    1  0.1434065E-005  0.1053909E+03  0.7546771E-02  0.1272704E+00
         -2   -1    0    0    0  501 -0.00000000000E+00  0.00000000000E+00  0.16377608813E+02  0.16377608813E+02  0.00000000000E+00 0.  1.
          2   -1    0    0  502    0  0.00000000000E+00 -0.00000000000E+00 -0.87430393791E+03  0.87430393791E+03  0.00000000000E+00 0. -1.
         23    2    1    2    0    0 -0.36653446807E+02  0.16850905307E+02 -0.38035196291E+03  0.39301579270E+03  0.90367966942E+02 0.  0.
         23    2    1    2    0    0  0.22674526770E+02 -0.36528696134E+02 -0.44201796002E+03  0.45469036948E+03  0.97544734924E+02 0.  0.
        -13    1    3    3    0    0 -0.58248106874E+02  0.35276444638E+02 -0.30460939349E+03  0.31212842245E+03  0.00000000000E+00 0. -1.
         13    1    3    3    0    0  0.21594660066E+02 -0.18425539331E+02 -0.75742569417E+02  0.80887370243E+02  0.00000000000E+00 0.  1.
        -13    1    4    4    0    0  0.53833057907E+02  0.53060587834E+01 -0.20679558029E+03  0.21375351322E+03  0.00000000000E+00 0.  1.
         13    1    4    4    0    0 -0.31158531137E+02 -0.41834754917E+02 -0.23522237973E+03  0.24093685627E+03  0.00000000000E+00 0. -1.
         21    1    1    2  502  501  0.13978920037E+02  0.19677790827E+02 -0.35556406166E+02  0.42975384544E+02  0.00000000000E+00 0.  1.
<scales pt_clust_5="13000.00000" pt_clust_6="13000.00000" pt_clust_7="13000.00000" pt_clust_8="13000.00000" pt_clust_9="24.13764"></scales>
<clustering>
<clus scale="   24.138">  1  9  2 -1</clus>
<clus scale="   90.368">  5  6 -1 -1</clus>
<clus scale="   97.545">  7  8 -1 -1</clus>
<clus scale="   98.786">  1  5  2 -1</clus>
<clus scale="  105.391">  2  5  1 -1</clus>
</clustering>
</event>
<event>
 9    1  0.1434065E-005  0.1550117E+03  0.7546771E-02  0.1215844E+00
          1   -1    0    0  502    0  0.00000000000E+00  0.00000000000E+00  0.17080937525E+03  0.17080937525E+03  0.00000000000E+00 0. -1.
         -1   -1    0    0    0  501 -0.00000000000E+00 -0.00000000000E+00 -0.22638204595E+03  0.22638204595E+03  0.00000000000E+00 0.  1.
         23    2    1    2    0    0 -0.85808043628E+02 -0.91025188396E+02 -0.61106165704E+02  0.16433093763E+03  0.87304572061E+02 0.  0.
         23    2    1    2    0    0 -0.21580563291E+02  0.11460129667E+02 -0.10064059603E+02  0.98301220871E+02  0.94682572024E+02 0.  0.
        -13    1    3    3    0    0 -0.78679987667E+02 -0.40982716229E+02 -0.70002412875E+02  0.11300646573E+03  0.00000000000E+00 0.  1.
         13    1    3    3    0    0 -0.71280559615E+01 -0.50042472167E+02  0.88962471711E+01  0.51324471902E+02  0.00000000000E+00 0. -1.
        -13    1    4    4    0    0 -0.30133620909E+02 -0.34240547642E+02 -0.21494135450E+02  0.50422694004E+02  0.00000000000E+00 0. -1.
         13    1    4    4    0    0  0.85530576179E+01  0.45700677309E+02  0.11430075847E+02  0.47878526867E+02  0.00000000000E+00 0.  1.
         21    1    1    2  502  501  0.10738860692E+03  0.79565058729E+02  0.15597554611E+02  0.13455926269E+03  0.00000000000E+00 0. -1.
<scales pt_clust_5="13000.00000" pt_clust_6="13000.00000" pt_clust_7="13000.00000" pt_clust_8="13000.00000" pt_clust_9="128.08804"></scales>
<clustering>
<clus scale="   87.305">  5  6 -1 -1</clus>
<clus scale="   94.683">  7  8 -1 -1</clus>
<clus scale="   97.785">  1  7  2 -1</clus>
<clus scale="  128.088">  1  9  2 -1</clus>
<clus scale="   97.785">  1  5  2 -1</clus>
</clustering>
</event>
<event>
 9    1  0.1434065E-005  0.9184016E+02  0.7546771E-02  0.1298655E+00
         -4   -1    0    0    0  501 -0.00000000000E+00  0.00000000000E+00  0.21324442692E+03  0.21324442692E+03  0.00000000000E+00 0.  1.
          4   -1    0    0  502    0  0.00000000000E+00 -0.00000000000E+00 -0.71895742670E+02  0.71895742670E+02  0.00000000000E+00 0. -1.
         23    2    1    2    0    0  0.10610969231E+02  0.13878243846E+02  0.13445951921E+03  0.16335017453E+03  0.91097304523E+02 0.  0.
         23    2    1    2    0    0 -0.64519311699E+01  0.15176649310E+02  0.51826994263E+01  0.92389375359E+02  0.90757799697E+02 0.  0.
        -11    1    3    3    0    0 -0.38212514576E+02  0.19691522073E+02  0.53516313607E+02  0.68643631415E+02  0.00000000000E+00 0. -1.
         11    1    3    3    0    0  0.48823483807E+02 -0.58132782276E+01  0.80943205606E+02  0.94706543114E+02  0.00000000000E+00 0.  1.
        -13    1    4    4    0    0 -0.14528170591E+02 -0.24834155558E+02 -0.27726849682E+02  0.39957242351E+02  0.00000000000E+00 0.  1.
         13    1    4    4    0    0  0.80762394210E+01  0.40010804868E+02  0.32909549108E+02  0.52432133009E+02  0.00000000000E+00 0. -1.
         21    1    1    2  502  501 -0.41590380608E+01 -0.29054893156E+02  0.17064656078E+01  0.29400619700E+02  0.00000000000E+00 0.  1.
<scales pt_clust_5="13000.00000" pt_clust_6="13000.00000" pt_clust_7="13000.00000" pt_clust_8="13000.00000" pt_clust_9="29.35105"></scales>
<clustering>
<clus scale="   29.351">  2  9  1 -1</clus>
<clus scale="   90.758">  7  8 -1 -1</clus>
<clus scale="   91.097">  5  6 -1 -1</clus>
<clus scale="   91.503">  2  7  1 -1</clus>
<clus scale="   29.351">  2  5  1 -1</clus>
</clustering>
</event>
<event>
 9    1  0.1434065E-005  0.1108585E+03  0.7546771E-02  0.1259050E+00
          1   -1    0    0  502    0  0.00000000000E+00  0.00000000000E+00  0.12631891396E+03  0.12631891396E+03  0.00000000000E+00 0. -1.
         -1   -1    0    0    0  501 -0.00000000000E+00 -0.00000000000E+00 -0.25258070227E+03  0.25258070227E+03  0.00000000000E+00 0.  1.
         23    2    1    2    0    0  0.77284504618E+02  0.55527065067E+01 -0.36348261444E+02  0.12507983004E+03  0.91214256397E+02 0.  0.
         23    2    1    2    0    0 -0.33600054362E+02  0.64883658352E+02  0.17604479792E+02  0.11806362816E+03  0.91050808952E+02 0.  0.
        -11    1    4    4    0    0 -0.58008262961E+02  0.67008490839E+02  0.13086455867E+01  0.88638642643E+02  0.00000000000E+00 0. -1.
         11    1    4    4    0    0  0.24408208599E+02 -0.21248324871E+01  0.16295834205E+02  0.29424985515E+02  0.00000000000E+00 0.  1.
        -11    1    3    3    0    0  0.73583869367E+01  0.39131840009E+02 -0.98832901022E+00  0.39829932903E+02  0.00000000000E+00 0. -1.
         11    1    3    3    0    0  0.69926117681E+02 -0.33579133502E+02 -0.35359932433E+02  0.85249897140E+02  0.00000000000E+00 0.  1.
         21    1    1    2  502  501 -0.43684450256E+02 -0.70436364859E+02 -0.10751800666E+03  0.13575615803E+03  0.00000000000E+00 0.  1.
<scales pt_clust_5="13000.00000" pt_clust_6="13000.00000" pt_clust_7="13000.00000" pt_clust_8="13000.00000" pt_clust_9="82.88313"></scales>
<clustering>
<clus scale="   82.883">  2  9  1 -1</clus>
<clus scale="   91.051">  5  6 -1 -1</clus>
<clus scale="   91.214">  7  8 -1 -1</clus>
<clus scale="  110.724">  1  5  2 -1</clus>
<clus scale="  110.724">  1  5  2 -1</clus>
</clustering>
</event>
<event>
 9    1  0.1434065E-005  0.2198990E+03  0.7546771E-02  0.1164657E+00
          2   -1    0    0  502    0  0.00000000000E+00  0.00000000000E+00  0.67841431283E+03  0.67841431283E+03  0.00000000000E+00 0. -1.
         -2   -1    0    0    0  501 -0.00000000000E+00 -0.00000000000E+00 -0.26472287350E+03  0.26472287350E+03  0.00000000000E+00 0.  1.
         23    2    1    2    0    0  0.23385462972E+02  0.48213840446E+02 -0.85144585284E+01  0.10648083906E+03  0.91619969408E+02 0.  0.
         23    2    1    2    0    0 -0.11789525819E+03  0.15243365975E+03  0.54235153022E+03  0.58441342130E+03  0.10128451084E+03 0.  0.
        -11    1    4    4    0    0 -0.43554538112E+02  0.11174949549E+03  0.21416620660E+03  0.24546305543E+03  0.00000000000E+00 0.  1.
         11    1    4    4    0    0 -0.74340720076E+02  0.40684164262E+02  0.32818532362E+03  0.33895036587E+03  0.00000000000E+00 0. -1.
        -13    1    3    3    0    0 -0.26075354003E+02  0.34879843152E+02  0.19923263140E+02  0.47890123813E+02  0.00000000000E+00 0.  1.
         13    1    3    3    0    0  0.49460816975E+02  0.13333997294E+02 -0.28437721668E+02  0.58590715249E+02  0.00000000000E+00 0. -1.
         21    1    1    2  502  501  0.94509795217E+02 -0.20064750020E+03 -0.12014563236E+03  0.25224292597E+03  0.00000000000E+00 0.  1.
<scales pt_clust_5="13000.00000" pt_clust_6="13000.00000" pt_clust_7="13000.00000" pt_clust_8="13000.00000" pt_clust_9="195.18461"></scales>
<clustering>
<clus scale="   91.620">  7  8 -1 -1</clus>
<clus scale="  101.285">  5  6 -1 -1</clus>
<clus scale="  106.140">  2  7  1 -1</clus>
<clus scale="  195.185">  2  9  1 -1</clus>
<clus scale="  219.899">  1  5  2 -1</clus>
</clustering>
</event>
<event>
 9    1  0.1434065E-005  0.1366651E+03  0.7546771E-02  0.1235259E+00
          2   -1    0    0  502    0  0.00000000000E+00  0.00000000000E+00  0.36765389803E+03  0.36765389803E+03  0.00000000000E+00 0. -1.
         -2   -1    0    0    0  501 -0.00000000000E+00 -0.00000000000E+00 -0.18134650876E+03  0.18134650876E+03  0.00000000000E+00 0.  1.
         23    2    1    2    0    0  0.29711002958E+02 -0.66855187048E+01 -0.10935610394E+03  0.14503809182E+03  0.90276523811E+02 0.  0.
         23    2    1    2    0    0  0.47243997872E+02 -0.66638683094E+02  0.43688113548E+02  0.13048452305E+03  0.91895865366E+02 0.  0.
        -11    1    3    3    0    0  0.58017743612E+02  0.10693991988E+02 -0.86558100547E+02  0.10475077474E+03  0.00000000000E+00 0.  1.
         11    1    3    3    0    0 -0.28306740654E+02 -0.17379510693E+02 -0.22798003395E+02  0.40287317076E+02  0.00000000000E+00 0. -1.
        -13    1    4    4    0    0  0.74005128091E+02 -0.59371277628E+02  0.37835975264E+02  0.10214337284E+03  0.00000000000E+00 0.  1.
         13    1    4    4    0    0 -0.26761130219E+02 -0.72674054658E+01  0.58521382840E+01  0.28341150212E+02  0.00000000000E+00 0. -1.
         21    1    1    2  502  501 -0.76955000830E+02  0.73324201799E+02  0.25197537966E+03  0.27347779192E+03  0.00000000000E+00 0. -1.
<scales pt_clust_5="13000.00000" pt_clust_6="13000.00000" pt_clust_7="13000.00000" pt_clust_8="13000.00000" pt_clust_9="101.15578"></scales>
<clustering>
<clus scale="   90.277">  5  6 -1 -1</clus>
<clus scale="   91.896">  7  8 -1 -1</clus>
<clus scale="   95.275">  2  5  1 -1</clus>
<clus scale="  101.156">  1  9  2 -1</clus>
<clus scale="  101.156">  1  5  2 -1</clus>
</clustering>
</event>
<event>
 9    1  0.1519062E-005  0.1382449E+03  0.7546771E-02  0.1215916E+00
          1   -1    0    0  502    0  0.00000000000E+00  0.00000000000E+00  0.36234040717E+03  0.36234040717E+03  0.00000000000E+00 0. -1.
         -1   -1    0    0    0  501 -0.00000000000E+00 -0.00000000000E+00 -0.16839256484E+03  0.16839256484E+03  0.00000000000E+00 0.  1.
         23    2    1    2    0    0  0.19162236899E+02  0.11602285958E+03 -0.90943806119E+02  0.17433118277E+03  0.91060914473E+02 0.  0.
         23    2    1    2    0    0 -0.51074579327E+02 -0.88628308545E+02  0.28257932887E+03  0.31428046628E+03  0.91964909915E+02 0.  0.
        -11    1    3    3    0    0 -0.32077098691E+02  0.22984468730E+02 -0.97800272558E+01  0.40655565380E+02  0.00000000000E+00 0.  1.
         11    1    3    3    0    0  0.51239335591E+02  0.93038390854E+02 -0.81163778863E+02  0.13367561739E+03  0.00000000000E+00 0. -1.
        -13    1    4    4    0    0  0.17662005623E+01 -0.36712131727E+02  0.19998041886E+03  0.20332994862E+03  0.00000000000E+00 0. -1.
         13    1    4    4    0    0 -0.52840779889E+02 -0.51916176818E+02  0.82598910012E+02  0.11095051766E+03  0.00000000000E+00 0.  1.
         21    1    1    2  502  501  0.31912342427E+02 -0.27394551038E+02  0.23123195888E+01  0.42121322957E+02  0.00000000000E+00 0.  1.
<scales pt_clust_5="13000.00000" pt_clust_6="13000.00000" pt_clust_7="13000.00000" pt_clust_8="13000.00000" pt_clust_9="42.05781"></scales>
<clustering>
<clus scale="   42.058">  2  9  1 -1</clus>
<clus scale="   91.061">  5  6 -1 -1</clus>
<clus scale="   91.965">  7  8 -1 -1</clus>
<clus scale="  137.645">  2  5  1 -1</clus>
<clus scale="  138.245">  1  5  2 -1</clus>
</clustering>
</event>
<event>
 9    1  0.1434065E-005  0.1070985E+03  0.7546771E-02  0.1272050E+00
          2   -1    0    0  502    0  0.00000000000E+00  0.00000000000E+00  0.34661608613E+03  0.34661608613E+03  0.00000000000E+00 0. -1.
         -2   -1    0    0    0  501 -0.00000000000E+00 -0.00000000000E+00 -0.42494048678E+02  0.42494048678E+02  0.00000000000E+00 0.  1.
         23    2    1    2    0    0  0.38387439810E+02  0.16187506775E+02  0.12795907497E+03  0.16884357063E+03  0.10197546551E+03 0.  0.
         23    2    1    2    0    0 -0.55128529852E+01 -0.32639166690E+02  0.12611855202E+03  0.15817116506E+03  0.89535029696E+02 0.  0.
        -11    1    4    4    0    0  0.27669946921E+02  0.42320247399E+01  0.65879266597E+01  0.28756508370E+02  0.00000000000E+00 0. -1.
         11    1    4    4    0    0 -0.33182799906E+02 -0.36871191430E+02  0.11953062536E+03  0.12941465669E+03  0.00000000000E+00 0.  1.
        -13    1    3    3    0    0 -0.17860038005E+02  0.30328708463E+02  0.87402378968E+01  0.36265731388E+02  0.00000000000E+00 0.  1.
         13    1    3    3    0    0  0.56247477816E+02 -0.14141201689E+02  0.11921883707E+03  0.13257783924E+03  0.00000000000E+00 0. -1.
         21    1    1    2  502  501 -0.32874586825E+02  0.16451659916E+02  0.50044410466E+02  0.62095399119E+02  0.00000000000E+00 0. -1.
<scales pt_clust_5="13000.00000" pt_clust_6="13000.00000" pt_clust_7="13000.00000" pt_clust_8="13000.00000" pt_clust_9="36.76133"></scales>
<clustering>
<clus scale="   36.761">  1  9  2 -1</clus>
<clus scale="   89.535">  5  6 -1 -1</clus>
<clus scale="   95.329">  1  5  2 -1</clus>
<clus scale="  101.975">  7  8 -1 -1</clus>
<clus scale="   36.761">  1  5  2 -1</clus>
</clustering>
</event>
<event>
 9    1  0.1434065E-005  0.2203124E+03  0.7546771E-02  0.1133668E+00
          1   -1    0    0  502    0  0.00000000000E+00  0.00000000000E+00  0.25721002416E+03  0.25721002416E+03  0.00000000000E+00 0. -1.
         -1   -1    0    0    0  501 -0.00000000000E+00 -0.00000000000E+00 -0.30000821283E+03  0.30000821283E+03  0.00000000000E+00 0.  1.
         23    2    1    2    0    0 -0.18894059428E+03  0.31675458303E+02 -0.27815551210E+02  0.21366515089E+03  0.90427921506E+02 0.  0.
         23    2    1    2    0    0  0.20064151207E+03 -0.51074408145E+02  0.84668350095E+02  0.24135939720E+03  0.90664312577E+02 0.  0.
        -11    1    3    3    0    0 -0.14075395846E+03 -0.18456022008E+02 -0.12860782866E+02  0.14254017435E+03  0.00000000000E+00 0.  1.
         11    1    3    3    0    0 -0.48186635826E+02  0.50131480310E+02 -0.14954768344E+02  0.71124976531E+02  0.00000000000E+00 0. -1.
        -13    1    4    4    0    0  0.31564759008E+02  0.19799634400E+02  0.35697487783E+02  0.51601067505E+02  0.00000000000E+00 0. -1.
         13    1    4    4    0    0  0.16907675306E+03 -0.70874042545E+02  0.48970862312E+02  0.18975832969E+03  0.00000000000E+00 0.  1.
         21    1    1    2  502  501 -0.11700917786E+02  0.19398949843E+02 -0.99650987551E+02  0.10219368891E+03  0.00000000000E+00 0.  1.
<scales pt_clust_5="13000.00000" pt_clust_6="13000.00000" pt_clust_7="13000.00000" pt_clust_8="13000.00000" pt_clust_9="22.65460"></scales>
<clustering>
<clus scale="   22.655">  2  9  1 -1</clus>
<clus scale="   90.428">  5  6 -1 -1</clus>
<clus scale="   90.664">  7  8 -1 -1</clus>
<clus scale="  220.215">  2  5  1 -1</clus>
<clus scale="  220.312">  1  5  2 -1</clus>
</clustering>
</event>
<event>
 9    1  0.1434065E-005  0.1140129E+03  0.7546771E-02  0.1253983E+00
         -1   -1    0    0    0  501 -0.00000000000E+00  0.00000000000E+00  0.93344235857E+02  0.93344235857E+02  0.00000000000E+00 0.  1.
          1   -1    0    0  502    0  0.00000000000E+00 -0.00000000000E+00 -0.19461847337E+03  0.19461847337E+03  0.00000000000E+00 0. -1.
         23    2    1    2    0    0  0.55585905915E+02  0.26999899140E+02  0.77380222107E+01  0.11154627088E+03  0.92541374909E+02 0.  0.
         23    2    1    2    0    0 -0.50171786111E+02 -0.48216725553E+02 -0.10260829776E+03  0.15360247014E+03  0.90681835668E+02 0.  0.
        -11    1    3    3    0    0  0.23453400843E+02 -0.27498492241E+02  0.27334944086E+02  0.45314768617E+02  0.00000000000E+00 0.  1.
         11    1    3    3    0    0  0.32132505073E+02  0.54498391381E+02 -0.19596921875E+02  0.66231502266E+02  0.00000000000E+00 0. -1.
        -11    1    4    4    0    0  0.75257907747E+01 -0.53552194603E+02 -0.64862225054E+02  0.84448702255E+02  0.00000000000E+00 0.  1.
         11    1    4    4    0    0 -0.57697576885E+02  0.53354690492E+01 -0.37746072709E+02  0.69153767890E+02  0.00000000000E+00 0. -1.
         21    1    1    2  502  501 -0.54141198044E+01  0.21216826413E+02 -0.64039619628E+01  0.22813968202E+02  0.00000000000E+00 0. -1.
<scales pt_clust_5="13000.00000" pt_clust_6="13000.00000" pt_clust_7="13000.00000" pt_clust_8="13000.00000" pt_clust_9="21.89672"></scales>
<clustering>
<clus scale="   21.897">  1  9  2 -1</clus>
<clus scale="   90.682">  7  8 -1 -1</clus>
<clus scale="   92.541">  5  6 -1 -1</clus>
<clus scale="  112.509">  2  7  1 -1</clus>
<clus scale="  112.509">  2  5  1 -1</clus>
</clustering>
</event>
<event>
 9    1  0.1434065E-005  0.1202114E+03  0.7546771E-02  0.1246794E+00
          2   -1    0    0  502    0  0.00000000000E+00  0.00000000000E+00  0.19234103704E+03  0.19234103704E+03  0.00000000000E+00 0. -1.
         -2   -1    0    0    0  501 -0.00000000000E+00 -0.00000000000E+00 -0.19468924732E+03  0.19468924732E+03  0.00000000000E+00 0.  1.
         23    2    1    2    0    0 -0.83057575517E+02  0.44921515973E+02 -0.56358629786E+02  0.14393668679E+03  0.92870723072E+02 0.  0.
         23    2    1    2    0    0  0.54713382522E+02 -0.48429282790E+02  0.12559322746E+03  0.16602352491E+03  0.80319377380E+02 0.  0.
        -11    1    4    4    0    0  0.67470833928E+02 -0.28051073850E+02  0.12128962351E+03  0.14159925475E+03  0.00000000000E+00 0.  1.
         11    1    4    4    0    0 -0.12757451407E+02 -0.20378208940E+02  0.43036039494E+01  0.24424270162E+02  0.00000000000E+00 0. -1.
        -13    1    3    3    0    0 -0.54875287807E+02 -0.17203180963E+02 -0.34615323612E+01  0.57612749053E+02  0.00000000000E+00 0.  1.
         13    1    3    3    0    0 -0.28182287710E+02  0.62124696937E+02 -0.52897097424E+02  0.86323937734E+02  0.00000000000E+00 0. -1.
         21    1    1    2  502  501  0.28344192995E+02  0.35077668162E+01 -0.71582807956E+02  0.77070072658E+02  0.00000000000E+00 0.  1.
<scales pt_clust_5="13000.00000" pt_clust_6="13000.00000" pt_clust_7="13000.00000" pt_clust_8="13000.00000" pt_clust_9="28.56042"></scales>
<clustering>
<clus scale="   28.560">  2  9  1 -1</clus>
<clus scale="   80.319">  5  6 -1 -1</clus>
<clus scale="   92.871">  7  8 -1 -1</clus>
<clus scale="  110.802">  1  5  2 -1</clus>
<clus scale="  110.802">  1  5  2 -1</clus>
</clustering>
</event>
<event>
 9    1  0.2748115E-005  0.1002422E+03  0.7546771E-02  0.1283705E+00
          1   -1    0    0  502    0  0.00000000000E+00  0.00000000000E+00  0.38521181800E+03  0.38521181800E+03  0.00000000000E+00 0. -1.
         -1   -1    0    0    0  501 -0.00000000000E+00 -0.00000000000E+00 -0.12097468839E+03  0.12097468839E+03  0.00000000000E+00 0.  1.
         23    2    1    2    0    0 -0.11838394913E+02 -0.27070376095E+02 -0.76034937889E+02  0.12302975851E+03  0.92098082729E+02 0.  0.
         23    2    1    2    0    0  0.36365301118E+02  0.18101867286E+02  0.34426486729E+03  0.35673808538E+03  0.84223808919E+02 0.  0.
        -11    1    3    3    0    0 -0.17854230392E+02  0.28919471918E+02 -0.51271564509E+02  0.61513272764E+02  0.00000000000E+00 0.  1.
         11    1    3    3    0    0  0.60158354790E+01 -0.55989848013E+02 -0.24763373380E+02  0.61516485743E+02  0.00000000000E+00 0. -1.
        -13    1    4    4    0    0  0.61071296405E+02  0.61283328773E+01  0.17955524521E+03  0.18975601648E+03  0.00000000000E+00 0.  1.
         13    1    4    4    0    0 -0.24705995287E+02  0.11973534408E+02  0.16470962208E+03  0.16698206890E+03  0.00000000000E+00 0. -1.
         21    1    1    2  502  501 -0.24526906205E+02  0.89685088087E+01 -0.39927997855E+01  0.26418662501E+02  0.00000000000E+00 0.  1.
<scales pt_clust_5="13000.00000" pt_clust_6="13000.00000" pt_clust_7="13000.00000" pt_clust_8="13000.00000" pt_clust_9="26.11519"></scales>
<clustering>
<clus scale="   26.115">  2  9  1 -1</clus>
<clus scale="   84.224">  7  8 -1 -1</clus>
<clus scale="   92.098">  5  6 -1 -1</clus>
<clus scale="   93.060">  1  7  2 -1</clus>
<clus scale="   93.060">  1  5  2 -1</clus>
</clustering>
</event>
<event>
 9    1  0.1434065E-005  0.1417531E+03  0.7546771E-02  0.1211342E+00
          1   -1    0    0  502    0  0.00000000000E+00  0.00000000000E+00  0.80723365892E+03  0.80723365892E+03  0.00000000000E+00 0. -1.
         -1   -1    0    0    0  501 -0.00000000000E+00 -0.00000000000E+00 -0.39269008768E+02  0.39269008768E+02  0.00000000000E+00 0.  1.
         23    2    1    2    0    0  0.27281826347E+02  0.70244194667E+02  0.12995941992E+03  0.17596279723E+03  0.91623742830E+02 0.  0.
         23    2    1    2    0    0 -0.54258636499E+02 -0.11083521033E+03  0.53853326906E+03  0.55976961318E+03  0.89974965768E+02 0.  0.
        -13    1    3    3    0    0  0.52825023750E+02  0.70894441838E+02  0.77328167445E+02  0.11745701553E+03  0.00000000000E+00 0. -1.
         13    1    3    3    0    0 -0.25543197403E+02 -0.65024717092E+00  0.52631252474E+02  0.58505781697E+02  0.00000000000E+00 0.  1.
        -13    1    4    4    0    0  0.11758282559E+02 -0.62378328004E+02  0.32353450491E+03  0.32970272805E+03  0.00000000000E+00 0. -1.
         13    1    4    4    0    0 -0.66016919058E+02 -0.48456882328E+02  0.21499876415E+03  0.23006688513E+03  0.00000000000E+00 0.  1.
         21    1    1    2  502  501  0.26976810153E+02  0.40591015664E+02  0.99471961167E+02  0.11077025728E+03  0.00000000000E+00 0. -1.
<scales pt_clust_5="13000.00000" pt_clust_6="13000.00000" pt_clust_7="13000.00000" pt_clust_8="13000.00000" pt_clust_9="48.73786"></scales>
<clustering>
<clus scale="   48.738">  2  9  1 -1</clus>
<clus scale="   89.975">  7  8 -1 -1</clus>
<clus scale="   91.624">  5  6 -1 -1</clus>
<clus scale="  140.693">  1  7  2 -1</clus>
<clus scale="  140.693">  1  5  2 -1</clus>
</clustering>
</event>
<event>
 9    1  0.1434065E-005  0.1570392E+03  0.7546771E-02  0.1214807E+00
          1   -1    0    0  502    0  0.00000000000E+00  0.00000000000E+00  0.17745823559E+03  0.17745823559E+03  0.00000000000E+00 0. -1.
         -1   -1    0    0    0  501 -0.00000000000E+00 -0.00000000000E+00 -0.79477887074E+03  0.79477887074E+03  0.00000000000E+00 0.  1.
         23    2    1    2    0    0  0.14822831069E+03 -0.26488052246E+02 -0.26657745457E+03  0.31978203975E+03  0.92324236560E+02 0.  0.
         23    2    1    2    0    0 -0.31097011410E+02 -0.16956276969E+01  0.12726834351E+03  0.15949555684E+03  0.90948898400E+02 0.  0.
        -13    1    4    4    0    0  0.15578583569E+02 -0.13620544819E+02 -0.27163140681E+01  0.20870789858E+02  0.00000000000E+00 0.  1.
         13    1    4    4    0    0 -0.46675594980E+02  0.11924917122E+02  0.12998465758E+03  0.13862476698E+03  0.00000000000E+00 0. -1.
        -13    1    3    3    0    0  0.31420836385E+02  0.29644142361E+01 -0.52069439922E+01  0.31987012624E+02  0.00000000000E+00 0. -1.
         13    1    3    3    0    0  0.11680747430E+03 -0.29452466482E+02 -0.26137051058E+03  0.28779502712E+03  0.00000000000E+00 0.  1.
         21    1    1    2  502  501 -0.11713129928E+03  0.28183679943E+02 -0.47801152409E+03  0.49295950975E+03  0.00000000000E+00 0. -1.
<scales pt_clust_5="13000.00000" pt_clust_6="13000.00000" pt_clust_7="13000.00000" pt_clust_8="13000.00000" pt_clust_9="127.03368"></scales>
<clustering>
<clus scale="   90.949">  5  6 -1 -1</clus>
<clus scale="   92.324">  7  8 -1 -1</clus>
<clus scale="   96.133">  1  5  2 -1</clus>
<clus scale="  127.034">  2  9  1 -1</clus>
<clus scale="   96.133">  1  5  2 -1</clus>
</clustering>
</event>
<event>
 9    1  0.1434065E-005  0.1050445E+03  0.7546771E-02  0.1271482E+00
         -1   -1    0    0    0  501 -0.00000000000E+00  0.00000000000E+00  0.10316464885E+03  0.10316464885E+03  0.00000000000E+00 0.  1.
          1   -1    0    0  502    0  0.00000000000E+00 -0.00000000000E+00 -0.13966041447E+03  0.13966041447E+03  0.00000000000E+00 0. -1.
         23    2    1    2    0    0 -0.30135344207E+02 -0.34340436707E+02 -0.42925322777E+00  0.10486320437E+03  0.94385924847E+02 0.  0.
         23    2    1    2    0    0  0.82449967937E+01  0.49944221289E+02 -0.18606123650E+02  0.10590674113E+03  0.91146282250E+02 0.  0.
        -11    1    4    4    0    0 -0.39639376827E+02  0.12254649730E+02  0.21095870380E+01  0.41544036788E+02  0.00000000000E+00 0. -1.
         11    1    4    4    0    0  0.47884373620E+02  0.37689571559E+02 -0.20715710688E+02  0.64362704345E+02  0.00000000000E+00 0.  1.
        -13    1    3    3    0    0 -0.52899399576E+02  0.19276983008E+01  0.21039411867E+02  0.56962438044E+02  0.00000000000E+00 0.  1.
         13    1    3    3    0    0  0.22764055369E+02 -0.36268135008E+02 -0.21468665095E+02  0.47900766328E+02  0.00000000000E+00 0. -1.
         21    1    1    2  502  501  0.21890347413E+02 -0.15603784582E+02 -0.17460388738E+02  0.32055117813E+02  0.00000000000E+00 0. -1.
<scales pt_clust_5="13000.00000" pt_clust_6="13000.00000" pt_clust_7="13000.00000" pt_clust_8="13000.00000" pt_clust_9="26.88244"></scales>
<clustering>
<clus scale="   26.882">  2  9  1 -1</clus>
<clus scale="   91.146">  5  6 -1 -1</clus>
<clus scale="   94.386">  7  8 -1 -1</clus>
<clus scale="  102.143">  2  5  1 -1</clus>
<clus scale="   26.882">  2  5  1 -1</clus>
</clustering>
</event>
<event>
 9    1  0.1434065E-005  0.1059915E+03  0.7546771E-02  0.1269258E+00
         -1   -1    0    0    0  501 -0.00000000000E+00  0.00000000000E+00  0.14297232825E+03  0.14297232825E+03  0.00000000000E+00 0.  1.
          1   -1    0    0  502    0  0.00000000000E+00 -0.00000000000E+00 -0.13184919539E+03  0.13184919539E+03  0.00000000000E+00 0. -1.
         23    2    1    2    0    0 -0.12259831981E+02 -0.28521289999E+02  0.37418416155E+02  0.10499348962E+03  0.93057657031E+02 0.  0.
         23    2    1    2    0    0 -0.28938392665E+02  0.61686793704E+02 -0.28642600965E+02  0.11688698897E+03  0.90550971907E+02 0.  0.
        -13    1    3    3    0    0 -0.12471228578E+02  0.19018578786E+02 -0.20113510425E+02  0.30361014194E+02  0.00000000000E+00 0. -1.
         13    1    3    3    0    0  0.21139659664E+00 -0.47539868785E+02  0.57531926579E+02  0.74632475428E+02  0.00000000000E+00 0.  1.
        -13    1    4    4    0    0 -0.39821599307E+02  0.80657849248E+02 -0.15235438341E+02  0.91233584814E+02  0.00000000000E+00 0. -1.
         13    1    4    4    0    0  0.10883206641E+02 -0.18971055544E+02 -0.13407162623E+02  0.25653404157E+02  0.00000000000E+00 0.  1.
         21    1    1    2  502  501  0.41198224647E+02 -0.33165503705E+02  0.23473176712E+01  0.52941045044E+02  0.00000000000E+00 0. -1.
<scales pt_clust_5="13000.00000" pt_clust_6="13000.00000" pt_clust_7="13000.00000" pt_clust_8="13000.00000" pt_clust_9="52.88898"></scales>
<clustering>
<clus scale="   52.889">  1  9  2 -1</clus>
<clus scale="   90.551">  7  8 -1 -1</clus>
<clus scale="   93.058">  5  6 -1 -1</clus>
<clus scale="  103.798">  2  7  1 -1</clus>
<clus scale="  103.798">  2  5  1 -1</clus>
</clustering>
</event>
<event>
 9    1  0.1434065E-005  0.1296757E+03  0.7546771E-02  0.1228021E+00
         -1   -1    0    0    0  501 -0.00000000000E+00  0.00000000000E+00  0.93158874478E+02  0.93158874478E+02  0.00000000000E+00 0.  1.
          1   -1    0    0  502    0  0.00000000000E+00 -0.00000000000E+00 -0.59084743317E+03  0.59084743317E+03  0.00000000000E+00 0. -1.
         23    2    1    2    0    0  0.55788240539E+02 -0.92121530513E+02 -0.32620727637E+03  0.35544962708E+03  0.91293735105E+02 0.  0.
         23    2    1    2    0    0 -0.39032800991E+02  0.66082533216E+02 -0.23190226984E+03  0.26066360384E+03  0.90974671523E+02 0.  0.
        -11    1    3    3    0    0  0.45310579163E+02 -0.46787014871E+02 -0.28791323507E+03  0.29518825226E+03  0.00000000000E+00 0. -1.
         11    1    3    3    0    0  0.10477661376E+02 -0.45334515642E+02 -0.38294041306E+02  0.60261374826E+02  0.00000000000E+00 0.  1.
        -13    1    4    4    0    0 -0.25586508667E+02 -0.18061762660E+02 -0.88211269594E+02  0.93606221906E+02  0.00000000000E+00 0.  1.
         13    1    4    4    0    0 -0.13446292323E+02  0.84144295876E+02 -0.14369100025E+03  0.16705738193E+03  0.00000000000E+00 0. -1.
         21    1    1    2  502  501 -0.16755439549E+02  0.26038997297E+02  0.60420987520E+02  0.67893076728E+02  0.00000000000E+00 0. -1.
<scales pt_clust_5="13000.00000" pt_clust_6="13000.00000" pt_clust_7="13000.00000" pt_clust_8="13000.00000" pt_clust_9="30.96408"></scales>
<clustering>
<clus scale="   30.964">  1  9  2 -1</clus>
<clus scale="   90.975">  7  8 -1 -1</clus>
<clus scale="   91.294">  5  6 -1 -1</clus>
<clus scale="  129.451">  2  7  1 -1</clus>
<clus scale="  129.451">  2  5  1 -1</clus>
</clustering>
</event>
<event>
 9    1  0.1434065E-005  0.1175760E+03  0.7546771E-02  0.1247814E+00
         -1   -1    0    0    0  501 -0.00000000000E+00  0.00000000000E+00  0.11432030679E+03  0.11432030679E+03  0.00000000000E+00 0.  1.
          1   -1    0    0  502    0  0.00000000000E+00 -0.00000000000E+00 -0.27938758612E+03  0.27938758612E+03  0.00000000000E+00 0. -1.
         23    2    1    2    0    0  0.47418324247E+02 -0.28639282025E+02  0.59441200384E+02  0.12172599093E+03  0.90638041772E+02 0.  0.
         23    2    1    2    0    0 -0.72912935824E+02  0.28534118945E+02 -0.21381549547E+03  0.24433545210E+03  0.88612949927E+02 0.  0.
        -11    1    4    4    0    0 -0.99920905970E+01  0.43038555361E+02 -0.42710122758E+02  0.61451718512E+02  0.00000000000E+00 0.  1.
         11    1    4    4    0    0 -0.62920845227E+02 -0.14504436416E+02 -0.17110537271E+03  0.18288373358E+03  0.00000000000E+00 0. -1.
        -13    1    3    3    0    0  0.36165935650E+02  0.11666459386E+02 -0.11202706946E+02  0.39617948193E+02  0.00000000000E+00 0. -1.
         13    1    3    3    0    0  0.11252388597E+02 -0.40305741411E+02  0.70643907330E+02  0.82108042741E+02  0.00000000000E+00 0.  1.
         21    1    1    2  502  501  0.25494611577E+02  0.10516308069E+00 -0.10692984252E+02  0.27646449879E+02  0.00000000000E+00 0.  1.
<scales pt_clust_5="13000.00000" pt_clust_6="13000.00000" pt_clust_7="13000.00000" pt_clust_8="13000.00000" pt_clust_9="25.49483"></scales>
<clustering>
<clus scale="   25.495">  1  9  2 -1</clus>
<clus scale="   88.613">  5  6 -1 -1</clus>
<clus scale="   90.638">  7  8 -1 -1</clus>
<clus scale="  116.022">  2  5  1 -1</clus>
<clus scale="  116.022">  2  5  1 -1</clus>
</clustering>
</event>
<event>
 9    1  0.1434065E-005  0.1059263E+03  0.7546771E-02  0.1268391E+00
         -3   -1    0    0    0  501 -0.00000000000E+00  0.00000000000E+00  0.71564361395E+02  0.71564361395E+02  0.00000000000E+00 0.  1.
          3   -1    0    0  502    0  0.00000000000E+00 -0.00000000000E+00 -0.26074415733E+03  0.26074415733E+03  0.00000000000E+00 0. -1.
         23    2    1    2    0    0 -0.11488233607E+01  0.64017148398E+02 -0.22663673537E+02  0.11399330014E+03  0.91549523722E+02 0.  0.
         23    2    1    2    0    0 -0.23824201047E+02 -0.31830870050E+02 -0.10705921899E+03  0.14624073056E+03  0.91344830505E+02 0.  0.
        -11    1    3    3    0    0 -0.41279072840E+02  0.54894321846E+02 -0.39844558474E+01  0.68798432496E+02  0.00000000000E+00 0.  1.
         11    1    3    3    0    0  0.40130249480E+02  0.91228265525E+01 -0.18679217690E+02  0.45194867641E+02  0.00000000000E+00 0. -1.
        -13    1    4    4    0    0  0.63584933710E+01 -0.45428583331E+02 -0.14764988066E+02  0.48189122155E+02  0.00000000000E+00 0. -1.
         13    1    4    4    0    0 -0.30182694418E+02  0.13597713281E+02 -0.92294230925E+02  0.98051608405E+02  0.00000000000E+00 0.  1.
         21    1    1    2  502  501  0.24973024407E+02 -0.32186278348E+02 -0.59456903410E+02  0.72074488032E+02  0.00000000000E+00 0. -1.
<scales pt_clust_5="13000.00000" pt_clust_6="13000.00000" pt_clust_7="13000.00000" pt_clust_8="13000.00000" pt_clust_9="40.73829"></scales>
<clustering>
<clus scale="   40.738">  2  9  1 -1</clus>
<clus scale="   91.345">  7  8 -1 -1</clus>
<clus scale="   91.550">  5  6 -1 -1</clus>
<clus scale="  105.749">  2  7  1 -1</clus>
<clus scale="   40.738">  2  5  1 -1</clus>
</clustering>
</event>
<event>
 9    1  0.1434065E-005  0.1123314E+03  0.7546771E-02  0.1256316E+00
          2   -1    0    0  502    0  0.00000000000E+00  0.00000000000E+00  0.37537746222E+03  0.37537746222E+03  0.00000000000E+00 0. -1.
         -2   -1    0    0    0  501 -0.00000000000E+00 -0.00000000000E+00 -0.60511731235E+02  0.60511731235E+02  0.00000000000E+00 0.  1.
         23    2    1    2    0    0  0.61062913741E+02  0.71528747819E+01  0.37743644638E+02  0.11603954756E+03  0.90888672756E+02 0.  0.
         23    2    1    2    0    0 -0.76838658691E+02  0.51906488962E+01  0.15191502060E+03  0.19305041081E+03  0.90879950068E+02 0.  0.
        -11    1    3    3    0    0  0.25923441294E+02  0.44032655378E+02 -0.24440918879E+01  0.51155382252E+02  0.00000000000E+00 0.  1.
         11    1    3    3    0    0  0.35139472447E+02 -0.36879780596E+02  0.40187736526E+02  0.64884165309E+02  0.00000000000E+00 0. -1.
        -11    1    4    4    0    0 -0.55150883786E+02 -0.39475351508E+02  0.71573056503E+02  0.98603376089E+02  0.00000000000E+00 0. -1.
         11    1    4    4    0    0 -0.21687774906E+02  0.44666000404E+02  0.80341964099E+02  0.94447034722E+02  0.00000000000E+00 0.  1.
         21    1    1    2  502  501  0.15775744950E+02 -0.12343523678E+02  0.12520706574E+03  0.12679923508E+03  0.00000000000E+00 0. -1.
<scales pt_clust_5="13000.00000" pt_clust_6="13000.00000" pt_clust_7="13000.00000" pt_clust_8="13000.00000" pt_clust_9="20.03089"></scales>
<clustering>
<clus scale="   20.031">  1  9  2 -1</clus>
<clus scale="   90.880">  7  8 -1 -1</clus>
<clus scale="   90.889">  5  6 -1 -1</clus>
<clus scale="  112.324">  1  7  2 -1</clus>
<clus scale="   20.031">  1  5  2 -1</clus>
</clustering>
</event>
<event>
 9    1  0.1434065E-005  0.4191084E+03  0.7546771E-02  0.1037369E+00
          2   -1    0    0  502    0  0.00000000000E+00  0.00000000000E+00  0.48341661000E+03  0.48341661000E+03  0.00000000000E+00 0. -1.
         -2   -1    0    0    0  501 -0.00000000000E+00 -0.00000000000E+00 -0.41678088981E+03  0.41678088981E+03  0.00000000000E+00 0.  1.
         23    2    1    2    0    0 -0.20839639913E+03 -0.35747956243E+03 -0.14840471757E+02  0.42399483378E+03  0.91272573885E+02 0.  0.
         23    2    1    2    0    0  0.18106967167E+03  0.36309783772E+03  0.11592019001E+03  0.43187768375E+03  0.91948776559E+02 0.  0.
        -13    1    3    3    0    0 -0.48963115985E+01 -0.76741329829E+02  0.87440126403E+00  0.76902341634E+02  0.00000000000E+00 0. -1.
         13    1    3    3    0    0 -0.20350008753E+03 -0.28073823260E+03 -0.15714873021E+02  0.34709249215E+03  0.00000000000E+00 0.  1.
        -13    1    4    4    0    0  0.30583902671E+02  0.99782391582E+02 -0.70728739861E+01  0.10460366303E+03  0.00000000000E+00 0.  1.
         13    1    4    4    0    0  0.15048576900E+03  0.26331544614E+03  0.12299306400E+03  0.32727402072E+03  0.00000000000E+00 0. -1.
         21    1    1    2  502  501  0.27326727461E+02 -0.56182752879E+01 -0.34443998067E+02  0.44324982276E+02  0.00000000000E+00 0. -1.
<scales pt_clust_5="13000.00000" pt_clust_6="13000.00000" pt_clust_7="13000.00000" pt_clust_8="13000.00000" pt_clust_9="27.89830"></scales>
<clustering>
<clus scale="   27.898">  2  9  1 -1</clus>
<clus scale="   91.273">  5  6 -1 -1</clus>
<clus scale="   91.949">  7  8 -1 -1</clus>
<clus scale="  418.961">  2  5  1 -1</clus>
<clus scale="  419.108">  1  5  2 -1</clus>
</clustering>
</event>
<event>
 9    1  0.1434065E-005  0.9748293E+02  0.7546771E-02  0.1288605E+00
         -4   -1    0    0    0  501 -0.00000000000E+00  0.00000000000E+00  0.95987333696E+02  0.95987333696E+02  0.00000000000E+00 0.  1.
          4   -1    0    0  502    0  0.00000000000E+00 -0.00000000000E+00 -0.49177584200E+03  0.49177584200E+03  0.00000000000E+00 0. -1.
         23    2    1    2    0    0  0.22616112678E+02  0.39997995668E+01 -0.17260753895E+03  0.19488821369E+03  0.87524661581E+02 0.  0.
         23    2    1    2    0    0 -0.29210374730E+02  0.24693504820E+02 -0.29691287860E+03  0.31348236506E+03  0.93010324975E+02 0.  0.
        -11    1    3    3    0    0 -0.21377008595E+02 -0.19863273405E+02 -0.23073543289E+02  0.37201001690E+02  0.00000000000E+00 0. -1.
         11    1    3    3    0    0  0.43993121273E+02  0.23863072972E+02 -0.14953399566E+03  0.15768721200E+03  0.00000000000E+00 0.  1.
        -11    1    4    4    0    0  0.21457025268E+02 -0.88790790109E+01 -0.22200521393E+02  0.32126393006E+02  0.00000000000E+00 0.  1.
         11    1    4    4    0    0 -0.50667399998E+02  0.33572583831E+02 -0.27471235721E+03  0.28135597205E+03  0.00000000000E+00 0. -1.
         21    1    1    2  502  501  0.65942620517E+01 -0.28693304387E+02  0.73731909245E+02  0.79392596944E+02  0.00000000000E+00 0.  1.
<scales pt_clust_5="13000.00000" pt_clust_6="13000.00000" pt_clust_7="13000.00000" pt_clust_8="13000.00000" pt_clust_9="29.44130"></scales>
<clustering>
<clus scale="   29.441">  1  9  2 -1</clus>
<clus scale="   87.525">  5  6 -1 -1</clus>
<clus scale="   92.264">  1  5  2 -1</clus>
<clus scale="   93.010">  7  8 -1 -1</clus>
<clus scale="   97.483">  2  5  1 -1</clus>
</clustering>
</event>
<event>
 9    1  0.1434065E-005  0.1972658E+03  0.7546771E-02  0.1152182E+00
         -2   -1    0    0    0  501 -0.00000000000E+00  0.00000000000E+00  0.35433374950E+02  0.35433374950E+02  0.00000000000E+00 0.  1.
          2   -1    0    0  502    0  0.00000000000E+00 -0.00000000000E+00 -0.13789707891E+04  0.13789707891E+04  0.00000000000E+00 0. -1.
         23    2    1    2    0    0 -0.13463544747E+03 -0.12685256547E+03 -0.71228145864E+03  0.74157069400E+03  0.91454583183E+02 0.  0.
         23    2    1    2    0    0  0.12696329792E+03  0.10570293465E+03 -0.61944382984E+03  0.64742293926E+03  0.90294044865E+02 0.  0.
        -11    1    3    3    0    0 -0.27034703928E+02 -0.80751454308E+02 -0.22919744419E+03  0.24450591202E+03  0.00000000000E+00 0.  1.
         11    1    3    3    0    0 -0.10760074354E+03 -0.46101111165E+02 -0.48308401446E+03  0.49706478198E+03  0.00000000000E+00 0. -1.
        -13    1    4    4    0    0  0.73879692304E+02  0.84916752653E+02 -0.52643301899E+03  0.53833148458E+03  0.00000000000E+00 0.  1.
         13    1    4    4    0    0  0.53083605615E+02  0.20786181999E+02 -0.93010810858E+02  0.10909145468E+03  0.00000000000E+00 0. -1.
         21    1    1    2  502  501  0.76721495534E+01  0.21149630821E+02 -0.11812125671E+02  0.25410530799E+02  0.00000000000E+00 0.  1.
<scales pt_clust_5="13000.00000" pt_clust_6="13000.00000" pt_clust_7="13000.00000" pt_clust_8="13000.00000" pt_clust_9="22.49819"></scales>
<clustering>
<clus scale="   22.498">  1  9  2 -1</clus>
<clus scale="   90.294">  7  8 -1 -1</clus>
<clus scale="   91.455">  5  6 -1 -1</clus>
<clus scale="  196.730">  2  7  1 -1</clus>
<clus scale="  196.730">  2  5  1 -1</clus>
</clustering>
</event>
<event>
 9    1  0.1434065E-005  0.1432413E+03  0.7546771E-02  0.1209163E+00
         -2   -1    0    0    0  501 -0.00000000000E+00  0.00000000000E+00  0.84062092903E+02  0.84062092903E+02  0.00000000000E+00 0.  1.
          2   -1    0    0  502    0  0.00000000000E+00 -0.00000000000E+00 -0.43615091861E+03  0.43615091861E+03  0.00000000000E+00 0. -1.
         23    2    1    2    0    0  0.90901958965E+02 -0.54585428744E+02 -0.45320147420E+02  0.14617781102E+03  0.89840422411E+02 0.  0.
         23    2    1    2    0    0 -0.11434886388E+03  0.14123506631E+02 -0.28900171097E+03  0.32400931101E+03  0.90470484494E+02 0.  0.
        -11    1    4    4    0    0 -0.22805408491E+02 -0.24082013709E+02 -0.14761717683E+03  0.15129726017E+03  0.00000000000E+00 0.  1.
         11    1    4    4    0    0 -0.91543455388E+02  0.38205520340E+02 -0.14138453415E+03  0.17271205084E+03  0.00000000000E+00 0. -1.
        -11    1    3    3    0    0  0.71682017147E+02 -0.66528595825E+02 -0.25970017226E+01  0.97832050283E+02  0.00000000000E+00 0.  1.
         11    1    3    3    0    0  0.19219941818E+02  0.11943167081E+02 -0.42723145697E+02  0.48345760742E+02  0.00000000000E+00 0. -1.
         21    1    1    2  502  501  0.23446904914E+02  0.40461922113E+02 -0.17766967320E+02  0.50025889486E+02  0.00000000000E+00 0.  1.
<scales pt_clust_5="13000.00000" pt_clust_6="13000.00000" pt_clust_7="13000.00000" pt_clust_8="13000.00000" pt_clust_9="46.76456"></scales>
<clustering>
<clus scale="   46.765">  1  9  2 -1</clus>
<clus scale="   89.840">  7  8 -1 -1</clus>
<clus scale="   90.470">  5  6 -1 -1</clus>
<clus scale="  142.844">  1  7  2 -1</clus>
<clus scale="  143.241">  2  5  1 -1</clus>
</clustering>
</event>
<event>
 9    1  0.1434065E-005  0.1695785E+03  0.7546771E-02  0.1178512E+00
          1   -1    0    0  502    0  0.00000000000E+00  0.00000000000E+00  0.32495783332E+03  0.32495783332E+03  0.00000000000E+00 0. -1.
         -1   -1    0    0    0  501 -0.00000000000E+00 -0.00000000000E+00 -0.11324115165E+03  0.11324115165E+03  0.00000000000E+00 0.  1.
         23    2    1    2    0    0 -0.15671284318E+03  0.34159386940E+02  0.11864727079E+03  0.21786321949E+03  0.87529587027E+02 0.  0.
         23    2    1    2    0    0  0.12702140895E+03 -0.29207534199E+02  0.10311595865E+03  0.18860194702E+03  0.89164315201E+02 0.  0.
        -11    1    3    3    0    0 -0.12170541731E+03  0.18408762197E+02  0.12879700129E+03  0.17815655663E+03  0.00000000000E+00 0. -1.
         11    1    3    3    0    0 -0.35007425868E+02  0.15750624743E+02 -0.10149730503E+02  0.39706662854E+02  0.00000000000E+00 0.  1.
        -13    1    4    4    0    0  0.28496792056E+02 -0.44428980649E+02  0.13337252565E+02  0.54441563028E+02  0.00000000000E+00 0. -1.
         13    1    4    4    0    0  0.98524616893E+02  0.15221446450E+02  0.89778706085E+02  0.13416038399E+03  0.00000000000E+00 0.  1.
         21    1    1    2  502  501  0.29691434232E+02 -0.49518527408E+01 -0.10046547772E+02  0.31733818467E+02  0.00000000000E+00 0.  1.
<scales pt_clust_5="13000.00000" pt_clust_6="13000.00000" pt_clust_7="13000.00000" pt_clust_8="13000.00000" pt_clust_9="30.10153"></scales>
<clustering>
<clus scale="   30.102">  2  9  1 -1</clus>
<clus scale="   87.530">  5  6 -1 -1</clus>
<clus scale="   89.164">  7  8 -1 -1</clus>
<clus scale="  168.725">  2  5  1 -1</clus>
<clus scale="  169.578">  1  5  2 -1</clus>
</clustering>
</event>
<event>
 9    1  0.1434065E-005  0.1944312E+03  0.7546771E-02  0.1155039E+00
          1   -1    0    0  502    0  0.00000000000E+00  0.00000000000E+00  0.68881849226E+03  0.68881849226E+03  0.00000000000E+00 0. -1.
         -1   -1    0    0    0  501 -0.00000000000E+00 -0.00000000000E+00 -0.61448138471E+02  0.61448138471E+02  0.00000000000E+00 0.  1.
         23    2    1    2    0    0  0.16237813817E+01  0.18376482595E+03  0.30422044428E+03  0.36712943188E+03  0.91988005282E+02 0.  0.
         23    2    1    2    0    0 -0.28784380554E+01 -0.16074022913E+03  0.28801735256E+03  0.34111336300E+03  0.86940349515E+02 0.  0.
        -11    1    3    3    0    0 -0.22449678489E+02  0.26007812256E+01  0.29223567489E+02  0.36942780404E+02  0.00000000000E+00 0.  1.
         11    1    3    3    0    0  0.24073459871E+02  0.18116404472E+03  0.27499687679E+03  0.33018665148E+03  0.00000000000E+00 0. -1.
        -13    1    4    4    0    0 -0.43822058512E+02 -0.78759839791E+02  0.12499366764E+03  0.15410029892E+03  0.00000000000E+00 0.  1.
         13    1    4    4    0    0  0.40943620456E+02 -0.81980389338E+02  0.16302368492E+03  0.18701306408E+03  0.00000000000E+00 0. -1.
         21    1    1    2  502  501  0.12546566737E+01 -0.23024596817E+02  0.35132556946E+02  0.42023835850E+02  0.00000000000E+00 0.  1.
<scales pt_clust_5="13000.00000" pt_clust_6="13000.00000" pt_clust_7="13000.00000" pt_clust_8="13000.00000" pt_clust_9="23.05876"></scales>
<clustering>
<clus scale="   23.059">  2  9  1 -1</clus>
<clus scale="   86.940">  7  8 -1 -1</clus>
<clus scale="   91.988">  5  6 -1 -1</clus>
<clus scale="  192.095">  1  7  2 -1</clus>
<clus scale="  192.095">  1  5  2 -1</clus>
</clustering>
</event>
<event>
 9    1  0.1560690E-005  0.1247175E+03  0.7546771E-02  0.1235988E+00
          1   -1    0    0  502    0  0.00000000000E+00  0.00000000000E+00  0.47306543640E+03  0.47306543640E+03  0.00000000000E+00 0. -1.
         -1   -1    0    0    0  501 -0.00000000000E+00 -0.00000000000E+00 -0.92249448118E+02  0.92249448118E+02  0.00000000000E+00 0.  1.
         23    2    1    2    0    0  0.92679797196E+02 -0.71251796900E+00 -0.15536928849E+02  0.13257888659E+03  0.93518514318E+02 0.  0.
         23    2    1    2    0    0 -0.78473890801E+02  0.22295962238E+02  0.38567303880E+03  0.40477687340E+03  0.91898655702E+02 0.  0.
        -11    1    3    3    0    0  0.57106775234E+02  0.36432264423E+02  0.19330538502E+02  0.70442624790E+02  0.00000000000E+00 0.  1.
         11    1    3    3    0    0  0.35573021962E+02 -0.37144782392E+02 -0.34867467351E+02  0.62136261796E+02  0.00000000000E+00 0. -1.
        -13    1    4    4    0    0 -0.95093366065E+02  0.86810884629E+01  0.35289175618E+03  0.36558268716E+03  0.00000000000E+00 0. -1.
         13    1    4    4    0    0  0.16619475264E+02  0.13614873775E+02  0.32781282612E+02  0.39194186248E+02  0.00000000000E+00 0.  1.
         21    1    1    2  502  501 -0.14205906395E+02 -0.21583444269E+02  0.10679878333E+02  0.27959124525E+02  0.00000000000E+00 0. -1.
<scales pt_clust_5="13000.00000" pt_clust_6="13000.00000" pt_clust_7="13000.00000" pt_clust_8="13000.00000" pt_clust_9="25.83898"></scales>
<clustering>
<clus scale="   25.839">  2  9  1 -1</clus>
<clus scale="   91.899">  7  8 -1 -1</clus>
<clus scale="   93.519">  5  6 -1 -1</clus>
<clus scale="  123.507">  1  7  2 -1</clus>
<clus scale="  123.507">  1  5  2 -1</clus>
</clustering>
</event>
<event>
 9    1  0.1434065E-005  0.9815327E+02  0.7546771E-02  0.1285329E+00
          2   -1    0    0  502    0  0.00000000000E+00  0.00000000000E+00  0.24704705329E+03  0.24704705329E+03  0.00000000000E+00 0. -1.
         -2   -1    0    0    0  501 -0.00000000000E+00 -0.00000000000E+00 -0.27615981467E+03  0.27615981467E+03  0.00000000000E+00 0.  1.
         23    2    1    2    0    0 -0.43278526965E+02  0.42376434854E+02 -0.56948377415E+02  0.12297034750E+03  0.90607922101E+02 0.  0.
         23    2    1    2    0    0  0.63294314602E+01 -0.28895368896E+02  0.20064111077E+03  0.22301148325E+03  0.92748381563E+02 0.  0.
        -11    1    3    3    0    0  0.13040919710E+02  0.49785432543E+02 -0.34131537757E+02  0.61754487691E+02  0.00000000000E+00 0.  1.
         11    1    3    3    0    0 -0.56319446675E+02 -0.74089976882E+01 -0.22816839658E+02  0.61215859812E+02  0.00000000000E+00 0. -1.
        -11    1    4    4    0    0 -0.40302849202E+02 -0.12856151710E+02  0.13112787901E+03  0.13778287609E+03  0.00000000000E+00 0. -1.
         11    1    4    4    0    0  0.46632280663E+02 -0.16039217186E+02  0.69513231763E+02  0.85228607157E+02  0.00000000000E+00 0.  1.
         21    1    1    2  502  501  0.36949095505E+02 -0.13481065958E+02 -0.17280549474E+03  0.17722503720E+03  0.00000000000E+00 0.  1.
<scales pt_clust_5="13000.00000" pt_clust_6="13000.00000" pt_clust_7="13000.00000" pt_clust_8="13000.00000" pt_clust_9="39.33160"></scales>
<clustering>
<clus scale="   39.332">  2  9  1 -1</clus>
<clus scale="   90.608">  5  6 -1 -1</clus>
<clus scale="   92.748">  7  8 -1 -1</clus>
<clus scale="   96.133">  2  5  1 -1</clus>
<clus scale="   98.153">  1  5  2 -1</clus>
</clustering>
</event>
<event>
 9    1  0.1434065E-005  0.1121281E+03  0.7546771E-02  0.1257164E+00
         -2   -1    0    0    0  501 -0.00000000000E+00  0.00000000000E+00  0.14864101129E+03  0.14864101129E+03  0.00000000000E+00 0.  1.
          2   -1    0    0  502    0  0.00000000000E+00 -0.00000000000E+00 -0.20149925945E+03  0.20149925945E+03  0.00000000000E+00 0. -1.
         23    2    1    2    0    0 -0.12030762270E+02  0.79523797130E+02  0.16096050408E+02  0.12201001587E+03  0.90324900125E+02 0.  0.
         23    2    1    2    0    0 -0.14789438047E+02 -0.61783697736E+02 -0.12341469407E+03  0.16488494715E+03  0.88993855423E+02 0.  0.
        -11    1    4    4    0    0  0.37611146181E+02 -0.28683093631E+02 -0.50656122175E+02  0.69306283201E+02  0.00000000000E+00 0. -1.
         11    1    4    4    0    0 -0.52400584228E+02 -0.33100604105E+02 -0.72758571892E+02  0.95578663954E+02  0.00000000000E+00 0.  1.
        -13    1    3    3    0    0  0.22564365834E+02  0.10575625501E+02  0.34639541449E+02  0.42671914558E+02  0.00000000000E+00 0.  1.
         13    1    3    3    0    0 -0.34595128104E+02  0.68948171629E+02 -0.18543491041E+02  0.79338101310E+02  0.00000000000E+00 0. -1.
         21    1    1    2  502  501  0.26820200317E+02 -0.17740099394E+02  0.54460395494E+02  0.63245307723E+02  0.00000000000E+00 0.  1.
<scales pt_clust_5="13000.00000" pt_clust_6="13000.00000" pt_clust_7="13000.00000" pt_clust_8="13000.00000" pt_clust_9="32.15640"></scales>
<clustering>
<clus scale="   32.156">  1  9  2 -1</clus>
<clus scale="   88.994">  5  6 -1 -1</clus>
<clus scale="   90.325">  7  8 -1 -1</clus>
<clus scale="  111.059">  2  5  1 -1</clus>
<clus scale="  111.059">  2  5  1 -1</clus>
</clustering>
</event>
<event>
 9    1  0.1434065E-005  0.1069165E+03  0.7546771E-02  0.1268397E+00
         -1   -1    0    0    0  501 -0.00000000000E+00  0.00000000000E+00  0.26816078520E+02  0.26816078520E+02  0.00000000000E+00 0.  1.
          1   -1    0    0  502    0  0.00000000000E+00 -0.00000000000E+00 -0.63609995709E+03  0.63609995709E+03  0.00000000000E+00 0. -1.
         23    2    1    2    0    0  0.31957792021E+02 -0.13571246909E+02 -0.16934776799E+03  0.19512433004E+03  0.90495074102E+02 0.  0.
         23    2    1    2    0    0 -0.73899264348E+02  0.96296382337E-01 -0.34646883326E+03  0.36446313585E+03  0.85624846990E+02 0.  0.
        -11    1    3    3    0    0 -0.27930844064E+02  0.42963142274E+01 -0.24622729583E+02  0.37481584521E+02  0.00000000000E+00 0.  1.
         11    1    3    3    0    0  0.59888636084E+02 -0.17867561136E+02 -0.14472503840E+03  0.15764274552E+03  0.00000000000E+00 0. -1.
        -13    1    4    4    0    0 -0.97276044764E+01  0.37557676657E+02 -0.11779009119E+03  0.12401496259E+03  0.00000000000E+00 0. -1.
         13    1    4    4    0    0 -0.64171659871E+02 -0.37461380275E+02 -0.22867874208E+03  0.24044817325E+03  0.00000000000E+00 0.  1.
         21    1    1    2  502  501  0.41941472327E+02  0.13474950527E+02 -0.93467277319E+02  0.10332856973E+03  0.00000000000E+00 0. -1.
<scales pt_clust_5="13000.00000" pt_clust_6="13000.00000" pt_clust_7="13000.00000" pt_clust_8="13000.00000" pt_clust_9="44.05294"></scales>
<clustering>
<clus scale="   44.053">  1  9  2 -1</clus>
<clus scale="   85.625">  7  8 -1 -1</clus>
<clus scale="   90.495">  5  6 -1 -1</clus>
<clus scale="  102.827">  2  7  1 -1</clus>
<clus scale="  102.827">  2  5  1 -1</clus>
</clustering>
</event>
<event>
 9    1  0.1434065E-005  0.9523614E+02  0.7546771E-02  0.1292909E+00
         -3   -1    0    0    0  501 -0.00000000000E+00  0.00000000000E+00  0.12706946212E+03  0.12706946212E+03  0.00000000000E+00 0.  1.
          3   -1    0    0  502    0  0.00000000000E+00 -0.00000000000E+00 -0.48228756802E+03  0.48228756802E+03  0.00000000000E+00 0. -1.
         23    2    1    2    0    0 -0.13346994796E+02  0.21829726301E+02  0.90207550863E+02  0.13166291114E+03  0.92428570886E+02 0.  0.
         23    2    1    2    0    0 -0.16434007071E+02 -0.16988954228E+02 -0.43685613771E+03  0.44632888661E+03  0.88359995565E+02 0.  0.
        -11    1    4    4    0    0 -0.51047723134E+02 -0.20981148153E+01 -0.30270221557E+03  0.30698355564E+03  0.00000000000E+00 0. -1.
         11    1    4    4    0    0  0.34613716063E+02 -0.14890839413E+02 -0.13415392213E+03  0.13934533097E+03  0.00000000000E+00 0.  1.
        -13    1    3    3    0    0 -0.19866063322E+02 -0.16716483001E+02  0.88828353659E+02  0.92545003590E+02  0.00000000000E+00 0.  1.
         13    1    3    3    0    0  0.65190685259E+01  0.38546209301E+02  0.13791972044E+01  0.39117907547E+02  0.00000000000E+00 0. -1.
         21    1    1    2  502  501  0.29781001867E+02 -0.48407720728E+01 -0.85695190604E+01  0.31365232398E+02  0.00000000000E+00 0. -1.
<scales pt_clust_5="13000.00000" pt_clust_6="13000.00000" pt_clust_7="13000.00000" pt_clust_8="13000.00000" pt_clust_9="30.17186"></scales>
<clustering>
<clus scale="   30.172">  1  9  2 -1</clus>
<clus scale="   88.360">  5  6 -1 -1</clus>
<clus scale="   91.293">  2  5  1 -1</clus>
<clus scale="   92.429">  7  8 -1 -1</clus>
<clus scale="   91.293">  2  5  1 -1</clus>
</clustering>
</event>
<event>
 9    1  0.1434065E-005  0.1401707E+03  0.7546771E-02  0.1231854E+00
         -1   -1    0    0    0  501 -0.00000000000E+00  0.00000000000E+00  0.50983429459E+02  0.50983429459E+02  0.00000000000E+00 0.  1.
          1   -1    0    0  502    0  0.00000000000E+00 -0.00000000000E+00 -0.78073537103E+03  0.78073537103E+03  0.00000000000E+00 0. -1.
         23    2    1    2    0    0 -0.67919056567E+01 -0.16866379889E+02 -0.88852526911E+02  0.12985514208E+03  0.92935362665E+02 0.  0.
         23    2    1    2    0    0 -0.78951286511E+02  0.75542687988E+02 -0.53529291049E+03  0.55371664406E+03  0.90131118626E+02 0.  0.
        -11    1    4    4    0    0  0.12531238386E+02  0.40721480949E+02 -0.13156430245E+03  0.13829112996E+03  0.00000000000E+00 0.  1.
         11    1    4    4    0    0 -0.91482524897E+02  0.34821207039E+02 -0.40372860804E+03  0.41542551411E+03  0.00000000000E+00 0. -1.
        -13    1    3    3    0    0  0.34024564871E+02 -0.10188522636E+02 -0.43611243424E+01  0.35784024560E+02  0.00000000000E+00 0. -1.
         13    1    3    3    0    0 -0.40816470528E+02 -0.66778572533E+01 -0.84491402569E+02  0.94071117522E+02  0.00000000000E+00 0.  1.
         21    1    1    2  502  501  0.85743192168E+02 -0.58676308099E+02 -0.10560650417E+03  0.14814701434E+03  0.00000000000E+00 0.  1.
<scales pt_clust_5="13000.00000" pt_clust_6="13000.00000" pt_clust_7="13000.00000" pt_clust_8="13000.00000" pt_clust_9="107.35083"></scales>
<clustering>
<clus scale="   90.131">  5  6 -1 -1</clus>
<clus scale="   92.935">  7  8 -1 -1</clus>
<clus scale="   94.697">  1  7  2 -1</clus>
<clus scale="  107.351">  1  9  2 -1</clus>
<clus scale="  140.171">  2  5  1 -1</clus>
</clustering>
</event>
<event>
 9    1  0.1434065E-005  0.1225689E+03  0.7546771E-02  0.1239076E+00
          2   -1    0    0  502    0  0.00000000000E+00  0.00000000000E+00  0.75002227653E+03  0.75002227653E+03  0.00000000000E+00 0. -1.
         -2   -1    0    0    0  501 -0.00000000000E+00 -0.00000000000E+00 -0.37356880783E+02  0.37356880783E+02  0.00000000000E+00 0.  1.
         23    2    1    2    0    0 -0.93455519870E+01 -0.61338528717E+02  0.26587715566E+03  0.28760044837E+03  0.90407972832E+02 0.  0.
         23    2    1    2    0    0 -0.36698762467E+01  0.10234545021E+03  0.43369679730E+03  0.45480810904E+03  0.90936488215E+02 0.  0.
        -13    1    3    3    0    0 -0.40415348614E+02 -0.63092228840E+02  0.21782811612E+03  0.23035433123E+03  0.00000000000E+00 0. -1.
         13    1    3    3    0    0  0.31069796627E+02  0.17537001228E+01  0.48049039538E+02  0.57246117136E+02  0.00000000000E+00 0.  1.
        -13    1    4    4    0    0  0.17457941278E+02  0.41562820630E+02  0.57088026028E+02  0.72741257125E+02  0.00000000000E+00 0.  1.
         13    1    4    4    0    0 -0.21127817525E+02  0.60782629576E+02  0.37660877127E+03  0.38206685191E+03  0.00000000000E+00 0. -1.
         21    1    1    2  502  501  0.13015428234E+02 -0.41006921489E+02  0.13091442792E+02  0.44970599913E+02  0.00000000000E+00 0.  1.
<scales pt_clust_5="13000.00000" pt_clust_6="13000.00000" pt_clust_7="13000.00000" pt_clust_8="13000.00000" pt_clust_9="43.02289"></scales>
<clustering>
<clus scale="   43.023">  2  9  1 -1</clus>
<clus scale="   90.408">  5  6 -1 -1</clus>
<clus scale="   90.936">  7  8 -1 -1</clus>
<clus scale="  122.177">  2  5  1 -1</clus>
<clus scale="  122.569">  1  5  2 -1</clus>
</clustering>
</event>
<event>
 9    1  0.1434065E-005  0.9695227E+02  0.7546771E-02  0.1288489E+00
          2   -1    0    0  502    0  0.00000000000E+00  0.00000000000E+00  0.36541439547E+03  0.36541439547E+03  0.00000000000E+00 0. -1.
         -2   -1    0    0    0  501 -0.00000000000E+00 -0.00000000000E+00 -0.14830073188E+03  0.14830073188E+03  0.00000000000E+00 0.  1.
         23    2    1    2    0    0 -0.37575469793E+02  0.79986547097E+02  0.48129085743E+02  0.13560340229E+03  0.90896150478E+02 0.  0.
         23    2    1    2    0    0  0.86649332497E+01 -0.22298502218E+02  0.25491664436E+03  0.27064987275E+03  0.87730005030E+02 0.  0.
        -11    1    3    3    0    0 -0.32542520239E+02 -0.31237068270E+01  0.40418136545E+02  0.51984602813E+02  0.00000000000E+00 0. -1.
         11    1    3    3    0    0 -0.50329495533E+01  0.83110253924E+02  0.77109491982E+01  0.83618799478E+02  0.00000000000E+00 0.  1.
        -13    1    4    4    0    0 -0.23930908609E+02  0.22317704768E+02  0.63746796540E+02  0.71654884007E+02  0.00000000000E+00 0.  1.
         13    1    4    4    0    0  0.32595841859E+02 -0.44616206986E+02  0.19116984782E+03  0.19899498875E+03  0.00000000000E+00 0. -1.
         21    1    1    2  502  501  0.28910536543E+02 -0.57688044879E+02 -0.85932066510E+02  0.10746185230E+03  0.00000000000E+00 0. -1.
<scales pt_clust_5="13000.00000" pt_clust_6="13000.00000" pt_clust_7="13000.00000" pt_clust_8="13000.00000" pt_clust_9="64.52697"></scales>
<clustering>
<clus scale="   64.527">  2  9  1 -1</clus>
<clus scale="   87.730">  7  8 -1 -1</clus>
<clus scale="   90.896">  5  6 -1 -1</clus>
<clus scale="   93.990">  1  7  2 -1</clus>
<clus scale="   93.990">  1  5  2 -1</clus>
</clustering>
</event>
<event>
 9    1  0.1434065E-005  0.9209417E+02  0.7546771E-02  0.1299737E+00
         -1   -1    0    0    0  501 -0.00000000000E+00  0.00000000000E+00  0.11912597918E+03  0.11912597918E+03  0.00000000000E+00 0.  1.
          1   -1    0    0  502    0  0.00000000000E+00 -0.00000000000E+00 -0.23109542994E+03  0.23109542994E+03  0.00000000000E+00 0. -1.
         23    2    1    2    0    0 -0.47096046831E+02  0.18354930116E+02  0.34263383365E+02  0.11043291670E+03  0.92013632488E+02 0.  0.
         23    2    1    2    0    0 -0.32506767778E+01  0.14702221403E+01 -0.16079480952E+03  0.18375385699E+03  0.88869458974E+02 0.  0.
        -11    1    4    4    0    0  0.48102497422E+01  0.29401589727E+02 -0.11955150180E+02  0.32101675920E+02  0.00000000000E+00 0.  1.
         11    1    4    4    0    0 -0.80609265200E+01 -0.27931367586E+02 -0.14883965934E+03  0.15165218107E+03  0.00000000000E+00 0. -1.
        -13    1    3    3    0    0 -0.44805634789E+00 -0.21811831047E+02 -0.19076260403E+02  0.28980345738E+02  0.00000000000E+00 0. -1.
         13    1    3    3    0    0 -0.46647990483E+02  0.40166761163E+02  0.53339643767E+02  0.81452570958E+02  0.00000000000E+00 0.  1.
         21    1    1    2  502  501  0.50346723608E+02 -0.19825152256E+02  0.14561975396E+02  0.56034635428E+02  0.00000000000E+00 0.  1.
<scales pt_clust_5="13000.00000" pt_clust_6="13000.00000" pt_clust_7="13000.00000" pt_clust_8="13000.00000" pt_clust_9="54.10942"></scales>
<clustering>
<clus scale="   54.109">  1  9  2 -1</clus>
<clus scale="   88.869">  5  6 -1 -1</clus>
<clus scale="   88.953">  2  5  1 -1</clus>
<clus scale="   92.014">  7  8 -1 -1</clus>
<clus scale="   88.953">  2  5  1 -1</clus>
</clustering>
</event>
<event>
 9    1  0.1434065E-005  0.9339804E+02  0.7546771E-02  0.1296608E+00
          3   -1    0    0  502    0  0.00000000000E+00  0.00000000000E+00  0.10794672018E+03  0.10794672018E+03  0.00000000000E+00 0. -1.
         -3   -1    0    0    0  501 -0.00000000000E+00 -0.00000000000E+00 -0.10380102995E+03  0.10380102995E+03  0.00000000000E+00 0.  1.
         23    2    1    2    0    0 -0.17081524449E+02 -0.24782034488E+01 -0.17945774421E+01  0.90834700877E+02  0.89161664438E+02 0.  0.
         23    2    1    2    0    0  0.63304455772E+01 -0.20317536235E+02 -0.13595090732E+01  0.94673419206E+02  0.92240615888E+02 0.  0.
        -11    1    3    3    0    0  0.42874092691E+01 -0.43687245162E+02 -0.56292135553E+01  0.44256584971E+02  0.00000000000E+00 0.  1.
         11    1    3    3    0    0 -0.21368933718E+02  0.41209041713E+02  0.38346361132E+01  0.46578115905E+02  0.00000000000E+00 0. -1.
        -13    1    4    4    0    0 -0.39402436278E+02 -0.23279594612E+02 -0.12635550044E+02  0.47477875215E+02  0.00000000000E+00 0.  1.
         13    1    4    4    0    0  0.45732881855E+02  0.29620583775E+01  0.11276040971E+02  0.47195543991E+02  0.00000000000E+00 0. -1.
         21    1    1    2  502  501  0.10751078871E+02  0.22795739684E+02  0.72997767492E+01  0.26239630051E+02  0.00000000000E+00 0.  1.
<scales pt_clust_5="13000.00000" pt_clust_6="13000.00000" pt_clust_7="13000.00000" pt_clust_8="13000.00000" pt_clust_9="25.20380"></scales>
<clustering>
<clus scale="   25.204">  1  9  2 -1</clus>
<clus scale="   89.162">  5  6 -1 -1</clus>
<clus scale="   90.359">  2  5  1 -1</clus>
<clus scale="   92.241">  7  8 -1 -1</clus>
<clus scale="   25.204">  1  5  2 -1</clus>
</clustering>
</event>
<event>
 9    1  0.1434065E-005  0.1648790E+03  0.7546771E-02  0.1183986E+00
          3   -1    0    0  502    0  0.00000000000E+00  0.00000000000E+00  0.37122484710E+03  0.37122484710E+03  0.00000000000E+00 0. -1.
         -3   -1    0    0    0  501 -0.00000000000E+00 -0.00000000000E+00 -0.92185277336E+02  0.92185277336E+02  0.00000000000E+00 0.  1.
         23    2    1    2    0    0 -0.12736896353E+03  0.66919881900E+02  0.11854271813E+03  0.20720463025E+03  0.90444785988E+02 0.  0.
         23    2    1    2    0    0  0.12195913417E+03 -0.41743334541E+02  0.16520068290E+03  0.23002819831E+03  0.94895574210E+02 0.  0.
        -13    1    4    4    0    0  0.29508194443E+02 -0.56318398352E+02  0.88780168018E+02  0.10919896412E+03  0.00000000000E+00 0. -1.
         13    1    4    4    0    0  0.92450939723E+02  0.14575063811E+02  0.76420514879E+02  0.12082923419E+03  0.00000000000E+00 0.  1.
        -13    1    3    3    0    0 -0.24381760782E+02  0.46098140176E+02  0.48168345287E+01  0.52370895366E+02  0.00000000000E+00 0.  1.
         13    1    3    3    0    0 -0.10298720275E+03  0.20821741723E+02  0.11372588360E+03  0.15483373489E+03  0.00000000000E+00 0. -1.
         21    1    1    2  502  501  0.54098293687E+01 -0.25176547358E+02 -0.47038312580E+01  0.26177295872E+02  0.00000000000E+00 0. -1.
<scales pt_clust_5="13000.00000" pt_clust_6="13000.00000" pt_clust_7="13000.00000" pt_clust_8="13000.00000" pt_clust_9="25.75121"></scales>
<clustering>
<clus scale="   25.751">  2  9  1 -1</clus>
<clus scale="   90.445">  7  8 -1 -1</clus>
<clus scale="   94.896">  5  6 -1 -1</clus>
<clus scale="  162.358">  2  7  1 -1</clus>
<clus scale="  164.879">  1  5  2 -1</clus>
</clustering>
</event>
<event>
 9    1  0.1434065E-005  0.2382787E+03  0.7546771E-02  0.1121092E+00
          1   -1    0    0  502    0  0.00000000000E+00  0.00000000000E+00  0.36292260506E+03  0.36292260506E+03  0.00000000000E+00 0. -1.
         -1   -1    0    0    0  501 -0.00000000000E+00 -0.00000000000E+00 -0.19078210542E+03  0.19078210542E+03  0.00000000000E+00 0.  1.
         23    2    1    2    0    0 -0.77651855478E+02 -0.18256996099E+03  0.85834891167E+00  0.21807017197E+03  0.90511114381E+02 0.  0.
         23    2    1    2    0    0  0.10139619923E+03  0.20953907457E+03  0.16242289846E+03  0.29862625162E+03  0.92782688141E+02 0.  0.
        -11    1    3    3    0    0 -0.64413680652E+02 -0.65741453876E+02 -0.29477507912E+02  0.96643595161E+02  0.00000000000E+00 0. -1.
         11    1    3    3    0    0 -0.13238174826E+02 -0.11682850711E+03  0.30335856823E+02  0.12142657681E+03  0.00000000000E+00 0.  1.
        -13    1    4    4    0    0  0.59664415647E+02  0.12434336832E+03  0.14863059053E+03  0.20276135771E+03  0.00000000000E+00 0. -1.
         13    1    4    4    0    0  0.41731783587E+02  0.85195706254E+02  0.13792307928E+02  0.95864893905E+02  0.00000000000E+00 0.  1.
         21    1    1    2  502  501 -0.23744343756E+02 -0.26969113586E+02  0.88592522721E+01  0.37008286894E+02  0.00000000000E+00 0.  1.
<scales pt_clust_5="13000.00000" pt_clust_6="13000.00000" pt_clust_7="13000.00000" pt_clust_8="13000.00000" pt_clust_9="35.93225"></scales>
<clustering>
<clus scale="   35.932">  2  9  1 -1</clus>
<clus scale="   90.511">  5  6 -1 -1</clus>
<clus scale="   92.783">  7  8 -1 -1</clus>
<clus scale="  237.403">  2  5  1 -1</clus>
<clus scale="  238.279">  1  5  2 -1</clus>
</clustering>
</event>
<event>
 9    1  0.1434065E-005  0.1221456E+03  0.7546771E-02  0.1239966E+00
          1   -1    0    0  502    0  0.00000000000E+00  0.00000000000E+00  0.61458182865E+03  0.61458182865E+03  0.00000000000E+00 0. -1.
         -1   -1    0    0    0  501 -0.00000000000E+00 -0.00000000000E+00 -0.44909257953E+02  0.44909257953E+02  0.00000000000E+00 0.  1.
         23    2    1    2    0    0  0.87622625886E+02 -0.46287101314E+02  0.13279708576E+03  0.18897255578E+03  0.90858904561E+02 0.  0.
         23    2    1    2    0    0 -0.62061909038E+02  0.42038287097E+02  0.42631552787E+03  0.44253790607E+03  0.92065036084E+02 0.  0.
        -13    1    4    4    0    0 -0.21161110715E+02 -0.26061500236E+02  0.19731397300E+03  0.20014944003E+03  0.00000000000E+00 0.  1.
         13    1    4    4    0    0 -0.40900798323E+02  0.68099787333E+02  0.22900155487E+03  0.24238846605E+03  0.00000000000E+00 0. -1.
        -13    1    3    3    0    0  0.33333733051E+02  0.17249933480E+02  0.73633402601E+01  0.38248094645E+02  0.00000000000E+00 0.  1.
         13    1    3    3    0    0  0.54288892835E+02 -0.63537034794E+02  0.12543374550E+03  0.15072446114E+03  0.00000000000E+00 0. -1.
         21    1    1    2  502  501 -0.25560716848E+02  0.42488142174E+01  0.10559957064E+02  0.27980624747E+02  0.00000000000E+00 0.  1.
<scales pt_clust_5="13000.00000" pt_clust_6="13000.00000" pt_clust_7="13000.00000" pt_clust_8="13000.00000" pt_clust_9="25.91144"></scales>
<clustering>
<clus scale="   25.911">  2  9  1 -1</clus>
<clus scale="   90.859">  7  8 -1 -1</clus>
<clus scale="   92.065">  5  6 -1 -1</clus>
<clus scale="  121.239">  2  7  1 -1</clus>
<clus scale="  122.146">  1  5  2 -1</clus>
</clustering>
</event>
<event>
 9    1  0.1434065E-005  0.9064858E+02  0.7546771E-02  0.1301390E+00
         -1   -1    0    0    0  501 -0.00000000000E+00  0.00000000000E+00  0.39428421342E+03  0.39428421342E+03  0.00000000000E+00 0.  1.
          1   -1    0    0  502    0  0.00000000000E+00 -0.00000000000E+00 -0.64525647281E+02  0.64525647281E+02  0.00000000000E+00 0. -1.
         23    2    1    2    0    0  0.12300184673E+02 -0.94305731330E+01  0.31871879895E+03  0.33162962609E+03  0.90312268501E+02 0.  0.
         23    2    1    2    0    0 -0.18066850293E+01 -0.91773748281E+01 -0.16715311296E+02  0.92155762543E+02  0.90143189529E+02 0.  0.
        -13    1    3    3    0    0  0.34110009873E+02 -0.40928271352E+02  0.19035384272E+03  0.19766942507E+03  0.00000000000E+00 0.  1.
         13    1    3    3    0    0 -0.21809825201E+02  0.31497698220E+02  0.12836495624E+03  0.13396020102E+03  0.00000000000E+00 0. -1.
        -13    1    4    4    0    0 -0.36082353171E+02 -0.32987151467E+02 -0.85529669524E+01  0.49631054955E+02  0.00000000000E+00 0. -1.
         13    1    4    4    0    0  0.34275668142E+02  0.23809776639E+02 -0.81623443437E+01  0.42524707587E+02  0.00000000000E+00 0.  1.
         21    1    1    2  502  501 -0.10493499643E+02  0.18607947961E+02  0.27755078479E+02  0.35024472065E+02  0.00000000000E+00 0. -1.
<scales pt_clust_5="13000.00000" pt_clust_6="13000.00000" pt_clust_7="13000.00000" pt_clust_8="13000.00000" pt_clust_9="21.36280"></scales>
<clustering>
<clus scale="   21.363">  1  9  2 -1</clus>
<clus scale="   90.143">  7  8 -1 -1</clus>
<clus scale="   90.312">  5  6 -1 -1</clus>
<clus scale="   90.480">  2  7  1 -1</clus>
<clus scale="   90.480">  2  5  1 -1</clus>
</clustering>
</event>
<event>
 9    1  0.1434065E-005  0.2280232E+03  0.7546771E-02  0.1128297E+00
         -1   -1    0    0    0  501 -0.00000000000E+00  0.00000000000E+00  0.13065109806E+03  0.13065109806E+03  0.00000000000E+00 0.  1.
          1   -1    0    0  502    0  0.00000000000E+00 -0.00000000000E+00 -0.83832324172E+03  0.83832324172E+03  0.00000000000E+00 0. -1.
         23    2    1    2    0    0  0.19403665231E+01  0.23063423820E+03 -0.38834039317E+03  0.46145816159E+03  0.94548702145E+02 0.  0.
         23    2    1    2    0    0 -0.46471438963E+02 -0.18641536758E+03 -0.37009156642E+03  0.42680134780E+03  0.91001862802E+02 0.  0.
        -11    1    3    3    0    0 -0.12379561437E+02  0.16223298900E+03 -0.33865248158E+03  0.37571039318E+03  0.00000000000E+00 0. -1.
         11    1    3    3    0    0  0.14319927961E+02  0.68401249207E+02 -0.49687911589E+02  0.85747768413E+02  0.00000000000E+00 0.  1.
        -13    1    4    4    0    0 -0.48962920352E+02 -0.14943462325E+03 -0.35206062790E+03  0.38558366136E+03  0.00000000000E+00 0.  1.
         13    1    4    4    0    0  0.24914813886E+01 -0.36980744330E+02 -0.18030938527E+02  0.41217686433E+02  0.00000000000E+00 0. -1.
         21    1    1    2  502  501  0.44531072440E+02 -0.44218870622E+02  0.50759815939E+02  0.80714830396E+02  0.00000000000E+00 0.  1.
<scales pt_clust_5="13000.00000" pt_clust_6="13000.00000" pt_clust_7="13000.00000" pt_clust_8="13000.00000" pt_clust_9="62.75607"></scales>
<clustering>
<clus scale="   62.756">  1  9  2 -1</clus>
<clus scale="   91.002">  7  8 -1 -1</clus>
<clus scale="   94.549">  5  6 -1 -1</clus>
<clus scale="  226.576">  2  7  1 -1</clus>
<clus scale="  226.576">  2  5  1 -1</clus>
</clustering>
</event>
<event>
 9    1  0.1434065E-005  0.1675675E+03  0.7546771E-02  0.1180761E+00
         -1   -1    0    0    0  501 -0.00000000000E+00  0.00000000000E+00  0.81133260415E+03  0.81133260415E+03  0.00000000000E+00 0.  1.
          1   -1    0    0  502    0  0.00000000000E+00 -0.00000000000E+00 -0.64798295803E+02  0.64798295803E+02  0.00000000000E+00 0. -1.
         23    2    1    2    0    0  0.12972967702E+03  0.64417298374E+02  0.52945902459E+03  0.55644125717E+03  0.91217523187E+02 0.  0.
         23    2    1    2    0    0 -0.14051522593E+03 -0.15122665930E+02  0.10605199670E+03  0.19773695063E+03  0.88767403348E+02 0.  0.
        -11    1    4    4    0    0 -0.12990426459E+03  0.58550746431E+01  0.54342520488E+02  0.14093441521E+03  0.00000000000E+00 0. -1.
         11    1    4    4    0    0 -0.10610961342E+02 -0.20977740573E+02  0.51709476209E+02  0.56802535419E+02  0.00000000000E+00 0.  1.
        -11    1    3    3    0    0  0.11471017542E+03  0.85295829824E+02  0.47793880032E+03  0.49885799560E+03  0.00000000000E+00 0.  1.
         11    1    3    3    0    0  0.15019501602E+02 -0.20878531450E+02  0.51520224270E+02  0.57583261568E+02  0.00000000000E+00 0. -1.
         21    1    1    2  502  501  0.10785548912E+02 -0.49294632444E+02  0.11102328706E+03  0.12195269215E+03  0.00000000000E+00 0. -1.
<scales pt_clust_5="13000.00000" pt_clust_6="13000.00000" pt_clust_7="13000.00000" pt_clust_8="13000.00000" pt_clust_9="50.46077"></scales>
<clustering>
<clus scale="   50.461">  1  9  2 -1</clus>
<clus scale="   88.767">  5  6 -1 -1</clus>
<clus scale="   91.218">  7  8 -1 -1</clus>
<clus scale="  166.246">  2  5  1 -1</clus>
<clus scale="  166.246">  2  5  1 -1</clus>
</clustering>
</event>
<event>
 9    1  0.1434065E-005  0.1230849E+03  0.7546771E-02  0.1239109E+00
         -1   -1    0    0    0  501 -0.00000000000E+00  0.00000000000E+00  0.70709453008E+02  0.70709453008E+02  0.00000000000E+00 0.  1.
          1   -1    0    0  502    0  0.00000000000E+00 -0.00000000000E+00 -0.27580897195E+03  0.27580897195E+03  0.00000000000E+00 0. -1.
         23    2    1    2    0    0 -0.27137714757E+02  0.61829588597E+02 -0.70916964332E+02  0.13377993700E+03  0.91150985327E+02 0.  0.
         23    2    1    2    0    0  0.33096479809E+02 -0.81570233333E+02 -0.14084075943E+03  0.19106980948E+03  0.94458840965E+02 0.  0.
        -13    1    4    4    0    0  0.10466760600E+02 -0.49208048546E+02 -0.61188801345E+01  0.50679639040E+02  0.00000000000E+00 0.  1.
         13    1    4    4    0    0  0.22629719210E+02 -0.32362184788E+02 -0.13472187929E+03  0.14039017044E+03  0.00000000000E+00 0. -1.
        -13    1    3    3    0    0 -0.26554515029E+02 -0.14863895565E+02 -0.41885966904E+02  0.51773660130E+02  0.00000000000E+00 0.  1.
         13    1    3    3    0    0 -0.58319972767E+00  0.76693484162E+02 -0.29030997428E+02  0.82006276873E+02  0.00000000000E+00 0. -1.
         21    1    1    2  502  501 -0.59587650521E+01  0.19740644736E+02  0.66582048173E+01  0.21668678477E+02  0.00000000000E+00 0.  1.
<scales pt_clust_5="13000.00000" pt_clust_6="13000.00000" pt_clust_7="13000.00000" pt_clust_8="13000.00000" pt_clust_9="20.62038"></scales>
<clustering>
<clus scale="   20.620">  1  9  2 -1</clus>
<clus scale="   91.151">  7  8 -1 -1</clus>
<clus scale="   94.459">  5  6 -1 -1</clus>
<clus scale="  120.565">  1  7  2 -1</clus>
<clus scale="  123.085">  2  5  1 -1</clus>
</clustering>
</event>
<event>
 9    1  0.1434065E-005  0.1052250E+03  0.7546771E-02  0.1269900E+00
          1   -1    0    0  502    0  0.00000000000E+00  0.00000000000E+00  0.36561556099E+03  0.36561556099E+03  0.00000000000E+00 0. -1.
         -1   -1    0    0    0  501 -0.00000000000E+00 -0.00000000000E+00 -0.68878988220E+02  0.68878988220E+02  0.00000000000E+00 0.  1.
         23    2    1    2    0    0  0.12786555497E+02  0.17792490621E+02  0.75465170698E+00  0.93837710409E+02  0.91240767596E+02 0.  0.
         23    2    1    2    0    0 -0.76979816469E+01 -0.58187347104E+02  0.27294388626E+03  0.29387661796E+03  0.91760968029E+02 0.  0.
        -11    1    3    3    0    0 -0.25402584314E+02 -0.24634413957E+02 -0.74695357116E+01  0.36165447662E+02  0.00000000000E+00 0. -1.
         11    1    3    3    0    0  0.38189139811E+02  0.42426904578E+02  0.82241874186E+01  0.57672262746E+02  0.00000000000E+00 0.  1.
        -13    1    4    4    0    0  0.11566535721E+00 -0.78924934563E+02  0.24919154828E+03  0.26139163416E+03  0.00000000000E+00 0. -1.
         13    1    4    4    0    0 -0.78136470041E+01  0.20737587460E+02  0.23752337981E+02  0.32484983803E+02  0.00000000000E+00 0.  1.
         21    1    1    2  502  501 -0.50885738497E+01  0.40394856483E+02  0.23038034799E+02  0.46780220836E+02  0.00000000000E+00 0.  1.
<scales pt_clust_5="13000.00000" pt_clust_6="13000.00000" pt_clust_7="13000.00000" pt_clust_8="13000.00000" pt_clust_9="40.71410"></scales>
<clustering>
<clus scale="   40.714">  2  9  1 -1</clus>
<clus scale="   91.241">  5  6 -1 -1</clus>
<clus scale="   91.761">  7  8 -1 -1</clus>
<clus scale="  104.772">  2  5  1 -1</clus>
<clus scale="  105.225">  1  5  2 -1</clus>
</clustering>
</event>
<event>
 9    1  0.1434065E-005  0.1116433E+03  0.7546771E-02  0.1260174E+00
          1   -1    0    0  502    0  0.00000000000E+00  0.00000000000E+00  0.42255237606E+02  0.42255237606E+02  0.00000000000E+00 0. -1.
         -1   -1    0    0    0  501 -0.00000000000E+00 -0.00000000000E+00 -0.83654088001E+03  0.83654088001E+03  0.00000000000E+00 0.  1.
         23    2    1    2    0    0  0.18775632559E+02  0.11192385678E+02 -0.40146943714E+03  0.41187553610E+03  0.89364167364E+02 0.  0.
         23    2    1    2    0    0 -0.63867991316E+02 -0.14666183525E+02 -0.59485090115E+02  0.13053535530E+03  0.95951997281E+02 0.  0.
        -13    1    4    4    0    0  0.24090148420E+02 -0.15739364279E+01 -0.11237380276E+01  0.24167650153E+02  0.00000000000E+00 0.  1.
         13    1    4    4    0    0 -0.87958139736E+02 -0.13092247097E+02 -0.58361352087E+02  0.10636770514E+03  0.00000000000E+00 0. -1.
        -13    1    3    3    0    0 -0.10710276949E+01 -0.37861595385E+02 -0.20112529357E+03  0.20466077108E+03  0.00000000000E+00 0.  1.
         13    1    3    3    0    0  0.19846660254E+02  0.49053981063E+02 -0.20034414357E+03  0.20721476502E+03  0.00000000000E+00 0. -1.
         21    1    1    2  502  501  0.45092358756E+02  0.34737978465E+01 -0.33333111515E+03  0.33638522622E+03  0.00000000000E+00 0.  1.
<scales pt_clust_5="13000.00000" pt_clust_6="13000.00000" pt_clust_7="13000.00000" pt_clust_8="13000.00000" pt_clust_9="45.22597"></scales>
<clustering>
<clus scale="   45.226">  2  9  1 -1</clus>
<clus scale="   89.364">  7  8 -1 -1</clus>
<clus scale="   95.952">  5  6 -1 -1</clus>
<clus scale="  106.035">  2  7  1 -1</clus>
<clus scale="  111.643">  1  5  2 -1</clus>
</clustering>
</event>
<event>
 9    1  0.1434065E-005  0.3141961E+03  0.7546771E-02  0.1078478E+00
         -1   -1    0    0    0  501 -0.00000000000E+00  0.00000000000E+00  0.43456043470E+03  0.43456043470E+03  0.00000000000E+00 0.  1.
          1   -1    0    0  502    0  0.00000000000E+00 -0.00000000000E+00 -0.56562131903E+03  0.56562131903E+03  0.00000000000E+00 0. -1.
         23    2    1    2    0    0 -0.12293995370E+03 -0.30218320059E+03  0.66547421744E+02  0.34600080907E+03  0.94122694421E+02 0.  0.
         23    2    1    2    0    0  0.11538072826E+03  0.26897963615E+03 -0.36891103005E+03  0.47952630882E+03  0.90484118173E+02 0.  0.
        -11    1    4    4    0    0  0.66421560524E+02  0.23865561452E+03 -0.28311982304E+03  0.37619829910E+03  0.00000000000E+00 0. -1.
         11    1    4    4    0    0  0.48959167737E+02  0.30324021628E+02 -0.85791207014E+02  0.10332800973E+03  0.00000000000E+00 0.  1.
        -13    1    3    3    0    0 -0.10497413373E+03 -0.14767059775E+03  0.57901484175E+02  0.19020713988E+03  0.00000000000E+00 0.  1.
         13    1    3    3    0    0 -0.17965819964E+02 -0.15451260284E+03  0.86459375689E+01  0.15579366919E+03  0.00000000000E+00 0. -1.
         21    1    1    2  502  501  0.75592254359E+01  0.33203564435E+02  0.17130272397E+03  0.17465463584E+03  0.00000000000E+00 0. -1.
<scales pt_clust_5="13000.00000" pt_clust_6="13000.00000" pt_clust_7="13000.00000" pt_clust_8="13000.00000" pt_clust_9="34.05317"></scales>
<clustering>
<clus scale="   34.053">  1  9  2 -1</clus>
<clus scale="   90.484">  5  6 -1 -1</clus>
<clus scale="   94.123">  7  8 -1 -1</clus>
<clus scale="  313.125">  2  5  1 -1</clus>
<clus scale="  313.125">  2  5  1 -1</clus>
</clustering>
</event>
<event>
 9    1  0.1434065E-005  0.1446341E+03  0.7546771E-02  0.1209231E+00
         -1   -1    0    0    0  501 -0.00000000000E+00  0.00000000000E+00  0.28174517200E+03  0.28174517200E+03  0.00000000000E+00 0.  1.
          1   -1    0    0  502    0  0.00000000000E+00 -0.00000000000E+00 -0.38446870500E+03  0.38446870500E+03  0.00000000000E+00 0. -1.
         23    2    1    2    0    0  0.59904651171E+02  0.12300819064E+03  0.16306448028E+03  0.23161241331E+03  0.91294594993E+02 0.  0.
         23    2    1    2    0    0 -0.48698739199E+02 -0.99179416088E+02 -0.33421808123E+03  0.36127986278E+03  0.81322135070E+02 0.  0.
        -11    1    4    4    0    0  0.19613516808E+02 -0.25673068633E+02 -0.46972596504E+02  0.57010712299E+02  0.00000000000E+00 0.  1.
         11    1    4    4    0    0 -0.68312256006E+02 -0.73506347455E+02 -0.28724548473E+03  0.30426915048E+03  0.00000000000E+00 0. -1.
        -11    1    3    3    0    0  0.45163793068E+02  0.31570483269E+02  0.15245041534E+02  0.57174075502E+02  0.00000000000E+00 0.  1.
         11    1    3    3    0    0  0.14740858103E+02  0.91437707368E+02  0.14781943875E+03  0.17443833781E+03  0.00000000000E+00 0. -1.
         21    1    1    2  502  501 -0.11205911972E+02 -0.23828774549E+02  0.68430067948E+02  0.73321600903E+02  0.00000000000E+00 0.  1.
<scales pt_clust_5="13000.00000" pt_clust_6="13000.00000" pt_clust_7="13000.00000" pt_clust_8="13000.00000" pt_clust_9="26.33217"></scales>
<clustering>
<clus scale="   26.332">  1  9  2 -1</clus>
<clus scale="   81.322">  5  6 -1 -1</clus>
<clus scale="   91.295">  7  8 -1 -1</clus>
<clus scale="  138.555">  2  5  1 -1</clus>
<clus scale="  138.555">  2  5  1 -1</clus>
</clustering>
</event>
<event>
 9    1  0.1434065E-005  0.1277295E+03  0.7546771E-02  0.1232860E+00
          1   -1    0    0  502    0  0.00000000000E+00  0.00000000000E+00  0.14480882101E+03  0.14480882101E+03  0.00000000000E+00 0. -1.
         -1   -1    0    0    0  501 -0.00000000000E+00 -0.00000000000E+00 -0.26187329447E+03  0.26187329447E+03  0.00000000000E+00 0.  1.
         23    2    1    2    0    0  0.49311431268E+02 -0.62072852616E+02 -0.33508136154E+02  0.12401093367E+03  0.89281914160E+02 0.  0.
         23    2    1    2    0    0 -0.68745799247E+02  0.53908119664E+02  0.56012768199E+02  0.14151916186E+03  0.96219398726E+02 0.  0.
        -11    1    4    4    0    0 -0.26188666955E+02 -0.97737800784E+01 -0.19404801874E+02  0.34028214611E+02  0.00000000000E+00 0.  1.
         11    1    4    4    0    0 -0.42557132293E+02  0.63681899742E+02  0.75417570073E+02  0.10749094724E+03  0.00000000000E+00 0. -1.
        -13    1    3    3    0    0  0.25433003563E+02 -0.10736555128E+02 -0.56514866085E+02  0.62897069684E+02  0.00000000000E+00 0.  1.
         13    1    3    3    0    0  0.23878427705E+02 -0.51336297488E+02  0.23006729931E+02  0.61113863988E+02  0.00000000000E+00 0. -1.
         21    1    1    2  502  501  0.19434367979E+02  0.81647329518E+01 -0.13956910551E+03  0.14115201995E+03  0.00000000000E+00 0.  1.
<scales pt_clust_5="13000.00000" pt_clust_6="13000.00000" pt_clust_7="13000.00000" pt_clust_8="13000.00000" pt_clust_9="21.07979"></scales>
<clustering>
<clus scale="   21.080">  2  9  1 -1</clus>
<clus scale="   89.282">  7  8 -1 -1</clus>
<clus scale="   96.219">  5  6 -1 -1</clus>
<clus scale="  122.588">  2  7  1 -1</clus>
<clus scale="  127.730">  1  5  2 -1</clus>
</clustering>
</event>
<event>
 9    1  0.1434065E-005  0.1482689E+03  0.7546771E-02  0.1206904E+00
         -1   -1    0    0    0  501 -0.00000000000E+00  0.00000000000E+00  0.59153815545E+02  0.59153815545E+02  0.00000000000E+00 0.  1.
          1   -1    0    0  502    0  0.00000000000E+00 -0.00000000000E+00 -0.10544624132E+04  0.10544624132E+04  0.00000000000E+00 0. -1.
         23    2    1    2    0    0 -0.61988448910E+02 -0.77471320178E+02 -0.15974261309E+03  0.20926746328E+03  0.91819363446E+02 0.  0.
         23    2    1    2    0    0 -0.10174451903E+03  0.11910280189E+02 -0.56452320631E+03  0.58097448944E+03  0.91384380400E+02 0.  0.
        -11    1    4    4    0    0 -0.99816876461E+02 -0.17928917079E+02 -0.49519314916E+03  0.50547117611E+03  0.00000000000E+00 0.  1.
         11    1    4    4    0    0 -0.19276425680E+01  0.29839197268E+02 -0.69330057150E+02  0.75503313330E+02  0.00000000000E+00 0. -1.
        -11    1    3    3    0    0  0.14808746806E+02 -0.42138006877E+02 -0.86778477105E+02  0.97598231000E+02  0.00000000000E+00 0. -1.
         11    1    3    3    0    0 -0.76797195716E+02 -0.35333313301E+02 -0.72964135982E+02  0.11166923228E+03  0.00000000000E+00 0.  1.
         21    1    1    2  502  501  0.16373296794E+03  0.65561039989E+02 -0.27104277827E+03  0.32337427604E+03  0.00000000000E+00 0. -1.
<scales pt_clust_5="13000.00000" pt_clust_6="13000.00000" pt_clust_7="13000.00000" pt_clust_8="13000.00000" pt_clust_9="116.75852"></scales>
<clustering>
<clus scale="   91.384">  5  6 -1 -1</clus>
<clus scale="   91.819">  7  8 -1 -1</clus>
<clus scale="  135.186">  1  7  2 -1</clus>
<clus scale="  116.759">  1  9  2 -1</clus>
<clus scale="  148.269">  2  5  1 -1</clus>
</clustering>
</event>
<event>
 9    1  0.1434065E-005  0.1071906E+03  0.7546771E-02  0.1267754E+00
          2   -1    0    0  502    0  0.00000000000E+00  0.00000000000E+00  0.13571046053E+03  0.13571046053E+03  0.00000000000E+00 0. -1.
         -2   -1    0    0    0  501 -0.00000000000E+00 -0.00000000000E+00 -0.14076817542E+03  0.14076817542E+03  0.00000000000E+00 0.  1.
         23    2    1    2    0    0  0.19347045685E+01 -0.42110234115E+02 -0.45564739993E+02  0.11024717660E+03  0.91111357790E+02 0.  0.
         23    2    1    2    0    0  0.32057305923E+02  0.43942099357E+02  0.61808896616E+02  0.12607448938E+03  0.95477003580E+02 0.  0.
        -13    1    3    3    0    0  0.16855158892E+02  0.20037825249E+02 -0.37628558778E+02  0.45842330413E+02  0.00000000000E+00 0. -1.
         13    1    3    3    0    0 -0.14920454324E+02 -0.62148059364E+02 -0.79361812159E+01  0.64404846186E+02  0.00000000000E+00 0.  1.
        -13    1    4    4    0    0  0.54484988173E+02  0.56652919743E+02  0.62290297970E+02  0.10029081948E+03  0.00000000000E+00 0. -1.
         13    1    4    4    0    0 -0.22427682251E+02 -0.12710820386E+02 -0.48140135442E+00  0.25783669895E+02  0.00000000000E+00 0.  1.
         21    1    1    2  502  501 -0.33992010491E+02 -0.18318652425E+01 -0.21301871506E+02  0.40156969970E+02  0.00000000000E+00 0. -1.
<scales pt_clust_5="13000.00000" pt_clust_6="13000.00000" pt_clust_7="13000.00000" pt_clust_8="13000.00000" pt_clust_9="34.04134"></scales>
<clustering>
<clus scale="   34.041">  2  9  1 -1</clus>
<clus scale="   91.111">  5  6 -1 -1</clus>
<clus scale="   95.477">  7  8 -1 -1</clus>
<clus scale="  103.321">  2  5  1 -1</clus>
<clus scale="  107.191">  1  5  2 -1</clus>
</clustering>
</event>
<event>
 9    1  0.1434065E-005  0.1181026E+03  0.7546771E-02  0.1248764E+00
         -1   -1    0    0    0  501 -0.00000000000E+00  0.00000000000E+00  0.30665102710E+02  0.30665102710E+02  0.00000000000E+00 0.  1.
          1   -1    0    0  502    0  0.00000000000E+00 -0.00000000000E+00 -0.74992873448E+03  0.74992873448E+03  0.00000000000E+00 0. -1.
         23    2    1    2    0    0 -0.66202994117E+02 -0.18941099330E+02 -0.34502950648E+03  0.36567711220E+03  0.99663375261E+02 0.  0.
         23    2    1    2    0    0  0.45280779219E+02  0.42741449766E+02 -0.36529395914E+03  0.38199071206E+03  0.92736438472E+02 0.  0.
        -11    1    3    3    0    0  0.19096561183E+02  0.19256429713E+02 -0.63824237742E+02  0.69347112828E+02  0.00000000000E+00 0.  1.
         11    1    3    3    0    0 -0.85299555300E+02 -0.38197529043E+02 -0.28120526874E+03  0.29632999937E+03  0.00000000000E+00 0. -1.
        -13    1    4    4    0    0  0.30299810756E+02  0.71666198778E+02 -0.22897765704E+03  0.24183649435E+03  0.00000000000E+00 0. -1.
         13    1    4    4    0    0  0.14980968463E+02 -0.28924749013E+02 -0.13631630210E+03  0.14015421771E+03  0.00000000000E+00 0.  1.
         21    1    1    2  502  501  0.20922214898E+02 -0.23800350436E+02 -0.89401661531E+01  0.32926012937E+02  0.00000000000E+00 0. -1.
<scales pt_clust_5="13000.00000" pt_clust_6="13000.00000" pt_clust_7="13000.00000" pt_clust_8="13000.00000" pt_clust_9="31.68905"></scales>
<clustering>
<clus scale="   31.689">  1  9  2 -1</clus>
<clus scale="   92.736">  7  8 -1 -1</clus>
<clus scale="   99.663">  5  6 -1 -1</clus>
<clus scale="  112.319">  2  7  1 -1</clus>
<clus scale="  112.319">  2  5  1 -1</clus>
</clustering>
</event>
<event>
 9    1  0.1434065E-005  0.1080784E+03  0.7546771E-02  0.1264388E+00
         -2   -1    0    0    0  501 -0.00000000000E+00  0.00000000000E+00  0.39031062646E+03  0.39031062646E+03  0.00000000000E+00 0.  1.
          2   -1    0    0  502    0  0.00000000000E+00 -0.00000000000E+00 -0.48176355297E+03  0.48176355297E+03  0.00000000000E+00 0. -1.
         23    2    1    2    0    0 -0.12153203919E+03 -0.18463249990E+01  0.63297810132E+02  0.16525765213E+03  0.92358179678E+02 0.  0.
         23    2    1    2    0    0  0.43018974105E+02 -0.32019176299E+02 -0.41733108903E+03  0.43066509234E+03  0.91822241923E+02 0.  0.
        -11    1    3    3    0    0 -0.19770456731E+02 -0.32929091124E+01  0.60188915496E+02  0.63438314593E+02  0.00000000000E+00 0.  1.
         11    1    3    3    0    0 -0.10176158246E+03  0.14465841134E+01  0.31088946357E+01  0.10181933754E+03  0.00000000000E+00 0. -1.
        -13    1    4    4    0    0  0.47808185375E+02  0.19011400295E+02 -0.15324520155E+03  0.16165131527E+03  0.00000000000E+00 0.  1.
         13    1    4    4    0    0 -0.47892112693E+01 -0.51030576594E+02 -0.26408588747E+03  0.26901377707E+03  0.00000000000E+00 0. -1.
         21    1    1    2  502  501  0.78513065086E+02  0.33865501298E+02  0.26258035239E+03  0.27615143496E+03  0.00000000000E+00 0.  1.
<scales pt_clust_5="13000.00000" pt_clust_6="13000.00000" pt_clust_7="13000.00000" pt_clust_8="13000.00000" pt_clust_9="85.50540"></scales>
<clustering>
<clus scale="   85.505">  1  9  2 -1</clus>
<clus scale="   91.822">  7  8 -1 -1</clus>
<clus scale="   92.358">  5  6 -1 -1</clus>
<clus scale="  107.621">  2  7  1 -1</clus>
<clus scale="  107.621">  2  5  1 -1</clus>
</clustering>
</event>
<event>
 9    1  0.1434065E-005  0.1062580E+03  0.7546771E-02  0.1267922E+00
          1   -1    0    0  502    0  0.00000000000E+00  0.00000000000E+00  0.38701790507E+03  0.38701790507E+03  0.00000000000E+00 0. -1.
         -1   -1    0    0    0  501 -0.00000000000E+00 -0.00000000000E+00 -0.48623742340E+02  0.48623742340E+02  0.00000000000E+00 0.  1.
         23    2    1    2    0    0  0.26353148080E+02  0.32414653941E+02  0.68073559297E+02  0.12128734145E+03  0.91276566087E+02 0.  0.
         23    2    1    2    0    0 -0.26308943716E+02 -0.53555507903E+02  0.27229124839E+03  0.29312175779E+03  0.90650361222E+02 0.  0.
        -11    1    4    4    0    0 -0.52218234198E+02 -0.31758476642E+02  0.23471350229E+03  0.24254025022E+03  0.00000000000E+00 0. -1.
         11    1    4    4    0    0  0.25909290482E+02 -0.21797031261E+02  0.37577746103E+02  0.50581507562E+02  0.00000000000E+00 0.  1.
        -13    1    3    3    0    0  0.18445393344E+02  0.58002884904E+02  0.71933414371E+02  0.94228357175E+02  0.00000000000E+00 0.  1.
         13    1    3    3    0    0  0.79077547362E+01 -0.25588230963E+02 -0.38598550740E+01  0.27058984275E+02  0.00000000000E+00 0. -1.
         21    1    1    2  502  501 -0.44204363621E-01  0.21140853962E+02 -0.19706449637E+01  0.21232548171E+02  0.00000000000E+00 0.  1.
<scales pt_clust_5="13000.00000" pt_clust_6="13000.00000" pt_clust_7="13000.00000" pt_clust_8="13000.00000" pt_clust_9="21.14090"></scales>
<clustering>
<clus scale="   21.141">  2  9  1 -1</clus>
<clus scale="   90.650">  5  6 -1 -1</clus>
<clus scale="   91.277">  7  8 -1 -1</clus>
<clus scale="  105.721">  1  5  2 -1</clus>
<clus scale="  105.721">  1  5  2 -1</clus>
</clustering>
</event>
<event>
 9    1  0.1434065E-005  0.1185363E+03  0.7546771E-02  0.1245965E+00
         -1   -1    0    0    0  501 -0.00000000000E+00  0.00000000000E+00  0.80317838511E+02  0.80317838511E+02  0.00000000000E+00 0.  1.
          1   -1    0    0  502    0  0.00000000000E+00 -0.00000000000E+00 -0.39742923167E+03  0.39742923167E+03  0.00000000000E+00 0. -1.
         23    2    1    2    0    0 -0.59181088921E+02 -0.70836321507E+01 -0.23981805519E+02  0.11240211636E+03  0.92230849698E+02 0.  0.
         23    2    1    2    0    0  0.69634062040E+02  0.37742142019E+02 -0.30721218105E+03  0.33002458701E+03  0.90903971111E+02 0.  0.
        -11    1    3    3    0    0 -0.61763530129E+02 -0.38839837440E+02 -0.73954768418E+00  0.72964467771E+02  0.00000000000E+00 0.  1.
         11    1    3    3    0    0  0.25824412075E+01  0.31756205290E+02 -0.23242257835E+02  0.39437648589E+02  0.00000000000E+00 0. -1.
        -13    1    4    4    0    0  0.21236374348E+02 -0.29662404122E+02 -0.74315193802E+02  0.82786410984E+02  0.00000000000E+00 0.  1.
         13    1    4    4    0    0  0.48397687692E+02  0.67404546141E+02 -0.23289698725E+03  0.24723817602E+03  0.00000000000E+00 0. -1.
         21    1    1    2  502  501 -0.10452973119E+02 -0.30658509868E+02  0.14082593413E+02  0.35320366810E+02  0.00000000000E+00 0.  1.
<scales pt_clust_5="13000.00000" pt_clust_6="13000.00000" pt_clust_7="13000.00000" pt_clust_8="13000.00000" pt_clust_9="32.39149"></scales>
<clustering>
<clus scale="   32.391">  1  9  2 -1</clus>
<clus scale="   90.904">  7  8 -1 -1</clus>
<clus scale="   92.231">  5  6 -1 -1</clus>
<clus scale="  117.507">  2  7  1 -1</clus>
<clus scale="  117.507">  2  5  1 -1</clus>
</clustering>
</event>
<event>
 9    1  0.1434065E-005  0.1081120E+03  0.7546771E-02  0.1264431E+00
          1   -1    0    0  502    0  0.00000000000E+00  0.00000000000E+00  0.35197537545E+03  0.35197537545E+03  0.00000000000E+00 0. -1.
         -1   -1    0    0    0  501 -0.00000000000E+00 -0.00000000000E+00 -0.49138354203E+02  0.49138354203E+02  0.00000000000E+00 0.  1.
         23    2    1    2    0    0  0.48521619009E+01  0.37038554491E+02  0.76816762111E+02  0.12774981027E+03  0.94993689732E+02 0.  0.
         23    2    1    2    0    0  0.19336341056E+02 -0.57975517897E+02  0.20867106273E+03  0.23697113538E+03  0.94215984950E+02 0.  0.
        -13    1    4    4    0    0 -0.29302737206E+02 -0.39175857312E+02  0.50007362232E+02  0.69958090893E+02  0.00000000000E+00 0.  1.
         13    1    4    4    0    0  0.48639078262E+02 -0.18799660584E+02  0.15866370050E+03  0.16701304448E+03  0.00000000000E+00 0. -1.
        -13    1    3    3    0    0  0.37834129759E+02 -0.86619052975E+01  0.54998668163E+02  0.67314957311E+02  0.00000000000E+00 0. -1.
         13    1    3    3    0    0 -0.32981967858E+02  0.45700459789E+02  0.21818093948E+02  0.60434852959E+02  0.00000000000E+00 0.  1.
         21    1    1    2  502  501 -0.24188502957E+02  0.20936963405E+02  0.17349196411E+02  0.36392784010E+02  0.00000000000E+00 0.  1.
<scales pt_clust_5="13000.00000" pt_clust_6="13000.00000" pt_clust_7="13000.00000" pt_clust_8="13000.00000" pt_clust_9="31.99125"></scales>
<clustering>
<clus scale="   31.991">  2  9  1 -1</clus>
<clus scale="   94.216">  5  6 -1 -1</clus>
<clus scale="   94.994">  7  8 -1 -1</clus>
<clus scale="  107.429">  1  5  2 -1</clus>
<clus scale="  107.429">  1  5  2 -1</clus>
</clustering>
</event>
<event>
 9    1  0.1434065E-005  0.1077540E+03  0.7546771E-02  0.1275932E+00
         -1   -1    0    0    0  501 -0.00000000000E+00  0.00000000000E+00  0.90875492284E+02  0.90875492284E+02  0.00000000000E+00 0.  1.
          1   -1    0    0  502    0  0.00000000000E+00 -0.00000000000E+00 -0.33947849889E+03  0.33947849889E+03  0.00000000000E+00 0. -1.
         23    2    1    2    0    0 -0.24760919221E+02 -0.85880046264E+01  0.32568941879E+02  0.11254530844E+03  0.10449331812E+03 0.  0.
         23    2    1    2    0    0 -0.55669491936E+01  0.27861998502E+02 -0.26370788236E+03  0.27785545949E+03  0.82792072475E+02 0.  0.
        -13    1    4    4    0    0 -0.33151472226E+02 -0.13994498685E+01 -0.47512242873E+02  0.57951633226E+02  0.00000000000E+00 0.  1.
         13    1    4    4    0    0  0.27584523033E+02  0.29261448371E+02 -0.21619563948E+03  0.21990382626E+03  0.00000000000E+00 0. -1.
        -13    1    3    3    0    0 -0.14710669499E+02 -0.54296944698E+02  0.33984758286E+02  0.65723099412E+02  0.00000000000E+00 0.  1.
         13    1    3    3    0    0 -0.10050249722E+02  0.45708940071E+02 -0.14158164068E+01  0.46822209025E+02  0.00000000000E+00 0. -1.
         21    1    1    2  502  501  0.30327868414E+02 -0.19273993876E+02 -0.17464066129E+02  0.39953223252E+02  0.00000000000E+00 0.  1.
<scales pt_clust_5="13000.00000" pt_clust_6="13000.00000" pt_clust_7="13000.00000" pt_clust_8="13000.00000" pt_clust_9="35.93420"></scales>
<clustering>
<clus scale="   35.934">  1  9  2 -1</clus>
<clus scale="   82.792">  5  6 -1 -1</clus>
<clus scale="   86.871">  2  5  1 -1</clus>
<clus scale="  104.493">  7  8 -1 -1</clus>
<clus scale="   86.871">  2  5  1 -1</clus>
</clustering>
</event>
<event>
 9    1  0.1434065E-005  0.1098235E+03  0.7546771E-02  0.1262040E+00
         -2   -1    0    0    0  501 -0.00000000000E+00  0.00000000000E+00  0.60501374399E+02  0.60501374399E+02  0.00000000000E+00 0.  1.
          2   -1    0    0  502    0  0.00000000000E+00 -0.00000000000E+00 -0.86190361503E+03  0.86190361503E+03  0.00000000000E+00 0. -1.
         23    2    1    2    0    0 -0.87232019147E+01  0.37743010114E+02 -0.27033342223E+03  0.28840105672E+03  0.92705885878E+02 0.  0.
         23    2    1    2    0    0  0.61349658649E+02 -0.47041324934E+02 -0.56057132823E+03  0.57295968078E+03  0.89810438673E+02 0.  0.
        -11    1    3    3    0    0  0.22813528344E+02 -0.22094901270E+02 -0.67762718952E+02  0.74836006156E+02  0.00000000000E+00 0.  1.
         11    1    3    3    0    0 -0.31536730259E+02  0.59837911383E+02 -0.20257070328E+03  0.21356505056E+03  0.00000000000E+00 0. -1.
        -11    1    4    4    0    0  0.59480696112E+02  0.80080868275E+01 -0.35972712167E+03  0.36469944438E+03  0.00000000000E+00 0.  1.
         11    1    4    4    0    0  0.18689625364E+01 -0.55049411761E+02 -0.20084420656E+03  0.20826023640E+03  0.00000000000E+00 0. -1.
         21    1    1    2  502  501 -0.52626456734E+02  0.92983148201E+01  0.29502509836E+02  0.61044251929E+02  0.00000000000E+00 0.  1.
<scales pt_clust_5="13000.00000" pt_clust_6="13000.00000" pt_clust_7="13000.00000" pt_clust_8="13000.00000" pt_clust_9="53.44158"></scales>
<clustering>
<clus scale="   53.442">  1  9  2 -1</clus>
<clus scale="   89.810">  7  8 -1 -1</clus>
<clus scale="   92.706">  5  6 -1 -1</clus>
<clus scale="  107.391">  2  7  1 -1</clus>
<clus scale="  107.391">  2  5  1 -1</clus>
</clustering>
</event>
<event>
 9    1  0.3150657E-005  0.1245398E+03  0.7546771E-02  0.1235806E+00
          2   -1    0    0  502    0  0.00000000000E+00  0.00000000000E+00  0.31202401074E+03  0.31202401074E+03  0.00000000000E+00 0. -1.
         -2   -1    0    0    0  501 -0.00000000000E+00 -0.00000000000E+00 -0.25404208527E+03  0.25404208527E+03  0.00000000000E+00 0.  1.
         23    2    1    2    0    0  0.27000236989E+02  0.46672129908E+02 -0.18226166771E+03  0.21554409060E+03  0.10164958912E+03 0.  0.
         23    2    1    2    0    0 -0.11562205453E+02 -0.72499691167E+02  0.27639243945E+03  0.30348866803E+03  0.10160069501E+03 0.  0.
        -11    1    3    3    0    0 -0.33277272545E+02  0.32289636980E+01 -0.25442787875E+02  0.42013551736E+02  0.00000000000E+00 0. -1.
         11    1    3    3    0    0  0.60277509534E+02  0.43443166210E+02 -0.15681887983E+03  0.17353053886E+03  0.00000000000E+00 0.  1.
        -13    1    4    4    0    0 -0.33445064262E+02  0.73014532287E+01  0.13855232396E+03  0.14271870941E+03  0.00000000000E+00 0.  1.
         13    1    4    4    0    0  0.21882858809E+02 -0.79801144396E+02  0.13784011549E+03  0.16076995862E+03  0.00000000000E+00 0. -1.
         21    1    1    2  502  501 -0.15438031537E+02  0.25827561259E+02 -0.36148846265E+02  0.47033337375E+02  0.00000000000E+00 0. -1.
<scales pt_clust_5="13000.00000" pt_clust_6="13000.00000" pt_clust_7="13000.00000" pt_clust_8="13000.00000" pt_clust_9="30.08979"></scales>
<clustering>
<clus scale="   30.090">  2  9  1 -1</clus>
<clus scale="  101.601">  7  8 -1 -1</clus>
<clus scale="  101.650">  5  6 -1 -1</clus>
<clus scale="  124.500">  1  7  2 -1</clus>
<clus scale="  124.500">  1  5  2 -1</clus>
</clustering>
</event>
<event>
 9    1  0.1434065E-005  0.1883984E+03  0.7546771E-02  0.1160729E+00
          4   -1    0    0  502    0  0.00000000000E+00  0.00000000000E+00  0.26210104563E+03  0.26210104563E+03  0.00000000000E+00 0. -1.
         -4   -1    0    0    0  501 -0.00000000000E+00 -0.00000000000E+00 -0.52128440409E+03  0.52128440409E+03  0.00000000000E+00 0.  1.
         23    2    1    2    0    0 -0.12989302889E+03  0.48744723966E+02 -0.41947249514E+03  0.45089299336E+03  0.89994834400E+02 0.  0.
         23    2    1    2    0    0  0.14876101912E+03 -0.67699824791E+02  0.20551703551E+03  0.27994857246E+03  0.97061033656E+02 0.  0.
        -11    1    3    3    0    0 -0.12215498164E+03  0.71262778331E+02 -0.36524072950E+03  0.39166441452E+03  0.00000000000E+00 0.  1.
         11    1    3    3    0    0 -0.77380472429E+01 -0.22518054365E+02 -0.54231765636E+02  0.59228578841E+02  0.00000000000E+00 0. -1.
        -13    1    4    4    0    0  0.46755717495E+02  0.23152651343E+02  0.72169390841E+02  0.89053710518E+02  0.00000000000E+00 0.  1.
         13    1    4    4    0    0  0.10200530162E+03 -0.90852476133E+02  0.13334764467E+03  0.19089486194E+03  0.00000000000E+00 0. -1.
         21    1    1    2  502  501 -0.18867990232E+02  0.18955100825E+02 -0.45227898822E+02  0.52543883892E+02  0.00000000000E+00 0. -1.
<scales pt_clust_5="13000.00000" pt_clust_6="13000.00000" pt_clust_7="13000.00000" pt_clust_8="13000.00000" pt_clust_9="26.74504"></scales>
<clustering>
<clus scale="   26.745">  2  9  1 -1</clus>
<clus scale="   89.995">  5  6 -1 -1</clus>
<clus scale="   97.061">  7  8 -1 -1</clus>
<clus scale="  184.857">  2  5  1 -1</clus>
<clus scale="  188.398">  1  5  2 -1</clus>
</clustering>
</event>
<event>
 9    1  0.1434065E-005  0.1325524E+03  0.7546771E-02  0.1224102E+00
          1   -1    0    0  502    0  0.00000000000E+00  0.00000000000E+00  0.14566916807E+03  0.14566916807E+03  0.00000000000E+00 0. -1.
         -1   -1    0    0    0  501 -0.00000000000E+00 -0.00000000000E+00 -0.78419445226E+03  0.78419445226E+03  0.00000000000E+00 0.  1.
         23    2    1    2    0    0  0.65452429749E+02  0.70158541675E+02 -0.37540660837E+03  0.39817902779E+03  0.91707006438E+02 0.  0.
         23    2    1    2    0    0 -0.91407264413E+02 -0.26498077865E+02  0.99027598663E+02  0.16599372082E+03  0.93220244251E+02 0.  0.
        -11    1    3    3    0    0  0.33980011822E+02  0.14570160632E+02 -0.32047274781E+02  0.48928096276E+02  0.00000000000E+00 0. -1.
         11    1    3    3    0    0  0.31472417927E+02  0.55588381043E+02 -0.34335933359E+03  0.34925093151E+03  0.00000000000E+00 0.  1.
        -11    1    4    4    0    0 -0.66118546047E+02 -0.16231597618E+02  0.52033518574E+01  0.68280317538E+02  0.00000000000E+00 0.  1.
         11    1    4    4    0    0 -0.25288718367E+02 -0.10266480247E+02  0.93824246805E+02  0.97713403287E+02  0.00000000000E+00 0. -1.
         21    1    1    2  502  501  0.25954834664E+02 -0.43660463811E+02 -0.36214627448E+03  0.36569087172E+03  0.00000000000E+00 0.  1.
<scales pt_clust_5="13000.00000" pt_clust_6="13000.00000" pt_clust_7="13000.00000" pt_clust_8="13000.00000" pt_clust_9="50.79261"></scales>
<clustering>
<clus scale="   50.793">  2  9  1 -1</clus>
<clus scale="   91.707">  5  6 -1 -1</clus>
<clus scale="   93.220">  7  8 -1 -1</clus>
<clus scale="  131.493">  2  5  1 -1</clus>
<clus scale="  132.552">  1  5  2 -1</clus>
</clustering>
</event>
<event>
 9    1  0.1434065E-005  0.1051789E+03  0.7546771E-02  0.1270427E+00
         -3   -1    0    0    0  501 -0.00000000000E+00  0.00000000000E+00  0.75747171409E+02  0.75747171409E+02  0.00000000000E+00 0.  1.
          3   -1    0    0  502    0  0.00000000000E+00 -0.00000000000E+00 -0.29925726802E+03  0.29925726802E+03  0.00000000000E+00 0. -1.
         23    2    1    2    0    0 -0.18025874397E+02  0.24169532764E+01 -0.59518384887E+02  0.10966757821E+03  0.90298204633E+02 0.  0.
         23    2    1    2    0    0  0.75181083375E+02 -0.13117283586E+02 -0.16905417191E+03  0.20696868937E+03  0.91828464622E+02 0.  0.
        -11    1    4    4    0    0  0.54216143979E+02  0.35505833316E+02 -0.10983136418E+03  0.12752640128E+03  0.00000000000E+00 0. -1.
         11    1    4    4    0    0  0.20964939396E+02 -0.48623116902E+02 -0.59222807730E+02  0.79442288087E+02  0.00000000000E+00 0.  1.
        -13    1    3    3    0    0 -0.38631044185E+02  0.27593096690E+02 -0.71392614114E+01  0.48007349575E+02  0.00000000000E+00 0. -1.
         13    1    3    3    0    0  0.20605169788E+02 -0.25176143414E+02 -0.52379123476E+02  0.61660228635E+02  0.00000000000E+00 0.  1.
         21    1    1    2  502  501 -0.57155208978E+02  0.10700330309E+02  0.50624601805E+01  0.58368171850E+02  0.00000000000E+00 0. -1.
<scales pt_clust_5="13000.00000" pt_clust_6="13000.00000" pt_clust_7="13000.00000" pt_clust_8="13000.00000" pt_clust_9="58.14822"></scales>
<clustering>
<clus scale="   58.148">  1  9  2 -1</clus>
<clus scale="   90.298">  7  8 -1 -1</clus>
<clus scale="   91.828">  5  6 -1 -1</clus>
<clus scale="  103.846">  1  7  2 -1</clus>
<clus scale="  105.179">  2  5  1 -1</clus>
</clustering>
</event>
<event>
 9    1  0.1434065E-005  0.1206487E+03  0.7546771E-02  0.1243140E+00
         -2   -1    0    0    0  501 -0.00000000000E+00  0.00000000000E+00  0.19367836482E+03  0.19367836482E+03  0.00000000000E+00 0.  1.
          2   -1    0    0  502    0  0.00000000000E+00 -0.00000000000E+00 -0.36510917063E+03  0.36510917063E+03  0.00000000000E+00 0. -1.
         23    2    1    2    0    0  0.67109139207E+01 -0.42883809304E+02  0.86841047929E+02  0.13603189370E+03  0.95285103941E+02 0.  0.
         23    2    1    2    0    0 -0.50119313866E+02  0.59209756093E+02 -0.32212633572E+03  0.34383656552E+03  0.91872013062E+02 0.  0.
        -11    1    3    3    0    0 -0.24118238076E+02  0.19529612056E+02  0.45479104369E+02  0.55058551463E+02  0.00000000000E+00 0. -1.
         11    1    3    3    0    0  0.30829151997E+02 -0.62413421359E+02  0.41361943559E+02  0.80973342241E+02  0.00000000000E+00 0.  1.
        -13    1    4    4    0    0 -0.48513129995E+02  0.48443011540E+01 -0.66322016814E+02  0.82314038595E+02  0.00000000000E+00 0.  1.
         13    1    4    4    0    0 -0.16061838715E+01  0.54365454939E+02 -0.25580431891E+03  0.26152252692E+03  0.00000000000E+00 0. -1.
         21    1    1    2  502  501  0.43408399945E+02 -0.16325946790E+02  0.63854481982E+02  0.78919076233E+02  0.00000000000E+00 0.  1.
<scales pt_clust_5="13000.00000" pt_clust_6="13000.00000" pt_clust_7="13000.00000" pt_clust_8="13000.00000" pt_clust_9="46.37700"></scales>
<clustering>
<clus scale="   46.377">  1  9  2 -1</clus>
<clus scale="   91.872">  7  8 -1 -1</clus>
<clus scale="   95.285">  5  6 -1 -1</clus>
<clus scale="  117.972">  2  7  1 -1</clus>
<clus scale="  117.972">  2  5  1 -1</clus>
</clustering>
</event>
<event>
 9    1  0.1434065E-005  0.1221515E+03  0.7546771E-02  0.1239962E+00
         -2   -1    0    0    0  501 -0.00000000000E+00  0.00000000000E+00  0.34367517779E+02  0.34367517779E+02  0.00000000000E+00 0.  1.
          2   -1    0    0  502    0  0.00000000000E+00 -0.00000000000E+00 -0.72431704755E+03  0.72431704755E+03  0.00000000000E+00 0. -1.
         23    2    1    2    0    0 -0.82592942283E+02 -0.51414337831E+02 -0.38808771717E+03  0.41008508867E+03  0.89959299045E+02 0.  0.
         23    2    1    2    0    0  0.63448220428E+02  0.21002591817E+02 -0.28916935471E+03  0.31048788842E+03  0.91197739077E+02 0.  0.
        -11    1    3    3    0    0 -0.17572246846E+02 -0.31741014807E+02 -0.34617323977E+02  0.50146136436E+02  0.00000000000E+00 0.  1.
         11    1    3    3    0    0 -0.65020695438E+02 -0.19673323025E+02 -0.35347039319E+03  0.35993895223E+03  0.00000000000E+00 0. -1.
        -13    1    4    4    0    0  0.67641517107E+02  0.47889074980E+02 -0.24469431889E+03  0.25834869467E+03  0.00000000000E+00 0.  1.
         13    1    4    4    0    0 -0.41932966788E+01 -0.26886483163E+02 -0.44475035820E+02  0.52139193752E+02  0.00000000000E+00 0. -1.
         21    1    1    2  502  501  0.19144721855E+02  0.30411746015E+02 -0.12692457890E+02  0.38111588236E+02  0.00000000000E+00 0.  1.
<scales pt_clust_5="13000.00000" pt_clust_6="13000.00000" pt_clust_7="13000.00000" pt_clust_8="13000.00000" pt_clust_9="35.93598"></scales>
<clustering>
<clus scale="   35.936">  1  9  2 -1</clus>
<clus scale="   89.959">  5  6 -1 -1</clus>
<clus scale="   91.198">  7  8 -1 -1</clus>
<clus scale="  121.230">  1  5  2 -1</clus>
<clus scale="  122.152">  2  5  1 -1</clus>
</clustering>
</event>
<event>
 9    1  0.1434065E-005  0.9982769E+02  0.7546771E-02  0.1281541E+00
         -1   -1    0    0    0  501 -0.00000000000E+00  0.00000000000E+00  0.30776029727E+03  0.30776029727E+03  0.00000000000E+00 0.  1.
          1   -1    0    0  502    0  0.00000000000E+00 -0.00000000000E+00 -0.16036488935E+03  0.16036488935E+03  0.00000000000E+00 0. -1.
         23    2    1    2    0    0 -0.35337169964E+02  0.83073532054E+01  0.26695388419E+03  0.28478308313E+03  0.92300056620E+02 0.  0.
         23    2    1    2    0    0  0.62434429874E+02 -0.10112097892E+02 -0.10570641954E+03  0.15285607269E+03  0.90503145081E+02 0.  0.
        -11    1    4    4    0    0  0.85089492744E+02 -0.16287709110E+02 -0.87600328814E+02  0.12320441896E+03  0.00000000000E+00 0. -1.
         11    1    4    4    0    0 -0.22655062870E+02  0.61756112179E+01 -0.18106090727E+02  0.29651653731E+02  0.00000000000E+00 0.  1.
        -13    1    3    3    0    0 -0.33724271186E+02 -0.38579432142E+02  0.11883418280E+03  0.12941121301E+03  0.00000000000E+00 0.  1.
         13    1    3    3    0    0 -0.16128987783E+01  0.46886785348E+02  0.14811970140E+03  0.15537187012E+03  0.00000000000E+00 0. -1.
         21    1    1    2  502  501 -0.27097259910E+02  0.18047446865E+01 -0.13852056731E+02  0.30486030796E+02  0.00000000000E+00 0.  1.
<scales pt_clust_5="13000.00000" pt_clust_6="13000.00000" pt_clust_7="13000.00000" pt_clust_8="13000.00000" pt_clust_9="27.15729"></scales>
<clustering>
<clus scale="   27.157">  2  9  1 -1</clus>
<clus scale="   90.503">  5  6 -1 -1</clus>
<clus scale="   92.300">  7  8 -1 -1</clus>
<clus scale="   98.169">  2  5  1 -1</clus>
<clus scale="   27.157">  2  5  1 -1</clus>
</clustering>
</event>
<event>
 9    1  0.1434065E-005  0.1111593E+03  0.7546771E-02  0.1260975E+00
          1   -1    0    0  502    0  0.00000000000E+00  0.00000000000E+00  0.38534825788E+03  0.38534825788E+03  0.00000000000E+00 0. -1.
         -1   -1    0    0    0  501 -0.00000000000E+00 -0.00000000000E+00 -0.41532417733E+02  0.41532417733E+02  0.00000000000E+00 0.  1.
         23    2    1    2    0    0 -0.39116162322E+02  0.16680246601E+02  0.14179162157E+03  0.17372037684E+03  0.90915348533E+02 0.  0.
         23    2    1    2    0    0  0.59556537368E+02 -0.27528893743E+02  0.19736135483E+03  0.22955427465E+03  0.97153690080E+02 0.  0.
        -11    1    4    4    0    0  0.33224553233E+02  0.33731869303E+02  0.10914711000E+03  0.11897395331E+03  0.00000000000E+00 0.  1.
         11    1    4    4    0    0  0.26331984135E+02 -0.61260763046E+02  0.88214244828E+02  0.11058032134E+03  0.00000000000E+00 0. -1.
        -13    1    3    3    0    0 -0.22938567388E+02 -0.36677585117E+02  0.48086906021E+02  0.64682096862E+02  0.00000000000E+00 0. -1.
         13    1    3    3    0    0 -0.16177594934E+02  0.53357831718E+02  0.93704715549E+02  0.10903827997E+03  0.00000000000E+00 0.  1.
         21    1    1    2  502  501 -0.20440375046E+02  0.10848647143E+02  0.46628637488E+01  0.23606024129E+02  0.00000000000E+00 0.  1.
<scales pt_clust_5="13000.00000" pt_clust_6="13000.00000" pt_clust_7="13000.00000" pt_clust_8="13000.00000" pt_clust_9="23.14092"></scales>
<clustering>
<clus scale="   23.141">  2  9  1 -1</clus>
<clus scale="   90.915">  7  8 -1 -1</clus>
<clus scale="   97.154">  5  6 -1 -1</clus>
<clus scale="  105.750">  2  7  1 -1</clus>
<clus scale="  111.159">  1  5  2 -1</clus>
</clustering>
</event>
<event>
 9    1  0.1434065E-005  0.1059530E+03  0.7546771E-02  0.1272265E+00
         -1   -1    0    0    0  501 -0.00000000000E+00  0.00000000000E+00  0.11664829822E+03  0.11664829822E+03  0.00000000000E+00 0.  1.
          1   -1    0    0  502    0  0.00000000000E+00 -0.00000000000E+00 -0.25352210005E+03  0.25352210005E+03  0.00000000000E+00 0. -1.
         23    2    1    2    0    0  0.96452985680E+01  0.26134129618E+02  0.66708908767E+01  0.93333870557E+02  0.88829533899E+02 0.  0.
         23    2    1    2    0    0 -0.33658059920E+02 -0.31424407330E+02 -0.19330183710E+03  0.22133541814E+03  0.97485428264E+02 0.  0.
        -13    1    3    3    0    0 -0.57718733873E+01 -0.25492405297E+02 -0.20286901014E+02  0.33086788950E+02  0.00000000000E+00 0. -1.
         13    1    3    3    0    0  0.15417171955E+02  0.51626534916E+02  0.26957791891E+02  0.60247081607E+02  0.00000000000E+00 0.  1.
        -13    1    4    4    0    0 -0.24629257269E+02  0.23195375494E+02 -0.19766513339E+02  0.39183425163E+02  0.00000000000E+00 0.  1.
         13    1    4    4    0    0 -0.90288026511E+01 -0.54619782825E+02 -0.17353532376E+03  0.18215199298E+03  0.00000000000E+00 0. -1.
         21    1    1    2  502  501  0.24012761352E+02  0.52902777122E+01  0.49757144388E+02  0.55501109571E+02  0.00000000000E+00 0. -1.
<scales pt_clust_5="13000.00000" pt_clust_6="13000.00000" pt_clust_7="13000.00000" pt_clust_8="13000.00000" pt_clust_9="24.58861"></scales>
<clustering>
<clus scale="   24.589">  1  9  2 -1</clus>
<clus scale="   88.830">  5  6 -1 -1</clus>
<clus scale="   97.485">  7  8 -1 -1</clus>
<clus scale="   98.048">  1  5  2 -1</clus>
<clus scale="  105.953">  2  5  1 -1</clus>
</clustering>
</event>
<event>
 9    1  0.1434065E-005  0.1330400E+03  0.7546771E-02  0.1223377E+00
          4   -1    0    0  502    0  0.00000000000E+00  0.00000000000E+00  0.48293084418E+03  0.48293084418E+03  0.00000000000E+00 0. -1.
         -4   -1    0    0    0  501 -0.00000000000E+00 -0.00000000000E+00 -0.66867309145E+02  0.66867309145E+02  0.00000000000E+00 0.  1.
         23    2    1    2    0    0  0.53402686716E+02  0.61099395036E+02  0.14541631955E+03  0.19088022229E+03  0.93297214574E+02 0.  0.
         23    2    1    2    0    0 -0.88769958318E+02 -0.54122158558E+02  0.28678951149E+03  0.31941983678E+03  0.94717974430E+02 0.  0.
        -11    1    3    3    0    0  0.24745184813E+02 -0.15038994893E+02  0.61640258339E+01  0.29605586522E+02  0.00000000000E+00 0.  1.
         11    1    3    3    0    0  0.28657501903E+02  0.76138389929E+02  0.13925229372E+03  0.16127463577E+03  0.00000000000E+00 0. -1.
        -11    1    4    4    0    0 -0.73492633480E+02 -0.62316710267E+01  0.23876814446E+03  0.24990043559E+03  0.00000000000E+00 0. -1.
         11    1    4    4    0    0 -0.15277324837E+02 -0.47890487531E+02  0.48021367034E+02  0.69519401191E+02  0.00000000000E+00 0.  1.
         21    1    1    2  502  501  0.35367271602E+02 -0.69772364785E+01 -0.16142296008E+02  0.39498094256E+02  0.00000000000E+00 0.  1.
<scales pt_clust_5="13000.00000" pt_clust_6="13000.00000" pt_clust_7="13000.00000" pt_clust_8="13000.00000" pt_clust_9="36.04894"></scales>
<clustering>
<clus scale="   36.049">  2  9  1 -1</clus>
<clus scale="   93.297">  5  6 -1 -1</clus>
<clus scale="   94.718">  7  8 -1 -1</clus>
<clus scale="  132.032">  2  5  1 -1</clus>
<clus scale="  133.040">  1  5  2 -1</clus>
</clustering>
</event>
<event>
 9    1  0.1434065E-005  0.1059074E+03  0.7546771E-02  0.1269011E+00
         -3   -1    0    0    0  501 -0.00000000000E+00  0.00000000000E+00  0.23666854497E+03  0.23666854497E+03  0.00000000000E+00 0.  1.
          3   -1    0    0  502    0  0.00000000000E+00 -0.00000000000E+00 -0.11485184594E+03  0.11485184594E+03  0.00000000000E+00 0. -1.
         23    2    1    2    0    0  0.31693642401E+02  0.22391161142E+02  0.49053558003E+01  0.98000983027E+02  0.89856992454E+02 0.  0.
         23    2    1    2    0    0 -0.30892267994E+02 -0.64346646653E+02 -0.13255203100E+02  0.11675598168E+03  0.91440886320E+02 0.  0.
        -13    1    4    4    0    0 -0.24537743664E+01 -0.78512977977E+02  0.73394252286E+01  0.78893446383E+02  0.00000000000E+00 0.  1.
         13    1    4    4    0    0 -0.28438493628E+02  0.14166331324E+02 -0.20594628329E+02  0.37862535295E+02  0.00000000000E+00 0. -1.
        -13    1    3    3    0    0 -0.18238254126E+02 -0.23023293544E+02 -0.49613811855E+01  0.29787938204E+02  0.00000000000E+00 0. -1.
         13    1    3    3    0    0  0.49931896527E+02  0.45414454686E+02  0.98667369858E+01  0.68213044823E+02  0.00000000000E+00 0.  1.
         21    1    1    2  502  501 -0.80137440710E+00  0.41955485512E+02  0.13016654633E+03  0.13676342621E+03  0.00000000000E+00 0.  1.
<scales pt_clust_5="13000.00000" pt_clust_6="13000.00000" pt_clust_7="13000.00000" pt_clust_8="13000.00000" pt_clust_9="41.96314"></scales>
<clustering>
<clus scale="   41.963">  1  9  2 -1</clus>
<clus scale="   89.857">  7  8 -1 -1</clus>
<clus scale="   91.441">  5  6 -1 -1</clus>
<clus scale="  104.543">  1  7  2 -1</clus>
<clus scale="  105.907">  2  5  1 -1</clus>
</clustering>
</event>
<event>
 9    1  0.1434065E-005  0.1494128E+03  0.7546771E-02  0.1201219E+00
         -1   -1    0    0    0  501 -0.00000000000E+00  0.00000000000E+00  0.52164313123E+02  0.52164313123E+02  0.00000000000E+00 0.  1.
          1   -1    0    0  502    0  0.00000000000E+00 -0.00000000000E+00 -0.61079156360E+03  0.61079156360E+03  0.00000000000E+00 0. -1.
         23    2    1    2    0    0  0.78293492544E+02  0.78778208433E+02 -0.18935447281E+03  0.23768528683E+03  0.91122456645E+02 0.  0.
         23    2    1    2    0    0 -0.59936824147E+02 -0.10992319165E+03 -0.35335874782E+03  0.38577079748E+03  0.91000948230E+02 0.  0.
        -11    1    3    3    0    0 -0.29127649394E+01  0.59291189985E+02 -0.91111526069E+02  0.10874391749E+03  0.00000000000E+00 0. -1.
         11    1    3    3    0    0  0.81206257483E+02  0.19487018448E+02 -0.98242946740E+02  0.12894136934E+03  0.00000000000E+00 0.  1.
        -11    1    4    4    0    0  0.34363763484E+01 -0.46283175440E+02 -0.45173737755E+02  0.64765790306E+02  0.00000000000E+00 0.  1.
         11    1    4    4    0    0 -0.63373200495E+02 -0.63640016210E+02 -0.30818501006E+03  0.32100500718E+03  0.00000000000E+00 0. -1.
         21    1    1    2  502  501 -0.18356668397E+02  0.31144983216E+02 -0.15914029847E+02  0.39499792406E+02  0.00000000000E+00 0. -1.
<scales pt_clust_5="13000.00000" pt_clust_6="13000.00000" pt_clust_7="13000.00000" pt_clust_8="13000.00000" pt_clust_9="36.15214"></scales>
<clustering>
<clus scale="   36.152">  1  9  2 -1</clus>
<clus scale="   91.001">  7  8 -1 -1</clus>
<clus scale="   91.122">  5  6 -1 -1</clus>
<clus scale="  149.339">  2  7  1 -1</clus>
<clus scale="  149.339">  2  5  1 -1</clus>
</clustering>
</event>
<event>
 9    1  0.1434065E-005  0.9912442E+02  0.7546771E-02  0.1282849E+00
         -2   -1    0    0    0  501 -0.00000000000E+00  0.00000000000E+00  0.23797156212E+03  0.23797156212E+03  0.00000000000E+00 0.  1.
          2   -1    0    0  502    0  0.00000000000E+00 -0.00000000000E+00 -0.66645470955E+02  0.66645470955E+02  0.00000000000E+00 0. -1.
         23    2    1    2    0    0  0.24320072980E+02  0.38205278695E+02  0.49139447868E+02  0.11311526100E+03  0.91264821617E+02 0.  0.
         23    2    1    2    0    0 -0.26532557110E+01 -0.35111734988E+02  0.36671171294E+02  0.10322993661E+03  0.89843037069E+02 0.  0.
        -11    1    3    3    0    0 -0.49741868168E+01  0.63031997237E+02  0.34433433101E+02  0.71996086875E+02  0.00000000000E+00 0. -1.
         11    1    3    3    0    0  0.29294259796E+02 -0.24826718542E+02  0.14706014767E+02  0.41119174127E+02  0.00000000000E+00 0.  1.
        -13    1    4    4    0    0  0.25676582183E+02 -0.48616376209E+02  0.44673484739E+02  0.70841789553E+02  0.00000000000E+00 0.  1.
         13    1    4    4    0    0 -0.28329837894E+02  0.13504641221E+02 -0.80023134455E+01  0.32388147062E+02  0.00000000000E+00 0. -1.
         21    1    1    2  502  501 -0.21666817269E+02 -0.30935437076E+01  0.85515472006E+02  0.88271835461E+02  0.00000000000E+00 0.  1.
<scales pt_clust_5="13000.00000" pt_clust_6="13000.00000" pt_clust_7="13000.00000" pt_clust_8="13000.00000" pt_clust_9="21.88655"></scales>
<clustering>
<clus scale="   21.887">  1  9  2 -1</clus>
<clus scale="   89.843">  7  8 -1 -1</clus>
<clus scale="   91.265">  5  6 -1 -1</clus>
<clus scale="   97.817">  2  7  1 -1</clus>
<clus scale="   97.817">  2  5  1 -1</clus>
</clustering>
</event>
<event>
 9    1  0.1434065E-005  0.9874121E+02  0.7546771E-02  0.1285303E+00
          1   -1    0    0  502    0  0.00000000000E+00  0.00000000000E+00  0.21291610322E+02  0.21291610322E+02  0.00000000000E+00 0. -1.
         -1   -1    0    0    0  501 -0.00000000000E+00 -0.00000000000E+00 -0.66215341260E+03  0.66215341260E+03  0.00000000000E+00 0.  1.
         23    2    1    2    0    0  0.19686518933E+02 -0.11085054987E+02 -0.37177811853E+03  0.38254472335E+03  0.87241380513E+02 0.  0.
         23    2    1    2    0    0 -0.31476592993E+02  0.28851527119E+02 -0.15721405525E+03  0.18701673114E+03  0.91846676775E+02 0.  0.
        -11    1    4    4    0    0 -0.41084084633E+02 -0.15684338830E+02 -0.33809914018E+02  0.55470810167E+02  0.00000000000E+00 0. -1.
         11    1    4    4    0    0  0.96074916404E+01  0.44535865949E+02 -0.12340414123E+03  0.13154592097E+03  0.00000000000E+00 0.  1.
        -13    1    3    3    0    0  0.32465856350E+02 -0.43740690315E+02 -0.20451146862E+03  0.21164172702E+03  0.00000000000E+00 0. -1.
         13    1    3    3    0    0 -0.12779337417E+02  0.32655635328E+02 -0.16726664991E+03  0.17090299633E+03  0.00000000000E+00 0.  1.
         21    1    1    2  502  501  0.11790074060E+02 -0.17766472132E+02 -0.11186962850E+03  0.11388356843E+03  0.00000000000E+00 0. -1.
<scales pt_clust_5="13000.00000" pt_clust_6="13000.00000" pt_clust_7="13000.00000" pt_clust_8="13000.00000" pt_clust_9="21.32260"></scales>
<clustering>
<clus scale="   21.323">  2  9  1 -1</clus>
<clus scale="   87.241">  7  8 -1 -1</clus>
<clus scale="   91.847">  5  6 -1 -1</clus>
<clus scale="   94.473">  2  7  1 -1</clus>
<clus scale="   98.741">  1  5  2 -1</clus>
</clustering>
</event>
<event>
 9    1  0.1434065E-005  0.9874957E+02  0.7546771E-02  0.1283552E+00
          1   -1    0    0  502    0  0.00000000000E+00  0.00000000000E+00  0.11725269413E+03  0.11725269413E+03  0.00000000000E+00 0. -1.
         -1   -1    0    0    0  501 -0.00000000000E+00 -0.00000000000E+00 -0.17169946905E+03  0.17169946905E+03  0.00000000000E+00 0.  1.
         23    2    1    2    0    0 -0.11821296337E+01  0.26094806007E+02 -0.37296951661E+02  0.10276813886E+03  0.92129753228E+02 0.  0.
         23    2    1    2    0    0 -0.49310695612E+02 -0.10010061237E+02  0.37104319565E+02  0.11034368921E+03  0.90924436710E+02 0.  0.
        -11    1    4    4    0    0  0.63444384394E+00 -0.41862264141E+02  0.28107213590E+02  0.50426849334E+02  0.00000000000E+00 0.  1.
         11    1    4    4    0    0 -0.49945139456E+02  0.31852202904E+02  0.89971059755E+01  0.59916839878E+02  0.00000000000E+00 0. -1.
        -13    1    3    3    0    0  0.44143001663E+02  0.21455224757E+02 -0.11500538753E+02  0.50410253489E+02  0.00000000000E+00 0.  1.
         13    1    3    3    0    0 -0.45325131297E+02  0.46395812503E+01 -0.25796412908E+02  0.52357885368E+02  0.00000000000E+00 0. -1.
         21    1    1    2  502  501  0.50492825245E+02 -0.16084744770E+02 -0.54254142831E+02  0.75840335112E+02  0.00000000000E+00 0.  1.
<scales pt_clust_5="13000.00000" pt_clust_6="13000.00000" pt_clust_7="13000.00000" pt_clust_8="13000.00000" pt_clust_9="52.99287"></scales>
<clustering>
<clus scale="   52.993">  2  9  1 -1</clus>
<clus scale="   90.924">  5  6 -1 -1</clus>
<clus scale="   92.130">  7  8 -1 -1</clus>
<clus scale="   97.626">  1  5  2 -1</clus>
<clus scale="   97.626">  1  5  2 -1</clus>
</clustering>
</event>
<event>
 9    1  0.1434065E-005  0.9625324E+02  0.7546771E-02  0.1288909E+00
         -1   -1    0    0    0  501 -0.00000000000E+00  0.00000000000E+00  0.80320131639E+03  0.80320131639E+03  0.00000000000E+00 0.  1.
          1   -1    0    0  502    0  0.00000000000E+00 -0.00000000000E+00 -0.18276534895E+02  0.18276534895E+02  0.00000000000E+00 0. -1.
         23    2    1    2    0    0  0.20128016895E+02 -0.43697153497E+02  0.42707548838E+03  0.43936244156E+03  0.91275977094E+02 0.  0.
         23    2    1    2    0    0 -0.60569781650E+01  0.22027234972E+02  0.18259645686E+03  0.20496819378E+03  0.90269642401E+02 0.  0.
        -13    1    4    4    0    0  0.37094175648E+02  0.64936935895E+01  0.12921837574E+03  0.13459396180E+03  0.00000000000E+00 0.  1.
         13    1    4    4    0    0 -0.43151153813E+02  0.15533541383E+02  0.53378081119E+02  0.70374231983E+02  0.00000000000E+00 0. -1.
        -13    1    3    3    0    0 -0.80432535016E+01 -0.65212332938E+02  0.23352792497E+03  0.24259561833E+03  0.00000000000E+00 0.  1.
         13    1    3    3    0    0  0.28171270396E+02  0.21515179441E+02  0.19354756341E+03  0.19676682323E+03  0.00000000000E+00 0. -1.
         21    1    1    2  502  501 -0.14071038730E+02  0.21669918524E+02  0.17525283626E+03  0.17714721594E+03  0.00000000000E+00 0.  1.
<scales pt_clust_5="13000.00000" pt_clust_6="13000.00000" pt_clust_7="13000.00000" pt_clust_8="13000.00000" pt_clust_9="25.83756"></scales>
<clustering>
<clus scale="   25.838">  1  9  2 -1</clus>
<clus scale="   90.270">  5  6 -1 -1</clus>
<clus scale="   91.276">  7  8 -1 -1</clus>
<clus scale="   95.299">  2  5  1 -1</clus>
<clus scale="   95.299">  2  5  1 -1</clus>
</clustering>
</event>
<event>
 9    1  0.1434065E-005  0.1432790E+03  0.7546771E-02  0.1223886E+00
         -1   -1    0    0    0  501 -0.00000000000E+00  0.00000000000E+00  0.38233847088E+02  0.38233847088E+02  0.00000000000E+00 0.  1.
          1   -1    0    0  502    0  0.00000000000E+00 -0.00000000000E+00 -0.94228244329E+03  0.94228244329E+03  0.00000000000E+00 0. -1.
         23    2    1    2    0    0 -0.25453487378E+02 -0.47708521770E+02 -0.17055405437E+03  0.20006681811E+03  0.89521300127E+02 0.  0.
         23    2    1    2    0    0 -0.88672305156E+02 -0.25298215953E+02 -0.39590403746E+03  0.41668852203E+03  0.91578054607E+02 0.  0.
        -11    1    4    4    0    0 -0.81720855651E+02 -0.15179289028E+01 -0.37635800222E+03  0.38513107923E+03  0.00000000000E+00 0. -1.
         11    1    4    4    0    0 -0.69514495050E+01 -0.23780287051E+02 -0.19546035236E+02  0.31557442797E+02  0.00000000000E+00 0.  1.
        -13    1    3    3    0    0 -0.48413603089E+01 -0.48967760779E+02 -0.17244670231E+03  0.17932971172E+03  0.00000000000E+00 0. -1.
         13    1    3    3    0    0 -0.20612127070E+02  0.12592390089E+01  0.18926479445E+01  0.20737106391E+02  0.00000000000E+00 0.  1.
         21    1    1    2  502  501  0.11412579253E+03  0.73006737723E+02 -0.33759050438E+03  0.36376095024E+03  0.00000000000E+00 0.  1.
<scales pt_clust_5="13000.00000" pt_clust_6="13000.00000" pt_clust_7="13000.00000" pt_clust_8="13000.00000" pt_clust_9="110.19220"></scales>
<clustering>
<clus scale="   89.521">  7  8 -1 -1</clus>
<clus scale="   91.578">  5  6 -1 -1</clus>
<clus scale="  104.585">  1  7  2 -1</clus>
<clus scale="  110.192">  1  9  2 -1</clus>
<clus scale="  143.279">  2  5  1 -1</clus>
</clustering>
</event>
<event>
 9    1  0.1434065E-005  0.9609945E+02  0.7546771E-02  0.1290824E+00
          2   -1    0    0  502    0  0.00000000000E+00  0.00000000000E+00  0.15697225023E+03  0.15697225023E+03  0.00000000000E+00 0. -1.
         -2   -1    0    0    0  501 -0.00000000000E+00 -0.00000000000E+00 -0.17988997937E+03  0.17988997937E+03  0.00000000000E+00 0.  1.
         23    2    1    2    0    0  0.37101393116E+02 -0.13336924210E+02 -0.54110209080E+02  0.11078575209E+03  0.88267668041E+02 0.  0.
         23    2    1    2    0    0 -0.17254015089E+02  0.18564692916E+02  0.10937341795E+03  0.14524636525E+03  0.92149949571E+02 0.  0.
        -11    1    4    4    0    0 -0.52313557290E+02  0.17503484153E+02  0.88924053100E+02  0.10464495905E+03  0.00000000000E+00 0. -1.
         11    1    4    4    0    0  0.35059542201E+02  0.10612087626E+01  0.20449364846E+02  0.40601406207E+02  0.00000000000E+00 0.  1.
        -13    1    3    3    0    0  0.17011715574E+02 -0.50130354316E+02 -0.40690096828E+02  0.66769265913E+02  0.00000000000E+00 0.  1.
         13    1    3    3    0    0  0.20089677542E+02  0.36793430106E+02 -0.13420112252E+02  0.44016486180E+02  0.00000000000E+00 0. -1.
         21    1    1    2  502  501 -0.19847378026E+02 -0.52277687059E+01 -0.78180938007E+02  0.80830112259E+02  0.00000000000E+00 0. -1.
<scales pt_clust_5="13000.00000" pt_clust_6="13000.00000" pt_clust_7="13000.00000" pt_clust_8="13000.00000" pt_clust_9="20.52433"></scales>
<clustering>
<clus scale="   20.524">  2  9  1 -1</clus>
<clus scale="   88.268">  7  8 -1 -1</clus>
<clus scale="   92.150">  5  6 -1 -1</clus>
<clus scale="   92.383">  2  7  1 -1</clus>
<clus scale="   96.099">  1  5  2 -1</clus>
</clustering>
</event>
<event>
 9    1  0.1434065E-005  0.9562180E+02  0.7546771E-02  0.1290534E+00
          2   -1    0    0  502    0  0.00000000000E+00  0.00000000000E+00  0.75705657047E+03  0.75705657047E+03  0.00000000000E+00 0. -1.
         -2   -1    0    0    0  501 -0.00000000000E+00 -0.00000000000E+00 -0.25098561994E+02  0.25098561994E+02  0.00000000000E+00 0.  1.
         23    2    1    2    0    0  0.46461866914E+02  0.29552023823E+02  0.21481777769E+03  0.23960220261E+03  0.90722162080E+02 0.  0.
         23    2    1    2    0    0  0.20077868346E+02 -0.22040595504E+02  0.24986242905E+03  0.26701458185E+03  0.89312064251E+02 0.  0.
        -11    1    4    4    0    0 -0.15075668148E+02  0.27268019123E+02  0.11563653849E+03  0.11976071840E+03  0.00000000000E+00 0.  1.
         11    1    4    4    0    0  0.35153536494E+02 -0.49308614627E+02  0.13422589056E+03  0.14725386345E+03  0.00000000000E+00 0. -1.
        -13    1    3    3    0    0 -0.66738708905E+01  0.21833265725E+02  0.54675535327E+01  0.23476076898E+02  0.00000000000E+00 0.  1.
         13    1    3    3    0    0  0.53135737805E+02  0.77187580983E+01  0.20935022416E+03  0.21612612571E+03  0.00000000000E+00 0. -1.
         21    1    1    2  502  501 -0.66539735261E+02 -0.75114283195E+01  0.26727780173E+03  0.27553834801E+03  0.00000000000E+00 0.  1.
<scales pt_clust_5="13000.00000" pt_clust_6="13000.00000" pt_clust_7="13000.00000" pt_clust_8="13000.00000" pt_clust_9="66.96236"></scales>
<clustering>
<clus scale="   66.962">  1  9  2 -1</clus>
<clus scale="   89.312">  5  6 -1 -1</clus>
<clus scale="   90.722">  7  8 -1 -1</clus>
<clus scale="   94.285">  1  5  2 -1</clus>
<clus scale="   66.962">  1  5  2 -1</clus>
</clustering>
</event>
<event>
 9    1  0.1434065E-005  0.1173253E+03  0.7546771E-02  0.1247785E+00
          1   -1    0    0  502    0  0.00000000000E+00  0.00000000000E+00  0.84848109951E+02  0.84848109951E+02  0.00000000000E+00 0. -1.
         -1   -1    0    0    0  501 -0.00000000000E+00 -0.00000000000E+00 -0.41480135066E+03  0.41480135066E+03  0.00000000000E+00 0.  1.
         23    2    1    2    0    0  0.86017982956E+01 -0.80591449871E+02 -0.45718172912E+02  0.12997080850E+03  0.90737461954E+02 0.  0.
         23    2    1    2    0    0  0.21118533134E+02  0.66636717990E+02 -0.37841117500E+02  0.12110670803E+03  0.91369797686E+02 0.  0.
        -13    1    3    3    0    0  0.33346834400E+02 -0.82289577937E+02 -0.14286722172E+02  0.89931620868E+02  0.00000000000E+00 0.  1.
         13    1    3    3    0    0 -0.24745036105E+02  0.16981280657E+01 -0.31431450740E+02  0.40039187634E+02  0.00000000000E+00 0. -1.
        -13    1    4    4    0    0 -0.17072755182E+02  0.41803748626E+02  0.18373960693E+02  0.48750741535E+02  0.00000000000E+00 0. -1.
         13    1    4    4    0    0  0.38191288316E+02  0.24832969364E+02 -0.56215078193E+02  0.72355966491E+02  0.00000000000E+00 0.  1.
         21    1    1    2  502  501 -0.29720331430E+02  0.13954731882E+02 -0.24639395030E+03  0.24857194409E+03  0.00000000000E+00 0. -1.
<scales pt_clust_5="13000.00000" pt_clust_6="13000.00000" pt_clust_7="13000.00000" pt_clust_8="13000.00000" pt_clust_9="32.83341"></scales>
<clustering>
<clus scale="   32.833">  2  9  1 -1</clus>
<clus scale="   90.737">  5  6 -1 -1</clus>
<clus scale="   91.370">  7  8 -1 -1</clus>
<clus scale="  116.834">  2  5  1 -1</clus>
<clus scale="  117.325">  1  5  2 -1</clus>
</clustering>
</event>
<event>
 9    1  0.1434065E-005  0.9712697E+02  0.7546771E-02  0.1288339E+00
          1   -1    0    0  502    0  0.00000000000E+00  0.00000000000E+00  0.14035809813E+03  0.14035809813E+03  0.00000000000E+00 0. -1.
         -1   -1    0    0    0  501 -0.00000000000E+00 -0.00000000000E+00 -0.15838233201E+03  0.15838233201E+03  0.00000000000E+00 0.  1.
         23    2    1    2    0    0 -0.37454790316E+01  0.19561624439E+02 -0.54498980119E+02  0.10597269867E+03  0.88675747900E+02 0.  0.
         23    2    1    2    0    0  0.24772505415E+02 -0.37670424282E+02  0.90478809346E+02  0.13205114970E+03  0.84960892808E+02 0.  0.
        -11    1    3    3    0    0 -0.29748445096E+02  0.40954410433E+02 -0.51429396107E+02  0.72161045609E+02  0.00000000000E+00 0.  1.
         11    1    3    3    0    0  0.26002966064E+02 -0.21392785994E+02 -0.30695840117E+01  0.33811653061E+02  0.00000000000E+00 0. -1.
        -13    1    4    4    0    0  0.20072981759E+02  0.25075724111E+02  0.21320572741E+02  0.38552345693E+02  0.00000000000E+00 0.  1.
         13    1    4    4    0    0  0.46995236565E+01 -0.62746148394E+02  0.69158236605E+02  0.93498804009E+02  0.00000000000E+00 0. -1.
         21    1    1    2  502  501 -0.21027026384E+02  0.18108799843E+02 -0.54004063109E+02  0.60716581776E+02  0.00000000000E+00 0.  1.
<scales pt_clust_5="13000.00000" pt_clust_6="13000.00000" pt_clust_7="13000.00000" pt_clust_8="13000.00000" pt_clust_9="27.75004"></scales>
<clustering>
<clus scale="   27.750">  2  9  1 -1</clus>
<clus scale="   84.961">  7  8 -1 -1</clus>
<clus scale="   88.676">  5  6 -1 -1</clus>
<clus scale="   93.748">  1  7  2 -1</clus>
<clus scale="   93.748">  1  5  2 -1</clus>
</clustering>
</event>
<event>
 9    1  0.1434065E-005  0.1092487E+03  0.7546771E-02  0.1262527E+00
          1   -1    0    0  502    0  0.00000000000E+00  0.00000000000E+00  0.46112117088E+03  0.46112117088E+03  0.00000000000E+00 0. -1.
         -1   -1    0    0    0  501 -0.00000000000E+00 -0.00000000000E+00 -0.49537577022E+02  0.49537577022E+02  0.00000000000E+00 0.  1.
         23    2    1    2    0    0 -0.54754536138E+02 -0.10885178143E+02  0.14301427623E+03  0.17836322428E+03  0.90795430715E+02 0.  0.
         23    2    1    2    0    0  0.38923503552E+02  0.54881570612E+02  0.26107819911E+03  0.28494131579E+03  0.92210094197E+02 0.  0.
        -11    1    3    3    0    0 -0.33648622344E+02  0.36381428277E+02  0.97772543355E+02  0.10961436194E+03  0.00000000000E+00 0.  1.
         11    1    3    3    0    0 -0.21105913794E+02 -0.47266606420E+02  0.45241732872E+02  0.68748862338E+02  0.00000000000E+00 0. -1.
        -13    1    4    4    0    0  0.22418513274E+02  0.66195279907E+02  0.25443196952E+03  0.26385608186E+03  0.00000000000E+00 0. -1.
         13    1    4    4    0    0  0.16504990277E+02 -0.11313709295E+02  0.66462295844E+01  0.21085233927E+02  0.00000000000E+00 0.  1.
         21    1    1    2  502  501  0.15831032586E+02 -0.43996392469E+02  0.74911185216E+01  0.47354207835E+02  0.00000000000E+00 0.  1.
<scales pt_clust_5="13000.00000" pt_clust_6="13000.00000" pt_clust_7="13000.00000" pt_clust_8="13000.00000" pt_clust_9="46.75793"></scales>
<clustering>
<clus scale="   46.758">  2  9  1 -1</clus>
<clus scale="   90.795">  5  6 -1 -1</clus>
<clus scale="   92.210">  7  8 -1 -1</clus>
<clus scale="  108.057">  2  5  1 -1</clus>
<clus scale="  109.249">  1  5  2 -1</clus>
</clustering>
</event>
<event>
 9    1  0.1434065E-005  0.1444309E+03  0.7546771E-02  0.1207732E+00
         -1   -1    0    0    0  501 -0.00000000000E+00  0.00000000000E+00  0.28809588848E+02  0.28809588848E+02  0.00000000000E+00 0.  1.
          1   -1    0    0  502    0  0.00000000000E+00 -0.00000000000E+00 -0.88455694709E+03  0.88455694709E+03  0.00000000000E+00 0. -1.
         23    2    1    2    0    0  0.32913358069E+02 -0.12305471167E+03 -0.36706366431E+03  0.39806973666E+03  0.86591168053E+02 0.  0.
         23    2    1    2    0    0 -0.20172632275E+02  0.10610007934E+03 -0.45612456378E+03  0.47643959136E+03  0.85328216899E+02 0.  0.
        -11    1    4    4    0    0 -0.38571554145E+02  0.64209572141E+02 -0.38243636096E+03  0.38970271250E+03  0.00000000000E+00 0. -1.
         11    1    4    4    0    0  0.18398921870E+02  0.41890507198E+02 -0.73688202823E+02  0.86736878861E+02  0.00000000000E+00 0.  1.
        -13    1    3    3    0    0  0.60293567450E+02 -0.99666640203E+02 -0.30233838809E+03  0.32400193573E+03  0.00000000000E+00 0.  1.
         13    1    3    3    0    0 -0.27380209380E+02 -0.23388071467E+02 -0.64725276219E+02  0.74067800928E+02  0.00000000000E+00 0. -1.
         21    1    1    2  502  501 -0.12740725794E+02  0.16954632332E+02 -0.32559130152E+02  0.38857207923E+02  0.00000000000E+00 0. -1.
<scales pt_clust_5="13000.00000" pt_clust_6="13000.00000" pt_clust_7="13000.00000" pt_clust_8="13000.00000" pt_clust_9="21.20815"></scales>
<clustering>
<clus scale="   21.208">  1  9  2 -1</clus>
<clus scale="   85.328">  5  6 -1 -1</clus>
<clus scale="   86.591">  7  8 -1 -1</clus>
<clus scale="  143.677">  2  5  1 -1</clus>
<clus scale="  143.677">  2  5  1 -1</clus>
</clustering>
</event>
<event>
 9    1  0.1434065E-005  0.1061289E+03  0.7546771E-02  0.1268735E+00
         -1   -1    0    0    0  501 -0.00000000000E+00  0.00000000000E+00  0.26043686605E+03  0.26043686605E+03  0.00000000000E+00 0.  1.
          1   -1    0    0  502    0  0.00000000000E+00 -0.00000000000E+00 -0.22663519449E+03  0.22663519449E+03  0.00000000000E+00 0. -1.
         23    2    1    2    0    0 -0.49001042225E+01 -0.46675828927E+02  0.18661374829E+03  0.21356383168E+03  0.92640029811E+02 0.  0.
         23    2    1    2    0    0 -0.30556078517E+02  0.43114179548E+02 -0.19305743050E+03  0.21975402213E+03  0.90709163606E+02 0.  0.
        -11    1    4    4    0    0  0.72971179835E+01  0.59822990794E+02 -0.14037652304E+03  0.15276650935E+03  0.00000000000E+00 0. -1.
         11    1    4    4    0    0 -0.37853196501E+02 -0.16708811245E+02 -0.52680907455E+02  0.66987512783E+02  0.00000000000E+00 0.  1.
        -11    1    3    3    0    0  0.10685319276E+02 -0.68579692446E+02  0.16522211762E+03  0.17920853332E+03  0.00000000000E+00 0.  1.
         11    1    3    3    0    0 -0.15585423499E+02  0.21903863519E+02  0.21391630672E+02  0.34355298361E+02  0.00000000000E+00 0. -1.
         21    1    1    2  502  501  0.35456182739E+02  0.35616493788E+01  0.40245353771E+02  0.53754206727E+02  0.00000000000E+00 0.  1.
<scales pt_clust_5="13000.00000" pt_clust_6="13000.00000" pt_clust_7="13000.00000" pt_clust_8="13000.00000" pt_clust_9="35.63462"></scales>
<clustering>
<clus scale="   35.635">  1  9  2 -1</clus>
<clus scale="   90.709">  5  6 -1 -1</clus>
<clus scale="   92.640">  7  8 -1 -1</clus>
<clus scale="  104.448">  2  5  1 -1</clus>
<clus scale="  104.448">  2  5  1 -1</clus>
</clustering>
</event>
<event>
 9    1  0.1434065E-005  0.9790768E+02  0.7546771E-02  0.1285917E+00
          1   -1    0    0  502    0  0.00000000000E+00  0.00000000000E+00  0.49612289417E+03  0.49612289417E+03  0.00000000000E+00 0. -1.
         -1   -1    0    0    0  501 -0.00000000000E+00 -0.00000000000E+00 -0.45861589334E+02  0.45861589334E+02  0.00000000000E+00 0.  1.
         23    2    1    2    0    0  0.50389420170E+01 -0.27444388036E+02  0.75589338345E+02  0.11972582672E+03  0.88554729634E+02 0.  0.
         23    2    1    2    0    0  0.54103601034E+02 -0.17239881289E+02  0.29297048245E+03  0.31194248926E+03  0.90840518854E+02 0.  0.
        -11    1    3    3    0    0  0.17679526609E+02  0.21610428336E+02  0.60878335911E+02  0.66975727374E+02  0.00000000000E+00 0. -1.
         11    1    3    3    0    0 -0.12640584592E+02 -0.49054816372E+02  0.14711002434E+02  0.52750099344E+02  0.00000000000E+00 0.  1.
        -11    1    4    4    0    0  0.11803824905E+02 -0.42956365110E+02  0.21513065922E+03  0.21969474304E+03  0.00000000000E+00 0.  1.
         11    1    4    4    0    0  0.42299776129E+02  0.25716483821E+02  0.77839823235E+02  0.92247746216E+02  0.00000000000E+00 0. -1.
         21    1    1    2  502  501 -0.59142543051E+02  0.44684269325E+02  0.81701484039E+02  0.11031616753E+03  0.00000000000E+00 0. -1.
<scales pt_clust_5="13000.00000" pt_clust_6="13000.00000" pt_clust_7="13000.00000" pt_clust_8="13000.00000" pt_clust_9="74.12506"></scales>
<clustering>
<clus scale="   74.125">  2  9  1 -1</clus>
<clus scale="   88.555">  5  6 -1 -1</clus>
<clus scale="   90.841">  7  8 -1 -1</clus>
<clus scale="   95.791">  2  5  1 -1</clus>
<clus scale="   97.908">  1  5  2 -1</clus>
</clustering>
</event>
<event>
 9    1  0.1434065E-005  0.9366653E+02  0.7546771E-02  0.1294503E+00
          1   -1    0    0  502    0  0.00000000000E+00  0.00000000000E+00  0.28199910506E+03  0.28199910506E+03  0.00000000000E+00 0. -1.
         -1   -1    0    0    0  501 -0.00000000000E+00 -0.00000000000E+00 -0.68651807961E+02  0.68651807961E+02  0.00000000000E+00 0.  1.
         23    2    1    2    0    0  0.96982023076E+00 -0.54350628867E+01  0.12421612735E+02  0.92602580431E+02  0.91599459495E+02 0.  0.
         23    2    1    2    0    0 -0.20756510807E+02 -0.41289760890E+01  0.21295892608E+03  0.23299273698E+03  0.92120736554E+02 0.  0.
        -11    1    3    3    0    0  0.11308281459E+02  0.21546937544E+02  0.43701204607E+02  0.50019426538E+02  0.00000000000E+00 0. -1.
         11    1    3    3    0    0 -0.10338461228E+02 -0.26982000431E+02 -0.31279591872E+02  0.42583153893E+02  0.00000000000E+00 0.  1.
        -13    1    4    4    0    0 -0.26602274874E+02  0.38145189920E+02  0.71982816998E+02  0.85698672600E+02  0.00000000000E+00 0. -1.
         13    1    4    4    0    0  0.58457640665E+01 -0.42274166009E+02  0.14097610908E+03  0.14729406438E+03  0.00000000000E+00 0.  1.
         21    1    1    2  502  501  0.19786690576E+02  0.95640389758E+01 -0.12033241712E+02  0.25055595614E+02  0.00000000000E+00 0.  1.
<scales pt_clust_5="13000.00000" pt_clust_6="13000.00000" pt_clust_7="13000.00000" pt_clust_8="13000.00000" pt_clust_9="21.97690"></scales>
<clustering>
<clus scale="   21.977">  2  9  1 -1</clus>
<clus scale="   91.599">  5  6 -1 -1</clus>
<clus scale="   92.121">  7  8 -1 -1</clus>
<clus scale="   93.154">  2  5  1 -1</clus>
<clus scale="   93.667">  1  5  2 -1</clus>
</clustering>
</event>
<event>
 9    1  0.1434065E-005  0.1125737E+03  0.7546771E-02  0.1259248E+00
          3   -1    0    0  502    0  0.00000000000E+00  0.00000000000E+00  0.37951894357E+02  0.37951894357E+02  0.00000000000E+00 0. -1.
         -3   -1    0    0    0  501 -0.00000000000E+00 -0.00000000000E+00 -0.50111814338E+03  0.50111814338E+03  0.00000000000E+00 0.  1.
         23    2    1    2    0    0 -0.25909721998E+02 -0.58253479644E+02 -0.15765056936E+03  0.19211776568E+03  0.89391007852E+02 0.  0.
         23    2    1    2    0    0 -0.17797719992E+02  0.52677487798E+02 -0.16519167328E+03  0.19987318130E+03  0.97822917181E+02 0.  0.
        -11    1    4    4    0    0  0.35332118073E+02  0.47119306145E+02 -0.80561098137E+02  0.99793176681E+02  0.00000000000E+00 0.  1.
         11    1    4    4    0    0 -0.53129838065E+02  0.55581816526E+01 -0.84630575141E+02  0.10008000462E+03  0.00000000000E+00 0. -1.
        -13    1    3    3    0    0  0.12418883095E+01 -0.39106612548E+02 -0.15376824769E+03  0.15866802901E+03  0.00000000000E+00 0.  1.
         13    1    3    3    0    0 -0.27151610307E+02 -0.19146867097E+02 -0.38823216733E+01  0.33449736673E+02  0.00000000000E+00 0. -1.
         21    1    1    2  502  501  0.43707441990E+02  0.55759918464E+01 -0.14032400639E+03  0.14707909076E+03  0.00000000000E+00 0. -1.
<scales pt_clust_5="13000.00000" pt_clust_6="13000.00000" pt_clust_7="13000.00000" pt_clust_8="13000.00000" pt_clust_9="44.06169"></scales>
<clustering>
<clus scale="   44.062">  2  9  1 -1</clus>
<clus scale="   89.391">  7  8 -1 -1</clus>
<clus scale="   97.823">  5  6 -1 -1</clus>
<clus scale="  105.329">  2  7  1 -1</clus>
<clus scale="  112.574">  1  5  2 -1</clus>
</clustering>
</event>
<event>
 9    1  0.1434065E-005  0.9310610E+02  0.7546771E-02  0.1296406E+00
         -3   -1    0    0    0  501 -0.00000000000E+00  0.00000000000E+00  0.23201807990E+03  0.23201807990E+03  0.00000000000E+00 0.  1.
          3   -1    0    0  502    0  0.00000000000E+00 -0.00000000000E+00 -0.93530649052E+02  0.93530649052E+02  0.00000000000E+00 0. -1.
         23    2    1    2    0    0  0.41207161474E+02 -0.50794543604E+01  0.81935626165E+02  0.13008826737E+03  0.92117747792E+02 0.  0.
         23    2    1    2    0    0 -0.16439879575E+01 -0.12022167834E+02 -0.32143979088E+02  0.96846810201E+02  0.90547413208E+02 0.  0.
        -11    1    3    3    0    0  0.78641931094E+01  0.40235992399E+02  0.52443108101E+02  0.66566209182E+02  0.00000000000E+00 0.  1.
         11    1    3    3    0    0  0.33342968365E+02 -0.45315446759E+02  0.29492518064E+02  0.63522058185E+02  0.00000000000E+00 0. -1.
        -13    1    4    4    0    0  0.55567178126E+01 -0.44597420437E+02 -0.42560617318E+02  0.61896794497E+02  0.00000000000E+00 0.  1.
         13    1    4    4    0    0 -0.72007057700E+01  0.32575252603E+02  0.10416638229E+02  0.34950015705E+02  0.00000000000E+00 0. -1.
         21    1    1    2  502  501 -0.39563173517E+02  0.17101622194E+02  0.88695783772E+02  0.98613651384E+02  0.00000000000E+00 0.  1.
<scales pt_clust_5="13000.00000" pt_clust_6="13000.00000" pt_clust_7="13000.00000" pt_clust_8="13000.00000" pt_clust_9="43.10116"></scales>
<clustering>
<clus scale="   43.101">  1  9  2 -1</clus>
<clus scale="   90.547">  7  8 -1 -1</clus>
<clus scale="   91.553">  2  7  1 -1</clus>
<clus scale="   92.118">  5  6 -1 -1</clus>
<clus scale="   91.553">  2  5  1 -1</clus>
</clustering>
</event>
<event>
 9    1  0.1434065E-005  0.1007130E+03  0.7546771E-02  0.1283950E+00
         -2   -1    0    0    0  501 -0.00000000000E+00  0.00000000000E+00  0.21781823842E+03  0.21781823842E+03  0.00000000000E+00 0.  1.
          2   -1    0    0  502    0  0.00000000000E+00 -0.00000000000E+00 -0.12676443844E+03  0.12676443844E+03  0.00000000000E+00 0. -1.
         23    2    1    2    0    0  0.19562879770E+02 -0.73808367135E+02  0.97204597838E+02  0.15340290883E+03  0.90847879847E+02 0.  0.
         23    2    1    2    0    0 -0.26476243387E+02  0.28523828339E+02 -0.69413499866E+02  0.11307308768E+03  0.80328630927E+02 0.  0.
        -11    1    4    4    0    0  0.13668035980E+02 -0.16171675957E+02 -0.42003353981E+02  0.47038495474E+02  0.00000000000E+00 0.  1.
         11    1    4    4    0    0 -0.40144279367E+02  0.44695504297E+02 -0.27410145885E+02  0.66034592205E+02  0.00000000000E+00 0. -1.
        -13    1    3    3    0    0  0.36947847996E+02  0.34120981399E+01  0.46133151123E+02  0.59203492446E+02  0.00000000000E+00 0.  1.
         13    1    3    3    0    0 -0.17384968226E+02 -0.77220465275E+02  0.51071446715E+02  0.94199416384E+02  0.00000000000E+00 0. -1.
         21    1    1    2  502  501  0.69133636164E+01  0.45284538796E+02  0.63262702008E+02  0.78106680353E+02  0.00000000000E+00 0.  1.
<scales pt_clust_5="13000.00000" pt_clust_6="13000.00000" pt_clust_7="13000.00000" pt_clust_8="13000.00000" pt_clust_9="45.80921"></scales>
<clustering>
<clus scale="   45.809">  1  9  2 -1</clus>
<clus scale="   80.329">  5  6 -1 -1</clus>
<clus scale="   90.848">  7  8 -1 -1</clus>
<clus scale="   91.337">  2  5  1 -1</clus>
<clus scale="   91.337">  2  5  1 -1</clus>
</clustering>
</event>
<event>
 9    1  0.1434065E-005  0.1651125E+03  0.7546771E-02  0.1183323E+00
          2   -1    0    0  502    0  0.00000000000E+00  0.00000000000E+00  0.40187192650E+03  0.40187192650E+03  0.00000000000E+00 0. -1.
         -2   -1    0    0    0  501 -0.00000000000E+00 -0.00000000000E+00 -0.14608398689E+03  0.14608398689E+03  0.00000000000E+00 0.  1.
         23    2    1    2    0    0 -0.13460967378E+03 -0.26022154389E+02 -0.64066695572E+02  0.17724070911E+03  0.92264894132E+02 0.  0.
         23    2    1    2    0    0  0.12106843357E+03  0.44928336438E+02  0.30099794726E+03  0.34077553853E+03  0.94085505713E+02 0.  0.
        -11    1    3    3    0    0 -0.10651446876E+02 -0.21918499361E+02  0.16422021998E+02  0.29386335963E+02  0.00000000000E+00 0. -1.
         11    1    3    3    0    0 -0.12395822691E+03 -0.41036550273E+01 -0.80488717570E+02  0.14785437315E+03  0.00000000000E+00 0.  1.
        -13    1    4    4    0    0  0.13246886714E+03  0.23689023361E+02  0.23941620546E+03  0.27464393316E+03  0.00000000000E+00 0. -1.
         13    1    4    4    0    0 -0.11400433562E+02  0.21239313077E+02  0.61581741800E+02  0.66131605368E+02  0.00000000000E+00 0.  1.
         21    1    1    2  502  501  0.13541240208E+02 -0.18906182049E+02  0.18856687916E+02  0.29939665749E+02  0.00000000000E+00 0.  1.
<scales pt_clust_5="13000.00000" pt_clust_6="13000.00000" pt_clust_7="13000.00000" pt_clust_8="13000.00000" pt_clust_9="23.25530"></scales>
<clustering>
<clus scale="   23.255">  1  9  2 -1</clus>
<clus scale="   92.265">  5  6 -1 -1</clus>
<clus scale="   94.086">  7  8 -1 -1</clus>
<clus scale="  164.082">  2  5  1 -1</clus>
<clus scale="   23.255">  1  5  2 -1</clus>
</clustering>
</event>
<event>
 9    1  0.1434065E-005  0.1257781E+03  0.7546771E-02  0.1237568E+00
         -2   -1    0    0    0  501 -0.00000000000E+00  0.00000000000E+00  0.13850655888E+03  0.13850655888E+03  0.00000000000E+00 0.  1.
          2   -1    0    0  502    0  0.00000000000E+00 -0.00000000000E+00 -0.21937173582E+03  0.21937173582E+03  0.00000000000E+00 0. -1.
         23    2    1    2    0    0 -0.59727602243E+02 -0.10143606006E+01  0.40996296946E+02  0.11619242078E+03  0.90838135640E+02 0.  0.
         23    2    1    2    0    0  0.74920302356E+02  0.19513726794E+02 -0.15472455134E+03  0.20102844477E+03  0.10236655498E+03 0.  0.
        -13    1    4    4    0    0  0.12270907847E+02 -0.39080626470E+02 -0.35840165660E+02  0.54427823943E+02  0.00000000000E+00 0.  1.
         13    1    4    4    0    0  0.62649394508E+02  0.58594353264E+02 -0.11888438568E+03  0.14660062082E+03  0.00000000000E+00 0. -1.
        -13    1    3    3    0    0 -0.13698114565E+02 -0.38674335462E+02 -0.45537733960E+01  0.41280496826E+02  0.00000000000E+00 0. -1.
         13    1    3    3    0    0 -0.46029487678E+02  0.37659974861E+02  0.45550070342E+02  0.74911923955E+02  0.00000000000E+00 0.  1.
         21    1    1    2  502  501 -0.15192700113E+02 -0.18499366193E+02  0.32863077448E+02  0.40657429156E+02  0.00000000000E+00 0.  1.
<scales pt_clust_5="13000.00000" pt_clust_6="13000.00000" pt_clust_7="13000.00000" pt_clust_8="13000.00000" pt_clust_9="23.93835"></scales>
<clustering>
<clus scale="   23.938">  1  9  2 -1</clus>
<clus scale="   90.838">  7  8 -1 -1</clus>
<clus scale="  102.367">  5  6 -1 -1</clus>
<clus scale="  116.588">  1  7  2 -1</clus>
<clus scale="  125.778">  2  5  1 -1</clus>
</clustering>
</event>
<event>
 9    1  0.1434065E-005  0.1020959E+03  0.7546771E-02  0.1276172E+00
          3   -1    0    0  502    0  0.00000000000E+00  0.00000000000E+00  0.14243745438E+03  0.14243745438E+03  0.00000000000E+00 0. -1.
         -3   -1    0    0    0  501 -0.00000000000E+00 -0.00000000000E+00 -0.13352513142E+03  0.13352513142E+03  0.00000000000E+00 0.  1.
         23    2    1    2    0    0 -0.13525312575E+02  0.34118448285E+02 -0.44515123722E+01  0.98268920012E+02  0.91049228906E+02 0.  0.
         23    2    1    2    0    0  0.36461659729E+01 -0.52168988828E+02  0.64295964146E+02  0.12276187812E+03  0.90562739532E+02 0.  0.
        -11    1    4    4    0    0  0.28491991027E+02  0.14805373319E+01  0.56278598030E+02  0.63097275216E+02  0.00000000000E+00 0.  1.
         11    1    4    4    0    0 -0.24845825054E+02 -0.53649526160E+02  0.80173661161E+01  0.59664602900E+02  0.00000000000E+00 0. -1.
        -11    1    3    3    0    0 -0.35419712584E+02  0.35366289037E+02  0.29315009175E+02  0.58006035916E+02  0.00000000000E+00 0. -1.
         11    1    3    3    0    0  0.21894400009E+02 -0.12478407528E+01 -0.33766521547E+02  0.40262884096E+02  0.00000000000E+00 0.  1.
         21    1    1    2  502  501  0.98791466018E+01  0.18050540543E+02 -0.50932128811E+02  0.54931787671E+02  0.00000000000E+00 0.  1.
<scales pt_clust_5="13000.00000" pt_clust_6="13000.00000" pt_clust_7="13000.00000" pt_clust_8="13000.00000" pt_clust_9="20.57716"></scales>
<clustering>
<clus scale="   20.577">  2  9  1 -1</clus>
<clus scale="   90.563">  5  6 -1 -1</clus>
<clus scale="   91.049">  7  8 -1 -1</clus>
<clus scale="  101.662">  1  5  2 -1</clus>
<clus scale="  101.662">  1  5  2 -1</clus>
</clustering>
</event>
<event>
 9    1  0.1434065E-005  0.3154716E+03  0.7546771E-02  0.1077992E+00
         -2   -1    0    0    0  501 -0.00000000000E+00  0.00000000000E+00  0.81368694582E+02  0.81368694582E+02  0.00000000000E+00 0. -1.
          2   -1    0    0  502    0  0.00000000000E+00 -0.00000000000E+00 -0.17911099210E+04  0.17911099210E+04  0.00000000000E+00 0.  1.
         23    2    1    2    0    0  0.14305183413E+03 -0.23166080979E+03 -0.46430673602E+03  0.54676572149E+03  0.96132466126E+02 0.  0.
         23    2    1    2    0    0 -0.14034756492E+03  0.28266612049E+03 -0.12290780419E+04  0.12720809242E+04  0.89215861844E+02 0.  0.
        -11    1    3    3    0    0  0.45795973051E+02 -0.15918621693E+03 -0.29778450956E+03  0.34075377758E+03  0.00000000000E+00 0.  1.
         11    1    3    3    0    0  0.97255861083E+02 -0.72474592866E+02 -0.16652222646E+03  0.20601194390E+03  0.00000000000E+00 0. -1.
        -11    1    4    4    0    0 -0.21392927111E+02  0.27027444934E+02 -0.57403553972E+02  0.66957509800E+02  0.00000000000E+00 0. -1.
         11    1    4    4    0    0 -0.11895463781E+03  0.25563867555E+03 -0.11716744879E+04  0.12051234144E+04  0.00000000000E+00 0.  1.
         21    1    1    2  502  501 -0.27042692136E+01 -0.51005310695E+02 -0.16356448571E+02  0.53631969952E+02  0.00000000000E+00 0. -1.
<scales pt_clust_5="13000.00000" pt_clust_6="13000.00000" pt_clust_7="13000.00000" pt_clust_8="13000.00000" pt_clust_9="51.07695"></scales>
<clustering>
<clus scale="   51.077">  1  9  2 -1</clus>
<clus scale="   89.216">  7  8 -1 -1</clus>
<clus scale="   96.132">  5  6 -1 -1</clus>
<clus scale="  313.433">  2  7  1 -1</clus>
<clus scale="  313.433">  2  5  1 -1</clus>
</clustering>
</event>
<event>
 9    1  0.1434065E-005  0.9572707E+02  0.7546771E-02  0.1306963E+00
          2   -1    0    0  502    0  0.00000000000E+00  0.00000000000E+00  0.61916890703E+03  0.61916890703E+03  0.00000000000E+00 0. -1.
         -2   -1    0    0    0  501 -0.00000000000E+00 -0.00000000000E+00 -0.30166535875E+02  0.30166535875E+02  0.00000000000E+00 0.  1.
         23    2    1    2    0    0  0.22594665591E+02 -0.26584146270E+02  0.19068595817E+03  0.21472942978E+03  0.92359935155E+02 0.  0.
         23    2    1    2    0    0  0.25455004124E+02  0.18601424689E+02  0.37269108867E+03  0.37956828198E+03  0.64648765477E+02 0.  0.
        -13    1    3    3    0    0 -0.30335248567E+02 -0.10966771824E+02  0.27244807417E+02  0.42222943064E+02  0.00000000000E+00 0.  1.
         13    1    3    3    0    0  0.52929914158E+02 -0.15617374446E+02  0.16344115076E+03  0.17250648671E+03  0.00000000000E+00 0. -1.
        -13    1    4    4    0    0  0.16116640691E+02  0.42494629490E+02  0.26459846871E+03  0.26847325618E+03  0.00000000000E+00 0.  1.
         13    1    4    4    0    0  0.93383634324E+01 -0.23893204801E+02  0.10809261996E+03  0.11109502580E+03  0.00000000000E+00 0. -1.
         21    1    1    2  502  501 -0.48049669715E+02  0.79827215804E+01  0.25625324313E+02  0.55037731146E+02  0.00000000000E+00 0.  1.
<scales pt_clust_5="13000.00000" pt_clust_6="13000.00000" pt_clust_7="13000.00000" pt_clust_8="13000.00000" pt_clust_9="48.70826"></scales>
<clustering>
<clus scale="   48.708">  2  9  1 -1</clus>
<clus scale="   64.649">  7  8 -1 -1</clus>
<clus scale="   69.374">  1  7  2 -1</clus>
<clus scale="   92.360">  5  6 -1 -1</clus>
<clus scale="   69.374">  1  5  2 -1</clus>
</clustering>
</event>
<event>
 9    1  0.1434065E-005  0.9363607E+02  0.7546771E-02  0.1294816E+00
          1   -1    0    0  502    0  0.00000000000E+00  0.00000000000E+00  0.15413812330E+03  0.15413812330E+03  0.00000000000E+00 0. -1.
         -1   -1    0    0    0  501 -0.00000000000E+00 -0.00000000000E+00 -0.90048055859E+02  0.90048055859E+02  0.00000000000E+00 0.  1.
         23    2    1    2    0    0 -0.33404358480E+02 -0.18712001171E+01  0.62742636564E+01  0.97385424713E+02  0.91242544938E+02 0.  0.
         23    2    1    2    0    0  0.11676349359E+01  0.24983576898E+02  0.50624013033E+02  0.10648809936E+03  0.90285004981E+02 0.  0.
        -11    1    3    3    0    0  0.24546006895E+02 -0.23708327722E+02 -0.48404574083E+01  0.34467684659E+02  0.00000000000E+00 0.  1.
         11    1    3    3    0    0 -0.57950365375E+02  0.21837127605E+02  0.11114721065E+02  0.62917740054E+02  0.00000000000E+00 0. -1.
        -13    1    4    4    0    0  0.33457215459E+02  0.16919509148E+01 -0.90965281200E+01  0.34713034843E+02  0.00000000000E+00 0.  1.
         13    1    4    4    0    0 -0.32289580523E+02  0.23291625983E+02  0.59720541153E+02  0.71775064520E+02  0.00000000000E+00 0. -1.
         21    1    1    2  502  501  0.32236723545E+02 -0.23112376781E+02  0.71917907480E+01  0.40312655079E+02  0.00000000000E+00 0.  1.
<scales pt_clust_5="13000.00000" pt_clust_6="13000.00000" pt_clust_7="13000.00000" pt_clust_8="13000.00000" pt_clust_9="39.66596"></scales>
<clustering>
<clus scale="   39.666">  2  9  1 -1</clus>
<clus scale="   90.285">  7  8 -1 -1</clus>
<clus scale="   91.243">  5  6 -1 -1</clus>
<clus scale="   92.703">  1  7  2 -1</clus>
<clus scale="   92.703">  1  5  2 -1</clus>
</clustering>
</event>
<event>
 9    1  0.1434065E-005  0.1501940E+03  0.7546771E-02  0.1209927E+00
          1   -1    0    0  502    0  0.00000000000E+00  0.00000000000E+00  0.60450104977E+03  0.60450104977E+03  0.00000000000E+00 0. -1.
         -1   -1    0    0    0  501 -0.00000000000E+00 -0.00000000000E+00 -0.40026297656E+02  0.40026297656E+02  0.00000000000E+00 0.  1.
         23    2    1    2    0    0 -0.51532950723E+02 -0.71013018368E+02  0.22075855688E+03  0.26965151262E+03  0.12758959219E+03 0.  0.
         23    2    1    2    0    0  0.25177099524E+02  0.72166961270E+02  0.30708346342E+03  0.32973251286E+03  0.92635413798E+02 0.  0.
        -11    1    3    3    0    0  0.49477700111E+01 -0.73442702885E+02  0.19322335895E+03  0.20676938236E+03  0.00000000000E+00 0. -1.
         11    1    3    3    0    0 -0.56480720734E+02  0.24296845173E+01  0.27535197926E+02  0.62882130262E+02  0.00000000000E+00 0.  1.
        -11    1    4    4    0    0 -0.99589764309E+01  0.43310442348E+02  0.43258311761E+02  0.62018200266E+02  0.00000000000E+00 0.  1.
         11    1    4    4    0    0  0.35136075955E+02  0.28856518923E+02  0.26382515166E+03  0.26771431259E+03  0.00000000000E+00 0. -1.
         21    1    1    2  502  501  0.26355851199E+02 -0.11539429027E+01  0.36632731822E+02  0.45143321958E+02  0.00000000000E+00 0. -1.
<scales pt_clust_5="13000.00000" pt_clust_6="13000.00000" pt_clust_7="13000.00000" pt_clust_8="13000.00000" pt_clust_9="26.38110"></scales>
<clustering>
<clus scale="   26.381">  2  9  1 -1</clus>
<clus scale="   92.635">  7  8 -1 -1</clus>
<clus scale="  121.903">  1  7  2 -1</clus>
<clus scale="  127.590">  5  6 -1 -1</clus>
<clus scale="  121.903">  1  5  2 -1</clus>
</clustering>
</event>
<event>
 9    1  0.1434065E-005  0.1350482E+03  0.7546771E-02  0.1239313E+00
          1   -1    0    0  502    0  0.00000000000E+00  0.00000000000E+00  0.16136716604E+03  0.16136716604E+03  0.00000000000E+00 0. -1.
         -1   -1    0    0    0  501 -0.00000000000E+00 -0.00000000000E+00 -0.21686056512E+03  0.21686056512E+03  0.00000000000E+00 0.  1.
         23    2    1    2    0    0 -0.85209985600E+02 -0.54223647644E+02 -0.12143895293E+03  0.18311184912E+03  0.92636841418E+02 0.  0.
         23    2    1    2    0    0  0.12421341823E+02 -0.26842702269E+01  0.26787817916E+02  0.94766362555E+02  0.90008784260E+02 0.  0.
        -13    1    4    4    0    0 -0.38070422930E+02 -0.70041235892E+01  0.20202288348E+02  0.43664027572E+02  0.00000000000E+00 0.  1.
         13    1    4    4    0    0  0.50491764753E+02  0.43198533623E+01  0.65855295675E+01  0.51102334983E+02  0.00000000000E+00 0. -1.
        -13    1    3    3    0    0 -0.23244156155E+02  0.82886929764E+01 -0.83841847282E+02  0.87398218416E+02  0.00000000000E+00 0.  1.
         13    1    3    3    0    0 -0.61965829444E+02 -0.62512340620E+02 -0.37597105650E+02  0.95713630700E+02  0.00000000000E+00 0. -1.
         21    1    1    2  502  501  0.72788643777E+02  0.56907917871E+02  0.39157735935E+02  0.10034951949E+03  0.00000000000E+00 0. -1.
<scales pt_clust_5="13000.00000" pt_clust_6="13000.00000" pt_clust_7="13000.00000" pt_clust_8="13000.00000" pt_clust_9="98.26714"></scales>
<clustering>
<clus scale="   90.009">  5  6 -1 -1</clus>
<clus scale="   90.901">  1  5  2 -1</clus>
<clus scale="   92.637">  7  8 -1 -1</clus>
<clus scale="   98.267">  1  9  2 -1</clus>
<clus scale="   90.901">  1  5  2 -1</clus>
</clustering>
</event>
<event>
 9    1  0.1434065E-005  0.1189134E+03  0.7546771E-02  0.1249506E+00
          2   -1    0    0  502    0  0.00000000000E+00  0.00000000000E+00  0.68151626610E+03  0.68151626610E+03  0.00000000000E+00 0. -1.
         -2   -1    0    0    0  501 -0.00000000000E+00 -0.00000000000E+00 -0.30048860788E+02  0.30048860788E+02  0.00000000000E+00 0.  1.
         23    2    1    2    0    0  0.51832451654E+02 -0.33869507387E+02  0.18358933756E+03  0.21372664179E+03  0.90223533352E+02 0.  0.
         23    2    1    2    0    0 -0.17394432346E+02  0.65805603100E+02  0.34044667393E+03  0.36202739749E+03  0.10260095065E+03 0.  0.
        -11    1    3    3    0    0  0.66820678511E+02 -0.97709885193E+01  0.16862236359E+03  0.18164244216E+03  0.00000000000E+00 0. -1.
         11    1    3    3    0    0 -0.14988226857E+02 -0.24098518868E+02  0.14966973976E+02  0.32084199631E+02  0.00000000000E+00 0.  1.
        -13    1    4    4    0    0  0.26906260219E+02  0.70341812882E+02  0.17145144524E+03  0.18726322531E+03  0.00000000000E+00 0.  1.
         13    1    4    4    0    0 -0.44300692565E+02 -0.45362097826E+01  0.16899522868E+03  0.17476417218E+03  0.00000000000E+00 0. -1.
         21    1    1    2  502  501 -0.34438019308E+02 -0.31936095713E+02  0.12743139383E+03  0.13581108760E+03  0.00000000000E+00 0. -1.
<scales pt_clust_5="13000.00000" pt_clust_6="13000.00000" pt_clust_7="13000.00000" pt_clust_8="13000.00000" pt_clust_9="46.96692"></scales>
<clustering>
<clus scale="   46.967">  1  9  2 -1</clus>
<clus scale="   90.224">  5  6 -1 -1</clus>
<clus scale="  102.601">  7  8 -1 -1</clus>
<clus scale="  108.415">  2  5  1 -1</clus>
<clus scale="   46.967">  1  5  2 -1</clus>
</clustering>
</event>
<event>
 9    1  0.1434065E-005  0.1194734E+03  0.7546771E-02  0.1245394E+00
         -1   -1    0    0    0  501 -0.00000000000E+00  0.00000000000E+00  0.15660692556E+03  0.15660692556E+03  0.00000000000E+00 0.  1.
          1   -1    0    0  502    0  0.00000000000E+00 -0.00000000000E+00 -0.11160234885E+03  0.11160234885E+03  0.00000000000E+00 0. -1.
         23    2    1    2    0    0  0.87102201661E+02 -0.58473258007E+01  0.17447518308E+02  0.12431530177E+03  0.86769197332E+02 0.  0.
         23    2    1    2    0    0 -0.67670317362E+02  0.11668518045E+02  0.60932056870E+01  0.11436125553E+03  0.91246607853E+02 0.  0.
        -13    1    3    3    0    0  0.35855312107E+02  0.37490023937E+02  0.23455920042E+02  0.56932288608E+02  0.00000000000E+00 0.  1.
         13    1    3    3    0    0  0.51246889553E+02 -0.43337349738E+02 -0.60084017344E+01  0.67383013161E+02  0.00000000000E+00 0. -1.
        -13    1    4    4    0    0 -0.19029403252E+02  0.48490171889E+02  0.10711501236E+02  0.53180364954E+02  0.00000000000E+00 0.  1.
         13    1    4    4    0    0 -0.48640914111E+02 -0.36821653844E+02 -0.46182955490E+01  0.61180890571E+02  0.00000000000E+00 0. -1.
         21    1    1    2  502  501 -0.19431884298E+02 -0.58211922443E+01  0.21463852723E+02  0.29532717116E+02  0.00000000000E+00 0.  1.
<scales pt_clust_5="13000.00000" pt_clust_6="13000.00000" pt_clust_7="13000.00000" pt_clust_8="13000.00000" pt_clust_9="20.28508"></scales>
<clustering>
<clus scale="   20.285">  1  9  2 -1</clus>
<clus scale="   86.769">  5  6 -1 -1</clus>
<clus scale="   91.247">  7  8 -1 -1</clus>
<clus scale="  116.090">  1  5  2 -1</clus>
<clus scale="  119.473">  2  5  1 -1</clus>
</clustering>
</event>
<event>
 9    1  0.1434065E-005  0.1216425E+03  0.7546771E-02  0.1245611E+00
          2   -1    0    0  502    0  0.00000000000E+00  0.00000000000E+00  0.46406770931E+03  0.46406770931E+03  0.00000000000E+00 0. -1.
         -2   -1    0    0    0  501 -0.00000000000E+00 -0.00000000000E+00 -0.92930907971E+02  0.92930907971E+02  0.00000000000E+00 0.  1.
         23    2    1    2    0    0 -0.57172528309E+01 -0.70482855149E+02 -0.15083096393E+02  0.11430460791E+03  0.88529790144E+02 0.  0.
         23    2    1    2    0    0  0.26411084900E+02  0.58392038639E+02  0.39790809817E+03  0.41602874059E+03  0.10315950187E+03 0.  0.
        -11    1    4    4    0    0  0.41823909490E+02 -0.16429704384E+02  0.15631518169E+03  0.16264565970E+03  0.00000000000E+00 0.  1.
         11    1    4    4    0    0 -0.15412824589E+02  0.74821743024E+02  0.24159291647E+03  0.25338308089E+03  0.00000000000E+00 0. -1.
        -13    1    3    3    0    0 -0.96868811121E+01 -0.21430284906E+02 -0.49125570245E+02  0.54464799905E+02  0.00000000000E+00 0.  1.
         13    1    3    3    0    0  0.39696282811E+01 -0.49052570243E+02  0.34042473852E+02  0.59839808006E+02  0.00000000000E+00 0. -1.
         21    1    1    2  502  501 -0.20693832069E+02  0.12090816510E+02 -0.11688200438E+02  0.26665268779E+02  0.00000000000E+00 0. -1.
<scales pt_clust_5="13000.00000" pt_clust_6="13000.00000" pt_clust_7="13000.00000" pt_clust_8="13000.00000" pt_clust_9="23.96711"></scales>
<clustering>
<clus scale="   23.967">  2  9  1 -1</clus>
<clus scale="   88.530">  7  8 -1 -1</clus>
<clus scale="  103.160">  5  6 -1 -1</clus>
<clus scale="  109.510">  2  7  1 -1</clus>
<clus scale="  121.643">  1  5  2 -1</clus>
</clustering>
</event>
<event>
 9    1  0.1434065E-005  0.1614960E+03  0.7546771E-02  0.1190598E+00
          1   -1    0    0  502    0  0.00000000000E+00  0.00000000000E+00  0.13532311916E+03  0.13532311916E+03  0.00000000000E+00 0. -1.
         -1   -1    0    0    0  501 -0.00000000000E+00 -0.00000000000E+00 -0.62498635124E+03  0.62498635124E+03  0.00000000000E+00 0.  1.
         23    2    1    2    0    0 -0.15157148410E+03 -0.10015385336E+02 -0.32680337433E+03  0.36946936725E+03  0.81442894862E+02 0.  0.
         23    2    1    2    0    0  0.11907140773E+03 -0.23265589811E+02  0.55107122035E+02  0.16796461651E+03  0.10225472943E+03 0.  0.
        -11    1    3    3    0    0 -0.12500882007E+03 -0.64718284408E+01 -0.17408158450E+03  0.21441428992E+03  0.00000000000E+00 0.  1.
         11    1    3    3    0    0 -0.26562664024E+02 -0.35435568952E+01 -0.15272178983E+03  0.15505507733E+03  0.00000000000E+00 0. -1.
        -13    1    4    4    0    0  0.23939215483E+02 -0.20987340117E+02 -0.27410297994E+02  0.42010462022E+02  0.00000000000E+00 0.  1.
         13    1    4    4    0    0  0.95132192249E+02 -0.22782496943E+01  0.82517420029E+02  0.12595415449E+03  0.00000000000E+00 0. -1.
         21    1    1    2  502  501  0.32500076365E+02  0.33280975147E+02 -0.21796697978E+03  0.22287548664E+03  0.00000000000E+00 0.  1.
<scales pt_clust_5="13000.00000" pt_clust_6="13000.00000" pt_clust_7="13000.00000" pt_clust_8="13000.00000" pt_clust_9="46.51750"></scales>
<clustering>
<clus scale="   46.518">  2  9  1 -1</clus>
<clus scale="   81.443">  5  6 -1 -1</clus>
<clus scale="  102.255">  7  8 -1 -1</clus>
<clus scale="  149.191">  2  5  1 -1</clus>
<clus scale="  161.496">  1  5  2 -1</clus>
</clustering>
</event>
<event>
 9    1  0.1434065E-005  0.1579279E+03  0.7546771E-02  0.1191948E+00
          1   -1    0    0  502    0  0.00000000000E+00  0.00000000000E+00  0.23336222373E+03  0.23336222373E+03  0.00000000000E+00 0. -1.
         -1   -1    0    0    0  501 -0.00000000000E+00 -0.00000000000E+00 -0.14057950052E+03  0.14057950052E+03  0.00000000000E+00 0.  1.
         23    2    1    2    0    0 -0.13893291374E+03 -0.14630376513E+01 -0.16392948334E+02  0.16826927145E+03  0.93495047783E+02 0.  0.
         23    2    1    2    0    0  0.10629762813E+03  0.97821603272E+01  0.99870520217E+02  0.17073170995E+03  0.88206119777E+02 0.  0.
        -11    1    3    3    0    0 -0.11829275711E+03 -0.34882891971E+02 -0.29595302086E+02  0.12683010069E+03  0.00000000000E+00 0. -1.
         11    1    3    3    0    0 -0.20640156636E+02  0.33419854319E+02  0.13202353752E+02  0.41439170760E+02  0.00000000000E+00 0.  1.
        -13    1    4    4    0    0  0.39167486303E+01  0.19901502325E+02 -0.78741202136E+01  0.21758044116E+02  0.00000000000E+00 0. -1.
         13    1    4    4    0    0  0.10238087950E+03 -0.10119341997E+02  0.10774464043E+03  0.14897366583E+03  0.00000000000E+00 0.  1.
         21    1    1    2  502  501  0.32635285615E+02 -0.83191226759E+01  0.93051513306E+01  0.34940742845E+02  0.00000000000E+00 0. -1.
<scales pt_clust_5="13000.00000" pt_clust_6="13000.00000" pt_clust_7="13000.00000" pt_clust_8="13000.00000" pt_clust_9="33.67892"></scales>
<clustering>
<clus scale="   33.679">  1  9  2 -1</clus>
<clus scale="   88.206">  7  8 -1 -1</clus>
<clus scale="   93.495">  5  6 -1 -1</clus>
<clus scale="  154.855">  1  7  2 -1</clus>
<clus scale="   33.679">  1  5  2 -1</clus>
</clustering>
</event>
<event>
 9    1  0.1434065E-005  0.1060922E+03  0.7546771E-02  0.1270255E+00
         -2   -1    0    0    0  501 -0.00000000000E+00  0.00000000000E+00  0.24159697772E+03  0.24159697772E+03  0.00000000000E+00 0.  1.
          2   -1    0    0  502    0  0.00000000000E+00 -0.00000000000E+00 -0.55893957577E+03  0.55893957577E+03  0.00000000000E+00 0. -1.
         23    2    1    2    0    0 -0.61398034933E+01 -0.24702866665E+02  0.38106061897E+02  0.10276975914E+03  0.91987078610E+02 0.  0.
         23    2    1    2    0    0  0.14529462105E+01  0.54828027758E+02 -0.52020103453E+03  0.53021728856E+03  0.86677754257E+02 0.  0.
        -11    1    3    3    0    0 -0.99494708521E+00 -0.55333011032E+02  0.44554588829E+02  0.71048176720E+02  0.00000000000E+00 0.  1.
         11    1    3    3    0    0 -0.51448564081E+01  0.30630144367E+02 -0.64485269316E+01  0.31721582416E+02  0.00000000000E+00 0. -1.
        -13    1    4    4    0    0 -0.80980231683E+01 -0.21451387137E+02 -0.74960241883E+02  0.78388633439E+02  0.00000000000E+00 0.  1.
         13    1    4    4    0    0  0.95509693788E+01  0.76279414894E+02 -0.44524079265E+03  0.45182865512E+03  0.00000000000E+00 0. -1.
         21    1    1    2  502  501  0.46868572828E+01 -0.30125161092E+02  0.16475237459E+03  0.16754950580E+03  0.00000000000E+00 0.  1.
<scales pt_clust_5="13000.00000" pt_clust_6="13000.00000" pt_clust_7="13000.00000" pt_clust_8="13000.00000" pt_clust_9="30.48757"></scales>
<clustering>
<clus scale="   30.488">  1  9  2 -1</clus>
<clus scale="   86.678">  7  8 -1 -1</clus>
<clus scale="   91.987">  5  6 -1 -1</clus>
<clus scale="  101.523">  2  7  1 -1</clus>
<clus scale="  101.523">  2  5  1 -1</clus>
</clustering>
</event>
<event>
 9    1  0.1434065E-005  0.9350584E+02  0.7546771E-02  0.1300587E+00
         -1   -1    0    0    0  501 -0.00000000000E+00  0.00000000000E+00  0.33345852305E+03  0.33345852305E+03  0.00000000000E+00 0.  1.
          1   -1    0    0  502    0  0.00000000000E+00 -0.00000000000E+00 -0.36902491105E+02  0.36902491105E+02  0.00000000000E+00 0. -1.
         23    2    1    2    0    0  0.18139013630E+02  0.73388823357E+01  0.14711523191E+03  0.16993724491E+03  0.82782200607E+02 0.  0.
         23    2    1    2    0    0  0.55965006142E+01 -0.14245494118E+02  0.69868080613E+02  0.11709974151E+03  0.92717559559E+02 0.  0.
        -11    1    3    3    0    0  0.25116466114E+02  0.35686192987E+02  0.40993466647E+02  0.59873245675E+02  0.00000000000E+00 0. -1.
         11    1    3    3    0    0 -0.69774524836E+01 -0.28347310651E+02  0.10612176527E+03  0.11006399923E+03  0.00000000000E+00 0.  1.
        -11    1    4    4    0    0 -0.43575401009E+02 -0.46024524813E+01  0.34424917908E+02  0.55723182922E+02  0.00000000000E+00 0.  1.
         11    1    4    4    0    0  0.49171901623E+02 -0.96430416371E+01  0.35443162704E+02  0.61376558585E+02  0.00000000000E+00 0. -1.
         21    1    1    2  502  501 -0.23735514245E+02  0.69066117827E+01  0.79572719421E+02  0.83324027740E+02  0.00000000000E+00 0.  1.
<scales pt_clust_5="13000.00000" pt_clust_6="13000.00000" pt_clust_7="13000.00000" pt_clust_8="13000.00000" pt_clust_9="24.71995"></scales>
<clustering>
<clus scale="   24.720">  1  9  2 -1</clus>
<clus scale="   82.782">  5  6 -1 -1</clus>
<clus scale="   83.664">  1  5  2 -1</clus>
<clus scale="   92.718">  7  8 -1 -1</clus>
<clus scale="   93.506">  2  5  1 -1</clus>
</clustering>
</event>
<event>
 9    1  0.1434065E-005  0.1506314E+03  0.7546771E-02  0.1199834E+00
          2   -1    0    0  502    0  0.00000000000E+00  0.00000000000E+00  0.72963810220E+03  0.72963810220E+03  0.00000000000E+00 0. -1.
         -2   -1    0    0    0  501 -0.00000000000E+00 -0.00000000000E+00 -0.41365449975E+02  0.41365449975E+02  0.00000000000E+00 0.  1.
         23    2    1    2    0    0 -0.44732010121E+02 -0.92179976859E+02  0.18551254658E+03  0.22922499809E+03  0.87356132869E+02 0.  0.
         23    2    1    2    0    0  0.54284063577E+02  0.12393542111E+03  0.46259552083E+03  0.48969358659E+03  0.86593560338E+02 0.  0.
        -13    1    4    4    0    0  0.70910090662E+02  0.55265655539E+02  0.26682278901E+03  0.28156159961E+03  0.00000000000E+00 0.  1.
         13    1    4    4    0    0 -0.16626027085E+02  0.68669765573E+02  0.19577273182E+03  0.20813198698E+03  0.00000000000E+00 0. -1.
        -13    1    3    3    0    0 -0.30423872895E+02 -0.14536078120E+02  0.75750907867E+01  0.34558524411E+02  0.00000000000E+00 0.  1.
         13    1    3    3    0    0 -0.14308137225E+02 -0.77643898739E+02  0.17793745579E+03  0.19466647368E+03  0.00000000000E+00 0. -1.
         21    1    1    2  502  501 -0.95520534562E+01 -0.31755444253E+02  0.40164584818E+02  0.52084967491E+02  0.00000000000E+00 0.  1.
<scales pt_clust_5="13000.00000" pt_clust_6="13000.00000" pt_clust_7="13000.00000" pt_clust_8="13000.00000" pt_clust_9="33.16097"></scales>
<clustering>
<clus scale="   33.161">  2  9  1 -1</clus>
<clus scale="   86.594">  5  6 -1 -1</clus>
<clus scale="   87.356">  7  8 -1 -1</clus>
<clus scale="  150.190">  1  5  2 -1</clus>
<clus scale="  150.190">  1  5  2 -1</clus>
</clustering>
</event>
<event>
 9    1  0.1434065E-005  0.1109004E+03  0.7546771E-02  0.1259982E+00
         -3   -1    0    0    0  501 -0.00000000000E+00  0.00000000000E+00  0.40319410798E+03  0.40319410798E+03  0.00000000000E+00 0.  1.
          3   -1    0    0  502    0  0.00000000000E+00 -0.00000000000E+00 -0.77321178511E+02  0.77321178511E+02  0.00000000000E+00 0. -1.
         23    2    1    2    0    0 -0.28532710526E+01 -0.76115560545E+02  0.85164552563E+02  0.14552493092E+03  0.90126493287E+02 0.  0.
         23    2    1    2    0    0  0.15848109181E+02  0.50593954595E+02  0.15632461661E+02  0.10809966425E+03  0.92899153638E+02 0.  0.
        -11    1    3    3    0    0  0.18780350246E+02 -0.48244304407E+02  0.95612159712E+02  0.10872855903E+03  0.00000000000E+00 0.  1.
         11    1    3    3    0    0 -0.21633621298E+02 -0.27871256138E+02 -0.10447607149E+02  0.36796371890E+02  0.00000000000E+00 0. -1.
        -13    1    4    4    0    0  0.27869103921E+02 -0.15811242595E+02  0.24089647967E+02  0.40087323245E+02  0.00000000000E+00 0.  1.
         13    1    4    4    0    0 -0.12020994740E+02  0.66405197190E+02 -0.84571863058E+01  0.68012341002E+02  0.00000000000E+00 0. -1.
         21    1    1    2  502  501 -0.12994838129E+02  0.25521605950E+02  0.22507591524E+03  0.22689069133E+03  0.00000000000E+00 0.  1.
<scales pt_clust_5="13000.00000" pt_clust_6="13000.00000" pt_clust_7="13000.00000" pt_clust_8="13000.00000" pt_clust_9="28.63945"></scales>
<clustering>
<clus scale="   28.639">  1  9  2 -1</clus>
<clus scale="   90.126">  5  6 -1 -1</clus>
<clus scale="   92.899">  7  8 -1 -1</clus>
<clus scale="  108.588">  1  5  2 -1</clus>
<clus scale="  110.900">  2  5  1 -1</clus>
</clustering>
</event>
<event>
 9    1  0.1434065E-005  0.1413684E+03  0.7546771E-02  0.1212109E+00
         -2   -1    0    0    0  501 -0.00000000000E+00  0.00000000000E+00  0.31012429893E+02  0.31012429893E+02  0.00000000000E+00 0.  1.
          2   -1    0    0  502    0  0.00000000000E+00 -0.00000000000E+00 -0.92258173987E+03  0.92258173987E+03  0.00000000000E+00 0. -1.
         23    2    1    2    0    0  0.40628485308E+02 -0.11222521994E+03 -0.28398169089E+03  0.32067340993E+03  0.89110388104E+02 0.  0.
         23    2    1    2    0    0 -0.47059373918E+02  0.91031583206E+02 -0.58613476707E+03  0.60208650248E+03  0.91939422927E+02 0.  0.
        -11    1    3    3    0    0  0.24952838638E+01 -0.40572516430E+02 -0.21616194117E+02  0.46039280827E+02  0.00000000000E+00 0.  1.
         11    1    3    3    0    0  0.38133201444E+02 -0.71652703514E+02 -0.26236549677E+03  0.27463412911E+03  0.00000000000E+00 0. -1.
        -11    1    4    4    0    0 -0.12297315015E+02  0.10033046428E+03 -0.40611151876E+03  0.41850208086E+03  0.00000000000E+00 0. -1.
         11    1    4    4    0    0 -0.34762058902E+02 -0.92988810718E+01 -0.18002324831E+03  0.18358442162E+03  0.00000000000E+00 0.  1.
         21    1    1    2  502  501  0.64308886100E+01  0.21193636738E+02 -0.21452852020E+02  0.30834257349E+02  0.00000000000E+00 0.  1.
<scales pt_clust_5="13000.00000" pt_clust_6="13000.00000" pt_clust_7="13000.00000" pt_clust_8="13000.00000" pt_clust_9="22.14783"></scales>
<clustering>
<clus scale="   22.148">  1  9  2 -1</clus>
<clus scale="   89.110">  5  6 -1 -1</clus>
<clus scale="   91.939">  7  8 -1 -1</clus>
<clus scale="  139.545">  1  5  2 -1</clus>
<clus scale="  141.368">  2  5  1 -1</clus>
</clustering>
</event>
<event>
 9    1  0.1434065E-005  0.1249943E+03  0.7546771E-02  0.1235204E+00
         -2   -1    0    0    0  501 -0.00000000000E+00  0.00000000000E+00  0.12204282897E+03  0.12204282897E+03  0.00000000000E+00 0.  1.
          2   -1    0    0  502    0  0.00000000000E+00 -0.00000000000E+00 -0.21582420749E+03  0.21582420749E+03  0.00000000000E+00 0. -1.
         23    2    1    2    0    0  0.42913432996E+02  0.53862405155E+02  0.17528047337E+02  0.11746335713E+03  0.93529067167E+02 0.  0.
         23    2    1    2    0    0 -0.29048586956E+02 -0.84924802704E+02 -0.12848534610E+03  0.18229700362E+03  0.93100326772E+02 0.  0.
        -11    1    3    3    0    0 -0.10741329765E+01  0.61641421259E+02  0.33326386867E+02  0.70081856697E+02  0.00000000000E+00 0.  1.
         11    1    3    3    0    0  0.43987565973E+02 -0.77790161042E+01 -0.15798339529E+02  0.47381500437E+02  0.00000000000E+00 0. -1.
        -13    1    4    4    0    0  0.18897411367E+02 -0.34182625404E+02 -0.36002657844E+01  0.39224048103E+02  0.00000000000E+00 0. -1.
         13    1    4    4    0    0 -0.47945998324E+02 -0.50742177300E+02 -0.12488508032E+03  0.14307295551E+03  0.00000000000E+00 0.  1.
         21    1    1    2  502  501 -0.13864846040E+02  0.31062397549E+02  0.17175920255E+02  0.38106675712E+02  0.00000000000E+00 0.  1.
<scales pt_clust_5="13000.00000" pt_clust_6="13000.00000" pt_clust_7="13000.00000" pt_clust_8="13000.00000" pt_clust_9="34.01627"></scales>
<clustering>
<clus scale="   34.016">  1  9  2 -1</clus>
<clus scale="   93.100">  7  8 -1 -1</clus>
<clus scale="   93.529">  5  6 -1 -1</clus>
<clus scale="  124.674">  2  7  1 -1</clus>
<clus scale="  124.674">  2  5  1 -1</clus>
</clustering>
</event>
<event>
 9    1  0.1434065E-005  0.1201237E+03  0.7546771E-02  0.1243064E+00
         -3   -1    0    0    0  501 -0.00000000000E+00  0.00000000000E+00  0.13939301680E+03  0.13939301680E+03  0.00000000000E+00 0.  1.
          3   -1    0    0  502    0  0.00000000000E+00 -0.00000000000E+00 -0.23681261253E+03  0.23681261253E+03  0.00000000000E+00 0. -1.
         23    2    1    2    0    0 -0.78819204609E+02 -0.20690312694E+02  0.43571655039E+02  0.12982215895E+03  0.91185238814E+02 0.  0.
         23    2    1    2    0    0  0.72987972731E+02 -0.36434672472E+02 -0.14422892873E+03  0.18887043052E+03  0.90638436228E+02 0.  0.
        -11    1    3    3    0    0  0.12940923830E+02 -0.20433234580E+02 -0.68277702829E+01  0.25131713671E+02  0.00000000000E+00 0. -1.
         11    1    3    3    0    0 -0.91760128439E+02 -0.25707811324E+00  0.50399425322E+02  0.10469044528E+03  0.00000000000E+00 0.  1.
        -11    1    4    4    0    0  0.17306591836E+02 -0.56963736402E+02 -0.93256101449E+02  0.11063944072E+03  0.00000000000E+00 0.  1.
         11    1    4    4    0    0  0.55681380895E+02  0.20529063929E+02 -0.50972827276E+02  0.78230989797E+02  0.00000000000E+00 0. -1.
         21    1    1    2  502  501  0.58312318780E+01  0.57124985166E+02  0.32376779591E+01  0.57513039861E+02  0.00000000000E+00 0.  1.
<scales pt_clust_5="13000.00000" pt_clust_6="13000.00000" pt_clust_7="13000.00000" pt_clust_8="13000.00000" pt_clust_9="57.42184"></scales>
<clustering>
<clus scale="   57.422">  1  9  2 -1</clus>
<clus scale="   90.638">  7  8 -1 -1</clus>
<clus scale="   91.185">  5  6 -1 -1</clus>
<clus scale="  119.709">  2  7  1 -1</clus>
<clus scale="  119.709">  2  5  1 -1</clus>
</clustering>
</event>
<event>
 9    1  0.1434065E-005  0.1101277E+03  0.7546771E-02  0.1261860E+00
          2   -1    0    0  502    0  0.00000000000E+00  0.00000000000E+00  0.14518137209E+03  0.14518137209E+03  0.00000000000E+00 0. -1.
         -2   -1    0    0    0  501 -0.00000000000E+00 -0.00000000000E+00 -0.18013326320E+03  0.18013326320E+03  0.00000000000E+00 0.  1.
         23    2    1    2    0    0 -0.44572362026E+01 -0.29720226412E+02 -0.10749468877E+03  0.14297936659E+03  0.89357889099E+02 0.  0.
         23    2    1    2    0    0  0.36336184672E+02  0.54991012371E+02  0.82007067308E+02  0.14056862676E+03  0.93220437583E+02 0.  0.
        -11    1    3    3    0    0 -0.10724665669E+02 -0.57988264071E+02 -0.45256808785E+02  0.74335966834E+02  0.00000000000E+00 0.  1.
         11    1    3    3    0    0  0.62674294661E+01  0.28268037659E+02 -0.62237879981E+02  0.68643399754E+02  0.00000000000E+00 0. -1.
        -11    1    4    4    0    0  0.49990590810E+02  0.48036335072E+01  0.91442998129E+01  0.51046569752E+02  0.00000000000E+00 0.  1.
         11    1    4    4    0    0 -0.13654406138E+02  0.50187378864E+02  0.72862767495E+02  0.89522057010E+02  0.00000000000E+00 0. -1.
         21    1    1    2  502  501 -0.31878948469E+02 -0.25270785959E+02 -0.94642696548E+01  0.41766641936E+02  0.00000000000E+00 0. -1.
<scales pt_clust_5="13000.00000" pt_clust_6="13000.00000" pt_clust_7="13000.00000" pt_clust_8="13000.00000" pt_clust_9="40.68022"></scales>
<clustering>
<clus scale="   40.680">  2  9  1 -1</clus>
<clus scale="   89.358">  5  6 -1 -1</clus>
<clus scale="   93.220">  7  8 -1 -1</clus>
<clus scale="  106.878">  2  5  1 -1</clus>
<clus scale="  110.128">  1  5  2 -1</clus>
</clustering>
</event>
<event>
 9    1  0.1434065E-005  0.1569527E+03  0.7546771E-02  0.1192683E+00
         -1   -1    0    0    0  501 -0.00000000000E+00  0.00000000000E+00  0.22533416151E+03  0.22533416151E+03  0.00000000000E+00 0.  1.
          1   -1    0    0  502    0  0.00000000000E+00 -0.00000000000E+00 -0.12585922862E+03  0.12585922862E+03  0.00000000000E+00 0. -1.
         23    2    1    2    0    0  0.70417490541E+02 -0.11242890409E+03  0.76423010931E+02  0.17952721840E+03  0.93758541457E+02 0.  0.
         23    2    1    2    0    0 -0.74168156640E+02  0.91716420753E+02  0.22810443105E+02  0.15061545263E+03  0.90839864390E+02 0.  0.
        -11    1    4    4    0    0 -0.48332794332E+02  0.27306100244E+02  0.51309323117E+02  0.75593179303E+02  0.00000000000E+00 0.  1.
         11    1    4    4    0    0 -0.25835362309E+02  0.64410320509E+02 -0.28498880012E+02  0.75022273330E+02  0.00000000000E+00 0. -1.
        -13    1    3    3    0    0  0.83716779796E+02 -0.48228131286E+02  0.40427008802E+02  0.10473201472E+03  0.00000000000E+00 0.  1.
         13    1    3    3    0    0 -0.13299289255E+02 -0.64200772809E+02  0.35996002129E+02  0.74795203678E+02  0.00000000000E+00 0. -1.
         21    1    1    2  502  501  0.37506660997E+01  0.20712483342E+02  0.24147885484E+00  0.21050719095E+02  0.00000000000E+00 0.  1.
<scales pt_clust_5="13000.00000" pt_clust_6="13000.00000" pt_clust_7="13000.00000" pt_clust_8="13000.00000" pt_clust_9="21.04933"></scales>
<clustering>
<clus scale="   21.049">  2  9  1 -1</clus>
<clus scale="   90.840">  5  6 -1 -1</clus>
<clus scale="   93.759">  7  8 -1 -1</clus>
<clus scale="  155.227">  2  5  1 -1</clus>
<clus scale="   21.049">  2  5  1 -1</clus>
</clustering>
</event>
<event>
 9    1  0.1434065E-005  0.9548766E+02  0.7546771E-02  0.1290396E+00
          4   -1    0    0  502    0  0.00000000000E+00  0.00000000000E+00  0.11742782083E+03  0.11742782083E+03  0.00000000000E+00 0. -1.
         -4   -1    0    0    0  501 -0.00000000000E+00 -0.00000000000E+00 -0.26061582099E+03  0.26061582099E+03  0.00000000000E+00 0.  1.
         23    2    1    2    0    0  0.25069203682E+00  0.30777656658E+02 -0.12112774932E+03  0.15622986711E+03  0.93747067827E+02 0.  0.
         23    2    1    2    0    0 -0.18416296447E+02 -0.52493377894E+01  0.74162712284E+02  0.12061820721E+03  0.93176866745E+02 0.  0.
        -11    1    3    3    0    0  0.36945211902E+02 -0.12132072793E+02 -0.69924172515E+02  0.80009535523E+02  0.00000000000E+00 0.  1.
         11    1    3    3    0    0 -0.36694519865E+02  0.42909729451E+02 -0.51203576809E+02  0.76220331590E+02  0.00000000000E+00 0. -1.
        -13    1    4    4    0    0 -0.48041127677E+02  0.21008049972E+02  0.57067446417E+02  0.77498268062E+02  0.00000000000E+00 0. -1.
         13    1    4    4    0    0  0.29624831230E+02 -0.26257387761E+02  0.17095265866E+02  0.43119939152E+02  0.00000000000E+00 0.  1.
         21    1    1    2  502  501  0.18165604410E+02 -0.25528318869E+02 -0.96222963121E+02  0.10119556749E+03  0.00000000000E+00 0.  1.
<scales pt_clust_5="13000.00000" pt_clust_6="13000.00000" pt_clust_7="13000.00000" pt_clust_8="13000.00000" pt_clust_9="31.33184"></scales>
<clustering>
<clus scale="   31.332">  2  9  1 -1</clus>
<clus scale="   93.177">  7  8 -1 -1</clus>
<clus scale="   93.747">  5  6 -1 -1</clus>
<clus scale="   94.928">  1  7  2 -1</clus>
<clus scale="   94.928">  1  5  2 -1</clus>
</clustering>
</event>
<event>
 9    1  0.1434065E-005  0.1246606E+03  0.7546771E-02  0.1247008E+00
          1   -1    0    0  502    0  0.00000000000E+00  0.00000000000E+00  0.33576645470E+03  0.33576645470E+03  0.00000000000E+00 0. -1.
         -1   -1    0    0    0  501 -0.00000000000E+00 -0.00000000000E+00 -0.84190772090E+02  0.84190772090E+02  0.00000000000E+00 0.  1.
         23    2    1    2    0    0 -0.21397273780E+02 -0.32374396335E+02  0.42853870096E+02  0.10781287224E+03  0.91001188864E+02 0.  0.
         23    2    1    2    0    0  0.30552052115E+02 -0.71887187919E+02  0.15344540085E+03  0.19378148198E+03  0.88907682687E+02 0.  0.
        -11    1    3    3    0    0 -0.16864140043E+02 -0.53340697011E+02  0.58742118953E+02  0.81118836999E+02  0.00000000000E+00 0. -1.
         11    1    3    3    0    0 -0.45331337370E+01  0.20966300676E+02 -0.15888248857E+02  0.26694035238E+02  0.00000000000E+00 0.  1.
        -13    1    4    4    0    0  0.31861299016E+01 -0.44720551151E+02  0.14823956072E+03  0.15487106405E+03  0.00000000000E+00 0. -1.
         13    1    4    4    0    0  0.27365922213E+02 -0.27166636768E+02  0.52058401347E+01  0.38910417929E+02  0.00000000000E+00 0.  1.
         21    1    1    2  502  501 -0.91547783349E+01  0.10426158425E+03  0.55276411662E+02  0.11836287257E+03  0.00000000000E+00 0.  1.
<scales pt_clust_5="13000.00000" pt_clust_6="13000.00000" pt_clust_7="13000.00000" pt_clust_8="13000.00000" pt_clust_9="87.38246"></scales>
<clustering>
<clus scale="   88.908">  7  8 -1 -1</clus>
<clus scale="   91.001">  5  6 -1 -1</clus>
<clus scale="   98.930">  2  5  1 -1</clus>
<clus scale="   87.382">  2  9  1 -1</clus>
<clus scale="  124.661">  1  5  2 -1</clus>
</clustering>
</event>
<event>
 9    1  0.1434065E-005  0.1077917E+03  0.7546771E-02  0.1265167E+00
         -1   -1    0    0    0  501 -0.00000000000E+00  0.00000000000E+00  0.21223488278E+03  0.21223488278E+03  0.00000000000E+00 0.  1.
          1   -1    0    0  502    0  0.00000000000E+00 -0.00000000000E+00 -0.18540222451E+03  0.18540222451E+03  0.00000000000E+00 0. -1.
         23    2    1    2    0    0 -0.15449548139E+01  0.66443642627E+02  0.17906923540E+02  0.11317204284E+03  0.89833784511E+02 0.  0.
         23    2    1    2    0    0  0.37624818570E+02 -0.44886377368E+02 -0.11243675768E+03  0.15603093029E+03  0.90957203587E+02 0.  0.
        -13    1    3    3    0    0 -0.38260705532E+02  0.62966813841E+02  0.19636470487E+02  0.76251506256E+02  0.00000000000E+00 0.  1.
         13    1    3    3    0    0  0.36715750718E+02  0.34768287860E+01 -0.17295469473E+01  0.36920536587E+02  0.00000000000E+00 0. -1.
        -13    1    4    4    0    0  0.63997371262E+02 -0.10525802196E+02 -0.66300436065E+02  0.92748066625E+02  0.00000000000E+00 0.  1.
         13    1    4    4    0    0 -0.26372552692E+02 -0.34360575172E+02 -0.46136321613E+02  0.63282863665E+02  0.00000000000E+00 0. -1.
         21    1    1    2  502  501 -0.36079863756E+02 -0.21557265259E+02  0.12136249241E+03  0.12843413416E+03  0.00000000000E+00 0.  1.
<scales pt_clust_5="13000.00000" pt_clust_6="13000.00000" pt_clust_7="13000.00000" pt_clust_8="13000.00000" pt_clust_9="42.02942"></scales>
<clustering>
<clus scale="   42.029">  1  9  2 -1</clus>
<clus scale="   89.834">  5  6 -1 -1</clus>
<clus scale="   90.957">  7  8 -1 -1</clus>
<clus scale="  106.845">  1  5  2 -1</clus>
<clus scale="  107.792">  2  5  1 -1</clus>
</clustering>
</event>
<event>
 9    1  0.1434065E-005  0.1448074E+03  0.7546771E-02  0.1207169E+00
         -1   -1    0    0    0  501 -0.00000000000E+00  0.00000000000E+00  0.14771439640E+03  0.14771439640E+03  0.00000000000E+00 0.  1.
          1   -1    0    0  502    0  0.00000000000E+00 -0.00000000000E+00 -0.34313828261E+03  0.34313828261E+03  0.00000000000E+00 0. -1.
         23    2    1    2    0    0  0.88573172649E+02  0.82575400669E+02  0.61765136945E+02  0.16361364844E+03  0.91052677631E+02 0.  0.
         23    2    1    2    0    0 -0.92240121544E+02 -0.61184603107E+02 -0.26710776909E+03  0.30337704710E+03  0.91865536070E+02 0.  0.
        -11    1    3    3    0    0  0.73612927390E+02  0.39295491274E+02 -0.39260149933E+01  0.83536891893E+02  0.00000000000E+00 0. -1.
         11    1    3    3    0    0  0.14960245259E+02  0.43279909394E+02  0.65691151939E+02  0.80076756543E+02  0.00000000000E+00 0.  1.
        -13    1    4    4    0    0 -0.73598353295E+02  0.12865550023E+01 -0.10135689278E+03  0.12526608697E+03  0.00000000000E+00 0.  1.
         13    1    4    4    0    0 -0.18641768250E+02 -0.62471158109E+02 -0.16575087631E+03  0.17811096012E+03  0.00000000000E+00 0. -1.
         21    1    1    2  502  501  0.36669488955E+01 -0.21390797562E+02  0.99187459421E+01  0.23861983480E+02  0.00000000000E+00 0. -1.
<scales pt_clust_5="13000.00000" pt_clust_6="13000.00000" pt_clust_7="13000.00000" pt_clust_8="13000.00000" pt_clust_9="21.70283"></scales>
<clustering>
<clus scale="   21.703">  1  9  2 -1</clus>
<clus scale="   91.053">  5  6 -1 -1</clus>
<clus scale="   91.866">  7  8 -1 -1</clus>
<clus scale="  144.293">  1  5  2 -1</clus>
<clus scale="  144.807">  2  5  1 -1</clus>
</clustering>
</event>
<event>
 9    1  0.1434065E-005  0.1254562E+03  0.7546771E-02  0.1241184E+00
         -1   -1    0    0    0  501 -0.00000000000E+00  0.00000000000E+00  0.11591176141E+03  0.11591176141E+03  0.00000000000E+00 0.  1.
          1   -1    0    0  502    0  0.00000000000E+00 -0.00000000000E+00 -0.23341367893E+03  0.23341367893E+03  0.00000000000E+00 0. -1.
         23    2    1    2    0    0  0.61371888369E+01  0.84220116267E+02  0.17321302453E+02  0.13993282424E+03  0.11022919173E+03 0.  0.
         23    2    1    2    0    0 -0.22096491816E+02 -0.50344479710E+02 -0.13496477515E+03  0.17194561166E+03  0.91252294497E+02 0.  0.
        -11    1    4    4    0    0 -0.51264996968E+02 -0.35494960261E+02 -0.12147541915E+03  0.13654402065E+03  0.00000000000E+00 0.  1.
         11    1    4    4    0    0  0.29168505152E+02 -0.14849519448E+02 -0.13489355995E+02  0.35401591007E+02  0.00000000000E+00 0. -1.
        -11    1    3    3    0    0  0.33013527273E+02  0.37382827280E+02 -0.37942678791E+02  0.62665904863E+02  0.00000000000E+00 0. -1.
         11    1    3    3    0    0 -0.26876338436E+02  0.46837288987E+02  0.55263981243E+02  0.77266919378E+02  0.00000000000E+00 0.  1.
         21    1    1    2  502  501  0.15959302979E+02 -0.33875636557E+02  0.14155516935E+00  0.37447004441E+02  0.00000000000E+00 0. -1.
<scales pt_clust_5="13000.00000" pt_clust_6="13000.00000" pt_clust_7="13000.00000" pt_clust_8="13000.00000" pt_clust_9="37.44674"></scales>
<clustering>
<clus scale="   37.447">  1  9  2 -1</clus>
<clus scale="   91.252">  5  6 -1 -1</clus>
<clus scale="  109.159">  2  5  1 -1</clus>
<clus scale="  110.229">  7  8 -1 -1</clus>
<clus scale="  109.159">  2  5  1 -1</clus>
</clustering>
</event>
<event>
 9    1  0.1434065E-005  0.9483470E+02  0.7546771E-02  0.1294986E+00
          4   -1    0    0  502    0  0.00000000000E+00  0.00000000000E+00  0.57253637334E+03  0.57253637334E+03  0.00000000000E+00 0. -1.
         -4   -1    0    0    0  501 -0.00000000000E+00 -0.00000000000E+00 -0.63092524069E+02  0.63092524069E+02  0.00000000000E+00 0.  1.
         23    2    1    2    0    0  0.19136203664E+02  0.43644843549E+02  0.21619854053E+03  0.23734454753E+03  0.85554419273E+02 0.  0.
         23    2    1    2    0    0  0.41557838758E+02  0.33197038214E+02  0.28039825387E+03  0.29952459898E+03  0.90899435146E+02 0.  0.
        -11    1    3    3    0    0 -0.17492387624E+02 -0.14082928235E+02  0.21895485838E+02  0.31364387329E+02  0.00000000000E+00 0.  1.
         11    1    3    3    0    0  0.36628591288E+02  0.57727771784E+02  0.19430305469E+03  0.20598016020E+03  0.00000000000E+00 0. -1.
        -13    1    4    4    0    0 -0.15065827896E+02  0.40463802275E+02  0.77143325792E+02  0.88404701114E+02  0.00000000000E+00 0.  1.
         13    1    4    4    0    0  0.56623666653E+02 -0.72667640618E+01  0.20325492808E+03  0.21111989786E+03  0.00000000000E+00 0. -1.
         21    1    1    2  502  501 -0.60694042422E+02 -0.76841881763E+02  0.12847054867E+02  0.98759750896E+02  0.00000000000E+00 0.  1.
<scales pt_clust_5="13000.00000" pt_clust_6="13000.00000" pt_clust_7="13000.00000" pt_clust_8="13000.00000" pt_clust_9="97.92059"></scales>
<clustering>
<clus scale="   85.554">  5  6 -1 -1</clus>
<clus scale="   90.899">  7  8 -1 -1</clus>
<clus scale="   97.921">  2  9  1 -1</clus>
<clus scale="   97.921">  2  5  1 -1</clus>
<clus scale="   91.846">  1  5  2 -1</clus>
</clustering>
</event>
<event>
 9    1  0.1434065E-005  0.1093187E+03  0.7546771E-02  0.1262431E+00
          1   -1    0    0  502    0  0.00000000000E+00  0.00000000000E+00  0.17633496480E+03  0.17633496480E+03  0.00000000000E+00 0. -1.
         -1   -1    0    0    0  501 -0.00000000000E+00 -0.00000000000E+00 -0.88489674500E+02  0.88489674500E+02  0.00000000000E+00 0.  1.
         23    2    1    2    0    0 -0.75929207899E+02  0.58116083397E-01  0.58002892028E+02  0.12905192155E+03  0.86745691432E+02 0.  0.
         23    2    1    2    0    0  0.52869271816E+02  0.46557216102E+01  0.39475686205E+02  0.11034082529E+03  0.88317225268E+02 0.  0.
        -11    1    4    4    0    0 -0.16158669808E+02 -0.14136327613E+02  0.31829170588E+02  0.38393156534E+02  0.00000000000E+00 0. -1.
         11    1    4    4    0    0  0.69027941624E+02  0.18792049223E+02  0.76465156178E+01  0.71947668760E+02  0.00000000000E+00 0.  1.
        -13    1    3    3    0    0 -0.17323671092E+02  0.32193483660E+02  0.49703778728E+02  0.61700855668E+02  0.00000000000E+00 0.  1.
         13    1    3    3    0    0 -0.58605536807E+02 -0.32135367576E+02  0.82991132999E+01  0.67351065881E+02  0.00000000000E+00 0. -1.
         21    1    1    2  502  501  0.23059936083E+02 -0.47138376936E+01 -0.96332879291E+01  0.25431892464E+02  0.00000000000E+00 0.  1.
<scales pt_clust_5="13000.00000" pt_clust_6="13000.00000" pt_clust_7="13000.00000" pt_clust_8="13000.00000" pt_clust_9="23.53680"></scales>
<clustering>
<clus scale="   23.537">  2  9  1 -1</clus>
<clus scale="   86.746">  7  8 -1 -1</clus>
<clus scale="   88.317">  5  6 -1 -1</clus>
<clus scale="  108.053">  2  7  1 -1</clus>
<clus scale="  109.319">  1  5  2 -1</clus>
</clustering>
</event>
<event>
 9    1  0.1434065E-005  0.1210284E+03  0.7546771E-02  0.1241888E+00
         -2   -1    0    0    0  501 -0.00000000000E+00  0.00000000000E+00  0.38866089196E+02  0.38866089196E+02  0.00000000000E+00 0.  1.
          2   -1    0    0  502    0  0.00000000000E+00 -0.00000000000E+00 -0.66973046479E+03  0.66973046479E+03  0.00000000000E+00 0. -1.
         23    2    1    2    0    0 -0.72195502815E+02  0.58649591547E+01 -0.14978511328E+03  0.18959559741E+03  0.90908316583E+02 0.  0.
         23    2    1    2    0    0  0.76766819081E+02 -0.25584148417E+02 -0.48326995058E+03  0.49864064046E+03  0.92438898814E+02 0.  0.
        -11    1    3    3    0    0 -0.33616670230E+02  0.27621271828E+01 -0.14696895752E+03  0.15078986815E+03  0.00000000000E+00 0. -1.
         11    1    3    3    0    0 -0.38578832585E+02  0.31028319720E+01 -0.28161557644E+01  0.38805729257E+02  0.00000000000E+00 0.  1.
        -11    1    4    4    0    0  0.18265300388E+02 -0.54088754592E+02 -0.25227199779E+03  0.25865106889E+03  0.00000000000E+00 0.  1.
         11    1    4    4    0    0  0.58501518693E+02  0.28504606175E+02 -0.23099795280E+03  0.23998957156E+03  0.00000000000E+00 0. -1.
         21    1    1    2  502  501 -0.45713162656E+01  0.19719189262E+02  0.21906882692E+01  0.20360316124E+02  0.00000000000E+00 0.  1.
<scales pt_clust_5="13000.00000" pt_clust_6="13000.00000" pt_clust_7="13000.00000" pt_clust_8="13000.00000" pt_clust_9="20.24212"></scales>
<clustering>
<clus scale="   20.242">  1  9  2 -1</clus>
<clus scale="   90.908">  5  6 -1 -1</clus>
<clus scale="   92.439">  7  8 -1 -1</clus>
<clus scale="  119.863">  1  5  2 -1</clus>
<clus scale="  121.028">  2  5  1 -1</clus>
</clustering>
</event>
<event>
 9    1  0.1434065E-005  0.1319946E+03  0.7546771E-02  0.1225333E+00
          1   -1    0    0  502    0  0.00000000000E+00  0.00000000000E+00  0.25736731097E+03  0.25736731097E+03  0.00000000000E+00 0. -1.
         -1   -1    0    0    0  501 -0.00000000000E+00 -0.00000000000E+00 -0.14634701854E+03  0.14634701854E+03  0.00000000000E+00 0.  1.
         23    2    1    2    0    0  0.28987993330E+02 -0.65938000740E+02 -0.13040927273E+02  0.11811929583E+03  0.92703713866E+02 0.  0.
         23    2    1    2    0    0  0.50841497007E+02  0.10274505443E+03  0.13317526344E+03  0.19721759017E+03  0.89541739162E+02 0.  0.
        -13    1    4    4    0    0  0.75734395734E+02  0.86776676687E+02  0.97716862325E+02  0.15104461426E+03  0.00000000000E+00 0. -1.
         13    1    4    4    0    0 -0.24892898727E+02  0.15968377741E+02  0.35458401117E+02  0.46172975911E+02  0.00000000000E+00 0.  1.
        -13    1    3    3    0    0 -0.23903881248E+02  0.86765779196E+01 -0.74049088602E+01  0.26486057055E+02  0.00000000000E+00 0.  1.
         13    1    3    3    0    0  0.52891874578E+02 -0.74614578660E+02 -0.56360184124E+01  0.91633238775E+02  0.00000000000E+00 0. -1.
         21    1    1    2  502  501 -0.79829490337E+02 -0.36807053689E+02 -0.91140437398E+01  0.88377443513E+02  0.00000000000E+00 0.  1.
<scales pt_clust_5="13000.00000" pt_clust_6="13000.00000" pt_clust_7="13000.00000" pt_clust_8="13000.00000" pt_clust_9="87.90624"></scales>
<clustering>
<clus scale="   87.906">  2  9  1 -1</clus>
<clus scale="   89.542">  5  6 -1 -1</clus>
<clus scale="   92.704">  7  8 -1 -1</clus>
<clus scale="  129.793">  1  5  2 -1</clus>
<clus scale="  129.793">  1  5  2 -1</clus>
</clustering>
</event>
<event>
 9    1  0.1434065E-005  0.1165595E+03  0.7546771E-02  0.1249238E+00
          1   -1    0    0  502    0  0.00000000000E+00  0.00000000000E+00  0.63915107459E+03  0.63915107459E+03  0.00000000000E+00 0. -1.
         -1   -1    0    0    0  501 -0.00000000000E+00 -0.00000000000E+00 -0.51041018934E+02  0.51041018934E+02  0.00000000000E+00 0.  1.
         23    2    1    2    0    0 -0.62509607975E+02  0.67607418947E+02  0.81513943155E+02  0.15238283298E+03  0.89987725119E+02 0.  0.
         23    2    1    2    0    0  0.34975809983E+02 -0.60095540449E+02  0.49311141766E+03  0.50624384679E+03  0.91044939026E+02 0.  0.
        -11    1    4    4    0    0  0.35524852087E+02  0.15554844861E+02  0.17854599090E+03  0.18270916556E+03  0.00000000000E+00 0.  1.
         11    1    4    4    0    0 -0.54904210456E+00 -0.75650385310E+02  0.31456542676E+03  0.32353468123E+03  0.00000000000E+00 0. -1.
        -13    1    3    3    0    0 -0.20066257573E+02 -0.19598291136E+02  0.42211028053E+01  0.28364862371E+02  0.00000000000E+00 0. -1.
         13    1    3    3    0    0 -0.42443350402E+02  0.87205710083E+02  0.77292840350E+02  0.12401797061E+03  0.00000000000E+00 0.  1.
         21    1    1    2  502  501  0.27533797992E+02 -0.75118784987E+01  0.13484694842E+02  0.31565413753E+02  0.00000000000E+00 0. -1.
<scales pt_clust_5="13000.00000" pt_clust_6="13000.00000" pt_clust_7="13000.00000" pt_clust_8="13000.00000" pt_clust_9="28.54012"></scales>
<clustering>
<clus scale="   28.540">  2  9  1 -1</clus>
<clus scale="   89.988">  7  8 -1 -1</clus>
<clus scale="   91.045">  5  6 -1 -1</clus>
<clus scale="  115.736">  2  7  1 -1</clus>
<clus scale="  116.560">  1  5  2 -1</clus>
</clustering>
</event>
<event>
 9    1  0.2247029E-005  0.9989328E+02  0.7546771E-02  0.1282308E+00
          1   -1    0    0  502    0  0.00000000000E+00  0.00000000000E+00  0.24812038838E+03  0.24812038838E+03  0.00000000000E+00 0. -1.
         -1   -1    0    0    0  501 -0.00000000000E+00 -0.00000000000E+00 -0.11710106349E+03  0.11710106349E+03  0.00000000000E+00 0.  1.
         23    2    1    2    0    0 -0.17309532875E+02 -0.22513061953E+02 -0.68131818446E+02  0.11885026833E+03  0.93150328561E+02 0.  0.
         23    2    1    2    0    0  0.16902682130E+01  0.37508577058E+02  0.20238338734E+03  0.22447884919E+03  0.89565439214E+02 0.  0.
        -13    1    4    4    0    0 -0.28276117495E+02 -0.15949643463E+02  0.44219978788E+02  0.54857419473E+02  0.00000000000E+00 0.  1.
         13    1    4    4    0    0  0.29966385708E+02  0.53458220521E+02  0.15816340855E+03  0.16962142972E+03  0.00000000000E+00 0. -1.
        -13    1    3    3    0    0  0.21509616219E+02 -0.38010631016E+02 -0.63113934906E+02  0.76751810659E+02  0.00000000000E+00 0.  1.
         13    1    3    3    0    0 -0.38819149094E+02  0.15497569063E+02 -0.50178835402E+01  0.42098457673E+02  0.00000000000E+00 0. -1.
         21    1    1    2  502  501  0.15619264662E+02 -0.14995515105E+02 -0.32322440158E+01  0.21892334348E+02  0.00000000000E+00 0.  1.
<scales pt_clust_5="13000.00000" pt_clust_6="13000.00000" pt_clust_7="13000.00000" pt_clust_8="13000.00000" pt_clust_9="21.65241"></scales>
<clustering>
<clus scale="   21.652">  2  9  1 -1</clus>
<clus scale="   89.565">  5  6 -1 -1</clus>
<clus scale="   93.150">  7  8 -1 -1</clus>
<clus scale="   96.559">  1  5  2 -1</clus>
<clus scale="   96.559">  1  5  2 -1</clus>
</clustering>
</event>
<event>
 9    1  0.1434065E-005  0.9551791E+02  0.7546771E-02  0.1291274E+00
         -3   -1    0    0    0  501 -0.00000000000E+00  0.00000000000E+00  0.52345201029E+03  0.52345201029E+03  0.00000000000E+00 0.  1.
          3   -1    0    0  502    0  0.00000000000E+00 -0.00000000000E+00 -0.77530980148E+02  0.77530980148E+02  0.00000000000E+00 0. -1.
         23    2    1    2    0    0 -0.28567068869E+02 -0.84810368194E+01  0.48200093202E+02  0.10877709875E+03  0.92850432511E+02 0.  0.
         23    2    1    2    0    0  0.29649585287E+01 -0.35789249351E+02  0.64783702582E+01  0.97635147370E+02  0.90559325155E+02 0.  0.
        -11    1    4    4    0    0  0.42514783188E+02 -0.11118365586E+02 -0.14833426120E+02  0.46380549515E+02  0.00000000000E+00 0. -1.
         11    1    4    4    0    0 -0.39549824660E+02 -0.24670883765E+02  0.21311796378E+02  0.51254597855E+02  0.00000000000E+00 0.  1.
        -13    1    3    3    0    0 -0.13515234862E+02  0.39674947588E+02  0.47300832402E+01  0.42179814212E+02  0.00000000000E+00 0. -1.
         13    1    3    3    0    0 -0.15051834006E+02 -0.48155984407E+02  0.43470009962E+02  0.66597284534E+02  0.00000000000E+00 0.  1.
         21    1    1    2  502  501  0.25602110340E+02  0.44270286170E+02  0.39124256668E+03  0.39457074432E+03  0.00000000000E+00 0.  1.
<scales pt_clust_5="13000.00000" pt_clust_6="13000.00000" pt_clust_7="13000.00000" pt_clust_8="13000.00000" pt_clust_9="51.14026"></scales>
<clustering>
<clus scale="   51.140">  1  9  2 -1</clus>
<clus scale="   90.559">  5  6 -1 -1</clus>
<clus scale="   92.850">  7  8 -1 -1</clus>
<clus scale="   93.292">  2  5  1 -1</clus>
<clus scale="   93.292">  2  5  1 -1</clus>
</clustering>
</event>
<event>
 9    1  0.1434065E-005  0.2514390E+03  0.7546771E-02  0.1112675E+00
         -1   -1    0    0    0  501 -0.00000000000E+00  0.00000000000E+00  0.18903606072E+03  0.18903606072E+03  0.00000000000E+00 0.  1.
          1   -1    0    0  502    0  0.00000000000E+00 -0.00000000000E+00 -0.51690949935E+03  0.51690949935E+03  0.00000000000E+00 0. -1.
         23    2    1    2    0    0  0.37449688222E+02  0.22304051214E+03 -0.86393213785E+02  0.25767603805E+03  0.88224735723E+02 0.  0.
         23    2    1    2    0    0 -0.80305137690E+02 -0.22523041201E+03 -0.28749733969E+03  0.38534925446E+03  0.93068114568E+02 0.  0.
        -13    1    4    4    0    0 -0.60728821779E+02 -0.10391968221E+03 -0.81079556652E+02  0.14512472103E+03  0.00000000000E+00 0.  1.
         13    1    4    4    0    0 -0.19576315911E+02 -0.12131072980E+03 -0.20641778304E+03  0.24022453343E+03  0.00000000000E+00 0. -1.
        -13    1    3    3    0    0 -0.23221434092E+02  0.51743370977E+02 -0.42096365759E+02  0.70630839238E+02  0.00000000000E+00 0. -1.
         13    1    3    3    0    0  0.60671122314E+02  0.17129714116E+03 -0.44296848026E+02  0.18704519881E+03  0.00000000000E+00 0.  1.
         21    1    1    2  502  501  0.42855449468E+02  0.21898998689E+01  0.46017114847E+02  0.62920267556E+02  0.00000000000E+00 0.  1.
<scales pt_clust_5="13000.00000" pt_clust_6="13000.00000" pt_clust_7="13000.00000" pt_clust_8="13000.00000" pt_clust_9="42.91136"></scales>
<clustering>
<clus scale="   42.911">  1  9  2 -1</clus>
<clus scale="   88.225">  7  8 -1 -1</clus>
<clus scale="   93.068">  5  6 -1 -1</clus>
<clus scale="  249.687">  1  7  2 -1</clus>
<clus scale="  251.439">  2  5  1 -1</clus>
</clustering>
</event>
<event>
 9    1  0.1434065E-005  0.1797610E+03  0.7546771E-02  0.1168112E+00
          3   -1    0    0  502    0  0.00000000000E+00  0.00000000000E+00  0.40476684372E+03  0.40476684372E+03  0.00000000000E+00 0. -1.
         -3   -1    0    0    0  501 -0.00000000000E+00 -0.00000000000E+00 -0.18919033135E+03  0.18919033135E+03  0.00000000000E+00 0.  1.
         23    2    1    2    0    0 -0.52521391098E+02  0.17472706791E+03  0.18552861207E+03  0.27554674300E+03  0.90648204061E+02 0.  0.
         23    2    1    2    0    0  0.55060029208E+02 -0.11990105255E+03  0.12859270405E+03  0.20561231599E+03  0.91282373600E+02 0.  0.
        -13    1    3    3    0    0 -0.42857492049E+02  0.13318968709E+03  0.78722743442E+02  0.16054135824E+03  0.00000000000E+00 0.  1.
         13    1    3    3    0    0 -0.96638990484E+01  0.41537380820E+02  0.10680586863E+03  0.11500538476E+03  0.00000000000E+00 0. -1.
        -13    1    4    4    0    0  0.69691647335E+02 -0.10352653573E+03  0.70111638871E+02  0.14314437193E+03  0.00000000000E+00 0.  1.
         13    1    4    4    0    0 -0.14631618126E+02 -0.16374516817E+02  0.58481065183E+02  0.62467944059E+02  0.00000000000E+00 0. -1.
         21    1    1    2  502  501 -0.25386381108E+01 -0.54826015355E+02 -0.98544803759E+02  0.11279811608E+03  0.00000000000E+00 0.  1.
<scales pt_clust_5="13000.00000" pt_clust_6="13000.00000" pt_clust_7="13000.00000" pt_clust_8="13000.00000" pt_clust_9="54.88476"></scales>
<clustering>
<clus scale="   54.885">  2  9  1 -1</clus>
<clus scale="   90.648">  5  6 -1 -1</clus>
<clus scale="   91.282">  7  8 -1 -1</clus>
<clus scale="  179.440">  2  5  1 -1</clus>
<clus scale="  179.761">  1  5  2 -1</clus>
</clustering>
</event>
<event>
 9    1  0.1434065E-005  0.1086635E+03  0.7546771E-02  0.1263868E+00
         -1   -1    0    0    0  501 -0.00000000000E+00  0.00000000000E+00  0.37931771339E+03  0.37931771339E+03  0.00000000000E+00 0.  1.
          1   -1    0    0  502    0  0.00000000000E+00 -0.00000000000E+00 -0.18908458866E+03  0.18908458866E+03  0.00000000000E+00 0. -1.
         23    2    1    2    0    0 -0.25037090016E+02 -0.23932563084E+01 -0.11079624254E+02  0.94791894404E+02  0.90720238199E+02 0.  0.
         23    2    1    2    0    0  0.76215064901E+02 -0.16598577505E+02 -0.10630733138E+03  0.16118443449E+03  0.92708814701E+02 0.  0.
        -11    1    4    4    0    0  0.36181376754E+02  0.17676480651E+02  0.24372267724E+01  0.40342162391E+02  0.00000000000E+00 0.  1.
         11    1    4    4    0    0  0.40033688146E+02 -0.34275058156E+02 -0.10874455815E+03  0.12084227209E+03  0.00000000000E+00 0. -1.
        -11    1    3    3    0    0  0.22083391770E+02 -0.28061744164E+02 -0.19166454527E+02  0.40527652988E+02  0.00000000000E+00 0.  1.
         11    1    3    3    0    0 -0.47120481786E+02  0.25668487856E+02  0.80868302727E+01  0.54264241416E+02  0.00000000000E+00 0. -1.
         21    1    1    2  502  501 -0.51177974885E+02  0.18991833814E+02  0.30762008036E+03  0.31242597316E+03  0.00000000000E+00 0.  1.
<scales pt_clust_5="13000.00000" pt_clust_6="13000.00000" pt_clust_7="13000.00000" pt_clust_8="13000.00000" pt_clust_9="54.58823"></scales>
<clustering>
<clus scale="   54.588">  1  9  2 -1</clus>
<clus scale="   90.720">  7  8 -1 -1</clus>
<clus scale="   92.709">  5  6 -1 -1</clus>
<clus scale="  106.972">  1  7  2 -1</clus>
<clus scale="  108.664">  2  5  1 -1</clus>
</clustering>
</event>
<event>
 9    1  0.1434065E-005  0.1097495E+03  0.7546771E-02  0.1261168E+00
          1   -1    0    0  502    0  0.00000000000E+00  0.00000000000E+00  0.54320531135E+02  0.54320531135E+02  0.00000000000E+00 0. -1.
         -1   -1    0    0    0  501 -0.00000000000E+00 -0.00000000000E+00 -0.39779086881E+03  0.39779086881E+03  0.00000000000E+00 0.  1.
         23    2    1    2    0    0 -0.82387838094E+02  0.18401562424E+02 -0.13063014236E+03  0.17937047723E+03  0.89348534649E+02 0.  0.
         23    2    1    2    0    0  0.50867322441E+02  0.20307926883E+01 -0.69037367819E+02  0.12411294002E+03  0.89700920368E+02 0.  0.
        -11    1    3    3    0    0 -0.33802097188E+02 -0.33182260941E+02 -0.29218683601E+02  0.55654071610E+02  0.00000000000E+00 0.  1.
         11    1    3    3    0    0 -0.48585740906E+02  0.51583823364E+02 -0.10141145876E+03  0.12371640562E+03  0.00000000000E+00 0. -1.
        -13    1    4    4    0    0 -0.68556693477E+01  0.34447861334E+02 -0.13251759117E+02  0.37540171449E+02  0.00000000000E+00 0. -1.
         13    1    4    4    0    0  0.57722991788E+02 -0.32417068646E+02 -0.55785608702E+02  0.86572768576E+02  0.00000000000E+00 0.  1.
         21    1    1    2  502  501  0.31520515653E+02 -0.20432355112E+02 -0.14380282750E+03  0.14862798269E+03  0.00000000000E+00 0.  1.
<scales pt_clust_5="13000.00000" pt_clust_6="13000.00000" pt_clust_7="13000.00000" pt_clust_8="13000.00000" pt_clust_9="37.56360"></scales>
<clustering>
<clus scale="   37.564">  2  9  1 -1</clus>
<clus scale="   89.349">  5  6 -1 -1</clus>
<clus scale="   89.701">  7  8 -1 -1</clus>
<clus scale="  109.462">  2  5  1 -1</clus>
<clus scale="  109.749">  1  5  2 -1</clus>
</clustering>
</event>
<event>
 9    1  0.1434065E-005  0.2020983E+03  0.7546771E-02  0.1148617E+00
          1   -1    0    0  502    0  0.00000000000E+00  0.00000000000E+00  0.12947769495E+03  0.12947769495E+03  0.00000000000E+00 0. -1.
         -1   -1    0    0    0  501 -0.00000000000E+00 -0.00000000000E+00 -0.62476031208E+03  0.62476031208E+03  0.00000000000E+00 0.  1.
         23    2    1    2    0    0  0.12222920672E+03  0.19975606622E+02 -0.32035882594E+03  0.35699404391E+03  0.97344574554E+02 0.  0.
         23    2    1    2    0    0 -0.19414034141E+03 -0.15150089873E+02 -0.75669671743E+01  0.21502759873E+03  0.90882406641E+02 0.  0.
        -11    1    4    4    0    0 -0.29741214883E+02  0.26618640638E+02  0.17466608228E+02  0.43568042131E+02  0.00000000000E+00 0.  1.
         11    1    4    4    0    0 -0.16439912653E+03 -0.41768730512E+02 -0.25033575402E+02  0.17145955660E+03  0.00000000000E+00 0. -1.
        -13    1    3    3    0    0  0.50369545913E+02  0.45657249762E+02 -0.22393552814E+03  0.23402734109E+03  0.00000000000E+00 0.  1.
         13    1    3    3    0    0  0.71859660805E+02 -0.25681643140E+02 -0.96423297796E+02  0.12296670282E+03  0.00000000000E+00 0. -1.
         21    1    1    2  502  501  0.71911134691E+02 -0.48255167483E+01 -0.16735682402E+03  0.18221636439E+03  0.00000000000E+00 0.  1.
<scales pt_clust_5="13000.00000" pt_clust_6="13000.00000" pt_clust_7="13000.00000" pt_clust_8="13000.00000" pt_clust_9="72.07286"></scales>
<clustering>
<clus scale="   72.073">  2  9  1 -1</clus>
<clus scale="   90.882">  5  6 -1 -1</clus>
<clus scale="   97.345">  7  8 -1 -1</clus>
<clus scale="  199.066">  1  5  2 -1</clus>
<clus scale="  199.066">  1  5  2 -1</clus>
</clustering>
</event>
<event>
 9    1  0.1434065E-005  0.1264148E+03  0.7546771E-02  0.1238289E+00
         -1   -1    0    0    0  501 -0.00000000000E+00  0.00000000000E+00  0.48332511098E+02  0.48332511098E+02  0.00000000000E+00 0.  1.
          1   -1    0    0  502    0  0.00000000000E+00 -0.00000000000E+00 -0.45830478599E+03  0.45830478599E+03  0.00000000000E+00 0. -1.
         23    2    1    2    0    0 -0.26001504845E+02 -0.70526499773E+02 -0.16865783245E+03  0.21295092959E+03  0.10607812472E+03 0.  0.
         23    2    1    2    0    0  0.17183883661E+01  0.66578526739E+02 -0.24450554997E+03  0.26887831630E+03  0.89871752655E+02 0.  0.
        -13    1    4    4    0    0  0.17040698074E+02  0.29251775301E+02 -0.17111603418E+02  0.37932291266E+02  0.00000000000E+00 0.  1.
         13    1    4    4    0    0 -0.15322309708E+02  0.37326751438E+02 -0.22739394655E+03  0.23094602503E+03  0.00000000000E+00 0. -1.
        -13    1    3    3    0    0  0.18771116765E+02 -0.72918990142E+02 -0.63009576532E+02  0.98182181085E+02  0.00000000000E+00 0.  1.
         13    1    3    3    0    0 -0.44772621610E+02  0.23924903684E+01 -0.10564825592E+03  0.11476874851E+03  0.00000000000E+00 0. -1.
         21    1    1    2  502  501  0.24283116479E+02  0.39479730338E+01  0.31911075285E+01  0.24808051199E+02  0.00000000000E+00 0.  1.
<scales pt_clust_5="13000.00000" pt_clust_6="13000.00000" pt_clust_7="13000.00000" pt_clust_8="13000.00000" pt_clust_9="24.60196"></scales>
<clustering>
<clus scale="   24.602">  1  9  2 -1</clus>
<clus scale="   89.872">  5  6 -1 -1</clus>
<clus scale="  106.078">  7  8 -1 -1</clus>
<clus scale="  113.159">  2  5  1 -1</clus>
<clus scale="  113.159">  2  5  1 -1</clus>
</clustering>
</event>
<event>
 9    1  0.1434065E-005  0.1663199E+03  0.7546771E-02  0.1208280E+00
          3   -1    0    0  502    0  0.00000000000E+00  0.00000000000E+00  0.14682536289E+03  0.14682536289E+03  0.00000000000E+00 0. -1.
         -3   -1    0    0    0  501 -0.00000000000E+00 -0.00000000000E+00 -0.32663877195E+03  0.32663877195E+03  0.00000000000E+00 0.  1.
         23    2    1    2    0    0 -0.19867730262E+02 -0.34116717027E+00 -0.98939291750E+02  0.13578055990E+03  0.90843458180E+02 0.  0.
         23    2    1    2    0    0  0.48454786995E+02 -0.13288228625E+03  0.18330027855E+02  0.16913930546E+03  0.90920549659E+02 0.  0.
        -11    1    4    4    0    0 -0.19451567013E+02 -0.34685359618E+02 -0.18967744772E+02  0.44059198503E+02  0.00000000000E+00 0.  1.
         11    1    4    4    0    0  0.67906354007E+02 -0.98196926630E+02  0.37297772626E+02  0.12508010696E+03  0.00000000000E+00 0. -1.
        -11    1    3    3    0    0 -0.43160653282E+02 -0.73599020545E+01 -0.10224913414E+03  0.11122902311E+03  0.00000000000E+00 0.  1.
         11    1    3    3    0    0  0.23292923020E+02  0.70187348842E+01  0.33098423877E+01  0.24551536791E+02  0.00000000000E+00 0. -1.
         21    1    1    2  502  501 -0.28587056733E+02  0.13322345342E+03 -0.99204145171E+02  0.16854426947E+03  0.00000000000E+00 0.  1.
<scales pt_clust_5="13000.00000" pt_clust_6="13000.00000" pt_clust_7="13000.00000" pt_clust_8="13000.00000" pt_clust_9="139.26870"></scales>
<clustering>
<clus scale="   90.843">  7  8 -1 -1</clus>
<clus scale="   90.921">  5  6 -1 -1</clus>
<clus scale="   92.991">  2  7  1 -1</clus>
<clus scale="  139.269">  2  9  1 -1</clus>
<clus scale="  166.320">  1  5  2 -1</clus>
</clustering>
</event>
<event>
 9    1  0.1434065E-005  0.1050585E+03  0.7546771E-02  0.1270719E+00
         -2   -1    0    0    0  501 -0.00000000000E+00  0.00000000000E+00  0.25330509501E+02  0.25330509501E+02  0.00000000000E+00 0. -1.
          2   -1    0    0  502    0  0.00000000000E+00 -0.00000000000E+00 -0.69000446701E+03  0.69000446701E+03  0.00000000000E+00 0.  1.
         23    2    1    2    0    0  0.12968018849E+02  0.41475981105E+02 -0.15393246715E+03  0.18445160053E+03  0.91862734400E+02 0.  0.
         23    2    1    2    0    0 -0.37085734979E+02 -0.35382547690E+02 -0.47810235115E+03  0.48984549629E+03  0.93485162644E+02 0.  0.
        -13    1    3    3    0    0  0.35498059779E+02 -0.14554381745E+02 -0.81989027149E+02  0.90521504897E+02  0.00000000000E+00 0. -1.
         13    1    3    3    0    0 -0.22530040930E+02  0.56030362849E+02 -0.71943440006E+02  0.93930095631E+02  0.00000000000E+00 0.  1.
        -13    1    4    4    0    0 -0.39444439662E+02  0.24475538026E+02 -0.22678857928E+03  0.23149076757E+03  0.00000000000E+00 0.  1.
         13    1    4    4    0    0  0.23587046821E+01 -0.59858085716E+02 -0.25131377188E+03  0.25835472872E+03  0.00000000000E+00 0. -1.
         21    1    1    2  502  501  0.24117716130E+02 -0.60934334147E+01 -0.32639139199E+02  0.41037879694E+02  0.00000000000E+00 0. -1.
<scales pt_clust_5="13000.00000" pt_clust_6="13000.00000" pt_clust_7="13000.00000" pt_clust_8="13000.00000" pt_clust_9="24.87557"></scales>
<clustering>
<clus scale="   24.876">  1  9  2 -1</clus>
<clus scale="   91.863">  5  6 -1 -1</clus>
<clus scale="   93.485">  7  8 -1 -1</clus>
<clus scale="  103.617">  1  5  2 -1</clus>
<clus scale="  105.058">  2  5  1 -1</clus>
</clustering>
</event>
<event>
 9    1  0.1434065E-005  0.9338211E+02  0.7546771E-02  0.1295782E+00
          1   -1    0    0  502    0  0.00000000000E+00  0.00000000000E+00  0.18600989317E+03  0.18600989317E+03  0.00000000000E+00 0. -1.
         -1   -1    0    0    0  501 -0.00000000000E+00 -0.00000000000E+00 -0.80255382064E+02  0.80255382064E+02  0.00000000000E+00 0.  1.
         23    2    1    2    0    0 -0.26307761109E+02  0.17677931064E+02  0.61357321379E+02  0.11326510939E+03  0.89775590101E+02 0.  0.
         23    2    1    2    0    0  0.99509752385E+01  0.90776834719E+00  0.71369536267E+02  0.11638759772E+03  0.91392648739E+02 0.  0.
        -11    1    3    3    0    0  0.14365468943E+02 -0.13982043221E+02 -0.12184774955E+02  0.23459176696E+02  0.00000000000E+00 0.  1.
         11    1    3    3    0    0 -0.40673230052E+02  0.31659974284E+02  0.73542096334E+02  0.89805932698E+02  0.00000000000E+00 0. -1.
        -13    1    4    4    0    0 -0.69666983709E+01 -0.22404818887E+02  0.82299968591E+02  0.85579177524E+02  0.00000000000E+00 0. -1.
         13    1    4    4    0    0  0.16917673609E+02  0.23312587235E+02 -0.10930432324E+02  0.30808420192E+02  0.00000000000E+00 0.  1.
         21    1    1    2  502  501  0.16356785871E+02 -0.18585699411E+02 -0.26972346541E+02  0.36612568123E+02  0.00000000000E+00 0.  1.
<scales pt_clust_5="13000.00000" pt_clust_6="13000.00000" pt_clust_7="13000.00000" pt_clust_8="13000.00000" pt_clust_9="24.75828"></scales>
<clustering>
<clus scale="   24.758">  2  9  1 -1</clus>
<clus scale="   89.776">  5  6 -1 -1</clus>
<clus scale="   91.393">  7  8 -1 -1</clus>
<clus scale="   91.800">  2  5  1 -1</clus>
<clus scale="   93.382">  1  5  2 -1</clus>
</clustering>
</event>
<event>
 9    1  0.1434065E-005  0.9931490E+02  0.7546771E-02  0.1285667E+00
         -2   -1    0    0    0  501 -0.00000000000E+00  0.00000000000E+00  0.17604427790E+02  0.17604427790E+02  0.00000000000E+00 0.  1.
          2   -1    0    0  502    0  0.00000000000E+00 -0.00000000000E+00 -0.88897922490E+03  0.88897922490E+03  0.00000000000E+00 0. -1.
         23    2    1    2    0    0 -0.34998172950E+02 -0.16684932927E+02 -0.32766008037E+03  0.34073437173E+03  0.85061887585E+02 0.  0.
         23    2    1    2    0    0  0.34336925929E+02 -0.31558325093E+02 -0.42950828430E+03  0.44186961164E+03  0.92716962003E+02 0.  0.
        -11    1    4    4    0    0 -0.19303389161E+02  0.12818593611E+02 -0.40323204744E+02  0.46506967393E+02  0.00000000000E+00 0.  1.
         11    1    4    4    0    0  0.53640315090E+02 -0.44376918704E+02 -0.38918507956E+03  0.39536264425E+03  0.00000000000E+00 0. -1.
        -11    1    3    3    0    0  0.27664353389E+02 -0.87709501076E+01 -0.13118706341E+03  0.13435881668E+03  0.00000000000E+00 0. -1.
         11    1    3    3    0    0 -0.62662526339E+02 -0.79139828189E+01 -0.19647301696E+03  0.20637555505E+03  0.00000000000E+00 0.  1.
         21    1    1    2  502  501  0.66124702022E+00  0.48243258019E+02 -0.11420643244E+03  0.12397966932E+03  0.00000000000E+00 0.  1.
<scales pt_clust_5="13000.00000" pt_clust_6="13000.00000" pt_clust_7="13000.00000" pt_clust_8="13000.00000" pt_clust_9="48.24779"></scales>
<clustering>
<clus scale="   48.248">  1  9  2 -1</clus>
<clus scale="   85.062">  7  8 -1 -1</clus>
<clus scale="   92.209">  1  7  2 -1</clus>
<clus scale="   92.717">  5  6 -1 -1</clus>
<clus scale="   99.315">  2  5  1 -1</clus>
</clustering>
</event>
<event>
 9    1  0.1434065E-005  0.1759043E+03  0.7546771E-02  0.1172209E+00
          1   -1    0    0  502    0  0.00000000000E+00  0.00000000000E+00  0.38279210472E+03  0.38279210472E+03  0.00000000000E+00 0. -1.
         -1   -1    0    0    0  501 -0.00000000000E+00 -0.00000000000E+00 -0.12260378600E+03  0.12260378600E+03  0.00000000000E+00 0.  1.
         23    2    1    2    0    0 -0.12508470613E+03 -0.93990676995E+02  0.72924386633E+02  0.19599053011E+03  0.92811048153E+02 0.  0.
         23    2    1    2    0    0  0.12742715014E+03  0.72075631082E+02  0.21421470002E+03  0.27459013156E+03  0.89884522906E+02 0.  0.
        -13    1    4    4    0    0  0.11996868300E+03  0.91496866562E+02  0.19133227666E+03  0.24366411633E+03  0.00000000000E+00 0. -1.
         13    1    4    4    0    0  0.74584671312E+01 -0.19421235480E+02  0.22882423362E+02  0.30926015237E+02  0.00000000000E+00 0.  1.
        -13    1    3    3    0    0 -0.89135985940E+02 -0.57036008291E+02  0.92788205573E+02  0.14074083034E+03  0.00000000000E+00 0. -1.
         13    1    3    3    0    0 -0.35948720190E+02 -0.36954668704E+02 -0.19863818940E+02  0.55249699775E+02  0.00000000000E+00 0.  1.
         21    1    1    2  502  501 -0.23424440043E+01  0.21915045912E+02 -0.26950767929E+02  0.34815229042E+02  0.00000000000E+00 0.  1.
<scales pt_clust_5="13000.00000" pt_clust_6="13000.00000" pt_clust_7="13000.00000" pt_clust_8="13000.00000" pt_clust_9="22.03988"></scales>
<clustering>
<clus scale="   22.040">  2  9  1 -1</clus>
<clus scale="   89.885">  5  6 -1 -1</clus>
<clus scale="   92.811">  7  8 -1 -1</clus>
<clus scale="  174.378">  1  5  2 -1</clus>
<clus scale="  174.378">  1  5  2 -1</clus>
</clustering>
</event>
<event>
 9    1  0.1434065E-005  0.1262215E+03  0.7546771E-02  0.1233199E+00
          3   -1    0    0  502    0  0.00000000000E+00  0.00000000000E+00  0.51878333586E+02  0.51878333586E+02  0.00000000000E+00 0. -1.
         -3   -1    0    0    0  501 -0.00000000000E+00 -0.00000000000E+00 -0.48266209977E+03  0.48266209977E+03  0.00000000000E+00 0.  1.
         23    2    1    2    0    0 -0.87412031513E+02 -0.30440007152E+02 -0.15251918036E+03  0.19994725753E+03  0.90273739979E+02 0.  0.
         23    2    1    2    0    0  0.71165195302E+02  0.48048251677E+02 -0.11507271792E+03  0.16965198718E+03  0.90371161502E+02 0.  0.
        -11    1    3    3    0    0 -0.64565392587E+02 -0.50523695399E+02 -0.57394714250E+02  0.10007740475E+03  0.00000000000E+00 0.  1.
         11    1    3    3    0    0 -0.22846638926E+02  0.20083688247E+02 -0.95124466108E+02  0.99869852789E+02  0.00000000000E+00 0. -1.
        -13    1    4    4    0    0  0.25515139820E+02  0.28601921929E+02 -0.11372932423E+03  0.12001438034E+03  0.00000000000E+00 0.  1.
         13    1    4    4    0    0  0.45650055482E+02  0.19446329748E+02 -0.13433936943E+01  0.49637606840E+02  0.00000000000E+00 0. -1.
         21    1    1    2  502  501  0.16246836211E+02 -0.17608244524E+02 -0.16319186790E+03  0.16494118864E+03  0.00000000000E+00 0. -1.
<scales pt_clust_5="13000.00000" pt_clust_6="13000.00000" pt_clust_7="13000.00000" pt_clust_8="13000.00000" pt_clust_9="23.95851"></scales>
<clustering>
<clus scale="   23.959">  2  9  1 -1</clus>
<clus scale="   90.274">  5  6 -1 -1</clus>
<clus scale="   90.371">  7  8 -1 -1</clus>
<clus scale="  126.152">  2  5  1 -1</clus>
<clus scale="  126.222">  1  5  2 -1</clus>
</clustering>
</event>
<event>
 9    1  0.1434065E-005  0.1277559E+03  0.7546771E-02  0.1231022E+00
         -2   -1    0    0    0  501 -0.00000000000E+00  0.00000000000E+00  0.25137885852E+03  0.25137885852E+03  0.00000000000E+00 0.  1.
          2   -1    0    0  502    0  0.00000000000E+00 -0.00000000000E+00 -0.45555370436E+03  0.45555370436E+03  0.00000000000E+00 0. -1.
         23    2    1    2    0    0 -0.99034315002E+02 -0.43534411535E+02  0.17067035223E+03  0.22181388897E+03  0.91487658579E+02 0.  0.
         23    2    1    2    0    0  0.70364537595E+02  0.53499505229E+02 -0.41549870619E+03  0.43438439604E+03  0.90759371229E+02 0.  0.
        -11    1    4    4    0    0 -0.11962630855E+02  0.19108842282E+02 -0.24329326956E+02  0.33168788649E+02  0.00000000000E+00 0.  1.
         11    1    4    4    0    0  0.82327168450E+02  0.34390662948E+02 -0.39116937923E+03  0.40121560739E+03  0.00000000000E+00 0. -1.
        -13    1    3    3    0    0 -0.44496502773E+02  0.36735387703E+00  0.86738110950E+01  0.45335512645E+02  0.00000000000E+00 0. -1.
         13    1    3    3    0    0 -0.54537812229E+02 -0.43901765412E+02  0.16199654114E+03  0.17647837632E+03  0.00000000000E+00 0.  1.
         21    1    1    2  502  501  0.28669777407E+02 -0.99650936945E+01  0.40653508116E+02  0.50734277871E+02  0.00000000000E+00 0.  1.
<scales pt_clust_5="13000.00000" pt_clust_6="13000.00000" pt_clust_7="13000.00000" pt_clust_8="13000.00000" pt_clust_9="30.35225"></scales>
<clustering>
<clus scale="   30.352">  1  9  2 -1</clus>
<clus scale="   90.759">  5  6 -1 -1</clus>
<clus scale="   91.488">  7  8 -1 -1</clus>
<clus scale="  127.235">  2  5  1 -1</clus>
<clus scale="  127.235">  2  5  1 -1</clus>
</clustering>
</event>
<event>
 9    1  0.1434065E-005  0.9173968E+02  0.7546771E-02  0.1301210E+00
          2   -1    0    0  502    0  0.00000000000E+00  0.00000000000E+00  0.18522427385E+03  0.18522427385E+03  0.00000000000E+00 0. -1.
         -2   -1    0    0    0  501 -0.00000000000E+00 -0.00000000000E+00 -0.15956721066E+03  0.15956721066E+03  0.00000000000E+00 0.  1.
         23    2    1    2    0    0 -0.45622092534E+02 -0.12558359378E+01 -0.97093544111E+02  0.14058656501E+03  0.90854133102E+02 0.  0.
         23    2    1    2    0    0 -0.33338812273E+01  0.13910175188E+02  0.12594206220E+03  0.15353929947E+03  0.86650480174E+02 0.  0.
        -11    1    4    4    0    0  0.73269565635E+01 -0.36014344535E+02  0.54378024927E+02  0.65632971132E+02  0.00000000000E+00 0.  1.
         11    1    4    4    0    0 -0.10660837791E+02  0.49924519722E+02  0.71564037269E+02  0.87906328339E+02  0.00000000000E+00 0. -1.
        -13    1    3    3    0    0  0.22061963435E+02 -0.15000210853E+02 -0.79879051670E+01  0.27848575999E+02  0.00000000000E+00 0. -1.
         13    1    3    3    0    0 -0.67684055968E+02  0.13744374915E+02 -0.89105638944E+02  0.11273798901E+03  0.00000000000E+00 0.  1.
         21    1    1    2  502  501  0.48955973761E+02 -0.12654339250E+02 -0.31914548906E+01  0.50665620030E+02  0.00000000000E+00 0.  1.
<scales pt_clust_5="13000.00000" pt_clust_6="13000.00000" pt_clust_7="13000.00000" pt_clust_8="13000.00000" pt_clust_9="50.56500"></scales>
<clustering>
<clus scale="   50.565">  2  9  1 -1</clus>
<clus scale="   86.650">  5  6 -1 -1</clus>
<clus scale="   87.579">  1  5  2 -1</clus>
<clus scale="   90.854">  7  8 -1 -1</clus>
<clus scale="   87.579">  1  5  2 -1</clus>
</clustering>
</event>
<event>
 9    1  0.1434065E-005  0.9617634E+02  0.7546771E-02  0.1289368E+00
          1   -1    0    0  502    0  0.00000000000E+00  0.00000000000E+00  0.29425975994E+03  0.29425975994E+03  0.00000000000E+00 0. -1.
         -1   -1    0    0    0  501 -0.00000000000E+00 -0.00000000000E+00 -0.23558645832E+03  0.23558645832E+03  0.00000000000E+00 0.  1.
         23    2    1    2    0    0  0.39010295171E+02 -0.31648317961E+02 -0.16955510439E+03  0.19863890546E+03  0.90471333449E+02 0.  0.
         23    2    1    2    0    0 -0.16469276918E+02  0.21478030136E+02  0.26784994985E+03  0.28450186351E+03  0.92006368494E+02 0.  0.
        -13    1    4    4    0    0  0.61271266116E+01  0.46690968742E+02  0.73969040729E+02  0.87686984376E+02  0.00000000000E+00 0.  1.
         13    1    4    4    0    0 -0.22596403530E+02 -0.25212938606E+02  0.19388090912E+03  0.19681487913E+03  0.00000000000E+00 0. -1.
        -13    1    3    3    0    0 -0.87541289938E+01 -0.18350768858E+02  0.16502937102E+01  0.20398749017E+02  0.00000000000E+00 0. -1.
         13    1    3    3    0    0  0.47764424165E+02 -0.13297549103E+02 -0.17120539810E+03  0.17824015644E+03  0.00000000000E+00 0.  1.
         21    1    1    2  502  501 -0.22541018253E+02  0.10170287825E+02 -0.39621543839E+02  0.46705449302E+02  0.00000000000E+00 0.  1.
<scales pt_clust_5="13000.00000" pt_clust_6="13000.00000" pt_clust_7="13000.00000" pt_clust_8="13000.00000" pt_clust_9="24.72918"></scales>
<clustering>
<clus scale="   24.729">  2  9  1 -1</clus>
<clus scale="   90.471">  7  8 -1 -1</clus>
<clus scale="   92.006">  5  6 -1 -1</clus>
<clus scale="   94.709">  2  7  1 -1</clus>
<clus scale="   96.176">  1  5  2 -1</clus>
</clustering>
</event>
<event>
 9    1  0.1434065E-005  0.1546280E+03  0.7546771E-02  0.1195269E+00
         -1   -1    0    0    0  501 -0.00000000000E+00  0.00000000000E+00  0.79521654156E+03  0.79521654156E+03  0.00000000000E+00 0.  1.
          1   -1    0    0  502    0  0.00000000000E+00 -0.00000000000E+00 -0.38066473339E+02  0.38066473339E+02  0.00000000000E+00 0. -1.
         23    2    1    2    0    0 -0.11849838900E+03 -0.29385410999E+02  0.38204885334E+03  0.41123333632E+03  0.90808369574E+02 0.  0.
         23    2    1    2    0    0  0.11387478439E+03  0.52956669819E+02  0.25096911517E+03  0.29561487269E+03  0.92901995621E+02 0.  0.
        -11    1    3    3    0    0 -0.12118080008E+03 -0.69641262058E+01  0.35900680663E+03  0.37897120282E+03  0.00000000000E+00 0.  1.
         11    1    3    3    0    0  0.26824110827E+01 -0.22421284793E+02  0.23042046711E+02  0.32262133495E+02  0.00000000000E+00 0. -1.
        -13    1    4    4    0    0  0.97779373215E+02  0.39329390236E+01  0.11996582288E+03  0.15481625398E+03  0.00000000000E+00 0. -1.
         13    1    4    4    0    0  0.16095411171E+02  0.49023730796E+02  0.13100329229E+03  0.14079861872E+03  0.00000000000E+00 0.  1.
         21    1    1    2  502  501  0.46236046117E+01 -0.23571258820E+02  0.12413209971E+03  0.12643480589E+03  0.00000000000E+00 0.  1.
<scales pt_clust_5="13000.00000" pt_clust_6="13000.00000" pt_clust_7="13000.00000" pt_clust_8="13000.00000" pt_clust_9="24.02045"></scales>
<clustering>
<clus scale="   24.020">  1  9  2 -1</clus>
<clus scale="   90.808">  5  6 -1 -1</clus>
<clus scale="   92.902">  7  8 -1 -1</clus>
<clus scale="  153.379">  1  5  2 -1</clus>
<clus scale="  154.628">  2  5  1 -1</clus>
</clustering>
</event>
<event>
 9    1  0.1434065E-005  0.1253885E+03  0.7546771E-02  0.1235101E+00
         -1   -1    0    0    0  501 -0.00000000000E+00  0.00000000000E+00  0.66597001698E+02  0.66597001698E+02  0.00000000000E+00 0.  1.
          1   -1    0    0  502    0  0.00000000000E+00 -0.00000000000E+00 -0.48501957242E+03  0.48501957242E+03  0.00000000000E+00 0. -1.
         23    2    1    2    0    0  0.34713537950E+02  0.97364796460E+02 -0.25840396735E+03  0.29282580656E+03  0.91046193432E+02 0.  0.
         23    2    1    2    0    0 -0.45823618420E+02 -0.55582930964E+02 -0.17833185207E+03  0.21183831021E+03  0.88791632452E+02 0.  0.
        -11    1    3    3    0    0  0.89462767319E+01  0.92180387955E+02 -0.24769735659E+03  0.26444515547E+03  0.00000000000E+00 0. -1.
         11    1    3    3    0    0  0.25767261218E+02  0.51844085045E+01 -0.10706610761E+02  0.28380651088E+02  0.00000000000E+00 0.  1.
        -13    1    4    4    0    0 -0.65453009590E+02 -0.65270958950E+02 -0.14295133268E+03  0.17023359851E+03  0.00000000000E+00 0.  1.
         13    1    4    4    0    0  0.19629391171E+02  0.96880279852E+01 -0.35380519384E+02  0.41604711703E+02  0.00000000000E+00 0. -1.
         21    1    1    2  502  501  0.11110080470E+02 -0.41781865495E+02  0.18313248699E+02  0.46952457340E+02  0.00000000000E+00 0.  1.
<scales pt_clust_5="13000.00000" pt_clust_6="13000.00000" pt_clust_7="13000.00000" pt_clust_8="13000.00000" pt_clust_9="43.23376"></scales>
<clustering>
<clus scale="   43.234">  1  9  2 -1</clus>
<clus scale="   88.792">  7  8 -1 -1</clus>
<clus scale="   91.046">  5  6 -1 -1</clus>
<clus scale="  123.761">  2  7  1 -1</clus>
<clus scale="  123.761">  2  5  1 -1</clus>
</clustering>
</event>
<event>
 9    1  0.1434065E-005  0.9231757E+02  0.7546771E-02  0.1298015E+00
         -2   -1    0    0    0  501 -0.00000000000E+00  0.00000000000E+00  0.50589114405E+02  0.50589114405E+02  0.00000000000E+00 0.  1.
          2   -1    0    0  502    0  0.00000000000E+00 -0.00000000000E+00 -0.26816054492E+03  0.26816054492E+03  0.00000000000E+00 0. -1.
         23    2    1    2    0    0  0.16708677051E+02  0.28642849368E+02 -0.74077911388E+02  0.12239238125E+03  0.91612037005E+02 0.  0.
         23    2    1    2    0    0  0.94714153221E+01 -0.65254338903E+00 -0.12277771933E+03  0.15279124972E+03  0.90447023753E+02 0.  0.
        -13    1    3    3    0    0  0.44623908048E+02  0.44869263109E+02 -0.59874857200E+02  0.87117980154E+02  0.00000000000E+00 0. -1.
         13    1    3    3    0    0 -0.27915230997E+02 -0.16226413742E+02 -0.14203054188E+02  0.35274401098E+02  0.00000000000E+00 0.  1.
        -13    1    4    4    0    0 -0.22927523468E+02 -0.31345902824E+02 -0.27523282862E+02  0.47600084620E+02  0.00000000000E+00 0.  1.
         13    1    4    4    0    0  0.32398938790E+02  0.30693359435E+02 -0.95254436470E+02  0.10519116510E+03  0.00000000000E+00 0. -1.
         21    1    1    2  502  501 -0.26180092373E+02 -0.27990305979E+02 -0.20715799799E+02  0.43566028356E+02  0.00000000000E+00 0.  1.
<scales pt_clust_5="13000.00000" pt_clust_6="13000.00000" pt_clust_7="13000.00000" pt_clust_8="13000.00000" pt_clust_9="38.32564"></scales>
<clustering>
<clus scale="   38.326">  1  9  2 -1</clus>
<clus scale="   90.447">  7  8 -1 -1</clus>
<clus scale="   91.162">  2  7  1 -1</clus>
<clus scale="   91.612">  5  6 -1 -1</clus>
<clus scale="   91.162">  2  5  1 -1</clus>
</clustering>
</event>
<event>
 9    1  0.1434065E-005  0.3578165E+03  0.7546771E-02  0.1059463E+00
         -3   -1    0    0    0  501 -0.00000000000E+00  0.00000000000E+00  0.49168016568E+03  0.49168016568E+03  0.00000000000E+00 0.  1.
          3   -1    0    0  502    0  0.00000000000E+00 -0.00000000000E+00 -0.31702606101E+03  0.31702606101E+03  0.00000000000E+00 0. -1.
         23    2    1    2    0    0  0.12520311685E+03  0.30400575949E+03  0.18520927865E+03  0.38934191968E+03  0.95860999613E+02 0.  0.
         23    2    1    2    0    0 -0.14186512615E+03 -0.32367003706E+03 -0.52610881004E+02  0.37003897013E+03  0.96296041996E+02 0.  0.
        -13    1    4    4    0    0 -0.13848412134E+03 -0.28593254708E+03 -0.17183458502E+02  0.31816747884E+03  0.00000000000E+00 0. -1.
         13    1    4    4    0    0 -0.33810048106E+01 -0.37737489978E+02 -0.35427422502E+02  0.51871491289E+02  0.00000000000E+00 0.  1.
        -13    1    3    3    0    0 -0.16093495054E+02  0.25354270030E+02  0.15420119806E+02  0.33758253608E+02  0.00000000000E+00 0. -1.
         13    1    3    3    0    0  0.14129661191E+03  0.27865148946E+03  0.16978915884E+03  0.35558366607E+03  0.00000000000E+00 0.  1.
         21    1    1    2  502  501  0.16662009294E+02  0.19664277573E+02  0.42055707026E+02  0.49325336894E+02  0.00000000000E+00 0.  1.
<scales pt_clust_5="13000.00000" pt_clust_6="13000.00000" pt_clust_7="13000.00000" pt_clust_8="13000.00000" pt_clust_9="25.77414"></scales>
<clustering>
<clus scale="   25.774">  1  9  2 -1</clus>
<clus scale="   95.861">  7  8 -1 -1</clus>
<clus scale="   96.296">  5  6 -1 -1</clus>
<clus scale="  357.700">  1  7  2 -1</clus>
<clus scale="  357.817">  2  5  1 -1</clus>
</clustering>
</event>
<event>
 9    1  0.1434065E-005  0.1072223E+03  0.7546771E-02  0.1266815E+00
         -1   -1    0    0    0  501 -0.00000000000E+00  0.00000000000E+00  0.30467183901E+03  0.30467183901E+03  0.00000000000E+00 0.  1.
          1   -1    0    0  502    0  0.00000000000E+00 -0.00000000000E+00 -0.11000124052E+03  0.11000124052E+03  0.00000000000E+00 0. -1.
         23    2    1    2    0    0  0.63385113922E+02 -0.62269558604E+02  0.99690770478E+02  0.16171293432E+03  0.91201166731E+02 0.  0.
         23    2    1    2    0    0  0.33073136854E+02  0.47924367564E+02 -0.87538813952E+01  0.11058507325E+03  0.93604757350E+02 0.  0.
        -11    1    4    4    0    0  0.58524572391E+02  0.48260980031E+02 -0.25601839999E+02  0.80060614402E+02  0.00000000000E+00 0. -1.
         11    1    4    4    0    0 -0.25451435537E+02 -0.33661246736E+00  0.16847958604E+02  0.30524458848E+02  0.00000000000E+00 0.  1.
        -13    1    3    3    0    0  0.77312131507E+02 -0.23119766560E+02  0.43037625223E+02  0.91454504912E+02  0.00000000000E+00 0. -1.
         13    1    3    3    0    0 -0.13927017585E+02 -0.39149792044E+02  0.56653145255E+02  0.70258429410E+02  0.00000000000E+00 0.  1.
         21    1    1    2  502  501 -0.96458250775E+02  0.14345191040E+02  0.10373370940E+03  0.14237507196E+03  0.00000000000E+00 0.  1.
<scales pt_clust_5="13000.00000" pt_clust_6="13000.00000" pt_clust_7="13000.00000" pt_clust_8="13000.00000" pt_clust_9="97.51912"></scales>
<clustering>
<clus scale="   91.201">  7  8 -1 -1</clus>
<clus scale="   93.605">  5  6 -1 -1</clus>
<clus scale="   97.519">  1  9  2 -1</clus>
<clus scale="  105.130">  1  7  2 -1</clus>
<clus scale="  107.222">  2  5  1 -1</clus>
</clustering>
</event>
<event>
 9    1  0.1434065E-005  0.1278300E+03  0.7546771E-02  0.1231136E+00
          2   -1    0    0  502    0  0.00000000000E+00  0.00000000000E+00  0.42817859298E+03  0.42817859298E+03  0.00000000000E+00 0.  1.
         -2   -1    0    0    0  501 -0.00000000000E+00 -0.00000000000E+00 -0.83445120887E+02  0.83445120887E+02  0.00000000000E+00 0. -1.
         23    2    1    2    0    0 -0.13202641768E+03 -0.11321019901E+02  0.12060290406E+03  0.20110500567E+03  0.91318247800E+02 0.  0.
         23    2    1    2    0    0  0.64378147031E+02  0.33967321500E+02  0.20521499039E+03  0.23671530329E+03  0.92858051804E+02 0.  0.
        -11    1    3    3    0    0 -0.78656008446E+02  0.35371203595E+02  0.87460070385E+02  0.12282977497E+03  0.00000000000E+00 0.  1.
         11    1    3    3    0    0 -0.53370409235E+02 -0.46692223496E+02  0.33142833679E+02  0.78275230700E+02  0.00000000000E+00 0. -1.
        -13    1    4    4    0    0  0.17129961562E+02  0.30043724681E+02  0.17945729283E+03  0.18275935250E+03  0.00000000000E+00 0.  1.
         13    1    4    4    0    0  0.47248185469E+02  0.39235968193E+01  0.25757697563E+02  0.53955950792E+02  0.00000000000E+00 0. -1.
         21    1    1    2  502  501  0.67648270650E+02 -0.22646301600E+02  0.18915577638E+02  0.73803404904E+02  0.00000000000E+00 0.  1.
<scales pt_clust_5="13000.00000" pt_clust_6="13000.00000" pt_clust_7="13000.00000" pt_clust_8="13000.00000" pt_clust_9="71.33823"></scales>
<clustering>
<clus scale="   71.338">  2  9  1 -1</clus>
<clus scale="   91.318">  5  6 -1 -1</clus>
<clus scale="   92.858">  7  8 -1 -1</clus>
<clus scale="  126.716">  2  5  1 -1</clus>
<clus scale="  127.830">  1  5  2 -1</clus>
</clustering>
</event>
<event>
 9    1  0.1434065E-005  0.9878611E+02  0.7546771E-02  0.1283375E+00
         -1   -1    0    0    0  501 -0.00000000000E+00  0.00000000000E+00  0.34546437544E+02  0.34546437544E+02  0.00000000000E+00 0.  1.
          1   -1    0    0  502    0  0.00000000000E+00 -0.00000000000E+00 -0.42575609069E+03  0.42575609069E+03  0.00000000000E+00 0. -1.
         23    2    1    2    0    0  0.50013597739E+02 -0.16405595277E+02 -0.14944257685E+03  0.18256302669E+03  0.90695487340E+02 0.  0.
         23    2    1    2    0    0 -0.20049723429E+02  0.20787706760E+02 -0.22102929304E+03  0.24103674526E+03  0.91709563401E+02 0.  0.
        -11    1    4    4    0    0  0.38391864243E+01  0.53342068893E+02 -0.99308345482E+02  0.11279301019E+03  0.00000000000E+00 0.  1.
         11    1    4    4    0    0 -0.23888909854E+02 -0.32554362133E+02 -0.12172094756E+03  0.12824373507E+03  0.00000000000E+00 0. -1.
        -13    1    3    3    0    0  0.62279380951E+02  0.17721037762E+02 -0.70698665804E+02  0.95870004785E+02  0.00000000000E+00 0.  1.
         13    1    3    3    0    0 -0.12265783212E+02 -0.34126633039E+02 -0.78743911046E+02  0.86693021906E+02  0.00000000000E+00 0. -1.
         21    1    1    2  502  501 -0.29963874310E+02 -0.43821114830E+01 -0.20737783251E+02  0.36702756284E+02  0.00000000000E+00 0.  1.
<scales pt_clust_5="13000.00000" pt_clust_6="13000.00000" pt_clust_7="13000.00000" pt_clust_8="13000.00000" pt_clust_9="30.28261"></scales>
<clustering>
<clus scale="   30.283">  1  9  2 -1</clus>
<clus scale="   90.695">  7  8 -1 -1</clus>
<clus scale="   91.710">  5  6 -1 -1</clus>
<clus scale="   97.845">  1  7  2 -1</clus>
<clus scale="   98.786">  2  5  1 -1</clus>
</clustering>
</event>
<event>
 9    1  0.1434065E-005  0.9944155E+02  0.7546771E-02  0.1281737E+00
         -1   -1    0    0    0  501 -0.00000000000E+00  0.00000000000E+00  0.16956611074E+03  0.16956611074E+03  0.00000000000E+00 0.  1.
          1   -1    0    0  502    0  0.00000000000E+00 -0.00000000000E+00 -0.21804772627E+03  0.21804772627E+03  0.00000000000E+00 0. -1.
         23    2    1    2    0    0 -0.17312647397E+02 -0.34437893755E+02  0.12790236953E+03  0.16160294232E+03  0.90943930801E+02 0.  0.
         23    2    1    2    0    0  0.10654795319E+02  0.59524682433E+02 -0.16510715030E+03  0.19771176109E+03  0.90403854507E+02 0.  0.
        -13    1    3    3    0    0  0.46663902096E+00 -0.23299544064E+02  0.13683143377E+03  0.13880175710E+03  0.00000000000E+00 0.  1.
         13    1    3    3    0    0 -0.17779286418E+02 -0.11138349691E+02 -0.89290642413E+01  0.22801185223E+02  0.00000000000E+00 0. -1.
        -13    1    4    4    0    0  0.75429059080E+01 -0.22140750827E+02 -0.18332346239E+02  0.29718398264E+02  0.00000000000E+00 0.  1.
         13    1    4    4    0    0  0.31118894113E+01  0.81665433260E+02 -0.14677480406E+03  0.16799336282E+03  0.00000000000E+00 0. -1.
         21    1    1    2  502  501  0.66578520775E+01 -0.25086788678E+02 -0.11276834764E+02  0.28299133604E+02  0.00000000000E+00 0.  1.
<scales pt_clust_5="13000.00000" pt_clust_6="13000.00000" pt_clust_7="13000.00000" pt_clust_8="13000.00000" pt_clust_9="25.95523"></scales>
<clustering>
<clus scale="   25.955">  2  9  1 -1</clus>
<clus scale="   90.404">  7  8 -1 -1</clus>
<clus scale="   90.944">  5  6 -1 -1</clus>
<clus scale="   98.948">  2  7  1 -1</clus>
<clus scale="   25.955">  2  5  1 -1</clus>
</clustering>
</event>
<event>
 9    1  0.1434065E-005  0.9469589E+02  0.7546771E-02  0.1293642E+00
          1   -1    0    0  502    0  0.00000000000E+00  0.00000000000E+00  0.29315239986E+03  0.29315239986E+03  0.00000000000E+00 0. -1.
         -1   -1    0    0    0  501 -0.00000000000E+00 -0.00000000000E+00 -0.50508317885E+02  0.50508317885E+02  0.00000000000E+00 0.  1.
         23    2    1    2    0    0 -0.39423439415E+01 -0.11691549098E+02  0.38889850826E+02  0.99605308592E+02  0.90865629401E+02 0.  0.
         23    2    1    2    0    0 -0.17057682757E+02  0.28359501732E+02  0.19416178463E+03  0.21558021299E+03  0.87640194784E+02 0.  0.
        -13    1    3    3    0    0  0.64684656413E+01 -0.48483560847E+02  0.62093937165E+01  0.49305712554E+02  0.00000000000E+00 0.  1.
         13    1    3    3    0    0 -0.10410809583E+02  0.36792011749E+02  0.32680457109E+02  0.50299596038E+02  0.00000000000E+00 0. -1.
        -13    1    4    4    0    0 -0.19340800195E+02 -0.18652292857E+02  0.15926481423E+02  0.31235034681E+02  0.00000000000E+00 0.  1.
         13    1    4    4    0    0  0.22831174382E+01  0.47011794590E+02  0.17823530321E+03  0.18434517831E+03  0.00000000000E+00 0. -1.
         21    1    1    2  502  501  0.21000026698E+02 -0.16667952635E+02  0.95924465190E+01  0.28475196164E+02  0.00000000000E+00 0.  1.
<scales pt_clust_5="13000.00000" pt_clust_6="13000.00000" pt_clust_7="13000.00000" pt_clust_8="13000.00000" pt_clust_9="26.81085"></scales>
<clustering>
<clus scale="   26.811">  2  9  1 -1</clus>
<clus scale="   87.640">  7  8 -1 -1</clus>
<clus scale="   90.866">  5  6 -1 -1</clus>
<clus scale="   91.605">  1  7  2 -1</clus>
<clus scale="   91.605">  1  5  2 -1</clus>
</clustering>
</event>
<event>
 9    1  0.1434065E-005  0.2320140E+03  0.7546771E-02  0.1125439E+00
         -1   -1    0    0    0  501 -0.00000000000E+00  0.00000000000E+00  0.27825615202E+03  0.27825615202E+03  0.00000000000E+00 0.  1.
          1   -1    0    0  502    0  0.00000000000E+00 -0.00000000000E+00 -0.54054846145E+03  0.54054846145E+03  0.00000000000E+00 0. -1.
         23    2    1    2    0    0 -0.11706193741E+03  0.16611785360E+03  0.17867727326E+03  0.28460710473E+03  0.88187287112E+02 0.  0.
         23    2    1    2    0    0  0.13826750307E+03 -0.16414603882E+03 -0.45316392012E+03  0.50965640172E+03  0.91270394208E+02 0.  0.
        -11    1    4    4    0    0  0.57681119491E+02 -0.25893883046E+02 -0.69497082407E+02  0.93954505948E+02  0.00000000000E+00 0.  1.
         11    1    4    4    0    0  0.80586383576E+02 -0.13825215577E+03 -0.38366683771E+03  0.41570189578E+03  0.00000000000E+00 0. -1.
        -13    1    3    3    0    0 -0.88233962605E+02  0.12329375302E+03  0.17686164617E+03  0.23295197697E+03  0.00000000000E+00 0.  1.
         13    1    3    3    0    0 -0.28827974808E+02  0.42824100580E+02  0.18156270941E+01  0.51655127759E+02  0.00000000000E+00 0. -1.
         21    1    1    2  502  501 -0.21205565653E+02 -0.19718147816E+01  0.12194337428E+02  0.24541107015E+02  0.00000000000E+00 0.  1.
<scales pt_clust_5="13000.00000" pt_clust_6="13000.00000" pt_clust_7="13000.00000" pt_clust_8="13000.00000" pt_clust_9="21.29704"></scales>
<clustering>
<clus scale="   21.297">  1  9  2 -1</clus>
<clus scale="   88.187">  7  8 -1 -1</clus>
<clus scale="   91.270">  5  6 -1 -1</clus>
<clus scale="  230.819">  1  7  2 -1</clus>
<clus scale="  232.014">  2  5  1 -1</clus>
</clustering>
</event>
<event>
 9    1  0.1434065E-005  0.1009043E+03  0.7546771E-02  0.1278892E+00
          1   -1    0    0  502    0  0.00000000000E+00  0.00000000000E+00  0.34009563469E+03  0.34009563469E+03  0.00000000000E+00 0. -1.
         -1   -1    0    0    0  501 -0.00000000000E+00 -0.00000000000E+00 -0.20020743615E+03  0.20020743615E+03  0.00000000000E+00 0.  1.
         23    2    1    2    0    0  0.18134380764E+02 -0.70060208564E+02 -0.89446420079E+02  0.14619910876E+03  0.90201046265E+02 0.  0.
         23    2    1    2    0    0 -0.72803264154E+01  0.40454380498E+02  0.30025460365E+03  0.31648978921E+03  0.91232667438E+02 0.  0.
        -11    1    3    3    0    0  0.40196631143E+02 -0.81274594198E+02 -0.66435863147E+02  0.11240575043E+03  0.00000000000E+00 0.  1.
         11    1    3    3    0    0 -0.22062250379E+02  0.11214385634E+02 -0.23010556933E+02  0.33793358331E+02  0.00000000000E+00 0. -1.
        -11    1    4    4    0    0  0.21434952544E+01 -0.26759719663E+02  0.45312343738E+02  0.52667690887E+02  0.00000000000E+00 0.  1.
         11    1    4    4    0    0 -0.94238216698E+01  0.67214100161E+02  0.25494225992E+03  0.26382209833E+03  0.00000000000E+00 0. -1.
         21    1    1    2  502  501 -0.10854054349E+02  0.29605828066E+02 -0.70919985034E+02  0.77614172859E+02  0.00000000000E+00 0. -1.
<scales pt_clust_5="13000.00000" pt_clust_6="13000.00000" pt_clust_7="13000.00000" pt_clust_8="13000.00000" pt_clust_9="31.53277"></scales>
<clustering>
<clus scale="   31.533">  2  9  1 -1</clus>
<clus scale="   90.201">  5  6 -1 -1</clus>
<clus scale="   91.233">  7  8 -1 -1</clus>
<clus scale="   99.973">  2  5  1 -1</clus>
<clus scale="  100.904">  1  5  2 -1</clus>
</clustering>
</event>
<event>
 9    1  0.1434065E-005  0.9756211E+02  0.7546771E-02  0.1285605E+00
         -1   -1    0    0    0  501 -0.00000000000E+00  0.00000000000E+00  0.13136021536E+03  0.13136021536E+03  0.00000000000E+00 0.  1.
          1   -1    0    0  502    0  0.00000000000E+00 -0.00000000000E+00 -0.42825323855E+03  0.42825323855E+03  0.00000000000E+00 0. -1.
         23    2    1    2    0    0 -0.69535129152E+01 -0.13232855860E+02 -0.26441203370E+02  0.96665507416E+02  0.91769402702E+02 0.  0.
         23    2    1    2    0    0 -0.39551250423E+02  0.56387420387E+01 -0.35351054568E+03  0.36745388637E+03  0.91959533910E+02 0.  0.
        -11    1    4    4    0    0 -0.12293808474E+02 -0.38925952577E+02 -0.90140065758E+02  0.98952508638E+02  0.00000000000E+00 0.  1.
         11    1    4    4    0    0 -0.27257441949E+02  0.44564694616E+02 -0.26337047992E+03  0.26850137773E+03  0.00000000000E+00 0. -1.
        -13    1    3    3    0    0 -0.48299181883E+02  0.21428133350E+01 -0.87192718576E+01  0.49126655914E+02  0.00000000000E+00 0. -1.
         13    1    3    3    0    0  0.41345668968E+02 -0.15375669195E+02 -0.17721931512E+02  0.47538851502E+02  0.00000000000E+00 0.  1.
         21    1    1    2  502  501  0.46504763338E+02  0.75941138208E+01  0.83058725861E+02  0.95494060127E+02  0.00000000000E+00 0.  1.
<scales pt_clust_5="13000.00000" pt_clust_6="13000.00000" pt_clust_7="13000.00000" pt_clust_8="13000.00000" pt_clust_9="47.12073"></scales>
<clustering>
<clus scale="   47.121">  1  9  2 -1</clus>
<clus scale="   91.769">  7  8 -1 -1</clus>
<clus scale="   91.960">  5  6 -1 -1</clus>
<clus scale="   97.383">  1  7  2 -1</clus>
<clus scale="   97.562">  2  5  1 -1</clus>
</clustering>
</event>
<event>
 9    1  0.1434065E-005  0.1057853E+03  0.7546771E-02  0.1271295E+00
          1   -1    0    0  502    0  0.00000000000E+00  0.00000000000E+00  0.48125208116E+03  0.48125208116E+03  0.00000000000E+00 0. -1.
         -1   -1    0    0    0  501 -0.00000000000E+00 -0.00000000000E+00 -0.40319318251E+02  0.40319318251E+02  0.00000000000E+00 0.  1.
         23    2    1    2    0    0  0.17326843223E+02  0.25554052191E+02  0.79652854324E+02  0.12148137907E+03  0.86370823665E+02 0.  0.
         23    2    1    2    0    0 -0.65555065344E+02 -0.72530959423E+01  0.29466799513E+03  0.31584019290E+03  0.92605216403E+02 0.  0.
        -11    1    3    3    0    0  0.14612935693E+02  0.57552434568E+02  0.55751560887E+02  0.81449721642E+02  0.00000000000E+00 0. -1.
         11    1    3    3    0    0  0.27139075296E+01 -0.31998382377E+02  0.23901293437E+02  0.40031657432E+02  0.00000000000E+00 0.  1.
        -13    1    4    4    0    0 -0.85077216603E+02 -0.22963122736E+02  0.24114258360E+03  0.25673952445E+03  0.00000000000E+00 0.  1.
         13    1    4    4    0    0  0.19522151259E+02  0.15710026794E+02  0.53525411529E+02  0.59100668448E+02  0.00000000000E+00 0. -1.
         21    1    1    2  502  501  0.48228222121E+02 -0.18300956248E+02  0.66611913455E+02  0.84249827435E+02  0.00000000000E+00 0. -1.
<scales pt_clust_5="13000.00000" pt_clust_6="13000.00000" pt_clust_7="13000.00000" pt_clust_8="13000.00000" pt_clust_9="51.58378"></scales>
<clustering>
<clus scale="   51.584">  2  9  1 -1</clus>
<clus scale="   86.371">  5  6 -1 -1</clus>
<clus scale="   92.605">  7  8 -1 -1</clus>
<clus scale="  100.373">  2  5  1 -1</clus>
<clus scale="  105.785">  1  5  2 -1</clus>
</clustering>
</event>
<event>
 9    1  0.1434065E-005  0.9241825E+02  0.7546771E-02  0.1298159E+00
         -1   -1    0    0    0  501 -0.00000000000E+00  0.00000000000E+00  0.31765815345E+03  0.31765815345E+03  0.00000000000E+00 0.  1.
          1   -1    0    0  502    0  0.00000000000E+00 -0.00000000000E+00 -0.66921857521E+02  0.66921857521E+02  0.00000000000E+00 0. -1.
         23    2    1    2    0    0 -0.28621458853E+02  0.93566518238E+01  0.11570764708E+03  0.15050841577E+03  0.91420942814E+02 0.  0.
         23    2    1    2    0    0 -0.28089714567E+02  0.12498407305E+02  0.10259438310E+02  0.95287025819E+02  0.89605351209E+02 0.  0.
        -11    1    4    4    0    0 -0.15227018453E+02  0.33394521715E+02  0.41604650548E+02  0.55479754134E+02  0.00000000000E+00 0.  1.
         11    1    4    4    0    0 -0.12862696114E+02 -0.20896114410E+02 -0.31345212238E+02  0.39807271685E+02  0.00000000000E+00 0. -1.
        -13    1    3    3    0    0 -0.23568924398E+02  0.30365114404E+02  0.62561809378E+01  0.38944501152E+02  0.00000000000E+00 0.  1.
         13    1    3    3    0    0 -0.50525344550E+01 -0.21008462580E+02  0.10945146615E+03  0.11156391462E+03  0.00000000000E+00 0. -1.
         21    1    1    2  502  501  0.56711173420E+02 -0.21855059129E+02  0.12476921054E+03  0.13878456938E+03  0.00000000000E+00 0. -1.
<scales pt_clust_5="13000.00000" pt_clust_6="13000.00000" pt_clust_7="13000.00000" pt_clust_8="13000.00000" pt_clust_9="60.77665"></scales>
<clustering>
<clus scale="   60.777">  1  9  2 -1</clus>
<clus scale="   89.605">  5  6 -1 -1</clus>
<clus scale="   90.623">  2  5  1 -1</clus>
<clus scale="   91.421">  7  8 -1 -1</clus>
<clus scale="   90.623">  2  5  1 -1</clus>
</clustering>
</event>
<event>
 9    1  0.1434065E-005  0.1480402E+03  0.7546771E-02  0.1203170E+00
          1   -1    0    0  502    0  0.00000000000E+00  0.00000000000E+00  0.60135219973E+02  0.60135219973E+02  0.00000000000E+00 0. -1.
         -1   -1    0    0    0  501 -0.00000000000E+00 -0.00000000000E+00 -0.48502785301E+03  0.48502785301E+03  0.00000000000E+00 0.  1.
         23    2    1    2    0    0 -0.89651567521E+02  0.39554967834E+02 -0.26902370777E+03  0.30047970031E+03  0.91171793447E+02 0.  0.
         23    2    1    2    0    0  0.11833590058E+03 -0.40058742028E+02 -0.10953209685E+03  0.19018432296E+03  0.92545709147E+02 0.  0.
        -13    1    3    3    0    0 -0.64537673692E+02 -0.14042817140E+02 -0.88024827989E+02  0.11004854557E+03  0.00000000000E+00 0.  1.
         13    1    3    3    0    0 -0.25113893829E+02  0.53597784974E+02 -0.18099887978E+03  0.19043115475E+03  0.00000000000E+00 0. -1.
        -13    1    4    4    0    0  0.86702775436E+02 -0.35121131604E+02 -0.20769214443E+02  0.95823929277E+02  0.00000000000E+00 0. -1.
         13    1    4    4    0    0  0.31633125140E+02 -0.49376104235E+01 -0.88762882408E+02  0.94360393684E+02  0.00000000000E+00 0.  1.
         21    1    1    2  502  501 -0.28684333055E+02  0.50377419338E+00 -0.46336828415E+02  0.54499049705E+02  0.00000000000E+00 0.  1.
<scales pt_clust_5="13000.00000" pt_clust_6="13000.00000" pt_clust_7="13000.00000" pt_clust_8="13000.00000" pt_clust_9="28.68876"></scales>
<clustering>
<clus scale="   28.689">  2  9  1 -1</clus>
<clus scale="   91.172">  5  6 -1 -1</clus>
<clus scale="   92.546">  7  8 -1 -1</clus>
<clus scale="  147.185">  2  5  1 -1</clus>
<clus scale="  148.040">  1  5  2 -1</clus>
</clustering>
</event>
<event>
 9    1  0.1434065E-005  0.9419359E+02  0.7546771E-02  0.1293064E+00
         -3   -1    0    0    0  501 -0.00000000000E+00  0.00000000000E+00  0.15474946027E+03  0.15474946027E+03  0.00000000000E+00 0.  1.
          3   -1    0    0  502    0  0.00000000000E+00 -0.00000000000E+00 -0.80291572485E+02  0.80291572485E+02  0.00000000000E+00 0. -1.
         23    2    1    2    0    0  0.22376255809E+01 -0.27997572882E+02  0.28312883598E+02  0.99272293880E+02  0.90909283899E+02 0.  0.
         23    2    1    2    0    0  0.17096734120E+02  0.18413721637E+02  0.11734558283E+02  0.95151667869E+02  0.91020748064E+02 0.  0.
        -11    1    4    4    0    0 -0.24833240255E+02 -0.19803842385E+02  0.20414960416E+02  0.37757815132E+02  0.00000000000E+00 0.  1.
         11    1    4    4    0    0  0.41929974375E+02  0.38217564021E+02 -0.86804021330E+01  0.57393852737E+02  0.00000000000E+00 0. -1.
        -13    1    3    3    0    0 -0.38774312083E+02  0.26635011812E+01  0.28280764897E+02  0.48066029368E+02  0.00000000000E+00 0.  1.
         13    1    3    3    0    0  0.41011937664E+02 -0.30661074063E+02  0.32118701073E-01  0.51206264512E+02  0.00000000000E+00 0. -1.
         21    1    1    2  502  501 -0.19334359700E+02  0.95838512453E+01  0.34410445899E+02  0.40617071001E+02  0.00000000000E+00 0.  1.
<scales pt_clust_5="13000.00000" pt_clust_6="13000.00000" pt_clust_7="13000.00000" pt_clust_8="13000.00000" pt_clust_9="21.57933"></scales>
<clustering>
<clus scale="   21.579">  1  9  2 -1</clus>
<clus scale="   90.909">  7  8 -1 -1</clus>
<clus scale="   91.021">  5  6 -1 -1</clus>
<clus scale="   94.086">  1  7  2 -1</clus>
<clus scale="   94.194">  2  5  1 -1</clus>
</clustering>
</event>
<event>
 9    1  0.1434065E-005  0.1119737E+03  0.7546771E-02  0.1263668E+00
          2   -1    0    0  502    0  0.00000000000E+00  0.00000000000E+00  0.19056064170E+03  0.19056064170E+03  0.00000000000E+00 0. -1.
         -2   -1    0    0    0  501 -0.00000000000E+00 -0.00000000000E+00 -0.10281434006E+03  0.10281434006E+03  0.00000000000E+00 0.  1.
         23    2    1    2    0    0  0.17600749521E+02 -0.56756105355E+02  0.27863274708E+02  0.11409766206E+03  0.93332055221E+02 0.  0.
         23    2    1    2    0    0 -0.68523923816E+02  0.30665248854E+02  0.18233997256E+02  0.10850625113E+03  0.76192140381E+02 0.  0.
        -13    1    3    3    0    0  0.15671034623E+02 -0.17327704330E+02 -0.33675253454E+02  0.40986014185E+02  0.00000000000E+00 0.  1.
         13    1    3    3    0    0  0.19297148977E+01 -0.39428401025E+02  0.61538528163E+02  0.73111647878E+02  0.00000000000E+00 0. -1.
        -13    1    4    4    0    0 -0.22084498644E+02  0.42559901441E+02  0.33159778535E+02  0.58297866200E+02  0.00000000000E+00 0.  1.
         13    1    4    4    0    0 -0.46439425172E+02 -0.11894652587E+02 -0.14925781279E+02  0.50208384930E+02  0.00000000000E+00 0. -1.
         21    1    1    2  502  501  0.50923174295E+02  0.26090856501E+02  0.41649029673E+02  0.70771068566E+02  0.00000000000E+00 0.  1.
<scales pt_clust_5="13000.00000" pt_clust_6="13000.00000" pt_clust_7="13000.00000" pt_clust_8="13000.00000" pt_clust_9="57.21803"></scales>
<clustering>
<clus scale="   57.218">  1  9  2 -1</clus>
<clus scale="   76.192">  7  8 -1 -1</clus>
<clus scale="   93.332">  5  6 -1 -1</clus>
<clus scale="   98.145">  1  7  2 -1</clus>
<clus scale="   57.218">  1  5  2 -1</clus>
</clustering>
</event>
<event>
 9    1  0.1434065E-005  0.9958719E+02  0.7546771E-02  0.1281901E+00
         -1   -1    0    0    0  501 -0.00000000000E+00  0.00000000000E+00  0.48108366196E+02  0.48108366196E+02  0.00000000000E+00 0.  1.
          1   -1    0    0  502    0  0.00000000000E+00 -0.00000000000E+00 -0.60836052820E+03  0.60836052820E+03  0.00000000000E+00 0. -1.
         23    2    1    2    0    0 -0.58062132978E+02  0.39205243455E+02 -0.11371407694E+03  0.16234849224E+03  0.92292357415E+02 0.  0.
         23    2    1    2    0    0  0.31068204185E+02 -0.47460984167E+01 -0.43938229571E+03  0.44976603157E+03  0.90801556205E+02 0.  0.
        -13    1    3    3    0    0 -0.17981549356E+02  0.46803749436E+02 -0.10309779486E+02  0.51188071184E+02  0.00000000000E+00 0.  1.
         13    1    3    3    0    0 -0.40080583622E+02 -0.75985059809E+01 -0.10340429746E+03  0.11116042106E+03  0.00000000000E+00 0. -1.
        -13    1    4    4    0    0 -0.13245776085E+02 -0.37730962984E+02 -0.15555570969E+03  0.16061337108E+03  0.00000000000E+00 0. -1.
         13    1    4    4    0    0  0.44313980270E+02  0.32984864567E+02 -0.28382658602E+03  0.28915266049E+03  0.00000000000E+00 0.  1.
         21    1    1    2  502  501  0.26993928793E+02 -0.34459145038E+02 -0.71557893444E+01  0.44354370580E+02  0.00000000000E+00 0. -1.
<scales pt_clust_5="13000.00000" pt_clust_6="13000.00000" pt_clust_7="13000.00000" pt_clust_8="13000.00000" pt_clust_9="43.77334"></scales>
<clustering>
<clus scale="   43.773">  1  9  2 -1</clus>
<clus scale="   90.802">  7  8 -1 -1</clus>
<clus scale="   92.292">  5  6 -1 -1</clus>
<clus scale="   98.207">  2  7  1 -1</clus>
<clus scale="   98.207">  2  5  1 -1</clus>
</clustering>
</event>
<event>
 9    1  0.1434065E-005  0.9309883E+02  0.7546771E-02  0.1296458E+00
          1   -1    0    0  502    0  0.00000000000E+00  0.00000000000E+00  0.20618393279E+03  0.20618393279E+03  0.00000000000E+00 0. -1.
         -1   -1    0    0    0  501 -0.00000000000E+00 -0.00000000000E+00 -0.17605924404E+03  0.17605924404E+03  0.00000000000E+00 0.  1.
         23    2    1    2    0    0  0.19563745039E+02  0.22161761830E+02 -0.12350626953E+03  0.15700104264E+03  0.92312756258E+02 0.  0.
         23    2    1    2    0    0 -0.10614937481E+02 -0.28606433157E+01  0.17353387738E+03  0.19610898261E+03  0.90685535145E+02 0.  0.
        -11    1    4    4    0    0  0.24585007469E+02 -0.30088045746E+00  0.65613467133E+01  0.25447286535E+02  0.00000000000E+00 0.  1.
         11    1    4    4    0    0 -0.35199944950E+02 -0.25597628582E+01  0.16697253067E+03  0.17066169608E+03  0.00000000000E+00 0. -1.
        -11    1    3    3    0    0  0.49372141523E+02  0.28346113434E+02 -0.10965913794E+03  0.12355661471E+03  0.00000000000E+00 0.  1.
         11    1    3    3    0    0 -0.29808396485E+02 -0.61843516038E+01 -0.13847131587E+02  0.33444427921E+02  0.00000000000E+00 0. -1.
         21    1    1    2  502  501 -0.89488075576E+01 -0.19301118515E+02 -0.19902919100E+02  0.29133151586E+02  0.00000000000E+00 0.  1.
<scales pt_clust_5="13000.00000" pt_clust_6="13000.00000" pt_clust_7="13000.00000" pt_clust_8="13000.00000" pt_clust_9="21.27473"></scales>
<clustering>
<clus scale="   21.275">  2  9  1 -1</clus>
<clus scale="   90.686">  5  6 -1 -1</clus>
<clus scale="   91.486">  1  5  2 -1</clus>
<clus scale="   92.313">  7  8 -1 -1</clus>
<clus scale="   91.486">  1  5  2 -1</clus>
</clustering>
</event>
<event>
 9    1  0.1434065E-005  0.1076051E+03  0.7546771E-02  0.1270546E+00
          1   -1    0    0  502    0  0.00000000000E+00  0.00000000000E+00  0.65333751424E+03  0.65333751424E+03  0.00000000000E+00 0. -1.
         -1   -1    0    0    0  501 -0.00000000000E+00 -0.00000000000E+00 -0.54503698497E+02  0.54503698497E+02  0.00000000000E+00 0.  1.
         23    2    1    2    0    0  0.27465130730E+02  0.80980490189E+01  0.11410066131E+03  0.14629950092E+03  0.86975118601E+02 0.  0.
         23    2    1    2    0    0 -0.46364889623E+02  0.16089150747E+02  0.50998141839E+03  0.52179631773E+03  0.98902913681E+02 0.  0.
        -11    1    3    3    0    0 -0.15331006554E+02 -0.28797767232E+02  0.58754999489E+02  0.67204918901E+02  0.00000000000E+00 0. -1.
         11    1    3    3    0    0  0.42796137283E+02  0.36895816251E+02  0.55345661819E+02  0.79094582023E+02  0.00000000000E+00 0.  1.
        -11    1    4    4    0    0 -0.66076882715E+01  0.54248525003E+02  0.28228490140E+03  0.28752622414E+03  0.00000000000E+00 0. -1.
         11    1    4    4    0    0 -0.39757201352E+02 -0.38159374255E+02  0.22769651698E+03  0.23427009359E+03  0.00000000000E+00 0.  1.
         21    1    1    2  502  501  0.18899758893E+02 -0.24187199766E+02 -0.25248263948E+02  0.39745394087E+02  0.00000000000E+00 0.  1.
<scales pt_clust_5="13000.00000" pt_clust_6="13000.00000" pt_clust_7="13000.00000" pt_clust_8="13000.00000" pt_clust_9="30.69563"></scales>
<clustering>
<clus scale="   30.696">  2  9  1 -1</clus>
<clus scale="   86.975">  5  6 -1 -1</clus>
<clus scale="   96.756">  2  5  1 -1</clus>
<clus scale="   98.903">  7  8 -1 -1</clus>
<clus scale="  107.605">  1  5  2 -1</clus>
</clustering>
</event>
<event>
 9    1  0.1434065E-005  0.1125902E+03  0.7546771E-02  0.1256149E+00
          3   -1    0    0  502    0  0.00000000000E+00  0.00000000000E+00  0.77911323072E+02  0.77911323072E+02  0.00000000000E+00 0. -1.
         -3   -1    0    0    0  501 -0.00000000000E+00 -0.00000000000E+00 -0.27596994824E+03  0.27596994824E+03  0.00000000000E+00 0.  1.
         23    2    1    2    0    0  0.88312024727E+02 -0.22332587388E+02 -0.10691276589E+03  0.16774039593E+03  0.91699197092E+02 0.  0.
         23    2    1    2    0    0 -0.38207789810E+02  0.39067635588E+02 -0.42206599783E+02  0.11413013094E+03  0.90874497905E+02 0.  0.
        -11    1    3    3    0    0  0.26196100258E+02 -0.40858274453E+02 -0.87528559121E+02  0.10008437901E+03  0.00000000000E+00 0. -1.
         11    1    3    3    0    0  0.62115924469E+02  0.18525687066E+02 -0.19384206766E+02  0.67656016923E+02  0.00000000000E+00 0.  1.
        -13    1    4    4    0    0  0.28025181829E+02  0.22093632000E+01 -0.21965739941E+02  0.35676124137E+02  0.00000000000E+00 0.  1.
         13    1    4    4    0    0 -0.66232971639E+02  0.36858272388E+02 -0.20240859842E+02  0.78454006798E+02  0.00000000000E+00 0. -1.
         21    1    1    2  502  501 -0.50104234917E+02 -0.16735048200E+02 -0.48939259494E+02  0.72010744439E+02  0.00000000000E+00 0. -1.
<scales pt_clust_5="13000.00000" pt_clust_6="13000.00000" pt_clust_7="13000.00000" pt_clust_8="13000.00000" pt_clust_9="52.82515"></scales>
<clustering>
<clus scale="   52.825">  2  9  1 -1</clus>
<clus scale="   90.874">  7  8 -1 -1</clus>
<clus scale="   91.699">  5  6 -1 -1</clus>
<clus scale="  111.920">  1  7  2 -1</clus>
<clus scale="  111.920">  1  5  2 -1</clus>
</clustering>
</event>
<event>
 9    1  0.1434065E-005  0.1139153E+03  0.7546771E-02  0.1254106E+00
          1   -1    0    0  502    0  0.00000000000E+00  0.00000000000E+00  0.46802996505E+03  0.46802996505E+03  0.00000000000E+00 0. -1.
         -1   -1    0    0    0  501 -0.00000000000E+00 -0.00000000000E+00 -0.75356560869E+02  0.75356560869E+02  0.00000000000E+00 0.  1.
         23    2    1    2    0    0 -0.18224233376E+02  0.46181681023E+02  0.70225249340E+02  0.12687137751E+03  0.93273203238E+02 0.  0.
         23    2    1    2    0    0  0.87026632343E+01 -0.70389037883E+02  0.35582371373E+03  0.37419985145E+03  0.91567792215E+02 0.  0.
        -11    1    4    4    0    0  0.37599217151E+02 -0.20240683995E+02  0.24964841502E+03  0.25327399697E+03  0.00000000000E+00 0. -1.
         11    1    4    4    0    0 -0.28896553916E+02 -0.50148353887E+02  0.10617529872E+03  0.12092585449E+03  0.00000000000E+00 0.  1.
        -13    1    3    3    0    0  0.15998833870E+02  0.57565813197E+02  0.16185292094E+02  0.61901124500E+02  0.00000000000E+00 0.  1.
         13    1    3    3    0    0 -0.34223067245E+02 -0.11384132175E+02  0.54039957246E+02  0.64970253010E+02  0.00000000000E+00 0. -1.
         21    1    1    2  502  501  0.95215701412E+01  0.24207356860E+02 -0.33375558898E+02  0.42315296949E+02  0.00000000000E+00 0.  1.
<scales pt_clust_5="13000.00000" pt_clust_6="13000.00000" pt_clust_7="13000.00000" pt_clust_8="13000.00000" pt_clust_9="26.01262"></scales>
<clustering>
<clus scale="   26.013">  2  9  1 -1</clus>
<clus scale="   91.568">  5  6 -1 -1</clus>
<clus scale="   93.273">  7  8 -1 -1</clus>
<clus scale="  112.523">  1  5  2 -1</clus>
<clus scale="  112.523">  1  5  2 -1</clus>
</clustering>
</event>
<event>
 9    1  0.1434065E-005  0.1515190E+03  0.7546771E-02  0.1198822E+00
          1   -1    0    0  502    0  0.00000000000E+00  0.00000000000E+00  0.53464137282E+03  0.53464137282E+03  0.00000000000E+00 0. -1.
         -1   -1    0    0    0  501 -0.00000000000E+00 -0.00000000000E+00 -0.98011735209E+02  0.98011735209E+02  0.00000000000E+00 0.  1.
         23    2    1    2    0    0  0.63594785097E+02  0.12681443852E+03  0.28456247420E+03  0.33093111635E+03  0.91724607036E+02 0.  0.
         23    2    1    2    0    0 -0.54540016035E+02 -0.85580658068E+02  0.19742133597E+03  0.23976059674E+03  0.90616209746E+02 0.  0.
        -11    1    4    4    0    0  0.11359989565E+01 -0.43618335720E+02  0.14801143716E+03  0.15430889551E+03  0.00000000000E+00 0. -1.
         11    1    4    4    0    0 -0.55676014992E+02 -0.41962322348E+02  0.49409898812E+02  0.85451701228E+02  0.00000000000E+00 0.  1.
        -13    1    3    3    0    0  0.26145145392E+02  0.12798591762E+03  0.23409774539E+03  0.26807782104E+03  0.00000000000E+00 0.  1.
         13    1    3    3    0    0  0.37449639705E+02 -0.11714790994E+01  0.50464728818E+02  0.62853295315E+02  0.00000000000E+00 0. -1.
         21    1    1    2  502  501 -0.90547690623E+01 -0.41233780455E+02 -0.45354172564E+02  0.61961394935E+02  0.00000000000E+00 0.  1.
<scales pt_clust_5="13000.00000" pt_clust_6="13000.00000" pt_clust_7="13000.00000" pt_clust_8="13000.00000" pt_clust_9="42.21627"></scales>
<clustering>
<clus scale="   42.216">  2  9  1 -1</clus>
<clus scale="   90.616">  5  6 -1 -1</clus>
<clus scale="   91.725">  7  8 -1 -1</clus>
<clus scale="  150.851">  1  5  2 -1</clus>
<clus scale="  150.851">  1  5  2 -1</clus>
</clustering>
</event>
<event>
 9    1  0.1434065E-005  0.1640585E+03  0.7546771E-02  0.1184193E+00
         -2   -1    0    0    0  501 -0.00000000000E+00  0.00000000000E+00  0.70116387767E+02  0.70116387767E+02  0.00000000000E+00 0.  1.
          2   -1    0    0  502    0  0.00000000000E+00 -0.00000000000E+00 -0.79633569470E+03  0.79633569470E+03  0.00000000000E+00 0. -1.
         23    2    1    2    0    0 -0.89148325684E+02  0.73547392828E+02 -0.63081169598E+02  0.16017903381E+03  0.91221959798E+02 0.  0.
         23    2    1    2    0    0  0.12831562786E+03 -0.60249031100E+02 -0.63307895797E+03  0.65514107972E+03  0.91247033954E+02 0.  0.
        -13    1    3    3    0    0 -0.38051321455E+02 -0.14536540458E+02 -0.66095611077E+00  0.40738813630E+02  0.00000000000E+00 0.  1.
         13    1    3    3    0    0 -0.51097004229E+02  0.88083933285E+02 -0.62420213487E+02  0.11944022018E+03  0.00000000000E+00 0. -1.
        -13    1    4    4    0    0  0.62998979113E+02  0.16049897597E+02 -0.31273860357E+03  0.31942433337E+03  0.00000000000E+00 0. -1.
         13    1    4    4    0    0  0.65316648744E+02 -0.76298928698E+02 -0.32034035440E+03  0.33571674635E+03  0.00000000000E+00 0.  1.
         21    1    1    2  502  501 -0.39167302173E+02 -0.13298361727E+02 -0.30059179366E+02  0.51131968946E+02  0.00000000000E+00 0. -1.
<scales pt_clust_5="13000.00000" pt_clust_6="13000.00000" pt_clust_7="13000.00000" pt_clust_8="13000.00000" pt_clust_9="41.36332"></scales>
<clustering>
<clus scale="   41.363">  1  9  2 -1</clus>
<clus scale="   91.222">  5  6 -1 -1</clus>
<clus scale="   91.247">  7  8 -1 -1</clus>
<clus scale="  164.045">  1  5  2 -1</clus>
<clus scale="  164.058">  2  5  1 -1</clus>
</clustering>
</event>
<event>
 9    1  0.1434065E-005  0.1238604E+03  0.7546771E-02  0.1236931E+00
         -2   -1    0    0    0  501 -0.00000000000E+00  0.00000000000E+00  0.68205621229E+02  0.68205621229E+02  0.00000000000E+00 0.  1.
          2   -1    0    0  502    0  0.00000000000E+00 -0.00000000000E+00 -0.35131365654E+03  0.35131365654E+03  0.00000000000E+00 0. -1.
         23    2    1    2    0    0 -0.36877142988E+02 -0.74768177291E+02 -0.31890954714E+02  0.12722236253E+03  0.90654798682E+02 0.  0.
         23    2    1    2    0    0  0.57405597600E+02  0.68546984547E+02 -0.22476865874E+03  0.25824343221E+03  0.90413652738E+02 0.  0.
        -11    1    3    3    0    0 -0.26819401711E+02 -0.11673032097E+02 -0.52492233089E+02  0.60091384750E+02  0.00000000000E+00 0. -1.
         11    1    3    3    0    0 -0.10057741277E+02 -0.63095145194E+02  0.20601278375E+02  0.67130977778E+02  0.00000000000E+00 0.  1.
        -13    1    4    4    0    0  0.75769551152E+02  0.28003215091E+02 -0.12283023212E+03  0.14701180517E+03  0.00000000000E+00 0. -1.
         13    1    4    4    0    0 -0.18363953552E+02  0.40543769456E+02 -0.10193842662E+03  0.11123162704E+03  0.00000000000E+00 0.  1.
         21    1    1    2  502  501 -0.20528454611E+02  0.62211927435E+01 -0.26448421856E+02  0.34053483031E+02  0.00000000000E+00 0.  1.
<scales pt_clust_5="13000.00000" pt_clust_6="13000.00000" pt_clust_7="13000.00000" pt_clust_8="13000.00000" pt_clust_9="21.45042"></scales>
<clustering>
<clus scale="   21.450">  2  9  1 -1</clus>
<clus scale="   90.414">  7  8 -1 -1</clus>
<clus scale="   90.655">  5  6 -1 -1</clus>
<clus scale="  123.684">  2  7  1 -1</clus>
<clus scale="   21.450">  2  5  1 -1</clus>
</clustering>
</event>
<event>
 9    1  0.1434065E-005  0.3336997E+03  0.7546771E-02  0.1070647E+00
         -1   -1    0    0    0  501 -0.00000000000E+00  0.00000000000E+00  0.14262570658E+03  0.14262570658E+03  0.00000000000E+00 0.  1.
          1   -1    0    0  502    0  0.00000000000E+00 -0.00000000000E+00 -0.14920319025E+04  0.14920319025E+04  0.00000000000E+00 0. -1.
         23    2    1    2    0    0 -0.50280539325E+02  0.29727720093E+03 -0.53369061794E+03  0.61743969583E+03  0.74190534965E+02 0.  0.
         23    2    1    2    0    0  0.52123547203E+02 -0.32090342348E+03 -0.88217582253E+03  0.94665900746E+03  0.11060390214E+03 0.  0.
        -11    1    4    4    0    0  0.64221325981E+02 -0.86257577393E+02 -0.30985650477E+03  0.32798750269E+03  0.00000000000E+00 0. -1.
         11    1    4    4    0    0 -0.12097778778E+02 -0.23464584609E+03 -0.57231931776E+03  0.61867150477E+03  0.00000000000E+00 0.  1.
        -13    1    3    3    0    0 -0.52387895364E+02  0.26049776948E+03 -0.41163717680E+03  0.48994769599E+03  0.00000000000E+00 0.  1.
         13    1    3    3    0    0  0.21073560394E+01  0.36779431445E+02 -0.12205344114E+03  0.12749199983E+03  0.00000000000E+00 0. -1.
         21    1    1    2  502  501 -0.18430078779E+01  0.23626222549E+02  0.66460244594E+02  0.70558905756E+02  0.00000000000E+00 0.  1.
<scales pt_clust_5="13000.00000" pt_clust_6="13000.00000" pt_clust_7="13000.00000" pt_clust_8="13000.00000" pt_clust_9="23.69800"></scales>
<clustering>
<clus scale="   23.698">  1  9  2 -1</clus>
<clus scale="   74.191">  7  8 -1 -1</clus>
<clus scale="  110.604">  5  6 -1 -1</clus>
<clus scale="  323.460">  1  7  2 -1</clus>
<clus scale="  333.700">  2  5  1 -1</clus>
</clustering>
</event>
<event>
 9    1  0.1434065E-005  0.1938609E+03  0.7546771E-02  0.1185093E+00
          1   -1    0    0  502    0  0.00000000000E+00  0.00000000000E+00  0.16214130795E+03  0.16214130795E+03  0.00000000000E+00 0. -1.
         -1   -1    0    0    0  501 -0.00000000000E+00 -0.00000000000E+00 -0.39669531589E+03  0.39669531589E+03  0.00000000000E+00 0.  1.
         23    2    1    2    0    0 -0.96214567484E+02 -0.13236082173E+03 -0.83594998976E+02  0.20440054092E+03  0.89525567004E+02 0.  0.
         23    2    1    2    0    0  0.20783624587E+02 -0.29057572964E+02  0.28520199383E+02  0.10153588221E+03  0.90663289184E+02 0.  0.
        -11    1    4    4    0    0  0.44675448445E+02 -0.20161785519E+02  0.48644787508E+02  0.69055837124E+02  0.00000000000E+00 0.  1.
         11    1    4    4    0    0 -0.23891823858E+02 -0.88957874450E+01 -0.20124588126E+02  0.32480045085E+02  0.00000000000E+00 0. -1.
        -13    1    3    3    0    0 -0.32216148866E+01 -0.76940124729E+02 -0.46544159980E+02  0.89980666946E+02  0.00000000000E+00 0.  1.
         13    1    3    3    0    0 -0.92992952598E+02 -0.55420697004E+02 -0.37050838996E+02  0.11441987397E+03  0.00000000000E+00 0. -1.
         21    1    1    2  502  501  0.75430942897E+02  0.16141839470E+03 -0.17947920835E+03  0.25290020072E+03  0.00000000000E+00 0.  1.
<scales pt_clust_5="13000.00000" pt_clust_6="13000.00000" pt_clust_7="13000.00000" pt_clust_8="13000.00000" pt_clust_9="171.95126"></scales>
<clustering>
<clus scale="   89.526">  7  8 -1 -1</clus>
<clus scale="   90.663">  5  6 -1 -1</clus>
<clus scale="   97.448">  1  5  2 -1</clus>
<clus scale="  171.951">  2  9  1 -1</clus>
<clus scale="   97.448">  1  5  2 -1</clus>
</clustering>
</event>
<event>
 9    1  0.1434065E-005  0.9545444E+02  0.7546771E-02  0.1291584E+00
         -1   -1    0    0    0  501 -0.00000000000E+00  0.00000000000E+00  0.16016024886E+03  0.16016024886E+03  0.00000000000E+00 0.  1.
          1   -1    0    0  502    0  0.00000000000E+00 -0.00000000000E+00 -0.10579156848E+03  0.10579156848E+03  0.00000000000E+00 0. -1.
         23    2    1    2    0    0  0.16089767482E+02 -0.28958075654E+02 -0.54832524985E+01  0.97221654747E+02  0.91238880586E+02 0.  0.
         23    2    1    2    0    0  0.97901430475E+01  0.62688632788E+01 -0.57018069959E+01  0.94690558731E+02  0.93801096806E+02 0.  0.
        -13    1    3    3    0    0  0.50421928984E+02 -0.27953787446E+02  0.11682680996E+02  0.58824061321E+02  0.00000000000E+00 0.  1.
         13    1    3    3    0    0 -0.34332161502E+02 -0.10042882084E+01 -0.17165933494E+02  0.38397593426E+02  0.00000000000E+00 0. -1.
        -13    1    4    4    0    0 -0.27968811246E+02 -0.23725905452E+02  0.18115842966E+02  0.40906683542E+02  0.00000000000E+00 0.  1.
         13    1    4    4    0    0  0.37758954294E+02  0.29994768731E+02 -0.23817649962E+02  0.53783875189E+02  0.00000000000E+00 0. -1.
         21    1    1    2  502  501 -0.25879910529E+02  0.22689212376E+02  0.65553739880E+02  0.74039603858E+02  0.00000000000E+00 0. -1.
<scales pt_clust_5="13000.00000" pt_clust_6="13000.00000" pt_clust_7="13000.00000" pt_clust_8="13000.00000" pt_clust_9="34.41758"></scales>
<clustering>
<clus scale="   34.418">  1  9  2 -1</clus>
<clus scale="   91.239">  5  6 -1 -1</clus>
<clus scale="   92.938">  1  5  2 -1</clus>
<clus scale="   93.801">  7  8 -1 -1</clus>
<clus scale="   95.454">  2  5  1 -1</clus>
</clustering>
</event>
<event>
 9    1  0.1434065E-005  0.9391521E+02  0.7546771E-02  0.1297432E+00
         -1   -1    0    0    0  501 -0.00000000000E+00  0.00000000000E+00  0.18941107837E+03  0.18941107837E+03  0.00000000000E+00 0.  1.
          1   -1    0    0  502    0  0.00000000000E+00 -0.00000000000E+00 -0.10532873896E+03  0.10532873896E+03  0.00000000000E+00 0. -1.
         23    2    1    2    0    0  0.48317160506E+01 -0.11690545022E+02  0.11356292420E+03  0.14223585013E+03  0.84702331649E+02 0.  0.
         23    2    1    2    0    0 -0.28241813458E+01 -0.29610896993E+02 -0.47828948449E+02  0.10726568964E+03  0.91288217439E+02 0.  0.
        -13    1    3    3    0    0  0.39155023035E+02 -0.21817606060E+02  0.86306288878E+02  0.97251731414E+02  0.00000000000E+00 0.  1.
         13    1    3    3    0    0 -0.34323306985E+02  0.10127061038E+02  0.27256635320E+02  0.44984118715E+02  0.00000000000E+00 0. -1.
        -13    1    4    4    0    0  0.25914326829E+02 -0.46101504891E+02 -0.50076212085E+01  0.53122286833E+02  0.00000000000E+00 0.  1.
         13    1    4    4    0    0 -0.28738508174E+02  0.16490607898E+02 -0.42821327240E+02  0.54143402807E+02  0.00000000000E+00 0. -1.
         21    1    1    2  502  501 -0.20075347049E+01  0.41301442014E+02  0.18348363662E+02  0.45238277566E+02  0.00000000000E+00 0. -1.
<scales pt_clust_5="13000.00000" pt_clust_6="13000.00000" pt_clust_7="13000.00000" pt_clust_8="13000.00000" pt_clust_9="41.35020"></scales>
<clustering>
<clus scale="   41.350">  1  9  2 -1</clus>
<clus scale="   84.702">  5  6 -1 -1</clus>
<clus scale="   87.527">  1  5  2 -1</clus>
<clus scale="   91.288">  7  8 -1 -1</clus>
<clus scale="   93.915">  2  5  1 -1</clus>
</clustering>
</event>
<event>
 9    1  0.1434065E-005  0.1016267E+03  0.7546771E-02  0.1277373E+00
         -1   -1    0    0    0  501 -0.00000000000E+00  0.00000000000E+00  0.46168849225E+03  0.46168849225E+03  0.00000000000E+00 0.  1.
          1   -1    0    0  502    0  0.00000000000E+00 -0.00000000000E+00 -0.32717768773E+02  0.32717768773E+02  0.00000000000E+00 0. -1.
         23    2    1    2    0    0  0.33245771159E+02 -0.19639067430E+02  0.28186803315E+03  0.29857263793E+03  0.90581773770E+02 0.  0.
         23    2    1    2    0    0 -0.53321816628E+02  0.23241646203E+02  0.11794864751E+03  0.16025294873E+03  0.91573652765E+02 0.  0.
        -11    1    4    4    0    0 -0.14980789418E+02 -0.21784409392E+02 -0.20041788524E+01  0.26514171249E+02  0.00000000000E+00 0.  1.
         11    1    4    4    0    0 -0.38341027210E+02  0.45026055594E+02  0.11995282637E+03  0.13373877748E+03  0.00000000000E+00 0. -1.
        -11    1    3    3    0    0  0.59080498136E+02  0.44903578001E+01  0.21398479978E+03  0.22203640041E+03  0.00000000000E+00 0.  1.
         11    1    3    3    0    0 -0.25834726978E+02 -0.24129425231E+02  0.67883233373E+02  0.76536237516E+02  0.00000000000E+00 0. -1.
         21    1    1    2  502  501  0.20076045469E+02 -0.36025787725E+01  0.29154042814E+02  0.35580674360E+02  0.00000000000E+00 0.  1.
<scales pt_clust_5="13000.00000" pt_clust_6="13000.00000" pt_clust_7="13000.00000" pt_clust_8="13000.00000" pt_clust_9="20.39672"></scales>
<clustering>
<clus scale="   20.397">  2  9  1 -1</clus>
<clus scale="   90.582">  7  8 -1 -1</clus>
<clus scale="   91.574">  5  6 -1 -1</clus>
<clus scale="  100.734">  1  7  2 -1</clus>
<clus scale="   20.397">  2  5  1 -1</clus>
</clustering>
</event>
<event>
 9    1  0.1434065E-005  0.1169513E+03  0.7546771E-02  0.1250016E+00
         -3   -1    0    0    0  501 -0.00000000000E+00  0.00000000000E+00  0.36807350812E+02  0.36807350812E+02  0.00000000000E+00 0.  1.
          3   -1    0    0  502    0  0.00000000000E+00 -0.00000000000E+00 -0.63877944228E+03  0.63877944228E+03  0.00000000000E+00 0. -1.
         23    2    1    2    0    0  0.88706053895E+01 -0.71787956144E+02 -0.18227867748E+03  0.21431453186E+03  0.86446538484E+02 0.  0.
         23    2    1    2    0    0  0.14509661745E+02  0.72356409612E+02 -0.42166309807E+03  0.43780228710E+03  0.91788310884E+02 0.  0.
        -11    1    3    3    0    0  0.37517884975E+02 -0.72166946068E+02 -0.11198215973E+03  0.13840398801E+03  0.00000000000E+00 0. -1.
         11    1    3    3    0    0 -0.28647279586E+02  0.37898992337E+00 -0.70296517742E+02  0.75910543850E+02  0.00000000000E+00 0.  1.
        -13    1    4    4    0    0  0.46216525753E+02  0.12035692079E+02 -0.21319346719E+03  0.21847718322E+03  0.00000000000E+00 0. -1.
         13    1    4    4    0    0 -0.31706864008E+02  0.60320717534E+02 -0.20846963088E+03  0.21932510388E+03  0.00000000000E+00 0.  1.
         21    1    1    2  502  501 -0.23380267134E+02 -0.56845346796E+00  0.19696840801E+01  0.23469974137E+02  0.00000000000E+00 0.  1.
<scales pt_clust_5="13000.00000" pt_clust_6="13000.00000" pt_clust_7="13000.00000" pt_clust_8="13000.00000" pt_clust_9="23.38718"></scales>
<clustering>
<clus scale="   23.387">  1  9  2 -1</clus>
<clus scale="   86.447">  5  6 -1 -1</clus>
<clus scale="   91.788">  7  8 -1 -1</clus>
<clus scale="  112.807">  1  5  2 -1</clus>
<clus scale="  116.951">  2  5  1 -1</clus>
</clustering>
</event>
<event>
 9    1  0.1434065E-005  0.1317170E+03  0.7546771E-02  0.1238013E+00
         -1   -1    0    0    0  501 -0.00000000000E+00  0.00000000000E+00  0.43277834176E+02  0.43277834176E+02  0.00000000000E+00 0.  1.
          1   -1    0    0  502    0  0.00000000000E+00 -0.00000000000E+00 -0.48753836640E+03  0.48753836640E+03  0.00000000000E+00 0. -1.
         23    2    1    2    0    0  0.47531376520E+02 -0.11317149035E+02 -0.18451074109E+03  0.22769672689E+03  0.12415424376E+03 0.  0.
         23    2    1    2    0    0 -0.33921820818E+02  0.26807044449E+02 -0.26370340037E+03  0.28212452448E+03  0.90473512075E+02 0.  0.
        -13    1    4    4    0    0  0.30179370725E+02  0.19039222002E+02 -0.96584886113E+02  0.10296565747E+03  0.00000000000E+00 0.  1.
         13    1    4    4    0    0 -0.64101191543E+02  0.77678224461E+01 -0.16711851425E+03  0.17915886701E+03  0.00000000000E+00 0. -1.
        -13    1    3    3    0    0 -0.10830535042E+02 -0.57527154670E+02 -0.72084802699E+02  0.92859532596E+02  0.00000000000E+00 0.  1.
         13    1    3    3    0    0  0.58361911562E+02  0.46210005635E+02 -0.11242593839E+03  0.13483719429E+03  0.00000000000E+00 0. -1.
         21    1    1    2  502  501 -0.13609555702E+02 -0.15489895413E+02  0.39536092316E+01  0.20994949209E+02  0.00000000000E+00 0.  1.
<scales pt_clust_5="13000.00000" pt_clust_6="13000.00000" pt_clust_7="13000.00000" pt_clust_8="13000.00000" pt_clust_9="20.61933"></scales>
<clustering>
<clus scale="   20.619">  1  9  2 -1</clus>
<clus scale="   90.474">  5  6 -1 -1</clus>
<clus scale="  100.601">  2  5  1 -1</clus>
<clus scale="  124.154">  7  8 -1 -1</clus>
<clus scale="  100.601">  2  5  1 -1</clus>
</clustering>
</event>
<event>
 9    1  0.1434065E-005  0.1845787E+03  0.7546771E-02  0.1164301E+00
          1   -1    0    0  502    0  0.00000000000E+00  0.00000000000E+00  0.91141105008E+03  0.91141105008E+03  0.00000000000E+00 0. -1.
         -1   -1    0    0    0  501 -0.00000000000E+00 -0.00000000000E+00 -0.52235764304E+02  0.52235764304E+02  0.00000000000E+00 0.  1.
         23    2    1    2    0    0  0.67104855068E+02 -0.14192902597E+03  0.28683748952E+03  0.33895858193E+03  0.89276339997E+02 0.  0.
         23    2    1    2    0    0 -0.97312555135E+02  0.13342845121E+03  0.56237434040E+03  0.59176354010E+03  0.81524865338E+02 0.  0.
        -13    1    3    3    0    0  0.81308999293E+02 -0.82641615918E+02  0.15365353323E+03  0.19248428071E+03  0.00000000000E+00 0.  1.
         13    1    3    3    0    0 -0.14204144224E+02 -0.59287410049E+02  0.13318395629E+03  0.14647430122E+03  0.00000000000E+00 0. -1.
        -13    1    4    4    0    0 -0.67693775872E+02  0.31601453931E+02  0.29013455145E+03  0.29959832631E+03  0.00000000000E+00 0.  1.
         13    1    4    4    0    0 -0.29618779264E+02  0.10182699728E+03  0.27223978895E+03  0.29216521379E+03  0.00000000000E+00 0. -1.
         21    1    1    2  502  501  0.30207700067E+02  0.85005747565E+01  0.99634558611E+01  0.32924692363E+02  0.00000000000E+00 0.  1.
<scales pt_clust_5="13000.00000" pt_clust_6="13000.00000" pt_clust_7="13000.00000" pt_clust_8="13000.00000" pt_clust_9="31.38096"></scales>
<clustering>
<clus scale="   31.381">  2  9  1 -1</clus>
<clus scale="   81.525">  7  8 -1 -1</clus>
<clus scale="   89.276">  5  6 -1 -1</clus>
<clus scale="  180.957">  1  7  2 -1</clus>
<clus scale="  180.957">  1  5  2 -1</clus>
</clustering>
</event>
<event>
 9    1  0.1434065E-005  0.1282690E+03  0.7546771E-02  0.1238517E+00
          2   -1    0    0  502    0  0.00000000000E+00  0.00000000000E+00  0.69293663537E+03  0.69293663537E+03  0.00000000000E+00 0. -1.
         -2   -1    0    0    0  501 -0.00000000000E+00 -0.00000000000E+00 -0.26531964950E+02  0.26531964950E+02  0.00000000000E+00 0.  1.
         23    2    1    2    0    0  0.34865596232E+02  0.64433366471E+02  0.29195503843E+03  0.32184126983E+03  0.11391571439E+03 0.  0.
         23    2    1    2    0    0 -0.32902492111E+02 -0.32319490038E+02  0.29378551411E+03  0.31078347780E+03  0.90273575029E+02 0.  0.
        -11    1    3    3    0    0  0.64335031648E+02  0.51852179034E+02  0.11270621475E+03  0.13975097714E+03  0.00000000000E+00 0.  1.
         11    1    3    3    0    0 -0.29469435416E+02  0.12581187436E+02  0.17924882368E+03  0.18209029269E+03  0.00000000000E+00 0. -1.
        -11    1    4    4    0    0 -0.52649934813E+02 -0.17605679589E+02  0.27291117268E+03  0.27850041968E+03  0.00000000000E+00 0. -1.
         11    1    4    4    0    0  0.19747442701E+02 -0.14713810449E+02  0.20874341427E+02  0.32283058114E+02  0.00000000000E+00 0.  1.
         21    1    1    2  502  501 -0.19631041209E+01 -0.32113876433E+02  0.80664117879E+02  0.86843852692E+02  0.00000000000E+00 0.  1.
<scales pt_clust_5="13000.00000" pt_clust_6="13000.00000" pt_clust_7="13000.00000" pt_clust_8="13000.00000" pt_clust_9="32.17382"></scales>
<clustering>
<clus scale="   32.174">  1  9  2 -1</clus>
<clus scale="   90.274">  7  8 -1 -1</clus>
<clus scale="  107.821">  1  7  2 -1</clus>
<clus scale="  113.916">  5  6 -1 -1</clus>
<clus scale="   32.174">  1  5  2 -1</clus>
</clustering>
</event>
<event>
 9    1  0.1434065E-005  0.1090817E+03  0.7546771E-02  0.1262941E+00
          2   -1    0    0  502    0  0.00000000000E+00  0.00000000000E+00  0.38795616426E+03  0.38795616426E+03  0.00000000000E+00 0. -1.
         -2   -1    0    0    0  501 -0.00000000000E+00 -0.00000000000E+00 -0.13717899680E+03  0.13717899680E+03  0.00000000000E+00 0.  1.
         23    2    1    2    0    0  0.79835579002E+02 -0.99788902017E+01  0.73079868573E+01  0.12274138849E+03  0.92405323723E+02 0.  0.
         23    2    1    2    0    0 -0.11498692805E+02  0.61471849653E+02  0.28624762126E+03  0.30673056191E+03  0.90746507908E+02 0.  0.
        -11    1    4    4    0    0 -0.48489886912E+02  0.50533064995E+02  0.15843804418E+03  0.17322665394E+03  0.00000000000E+00 0. -1.
         11    1    4    4    0    0  0.36991194107E+02  0.10938784659E+02  0.12780957708E+03  0.13350390797E+03  0.00000000000E+00 0.  1.
        -13    1    3    3    0    0  0.98153881616E+02  0.35138714352E+01  0.13556125911E+02  0.99147870973E+02  0.00000000000E+00 0.  1.
         13    1    3    3    0    0 -0.18318302614E+02 -0.13492761637E+02 -0.62481390536E+01  0.23593517518E+02  0.00000000000E+00 0. -1.
         21    1    1    2  502  501 -0.68336886197E+02 -0.51492959452E+02 -0.42778440652E+02  0.95663210655E+02  0.00000000000E+00 0.  1.
<scales pt_clust_5="13000.00000" pt_clust_6="13000.00000" pt_clust_7="13000.00000" pt_clust_8="13000.00000" pt_clust_9="85.56550"></scales>
<clustering>
<clus scale="   85.566">  2  9  1 -1</clus>
<clus scale="   90.747">  5  6 -1 -1</clus>
<clus scale="   92.405">  7  8 -1 -1</clus>
<clus scale="  107.680">  1  5  2 -1</clus>
<clus scale="  107.680">  1  5  2 -1</clus>
</clustering>
</event>
<event>
 9    1  0.1434065E-005  0.1643101E+03  0.7546771E-02  0.1184067E+00
         -1   -1    0    0    0  501 -0.00000000000E+00  0.00000000000E+00  0.17684457854E+03  0.17684457854E+03  0.00000000000E+00 0.  1.
          1   -1    0    0  502    0  0.00000000000E+00 -0.00000000000E+00 -0.26171057450E+03  0.26171057450E+03  0.00000000000E+00 0. -1.
         23    2    1    2    0    0  0.11434965568E+03 -0.73059897705E+02  0.13757578902E+00  0.16401539714E+03  0.92127298701E+02 0.  0.
         23    2    1    2    0    0 -0.61507512191E+02  0.13838141413E+03 -0.63603302709E+02  0.18783817486E+03  0.91132924823E+02 0.  0.
        -11    1    4    4    0    0 -0.84724639636E+02  0.93695437947E+02 -0.43195129293E+02  0.13350250503E+03  0.00000000000E+00 0. -1.
         11    1    4    4    0    0  0.23217127444E+02  0.44685976187E+02 -0.20408173416E+02  0.54335669838E+02  0.00000000000E+00 0.  1.
        -11    1    3    3    0    0  0.37866114679E+02  0.13055898166E+02 -0.23499349546E+02  0.46438330578E+02  0.00000000000E+00 0.  1.
         11    1    3    3    0    0  0.76483541003E+02 -0.86115795871E+02  0.23636925335E+02  0.11757706657E+03  0.00000000000E+00 0. -1.
         21    1    1    2  502  501 -0.52842143491E+02 -0.65321516430E+02 -0.21400269043E+02  0.86701581027E+02  0.00000000000E+00 0. -1.
<scales pt_clust_5="13000.00000" pt_clust_6="13000.00000" pt_clust_7="13000.00000" pt_clust_8="13000.00000" pt_clust_9="84.01900"></scales>
<clustering>
<clus scale="   84.019">  2  9  1 -1</clus>
<clus scale="   91.133">  5  6 -1 -1</clus>
<clus scale="   92.127">  7  8 -1 -1</clus>
<clus scale="  163.755">  2  5  1 -1</clus>
<clus scale="   84.019">  2  5  1 -1</clus>
</clustering>
</event>
<event>
 9    1  0.1434065E-005  0.1007024E+03  0.7546771E-02  0.1279467E+00
         -2   -1    0    0    0  501 -0.00000000000E+00  0.00000000000E+00  0.35246613822E+02  0.35246613822E+02  0.00000000000E+00 0.  1.
          2   -1    0    0  502    0  0.00000000000E+00 -0.00000000000E+00 -0.61683590200E+03  0.61683590200E+03  0.00000000000E+00 0. -1.
         23    2    1    2    0    0  0.50749166408E+02 -0.92961004377E+01 -0.14827639886E+03  0.18130136815E+03  0.90677451768E+02 0.  0.
         23    2    1    2    0    0 -0.37463078203E+02 -0.68057670701E+01 -0.43817349286E+03  0.44934716196E+03  0.92016636694E+02 0.  0.
        -13    1    4    4    0    0  0.24864294113E+02 -0.23956045355E+02 -0.13363436273E+03  0.13802270876E+03  0.00000000000E+00 0. -1.
         13    1    4    4    0    0 -0.62327372315E+02  0.17150278285E+02 -0.30453913013E+03  0.31132445321E+03  0.00000000000E+00 0.  1.
        -13    1    3    3    0    0 -0.22092069333E+02  0.13835465941E+02 -0.24156067405E+02  0.35538644286E+02  0.00000000000E+00 0.  1.
         13    1    3    3    0    0  0.72841235740E+02 -0.23131566378E+02 -0.12412033145E+03  0.14576272386E+03  0.00000000000E+00 0. -1.
         21    1    1    2  502  501 -0.13286088205E+02  0.16101867508E+02  0.48606035322E+01  0.21433985717E+02  0.00000000000E+00 0.  1.
<scales pt_clust_5="13000.00000" pt_clust_6="13000.00000" pt_clust_7="13000.00000" pt_clust_8="13000.00000" pt_clust_9="20.87559"></scales>
<clustering>
<clus scale="   20.876">  1  9  2 -1</clus>
<clus scale="   90.677">  7  8 -1 -1</clus>
<clus scale="   92.017">  5  6 -1 -1</clus>
<clus scale="   99.480">  1  7  2 -1</clus>
<clus scale="  100.702">  2  5  1 -1</clus>
</clustering>
</event>
<event>
 9    1  0.1434065E-005  0.1078300E+03  0.7546771E-02  0.1265167E+00
         -2   -1    0    0    0  501 -0.00000000000E+00  0.00000000000E+00  0.38359295659E+02  0.38359295659E+02  0.00000000000E+00 0.  1.
          2   -1    0    0  502    0  0.00000000000E+00 -0.00000000000E+00 -0.41178096514E+03  0.41178096514E+03  0.00000000000E+00 0. -1.
         23    2    1    2    0    0  0.37140649593E+02  0.15426604442E+02 -0.10443052534E+03  0.14453256235E+03  0.91468677585E+02 0.  0.
         23    2    1    2    0    0 -0.56834842166E+02 -0.38989670560E+02 -0.22434425521E+03  0.25141891735E+03  0.90170579802E+02 0.  0.
        -13    1    3    3    0    0  0.53935941260E+02  0.33101940192E+02 -0.38111922838E+02  0.73873830728E+02  0.00000000000E+00 0.  1.
         13    1    3    3    0    0 -0.16795291667E+02 -0.17675335750E+02 -0.66318602506E+02  0.70658731622E+02  0.00000000000E+00 0. -1.
        -13    1    4    4    0    0  0.20647525641E+02 -0.84371967319E+01 -0.94962777654E+02  0.97547095003E+02  0.00000000000E+00 0.  1.
         13    1    4    4    0    0 -0.77482367807E+02 -0.30552473829E+02 -0.12938147755E+03  0.15387182235E+03  0.00000000000E+00 0. -1.
         21    1    1    2  502  501  0.19694192573E+02  0.23563066118E+02 -0.44646888930E+02  0.54188781100E+02  0.00000000000E+00 0.  1.
<scales pt_clust_5="13000.00000" pt_clust_6="13000.00000" pt_clust_7="13000.00000" pt_clust_8="13000.00000" pt_clust_9="30.70960"></scales>
<clustering>
<clus scale="   30.710">  1  9  2 -1</clus>
<clus scale="   90.171">  7  8 -1 -1</clus>
<clus scale="   91.469">  5  6 -1 -1</clus>
<clus scale="  106.731">  2  7  1 -1</clus>
<clus scale="  106.731">  2  5  1 -1</clus>
</clustering>
</event>
<event>
 9    1  0.1434065E-005  0.9295767E+02  0.7546771E-02  0.1298589E+00
         -1   -1    0    0    0  501 -0.00000000000E+00  0.00000000000E+00  0.13778806285E+03  0.13778806285E+03  0.00000000000E+00 0.  1.
          1   -1    0    0  502    0  0.00000000000E+00 -0.00000000000E+00 -0.16850795631E+03  0.16850795631E+03  0.00000000000E+00 0. -1.
         23    2    1    2    0    0  0.40274663911E+02  0.11973716523E+02  0.38484988505E+02  0.10817585556E+03  0.91953808758E+02 0.  0.
         23    2    1    2    0    0  0.23247865439E+02 -0.78536406398E+01 -0.93255191727E+02  0.13007235571E+03  0.87293436275E+02 0.  0.
        -11    1    4    4    0    0  0.31245424160E+02 -0.39752367924E+02 -0.79950194043E+02  0.94596833002E+02  0.00000000000E+00 0.  1.
         11    1    4    4    0    0 -0.79975587211E+01  0.31898727284E+02 -0.13304997683E+02  0.35475522705E+02  0.00000000000E+00 0. -1.
        -13    1    3    3    0    0 -0.19130984114E+02  0.13480798594E+02 -0.15352679349E+02  0.27989841856E+02  0.00000000000E+00 0. -1.
         13    1    3    3    0    0  0.59405648025E+02 -0.15070820707E+01  0.53837667855E+02  0.80186013703E+02  0.00000000000E+00 0.  1.
         21    1    1    2  502  501 -0.63522529350E+02 -0.41200758833E+01  0.24050309762E+02  0.68047807900E+02  0.00000000000E+00 0.  1.
<scales pt_clust_5="13000.00000" pt_clust_6="13000.00000" pt_clust_7="13000.00000" pt_clust_8="13000.00000" pt_clust_9="63.65600"></scales>
<clustering>
<clus scale="   63.656">  1  9  2 -1</clus>
<clus scale="   87.293">  5  6 -1 -1</clus>
<clus scale="   88.350">  2  5  1 -1</clus>
<clus scale="   91.954">  7  8 -1 -1</clus>
<clus scale="   88.350">  2  5  1 -1</clus>
</clustering>
</event>
<event>
 9    1  0.1434065E-005  0.1165338E+03  0.7546771E-02  0.1249111E+00
         -2   -1    0    0    0  501 -0.00000000000E+00  0.00000000000E+00  0.31618539910E+02  0.31618539910E+02  0.00000000000E+00 0.  1.
          2   -1    0    0  502    0  0.00000000000E+00 -0.00000000000E+00 -0.54077093478E+03  0.54077093478E+03  0.00000000000E+00 0. -1.
         23    2    1    2    0    0 -0.27404955122E+02 -0.72385752720E+02 -0.16612889019E+03  0.20507736078E+03  0.92017318944E+02 0.  0.
         23    2    1    2    0    0  0.33745387373E+02  0.53123362274E+02 -0.28675844706E+03  0.30750410879E+03  0.91474188592E+02 0.  0.
        -11    1    3    3    0    0 -0.17439896915E+00  0.20276326408E+02 -0.50503854702E+02  0.54422414200E+02  0.00000000000E+00 0.  1.
         11    1    3    3    0    0 -0.27230556152E+02 -0.92662079128E+02 -0.11562503549E+03  0.15065494658E+03  0.00000000000E+00 0. -1.
        -13    1    4    4    0    0  0.48053528900E+02  0.14555407354E+00 -0.77661659293E+02  0.91326316853E+02  0.00000000000E+00 0. -1.
         13    1    4    4    0    0 -0.14308141526E+02  0.52977808201E+02 -0.20909678776E+03  0.21617779194E+03  0.00000000000E+00 0.  1.
         21    1    1    2  502  501 -0.63404322518E+01  0.19262390446E+02 -0.56265057618E+02  0.59808005113E+02  0.00000000000E+00 0.  1.
<scales pt_clust_5="13000.00000" pt_clust_6="13000.00000" pt_clust_7="13000.00000" pt_clust_8="13000.00000" pt_clust_9="20.27907"></scales>
<clustering>
<clus scale="   20.279">  2  9  1 -1</clus>
<clus scale="   91.474">  7  8 -1 -1</clus>
<clus scale="   92.017">  5  6 -1 -1</clus>
<clus scale="  116.105">  2  7  1 -1</clus>
<clus scale="   20.279">  2  5  1 -1</clus>
</clustering>
</event>
<event>
 9    1  0.1434065E-005  0.1470206E+03  0.7546771E-02  0.1209829E+00
         -1   -1    0    0    0  501 -0.00000000000E+00  0.00000000000E+00  0.81769073073E+03  0.81769073073E+03  0.00000000000E+00 0.  1.
          1   -1    0    0  502    0  0.00000000000E+00 -0.00000000000E+00 -0.30618643147E+02  0.30618643147E+02  0.00000000000E+00 0. -1.
         23    2    1    2    0    0  0.59011804605E+02 -0.49100715225E+02  0.33018865177E+03  0.35127491313E+03  0.92066527685E+02 0.  0.
         23    2    1    2    0    0 -0.93540638882E+02  0.55448882623E+02  0.33829122020E+03  0.37335482124E+03  0.11457941860E+03 0.  0.
        -13    1    4    4    0    0 -0.76413630252E+02 -0.19727859450E+02  0.20025080743E+03  0.21524083535E+03  0.00000000000E+00 0.  1.
         13    1    4    4    0    0 -0.17127008630E+02  0.75176742073E+02  0.13804041277E+03  0.15811398588E+03  0.00000000000E+00 0. -1.
        -13    1    3    3    0    0 -0.13750241480E+02 -0.44743227886E+02  0.12003833246E+03  0.12884186758E+03  0.00000000000E+00 0.  1.
         13    1    3    3    0    0  0.72762046085E+02 -0.43574873391E+01  0.21015031931E+03  0.22243304555E+03  0.00000000000E+00 0. -1.
         21    1    1    2  502  501  0.34528834276E+02 -0.63481673982E+01  0.11859221561E+03  0.12367963951E+03  0.00000000000E+00 0. -1.
<scales pt_clust_5="13000.00000" pt_clust_6="13000.00000" pt_clust_7="13000.00000" pt_clust_8="13000.00000" pt_clust_9="35.10754"></scales>
<clustering>
<clus scale="   35.108">  1  9  2 -1</clus>
<clus scale="   92.067">  7  8 -1 -1</clus>
<clus scale="  114.579">  5  6 -1 -1</clus>
<clus scale="  130.242">  1  7  2 -1</clus>
<clus scale="  147.021">  2  5  1 -1</clus>
</clustering>
</event>
<event>
 9    1  0.1434065E-005  0.2464879E+03  0.7546771E-02  0.1116747E+00
         -2   -1    0    0    0  501 -0.00000000000E+00  0.00000000000E+00  0.19150186846E+03  0.19150186846E+03  0.00000000000E+00 0.  1.
          2   -1    0    0  502    0  0.00000000000E+00 -0.00000000000E+00 -0.46070812104E+03  0.46070812104E+03  0.00000000000E+00 0. -1.
         23    2    1    2    0    0 -0.13113047044E+03  0.16628896917E+03 -0.30041539835E+02  0.23294054095E+03  0.92258224347E+02 0.  0.
         23    2    1    2    0    0  0.15898340527E+03 -0.17510356695E+03 -0.27733456051E+03  0.37120261601E+03  0.70284716472E+02 0.  0.
        -11    1    4    4    0    0  0.72172035724E+02 -0.11238963401E+03 -0.11249793425E+03  0.17463109055E+03  0.00000000000E+00 0.  1.
         11    1    4    4    0    0  0.86811369543E+02 -0.62713932933E+02 -0.16483662626E+03  0.19657152546E+03  0.00000000000E+00 0. -1.
        -11    1    3    3    0    0 -0.10662571634E+03  0.14725433672E+03 -0.58349774824E+02  0.19093867940E+03  0.00000000000E+00 0. -1.
         11    1    3    3    0    0 -0.24504754100E+02  0.19034632443E+02  0.28308234989E+02  0.42001861554E+02  0.00000000000E+00 0.  1.
         21    1    1    2  502  501 -0.27852934830E+02  0.88145977822E+01  0.38169847763E+02  0.48066832546E+02  0.00000000000E+00 0. -1.
<scales pt_clust_5="13000.00000" pt_clust_6="13000.00000" pt_clust_7="13000.00000" pt_clust_8="13000.00000" pt_clust_9="29.21443"></scales>
<clustering>
<clus scale="   29.214">  1  9  2 -1</clus>
<clus scale="   70.285">  5  6 -1 -1</clus>
<clus scale="   92.258">  7  8 -1 -1</clus>
<clus scale="  239.133">  2  5  1 -1</clus>
<clus scale="  239.133">  2  5  1 -1</clus>
</clustering>
</event>
<event>
 9    1  0.1434065E-005  0.9279879E+02  0.7546771E-02  0.1296449E+00
         -1   -1    0    0    0  501 -0.00000000000E+00  0.00000000000E+00  0.42357117704E+02  0.42357117704E+02  0.00000000000E+00 0.  1.
          1   -1    0    0  502    0  0.00000000000E+00 -0.00000000000E+00 -0.39472237668E+03  0.39472237668E+03  0.00000000000E+00 0. -1.
         23    2    1    2    0    0  0.10786507465E+02  0.32652149457E+01 -0.36996137193E+02  0.10020114380E+03  0.92436706344E+02 0.  0.
         23    2    1    2    0    0  0.29660767817E+01  0.12516903249E+02 -0.28667962270E+03  0.30136361863E+03  0.92029093680E+02 0.  0.
        -11    1    3    3    0    0 -0.48709785956E+01 -0.41025577236E+02 -0.33328631351E+02  0.53081278128E+02  0.00000000000E+00 0.  1.
         11    1    3    3    0    0  0.15657486060E+02  0.44290792182E+02 -0.36675058427E+01  0.47119865672E+02  0.00000000000E+00 0. -1.
        -13    1    4    4    0    0  0.20962334506E+02 -0.26960748370E+02 -0.48818704348E+02  0.59578245315E+02  0.00000000000E+00 0.  1.
         13    1    4    4    0    0 -0.17996257724E+02  0.39477651619E+02 -0.23786091835E+03  0.24178537331E+03  0.00000000000E+00 0. -1.
         21    1    1    2  502  501 -0.13752584247E+02 -0.15782118195E+02 -0.28689499089E+02  0.35514731959E+02  0.00000000000E+00 0. -1.
<scales pt_clust_5="13000.00000" pt_clust_6="13000.00000" pt_clust_7="13000.00000" pt_clust_8="13000.00000" pt_clust_9="20.93344"></scales>
<clustering>
<clus scale="   20.933">  2  9  1 -1</clus>
<clus scale="   92.029">  7  8 -1 -1</clus>
<clus scale="   92.393">  2  7  1 -1</clus>
<clus scale="   92.437">  5  6 -1 -1</clus>
<clus scale="   20.933">  2  5  1 -1</clus>
</clustering>
</event>
<event>
 9    1  0.1434065E-005  0.4111955E+03  0.7546771E-02  0.1039980E+00
          1   -1    0    0  502    0  0.00000000000E+00  0.00000000000E+00  0.12626171755E+04  0.12626171755E+04  0.00000000000E+00 0. -1.
         -1   -1    0    0    0  501 -0.00000000000E+00 -0.00000000000E+00 -0.18292561405E+03  0.18292561405E+03  0.00000000000E+00 0.  1.
         23    2    1    2    0    0 -0.32681072826E+03 -0.15191595048E+03  0.19202553914E+03  0.41847594826E+03  0.91458206155E+02 0.  0.
         23    2    1    2    0    0  0.39204653479E+03  0.14884737926E+03  0.84846127865E+03  0.95089507155E+03  0.91972104249E+02 0.  0.
        -13    1    3    3    0    0 -0.24969618415E+03 -0.70069643626E+02  0.13175059197E+03  0.29088856599E+03  0.00000000000E+00 0.  1.
         13    1    3    3    0    0 -0.77114544109E+02 -0.81846306852E+02  0.60274947169E+02  0.12758738227E+03  0.00000000000E+00 0. -1.
        -13    1    4    4    0    0  0.10511243599E+03  0.71195490911E+02  0.32508073856E+03  0.34899127312E+03  0.00000000000E+00 0.  1.
         13    1    4    4    0    0  0.28693409880E+03  0.77651888347E+02  0.52338054009E+03  0.60190379843E+03  0.00000000000E+00 0. -1.
         21    1    1    2  502  501 -0.65235806532E+02  0.30685712201E+01  0.39204743702E+02  0.76171769784E+02  0.00000000000E+00 0.  1.
<scales pt_clust_5="13000.00000" pt_clust_6="13000.00000" pt_clust_7="13000.00000" pt_clust_8="13000.00000" pt_clust_9="65.30794"></scales>
<clustering>
<clus scale="   65.308">  2  9  1 -1</clus>
<clus scale="   91.458">  5  6 -1 -1</clus>
<clus scale="   91.972">  7  8 -1 -1</clus>
<clus scale="  411.081">  2  5  1 -1</clus>
<clus scale="  411.196">  1  5  2 -1</clus>
</clustering>
</event>
<event>
 9    1  0.1434065E-005  0.1901895E+03  0.7546771E-02  0.1158650E+00
          1   -1    0    0  502    0  0.00000000000E+00  0.00000000000E+00  0.40134647081E+03  0.40134647081E+03  0.00000000000E+00 0. -1.
         -1   -1    0    0    0  501 -0.00000000000E+00 -0.00000000000E+00 -0.75198943885E+03  0.75198943885E+03  0.00000000000E+00 0.  1.
         23    2    1    2    0    0 -0.12401090724E+03  0.39261934627E+02 -0.38920284240E+03  0.41952033625E+03  0.87167972177E+02 0.  0.
         23    2    1    2    0    0  0.16378220102E+03 -0.43499457034E+02  0.36097707323E+03  0.40892703478E+03  0.90554184022E+02 0.  0.
        -13    1    3    3    0    0 -0.55454303063E+02  0.59298890540E+02 -0.25327499213E+03  0.26596947153E+03  0.00000000000E+00 0.  1.
         13    1    3    3    0    0 -0.68556604174E+02 -0.20036955914E+02 -0.13592785027E+03  0.15355086472E+03  0.00000000000E+00 0. -1.
        -13    1    4    4    0    0  0.36346542076E+02 -0.10848090600E+01  0.17967027873E+02  0.40559364173E+02  0.00000000000E+00 0.  1.
         13    1    4    4    0    0  0.12743565895E+03 -0.42414647974E+02  0.34301004536E+03  0.36836767061E+03  0.00000000000E+00 0. -1.
         21    1    1    2  502  501 -0.39771293788E+02  0.42375224071E+01 -0.32241719887E+03  0.32488853863E+03  0.00000000000E+00 0.  1.
<scales pt_clust_5="13000.00000" pt_clust_6="13000.00000" pt_clust_7="13000.00000" pt_clust_8="13000.00000" pt_clust_9="39.99640"></scales>
<clustering>
<clus scale="   39.996">  2  9  1 -1</clus>
<clus scale="   87.168">  5  6 -1 -1</clus>
<clus scale="   90.554">  7  8 -1 -1</clus>
<clus scale="  188.601">  2  5  1 -1</clus>
<clus scale="  190.190">  1  5  2 -1</clus>
</clustering>
</event>
<event>
 9    1  0.1434065E-005  0.1069740E+03  0.7546771E-02  0.1266485E+00
         -1   -1    0    0    0  501 -0.00000000000E+00  0.00000000000E+00  0.15904660399E+03  0.15904660399E+03  0.00000000000E+00 0.  1.
          1   -1    0    0  502    0  0.00000000000E+00 -0.00000000000E+00 -0.93910097683E+02  0.93910097683E+02  0.00000000000E+00 0. -1.
         23    2    1    2    0    0  0.35728350892E+02 -0.48144556940E+02  0.33815280122E+02  0.11305152526E+03  0.89681440520E+02 0.  0.
         23    2    1    2    0    0 -0.49333325329E+02  0.31841494804E+02  0.61055689574E+01  0.10693982287E+03  0.89169445242E+02 0.  0.
        -11    1    4    4    0    0 -0.68789836276E+02  0.45322602035E+02  0.98856912648E+01  0.82969311928E+02  0.00000000000E+00 0.  1.
         11    1    4    4    0    0  0.19456510947E+02 -0.13481107231E+02 -0.37801223074E+01  0.23970510946E+02  0.00000000000E+00 0. -1.
        -13    1    3    3    0    0  0.19963002536E+02  0.17043045010E+02  0.37625323720E+02  0.45876484592E+02  0.00000000000E+00 0.  1.
         13    1    3    3    0    0  0.15765348356E+02 -0.65187601950E+02 -0.38100435975E+01  0.67175040669E+02  0.00000000000E+00 0. -1.
         21    1    1    2  502  501  0.13604974437E+02  0.16303062136E+02  0.25215657225E+02  0.32965353536E+02  0.00000000000E+00 0.  1.
<scales pt_clust_5="13000.00000" pt_clust_6="13000.00000" pt_clust_7="13000.00000" pt_clust_8="13000.00000" pt_clust_9="21.23406"></scales>
<clustering>
<clus scale="   21.234">  1  9  2 -1</clus>
<clus scale="   89.169">  5  6 -1 -1</clus>
<clus scale="   89.681">  7  8 -1 -1</clus>
<clus scale="  106.545">  2  5  1 -1</clus>
<clus scale="  106.545">  2  5  1 -1</clus>
</clustering>
</event>
<event>
 9    1  0.1434065E-005  0.1148188E+03  0.7546771E-02  0.1251918E+00
         -1   -1    0    0    0  501 -0.00000000000E+00  0.00000000000E+00  0.57609809229E+02  0.57609809229E+02  0.00000000000E+00 0.  1.
          1   -1    0    0  502    0  0.00000000000E+00 -0.00000000000E+00 -0.70296120446E+03  0.70296120446E+03  0.00000000000E+00 0. -1.
         23    2    1    2    0    0  0.90476176085E+02  0.55423251646E+02 -0.95241371668E+02  0.16954001962E+03  0.91734530657E+02 0.  0.
         23    2    1    2    0    0 -0.40370275957E+02 -0.49530863000E+02 -0.52086291752E+03  0.53271534708E+03  0.91675496162E+02 0.  0.
        -13    1    3    3    0    0  0.21413311638E+02  0.30035066398E+02 -0.88223768170E+02  0.95624622347E+02  0.00000000000E+00 0. -1.
         13    1    3    3    0    0  0.69062864447E+02  0.25388185248E+02 -0.70176034980E+01  0.73915397277E+02  0.00000000000E+00 0.  1.
        -13    1    4    4    0    0 -0.69456085165E+02 -0.40356919919E+02 -0.34508799514E+03  0.35431420116E+03  0.00000000000E+00 0. -1.
         13    1    4    4    0    0  0.29085809207E+02 -0.91739430814E+01 -0.17577492237E+03  0.17840114592E+03  0.00000000000E+00 0.  1.
         21    1    1    2  502  501 -0.50105900128E+02 -0.58923886462E+01 -0.29247106047E+02  0.58315646989E+02  0.00000000000E+00 0. -1.
<scales pt_clust_5="13000.00000" pt_clust_6="13000.00000" pt_clust_7="13000.00000" pt_clust_8="13000.00000" pt_clust_9="50.45118"></scales>
<clustering>
<clus scale="   50.451">  1  9  2 -1</clus>
<clus scale="   91.675">  7  8 -1 -1</clus>
<clus scale="   91.735">  5  6 -1 -1</clus>
<clus scale="  114.772">  2  7  1 -1</clus>
<clus scale="  114.772">  2  5  1 -1</clus>
</clustering>
</event>
<event>
 9    1  0.1434065E-005  0.1074196E+03  0.7546771E-02  0.1266186E+00
          1   -1    0    0  502    0  0.00000000000E+00  0.00000000000E+00  0.69789789499E+03  0.69789789499E+03  0.00000000000E+00 0. -1.
         -1   -1    0    0    0  501 -0.00000000000E+00 -0.00000000000E+00 -0.27158109232E+02  0.27158109232E+02  0.00000000000E+00 0.  1.
         23    2    1    2    0    0  0.23595327739E+02 -0.46716561399E+02  0.13814995349E+03  0.17293124864E+03  0.89892327295E+02 0.  0.
         23    2    1    2    0    0 -0.44182344340E+02  0.37702522465E+02  0.50498564870E+03  0.51652884148E+03  0.91749544601E+02 0.  0.
        -11    1    3    3    0    0  0.39483166996E+02 -0.13248509611E+02  0.14897126540E+02  0.44230847404E+02  0.00000000000E+00 0.  1.
         11    1    3    3    0    0 -0.15887839257E+02 -0.33468051789E+02  0.12325282695E+03  0.12870040124E+03  0.00000000000E+00 0. -1.
        -13    1    4    4    0    0  0.22595768665E+02  0.34487605466E+02  0.16906240060E+03  0.17401741001E+03  0.00000000000E+00 0.  1.
         13    1    4    4    0    0 -0.66778113005E+02  0.32149169990E+01  0.33592324810E+03  0.34251143147E+03  0.00000000000E+00 0. -1.
         21    1    1    2  502  501  0.20587016601E+02  0.90140389341E+01  0.27604183563E+02  0.35595914100E+02  0.00000000000E+00 0. -1.
<scales pt_clust_5="13000.00000" pt_clust_6="13000.00000" pt_clust_7="13000.00000" pt_clust_8="13000.00000" pt_clust_9="22.47394"></scales>
<clustering>
<clus scale="   22.474">  2  9  1 -1</clus>
<clus scale="   89.892">  5  6 -1 -1</clus>
<clus scale="   91.750">  7  8 -1 -1</clus>
<clus scale="  105.838">  2  5  1 -1</clus>
<clus scale="  107.420">  1  5  2 -1</clus>
</clustering>
</event>
<event>
 9    1  0.1434065E-005  0.1301699E+03  0.7546771E-02  0.1236648E+00
          1   -1    0    0  502    0  0.00000000000E+00  0.00000000000E+00  0.35842971501E+02  0.35842971501E+02  0.00000000000E+00 0. -1.
         -1   -1    0    0    0  501 -0.00000000000E+00 -0.00000000000E+00 -0.70687180240E+03  0.70687180240E+03  0.00000000000E+00 0.  1.
         23    2    1    2    0    0  0.52140076518E+02 -0.95526323392E+01 -0.40734030647E+03  0.42544807936E+03  0.11077049514E+03 0.  0.
         23    2    1    2    0    0 -0.49187444289E+02  0.59240841797E+02 -0.11792928635E+03  0.16324269744E+03  0.82534718009E+02 0.  0.
        -11    1    3    3    0    0  0.59861108905E+02 -0.48714500909E+02 -0.20152771968E+03  0.21580054855E+03  0.00000000000E+00 0. -1.
         11    1    3    3    0    0 -0.77210323865E+01  0.39161868570E+02 -0.20581258680E+03  0.20964753081E+03  0.00000000000E+00 0.  1.
        -13    1    4    4    0    0 -0.22327176107E+02  0.74606212894E+02 -0.62880967595E+02  0.10009298617E+03  0.00000000000E+00 0.  1.
         13    1    4    4    0    0 -0.26860268182E+02 -0.15365371097E+02 -0.55048318751E+02  0.63149711266E+02  0.00000000000E+00 0. -1.
         21    1    1    2  502  501 -0.29526322291E+01 -0.49688209458E+02 -0.14575923808E+03  0.15402399710E+03  0.00000000000E+00 0.  1.
<scales pt_clust_5="13000.00000" pt_clust_6="13000.00000" pt_clust_7="13000.00000" pt_clust_8="13000.00000" pt_clust_9="49.77586"></scales>
<clustering>
<clus scale="   49.776">  2  9  1 -1</clus>
<clus scale="   82.535">  7  8 -1 -1</clus>
<clus scale="  107.173">  1  7  2 -1</clus>
<clus scale="  110.770">  5  6 -1 -1</clus>
<clus scale="  107.173">  1  5  2 -1</clus>
</clustering>
</event>
<event>
 9    1  0.1434065E-005  0.1309252E+03  0.7546771E-02  0.1240375E+00
         -3   -1    0    0    0  501 -0.00000000000E+00  0.00000000000E+00  0.23919286740E+03  0.23919286740E+03  0.00000000000E+00 0.  1.
          3   -1    0    0  502    0  0.00000000000E+00 -0.00000000000E+00 -0.13962650254E+03  0.13962650254E+03  0.00000000000E+00 0. -1.
         23    2    1    2    0    0  0.22615619158E+02 -0.32430161409E+02  0.87225988090E+02  0.13092166241E+03  0.89268847257E+02 0.  0.
         23    2    1    2    0    0 -0.64654367649E+02 -0.57610730130E+02  0.58851277864E+02  0.13818042337E+03  0.90173017113E+02 0.  0.
        -11    1    3    3    0    0 -0.97679386662E+01 -0.52752188183E+02  0.71952683494E+02  0.89751850376E+02  0.00000000000E+00 0.  1.
         11    1    3    3    0    0  0.32383557824E+02  0.20322026773E+02  0.15273304595E+02  0.41169812033E+02  0.00000000000E+00 0. -1.
        -11    1    4    4    0    0 -0.42594063507E+01  0.23504168162E+02  0.10764268706E+02  0.26200342445E+02  0.00000000000E+00 0. -1.
         11    1    4    4    0    0 -0.60394961298E+02 -0.81114898292E+02  0.48087009158E+02  0.11198008093E+03  0.00000000000E+00 0.  1.
         21    1    1    2  502  501  0.42038748490E+02  0.90040891540E+02 -0.46510901093E+02  0.10971728416E+03  0.00000000000E+00 0. -1.
<scales pt_clust_5="13000.00000" pt_clust_6="13000.00000" pt_clust_7="13000.00000" pt_clust_8="13000.00000" pt_clust_9="94.92220"></scales>
<clustering>
<clus scale="   89.269">  5  6 -1 -1</clus>
<clus scale="   90.173">  7  8 -1 -1</clus>
<clus scale="   97.633">  1  5  2 -1</clus>
<clus scale="   94.922">  2  9  1 -1</clus>
<clus scale="   94.922">  2  5  1 -1</clus>
</clustering>
</event>
<event>
 9    1  0.1434065E-005  0.9736037E+02  0.7546771E-02  0.1286032E+00
         -1   -1    0    0    0  501 -0.00000000000E+00  0.00000000000E+00  0.13328254988E+02  0.13328254988E+02  0.00000000000E+00 0.  1.
          1   -1    0    0  502    0  0.00000000000E+00 -0.00000000000E+00 -0.87852717390E+03  0.87852717390E+03  0.00000000000E+00 0. -1.
         23    2    1    2    0    0 -0.32170723811E+02  0.22397166978E+02 -0.37151926426E+03  0.38430839258E+03  0.90165338869E+02 0.  0.
         23    2    1    2    0    0  0.15471095531E+02 -0.33712030646E+02 -0.42217104592E+03  0.43324774393E+03  0.89996443273E+02 0.  0.
        -11    1    4    4    0    0 -0.14037123243E+02  0.22685360260E+02 -0.62000174614E+02  0.67495837289E+02  0.00000000000E+00 0. -1.
         11    1    4    4    0    0  0.29508218774E+02 -0.56397390906E+02 -0.36017087130E+03  0.36575190664E+03  0.00000000000E+00 0.  1.
        -11    1    3    3    0    0 -0.12986330293E+02  0.49808490209E+02 -0.31032381248E+03  0.31456382351E+03  0.00000000000E+00 0. -1.
         11    1    3    3    0    0 -0.19184393518E+02 -0.27411323232E+02 -0.61195451781E+02  0.69744569069E+02  0.00000000000E+00 0.  1.
         21    1    1    2  502  501  0.16699628280E+02  0.11314863668E+02 -0.71508608735E+02  0.74299292377E+02  0.00000000000E+00 0.  1.
<scales pt_clust_5="13000.00000" pt_clust_6="13000.00000" pt_clust_7="13000.00000" pt_clust_8="13000.00000" pt_clust_9="20.17185"></scales>
<clustering>
<clus scale="   20.172">  1  9  2 -1</clus>
<clus scale="   89.996">  5  6 -1 -1</clus>
<clus scale="   90.165">  7  8 -1 -1</clus>
<clus scale="   97.204">  2  5  1 -1</clus>
<clus scale="   97.204">  2  5  1 -1</clus>
</clustering>
</event>
<event>
 9    1  0.1434065E-005  0.1331798E+03  0.7546771E-02  0.1240642E+00
          1   -1    0    0  502    0  0.00000000000E+00  0.00000000000E+00  0.60825932432E+02  0.60825932432E+02  0.00000000000E+00 0. -1.
         -1   -1    0    0    0  501 -0.00000000000E+00 -0.00000000000E+00 -0.50187321578E+03  0.50187321578E+03  0.00000000000E+00 0.  1.
         23    2    1    2    0    0 -0.97790122216E+02 -0.18588253057E+02 -0.11648839090E+03  0.17854078582E+03  0.91645162614E+02 0.  0.
         23    2    1    2    0    0  0.75878806620E+01 -0.14483423832E+02 -0.82626631516E+02  0.12384816461E+03  0.90795716543E+02 0.  0.
        -11    1    4    4    0    0  0.34859507158E+02 -0.21439151685E+02 -0.49414667492E+01  0.41221845639E+02  0.00000000000E+00 0. -1.
         11    1    4    4    0    0 -0.27271626496E+02  0.69557278525E+01 -0.77685164767E+02  0.82626318970E+02  0.00000000000E+00 0.  1.
        -13    1    3    3    0    0 -0.58786267946E+02  0.12911232053E+02 -0.10232452477E+02  0.61051030260E+02  0.00000000000E+00 0. -1.
         13    1    3    3    0    0 -0.39003854270E+02 -0.31499485110E+02 -0.10625593843E+03  0.11748975556E+03  0.00000000000E+00 0.  1.
         21    1    1    2  502  501  0.90202241554E+02  0.33071676889E+02 -0.24193226093E+03  0.26031019778E+03  0.00000000000E+00 0.  1.
<scales pt_clust_5="13000.00000" pt_clust_6="13000.00000" pt_clust_7="13000.00000" pt_clust_8="13000.00000" pt_clust_9="96.63347"></scales>
<clustering>
<clus scale="   90.796">  5  6 -1 -1</clus>
<clus scale="   91.645">  7  8 -1 -1</clus>
<clus scale="   92.256">  1  5  2 -1</clus>
<clus scale="   96.633">  2  9  1 -1</clus>
<clus scale="   92.256">  1  5  2 -1</clus>
</clustering>
</event>
<event>
 9    1  0.1434065E-005  0.2050814E+03  0.7546771E-02  0.1146086E+00
         -1   -1    0    0    0  501 -0.00000000000E+00  0.00000000000E+00  0.36804087697E+03  0.36804087697E+03  0.00000000000E+00 0.  1.
          1   -1    0    0  502    0  0.00000000000E+00 -0.00000000000E+00 -0.14666121438E+03  0.14666121438E+03  0.00000000000E+00 0. -1.
         23    2    1    2    0    0 -0.64508517338E+02 -0.16369230931E+03  0.15394904507E+03  0.24899656460E+03  0.85688154181E+02 0.  0.
         23    2    1    2    0    0  0.10200094941E+03  0.17005724440E+03  0.52221222523E+02  0.22474798096E+03  0.91983361587E+02 0.  0.
        -13    1    4    4    0    0  0.33187996983E+02  0.10924602146E+03 -0.87611114173E+01  0.11451154274E+03  0.00000000000E+00 0. -1.
         13    1    4    4    0    0  0.68812952427E+02  0.60811222946E+02  0.60982333941E+02  0.11023643822E+03  0.00000000000E+00 0.  1.
        -13    1    3    3    0    0 -0.20846141767E+02 -0.14375405232E+03  0.13177245952E+03  0.19612182508E+03  0.00000000000E+00 0. -1.
         13    1    3    3    0    0 -0.43662375571E+02 -0.19938256987E+02  0.22176585553E+02  0.52874739517E+02  0.00000000000E+00 0.  1.
         21    1    1    2  502  501 -0.37492432072E+02 -0.63649350939E+01  0.15209394994E+02  0.40957545794E+02  0.00000000000E+00 0.  1.
<scales pt_clust_5="13000.00000" pt_clust_6="13000.00000" pt_clust_7="13000.00000" pt_clust_8="13000.00000" pt_clust_9="38.02887"></scales>
<clustering>
<clus scale="   38.029">  2  9  1 -1</clus>
<clus scale="   85.688">  7  8 -1 -1</clus>
<clus scale="   91.983">  5  6 -1 -1</clus>
<clus scale="  202.336">  1  7  2 -1</clus>
<clus scale="   38.029">  2  5  1 -1</clus>
</clustering>
</event>
<event>
 9    1  0.1434065E-005  0.2530058E+03  0.7546771E-02  0.1111439E+00
         -2   -1    0    0    0  501 -0.00000000000E+00  0.00000000000E+00  0.34622935121E+03  0.34622935121E+03  0.00000000000E+00 0.  1.
          2   -1    0    0  502    0  0.00000000000E+00 -0.00000000000E+00 -0.95179376129E+03  0.95179376129E+03  0.00000000000E+00 0. -1.
         23    2    1    2    0    0  0.32144021718E+02 -0.26761992184E+03  0.18074995496E+03  0.33696583892E+03  0.90673974670E+02 0.  0.
         23    2    1    2    0    0  0.36316562941E+02  0.23165418273E+03 -0.83343957957E+03  0.87049695177E+03  0.90337462438E+02 0.  0.
        -11    1    3    3    0    0 -0.18720329703E+02 -0.20847692882E+02  0.21002044912E+01  0.28097827347E+02  0.00000000000E+00 0. -1.
         11    1    3    3    0    0  0.50864351420E+02 -0.24677222896E+03  0.17864975047E+03  0.30886801157E+03  0.00000000000E+00 0.  1.
        -13    1    4    4    0    0  0.21438450488E+02  0.86857859590E+01 -0.40176510974E+02  0.46359487390E+02  0.00000000000E+00 0.  1.
         13    1    4    4    0    0  0.14878112452E+02  0.22296839677E+03 -0.79326306860E+03  0.82413746438E+03  0.00000000000E+00 0. -1.
         21    1    1    2  502  501 -0.68460584658E+02  0.35965739116E+02  0.47125214535E+02  0.90560321813E+02  0.00000000000E+00 0.  1.
<scales pt_clust_5="13000.00000" pt_clust_6="13000.00000" pt_clust_7="13000.00000" pt_clust_8="13000.00000" pt_clust_9="77.33296"></scales>
<clustering>
<clus scale="   77.333">  1  9  2 -1</clus>
<clus scale="   90.337">  7  8 -1 -1</clus>
<clus scale="   90.674">  5  6 -1 -1</clus>
<clus scale="  252.885">  2  7  1 -1</clus>
<clus scale="  252.885">  2  5  1 -1</clus>
</clustering>
</event>
<event>
 9    1  0.1434065E-005  0.1200697E+03  0.7546771E-02  0.1245279E+00
         -1   -1    0    0    0  501 -0.00000000000E+00  0.00000000000E+00  0.16685812803E+03  0.16685812803E+03  0.00000000000E+00 0.  1.
          1   -1    0    0  502    0  0.00000000000E+00 -0.00000000000E+00 -0.12715598600E+03  0.12715598600E+03  0.00000000000E+00 0. -1.
         23    2    1    2    0    0  0.77508184957E+02  0.25629712979E+01  0.68124682085E+02  0.13358016000E+03  0.84785607728E+02 0.  0.
         23    2    1    2    0    0 -0.72868075076E+02 -0.36064068917E+02 -0.30621084223E+02  0.12654165759E+03  0.92004167707E+02 0.  0.
        -11    1    4    4    0    0 -0.24081191412E+02 -0.45657435448E+02 -0.51223541051E+02  0.72721086002E+02  0.00000000000E+00 0.  1.
         11    1    4    4    0    0 -0.48786883664E+02  0.95933665318E+01  0.20602456828E+02  0.53820571591E+02  0.00000000000E+00 0. -1.
        -11    1    3    3    0    0  0.52949636955E+02  0.15430790873E+02  0.84850929470E+02  0.10120006716E+03  0.00000000000E+00 0.  1.
         11    1    3    3    0    0  0.24558548002E+02 -0.12867819575E+02 -0.16726247385E+02  0.32380092838E+02  0.00000000000E+00 0. -1.
         21    1    1    2  502  501 -0.46401098816E+01  0.33501097619E+02  0.21985441738E+01  0.33892296438E+02  0.00000000000E+00 0.  1.
<scales pt_clust_5="13000.00000" pt_clust_6="13000.00000" pt_clust_7="13000.00000" pt_clust_8="13000.00000" pt_clust_9="33.82091"></scales>
<clustering>
<clus scale="   33.821">  2  9  1 -1</clus>
<clus scale="   84.786">  7  8 -1 -1</clus>
<clus scale="   92.004">  5  6 -1 -1</clus>
<clus scale="  114.632">  1  7  2 -1</clus>
<clus scale="   33.821">  2  5  1 -1</clus>
</clustering>
</event>
<event>
 9    1  0.1434065E-005  0.1301062E+03  0.7546771E-02  0.1227445E+00
         -1   -1    0    0    0  501 -0.00000000000E+00  0.00000000000E+00  0.97734285847E+02  0.97734285847E+02  0.00000000000E+00 0.  1.
          1   -1    0    0  502    0  0.00000000000E+00 -0.00000000000E+00 -0.38020792458E+03  0.38020792458E+03  0.00000000000E+00 0. -1.
         23    2    1    2    0    0  0.60019960270E+02 -0.96242924558E+02 -0.13781578190E+03  0.20034508708E+03  0.90993780098E+02 0.  0.
         23    2    1    2    0    0 -0.37313960925E+02  0.72288564391E+02 -0.18751094817E+03  0.22350681724E+03  0.90426619118E+02 0.  0.
        -11    1    3    3    0    0  0.62071429616E+02 -0.53482114637E+02 -0.35233887785E+02  0.89188708977E+02  0.00000000000E+00 0.  1.
         11    1    3    3    0    0 -0.20514693462E+01 -0.42760809922E+02 -0.10258189412E+03  0.11115637810E+03  0.00000000000E+00 0. -1.
        -13    1    4    4    0    0 -0.25615403541E+02 -0.15714030654E+02 -0.70435758089E+02  0.76578558850E+02  0.00000000000E+00 0.  1.
         13    1    4    4    0    0 -0.11698557384E+02  0.88002595045E+02 -0.11707519008E+03  0.14692825839E+03  0.00000000000E+00 0. -1.
         21    1    1    2  502  501 -0.22705999345E+02  0.23954360167E+02  0.42853091345E+02  0.54090306110E+02  0.00000000000E+00 0.  1.
<scales pt_clust_5="13000.00000" pt_clust_6="13000.00000" pt_clust_7="13000.00000" pt_clust_8="13000.00000" pt_clust_9="33.00566"></scales>
<clustering>
<clus scale="   33.006">  1  9  2 -1</clus>
<clus scale="   90.427">  7  8 -1 -1</clus>
<clus scale="   90.994">  5  6 -1 -1</clus>
<clus scale="  129.710">  2  7  1 -1</clus>
<clus scale="  129.710">  2  5  1 -1</clus>
</clustering>
</event>
<event>
 9    1  0.1434065E-005  0.1590008E+03  0.7546771E-02  0.1194719E+00
         -2   -1    0    0    0  501 -0.00000000000E+00  0.00000000000E+00  0.53757014283E+03  0.53757014283E+03  0.00000000000E+00 0.  1.
          2   -1    0    0  502    0  0.00000000000E+00 -0.00000000000E+00 -0.11382858416E+03  0.11382858416E+03  0.00000000000E+00 0. -1.
         23    2    1    2    0    0 -0.54473894403E+02  0.85643039687E+02  0.43952387242E+03  0.46002337194E+03  0.90211600612E+02 0.  0.
         23    2    1    2    0    0  0.43354128400E+02 -0.10346070886E+03 -0.33938505776E+02  0.16361268516E+03  0.11416474869E+03 0.  0.
        -13    1    4    4    0    0  0.26072739113E+02 -0.20578455462E+02  0.39447997815E+02  0.51569420063E+02  0.00000000000E+00 0.  1.
         13    1    4    4    0    0  0.17281389287E+02 -0.82882253397E+02 -0.73386503591E+02  0.11204326510E+03  0.00000000000E+00 0. -1.
        -13    1    3    3    0    0 -0.30041360883E+02  0.10093106090E+03  0.37170690912E+03  0.38633610847E+03  0.00000000000E+00 0.  1.
         13    1    3    3    0    0 -0.24432533520E+02 -0.15288021212E+02  0.67816963300E+02  0.73687263472E+02  0.00000000000E+00 0. -1.
         21    1    1    2  502  501  0.11119766003E+02  0.17817669172E+02  0.18156192023E+02  0.27762669891E+02  0.00000000000E+00 0.  1.
<scales pt_clust_5="13000.00000" pt_clust_6="13000.00000" pt_clust_7="13000.00000" pt_clust_8="13000.00000" pt_clust_9="21.00282"></scales>
<clustering>
<clus scale="   21.003">  1  9  2 -1</clus>
<clus scale="   90.212">  7  8 -1 -1</clus>
<clus scale="  114.165">  5  6 -1 -1</clus>
<clus scale="  142.779">  1  7  2 -1</clus>
<clus scale="  159.001">  2  5  1 -1</clus>
</clustering>
</event>
<event>
 9    1  0.1434065E-005  0.1130241E+03  0.7546771E-02  0.1256391E+00
          1   -1    0    0  502    0  0.00000000000E+00  0.00000000000E+00  0.90289328010E+02  0.90289328010E+02  0.00000000000E+00 0. -1.
         -1   -1    0    0    0  501 -0.00000000000E+00 -0.00000000000E+00 -0.25571696916E+03  0.25571696916E+03  0.00000000000E+00 0.  1.
         23    2    1    2    0    0 -0.53929650301E+02 -0.15717049182E+02 -0.35128374753E+02  0.11545139166E+03  0.94549396122E+02 0.  0.
         23    2    1    2    0    0  0.56701072488E+02  0.38146368848E+02 -0.17091618625E+02  0.11511346288E+03  0.91043005397E+02 0.  0.
        -11    1    3    3    0    0 -0.13155974581E+01  0.23666615503E+02  0.18945200519E+02  0.30344029210E+02  0.00000000000E+00 0. -1.
         11    1    3    3    0    0 -0.52614052843E+02 -0.39383664685E+02 -0.54073575272E+02  0.85107362451E+02  0.00000000000E+00 0.  1.
        -13    1    4    4    0    0  0.72375419447E+02  0.22627079675E+02  0.13880300201E+02  0.77089874876E+02  0.00000000000E+00 0.  1.
         13    1    4    4    0    0 -0.15674346959E+02  0.15519289173E+02 -0.30971918826E+02  0.38023588005E+02  0.00000000000E+00 0. -1.
         21    1    1    2  502  501 -0.27714221868E+01 -0.22429319666E+02 -0.11320764777E+03  0.11544144263E+03  0.00000000000E+00 0. -1.
<scales pt_clust_5="13000.00000" pt_clust_6="13000.00000" pt_clust_7="13000.00000" pt_clust_8="13000.00000" pt_clust_9="22.59989"></scales>
<clustering>
<clus scale="   22.600">  2  9  1 -1</clus>
<clus scale="   91.043">  7  8 -1 -1</clus>
<clus scale="   94.549">  5  6 -1 -1</clus>
<clus scale="  110.108">  1  7  2 -1</clus>
<clus scale="  110.108">  1  5  2 -1</clus>
</clustering>
</event>
<event>
 9    1  0.1434065E-005  0.1319998E+03  0.7546771E-02  0.1225407E+00
         -1   -1    0    0    0  501 -0.00000000000E+00  0.00000000000E+00  0.72592424721E+03  0.72592424721E+03  0.00000000000E+00 0.  1.
          1   -1    0    0  502    0  0.00000000000E+00 -0.00000000000E+00 -0.52105821027E+02  0.52105821027E+02  0.00000000000E+00 0. -1.
         23    2    1    2    0    0 -0.13561737905E+02 -0.60340752798E+02  0.17154039011E+03  0.20526758691E+03  0.94253645095E+02 0.  0.
         23    2    1    2    0    0  0.72057440307E+01  0.12131815026E+03  0.14367688350E+03  0.20895837431E+03  0.90832477727E+02 0.  0.
        -11    1    3    3    0    0  0.37065119328E+02 -0.59159601565E+01  0.69999527630E+02  0.79427674798E+02  0.00000000000E+00 0. -1.
         11    1    3    3    0    0 -0.50626857233E+02 -0.54424792641E+02  0.10154086248E+03  0.12583991211E+03  0.00000000000E+00 0.  1.
        -11    1    4    4    0    0 -0.14671849969E+02  0.26057218168E+02  0.95337234780E+02  0.99917116330E+02  0.00000000000E+00 0.  1.
         11    1    4    4    0    0  0.21877594000E+02  0.95260932093E+02  0.48339648720E+02  0.10904125798E+03  0.00000000000E+00 0. -1.
         21    1    1    2  502  501  0.63559938744E+01 -0.60977397464E+02  0.35860115257E+03  0.36380410702E+03  0.00000000000E+00 0.  1.
<scales pt_clust_5="13000.00000" pt_clust_6="13000.00000" pt_clust_7="13000.00000" pt_clust_8="13000.00000" pt_clust_9="61.30776"></scales>
<clustering>
<clus scale="   61.308">  1  9  2 -1</clus>
<clus scale="   90.832">  7  8 -1 -1</clus>
<clus scale="   94.254">  5  6 -1 -1</clus>
<clus scale="  129.579">  2  7  1 -1</clus>
<clus scale="  129.579">  2  5  1 -1</clus>
</clustering>
</event>
<event>
 9    1  0.1434065E-005  0.9988635E+02  0.7546771E-02  0.1281179E+00
         -1   -1    0    0    0  501 -0.00000000000E+00  0.00000000000E+00  0.13530428628E+03  0.13530428628E+03  0.00000000000E+00 0.  1.
          1   -1    0    0  502    0  0.00000000000E+00 -0.00000000000E+00 -0.14219910814E+03  0.14219910814E+03  0.00000000000E+00 0. -1.
         23    2    1    2    0    0  0.13416970126E+02 -0.23299506805E+02  0.28954017909E+02  0.98842361718E+02  0.90601298072E+02 0.  0.
         23    2    1    2    0    0 -0.38727956477E+02  0.22947652636E+02 -0.78549586472E+02  0.12902109313E+03  0.91923639851E+02 0.  0.
        -11    1    3    3    0    0  0.36096741097E+02 -0.40966316511E+02 -0.44370181148E+01  0.54780479516E+02  0.00000000000E+00 0.  1.
         11    1    3    3    0    0 -0.22679770971E+02  0.17666809706E+02  0.33391036024E+02  0.44061882202E+02  0.00000000000E+00 0. -1.
        -11    1    4    4    0    0 -0.55325343207E+02 -0.28545845430E+01 -0.81122530354E+02  0.98233941104E+02  0.00000000000E+00 0. -1.
         11    1    4    4    0    0  0.16597386730E+02  0.25802237179E+02  0.25729438820E+01  0.30787152027E+02  0.00000000000E+00 0.  1.
         21    1    1    2  502  501  0.25310986351E+02  0.35185416934E+00  0.42700746703E+02  0.49639939569E+02  0.00000000000E+00 0. -1.
<scales pt_clust_5="13000.00000" pt_clust_6="13000.00000" pt_clust_7="13000.00000" pt_clust_8="13000.00000" pt_clust_9="25.31343"></scales>
<clustering>
<clus scale="   25.313">  1  9  2 -1</clus>
<clus scale="   90.601">  5  6 -1 -1</clus>
<clus scale="   91.924">  7  8 -1 -1</clus>
<clus scale="   98.671">  1  5  2 -1</clus>
<clus scale="   99.886">  2  5  1 -1</clus>
</clustering>
</event>
<event>
 9    1  0.1434065E-005  0.1225551E+03  0.7546771E-02  0.1245124E+00
         -2   -1    0    0    0  501 -0.00000000000E+00  0.00000000000E+00  0.58622553298E+02  0.58622553298E+02  0.00000000000E+00 0.  1.
          2   -1    0    0  502    0  0.00000000000E+00 -0.00000000000E+00 -0.41255199290E+03  0.41255199290E+03  0.00000000000E+00 0. -1.
         23    2    1    2    0    0  0.83160625884E+02 -0.35597308669E+02 -0.14095057157E+03  0.19062614992E+03  0.91040690502E+02 0.  0.
         23    2    1    2    0    0 -0.30224779961E+02  0.23979701546E+02 -0.18970793704E+03  0.22156781635E+03  0.10777120421E+03 0.  0.
        -13    1    3    3    0    0  0.49810614433E+02 -0.14534131407E+01 -0.94342661829E+01  0.50717009951E+02  0.00000000000E+00 0.  1.
         13    1    3    3    0    0  0.33350011451E+02 -0.34143895529E+02 -0.13151630538E+03  0.13990913997E+03  0.00000000000E+00 0. -1.
        -13    1    4    4    0    0 -0.46467842663E+02  0.53486987687E+02 -0.16567679742E+03  0.18019134124E+03  0.00000000000E+00 0. -1.
         13    1    4    4    0    0  0.16243062703E+02 -0.29507286141E+02 -0.24031139622E+02  0.41376475114E+02  0.00000000000E+00 0.  1.
         21    1    1    2  502  501 -0.52935845924E+02  0.11617607123E+02 -0.23270930995E+02  0.58980579925E+02  0.00000000000E+00 0.  1.
<scales pt_clust_5="13000.00000" pt_clust_6="13000.00000" pt_clust_7="13000.00000" pt_clust_8="13000.00000" pt_clust_9="54.19569"></scales>
<clustering>
<clus scale="   54.196">  1  9  2 -1</clus>
<clus scale="   91.041">  5  6 -1 -1</clus>
<clus scale="  107.771">  7  8 -1 -1</clus>
<clus scale="  108.137">  1  5  2 -1</clus>
<clus scale="  122.555">  2  5  1 -1</clus>
</clustering>
</event>
<event>
 9    1  0.1434065E-005  0.9796813E+02  0.7546771E-02  0.1286792E+00
         -1   -1    0    0    0  501 -0.00000000000E+00  0.00000000000E+00  0.39212630010E+03  0.39212630010E+03  0.00000000000E+00 0.  1.
          1   -1    0    0  502    0  0.00000000000E+00 -0.00000000000E+00 -0.83616015183E+02  0.83616015183E+02  0.00000000000E+00 0. -1.
         23    2    1    2    0    0  0.68289292087E+01  0.31936521829E+02  0.16010960086E+03  0.18716370859E+03  0.91261129875E+02 0.  0.
         23    2    1    2    0    0 -0.20542456528E+02 -0.98642452361E+01 -0.34472363781E+02  0.10386856947E+03  0.95294490943E+02 0.  0.
        -11    1    3    3    0    0  0.47886170611E+02  0.60190753715E+01  0.75307342990E+02  0.89445572905E+02  0.00000000000E+00 0. -1.
         11    1    3    3    0    0 -0.41057241402E+02  0.25917446458E+02  0.84802257872E+02  0.97718135690E+02  0.00000000000E+00 0.  1.
        -13    1    4    4    0    0 -0.29054780732E+02  0.38846262273E+02 -0.18188649156E+02  0.51807715006E+02  0.00000000000E+00 0.  1.
         13    1    4    4    0    0  0.85123242040E+01 -0.48710507510E+02 -0.16283714625E+02  0.52060854461E+02  0.00000000000E+00 0. -1.
         21    1    1    2  502  501  0.13713527319E+02 -0.22072276593E+02  0.18287304784E+03  0.18471003723E+03  0.00000000000E+00 0. -1.
<scales pt_clust_5="13000.00000" pt_clust_6="13000.00000" pt_clust_7="13000.00000" pt_clust_8="13000.00000" pt_clust_9="25.98550"></scales>
<clustering>
<clus scale="   25.986">  1  9  2 -1</clus>
<clus scale="   91.261">  5  6 -1 -1</clus>
<clus scale="   94.049">  1  5  2 -1</clus>
<clus scale="   95.294">  7  8 -1 -1</clus>
<clus scale="   97.968">  2  5  1 -1</clus>
</clustering>
</event>
<event>
 9    1  0.1434065E-005  0.9913836E+02  0.7546771E-02  0.1282122E+00
          1   -1    0    0  502    0  0.00000000000E+00  0.00000000000E+00  0.65184279657E+03  0.65184279657E+03  0.00000000000E+00 0. -1.
         -1   -1    0    0    0  501 -0.00000000000E+00 -0.00000000000E+00 -0.11632532115E+03  0.11632532115E+03  0.00000000000E+00 0.  1.
         23    2    1    2    0    0 -0.38614524226E+02 -0.11765403852E+02  0.24415327121E+03  0.26417960841E+03  0.92469127008E+02 0.  0.
         23    2    1    2    0    0  0.33887562607E+02 -0.99019072507E+01  0.39026966214E+03  0.40262724379E+03  0.92476340685E+02 0.  0.
        -13    1    3    3    0    0 -0.58101140698E+02  0.20611273483E+02  0.12878187017E+03  0.14277722938E+03  0.00000000000E+00 0. -1.
         13    1    3    3    0    0  0.19486616472E+02 -0.32376677335E+02  0.11537140104E+03  0.12140237903E+03  0.00000000000E+00 0.  1.
        -13    1    4    4    0    0  0.45101943028E+02  0.29410322623E+02  0.27752262597E+03  0.28269764814E+03  0.00000000000E+00 0. -1.
         13    1    4    4    0    0 -0.11214380421E+02 -0.39312229873E+02  0.11274703618E+03  0.11992959565E+03  0.00000000000E+00 0.  1.
         21    1    1    2  502  501  0.47269616191E+01  0.21667311103E+02 -0.98905457938E+02  0.10136126551E+03  0.00000000000E+00 0.  1.
<scales pt_clust_5="13000.00000" pt_clust_6="13000.00000" pt_clust_7="13000.00000" pt_clust_8="13000.00000" pt_clust_9="22.17694"></scales>
<clustering>
<clus scale="   22.177">  2  9  1 -1</clus>
<clus scale="   92.469">  5  6 -1 -1</clus>
<clus scale="   92.476">  7  8 -1 -1</clus>
<clus scale="   99.132">  2  5  1 -1</clus>
<clus scale="   99.138">  1  5  2 -1</clus>
</clustering>
</event>
<event>
 9    1  0.1434065E-005  0.1045049E+03  0.7546771E-02  0.1271832E+00
         -1   -1    0    0    0  501 -0.00000000000E+00  0.00000000000E+00  0.64134569682E+02  0.64134569682E+02  0.00000000000E+00 0.  1.
          1   -1    0    0  502    0  0.00000000000E+00 -0.00000000000E+00 -0.32781078466E+03  0.32781078466E+03  0.00000000000E+00 0. -1.
         23    2    1    2    0    0 -0.55647289683E+01 -0.25866853718E+02 -0.88240422406E+02  0.12980774041E+03  0.91452812944E+02 0.  0.
         23    2    1    2    0    0 -0.34666807537E+02  0.68579445707E+02 -0.16435171845E+03  0.20242330456E+03  0.89770702083E+02 0.  0.
        -11    1    3    3    0    0  0.38631393476E+02  0.79194137026E+01 -0.33188265544E+02  0.51541853334E+02  0.00000000000E+00 0.  1.
         11    1    3    3    0    0 -0.44196122444E+02 -0.33786267420E+02 -0.55052156862E+02  0.78265887080E+02  0.00000000000E+00 0. -1.
        -11    1    4    4    0    0  0.30529389646E+02  0.27169444951E+02 -0.60073525838E+02  0.72657077272E+02  0.00000000000E+00 0.  1.
         11    1    4    4    0    0 -0.65196197183E+02  0.41410000756E+02 -0.10427819261E+03  0.12976622729E+03  0.00000000000E+00 0. -1.
         21    1    1    2  502  501  0.40231536506E+02 -0.42712591990E+02 -0.11084074120E+02  0.59714309367E+02  0.00000000000E+00 0.  1.
<scales pt_clust_5="13000.00000" pt_clust_6="13000.00000" pt_clust_7="13000.00000" pt_clust_8="13000.00000" pt_clust_9="58.67659"></scales>
<clustering>
<clus scale="   58.677">  1  9  2 -1</clus>
<clus scale="   89.771">  7  8 -1 -1</clus>
<clus scale="   91.453">  5  6 -1 -1</clus>
<clus scale="  103.036">  2  7  1 -1</clus>
<clus scale="  103.036">  2  5  1 -1</clus>
</clustering>
</event>
<event>
 9    1  0.1434065E-005  0.9384271E+02  0.7546771E-02  0.1294198E+00
          4   -1    0    0  502    0  0.00000000000E+00  0.00000000000E+00  0.21632127943E+03  0.21632127943E+03  0.00000000000E+00 0. -1.
         -4   -1    0    0    0  501 -0.00000000000E+00 -0.00000000000E+00 -0.71943327201E+02  0.71943327201E+02  0.00000000000E+00 0.  1.
         23    2    1    2    0    0 -0.26737812688E+02  0.10976548963E+02  0.25357643482E+02  0.98133555361E+02  0.90287260177E+02 0.  0.
         23    2    1    2    0    0  0.28890546519E+01 -0.28891578632E+02  0.12806929685E+03  0.15896062084E+03  0.89574908485E+02 0.  0.
        -11    1    3    3    0    0  0.60759072436E+01  0.42301994311E+02  0.30462492278E+02  0.52481795008E+02  0.00000000000E+00 0.  1.
         11    1    3    3    0    0 -0.32813719932E+02 -0.31325445348E+02 -0.51048487952E+01  0.45651760352E+02  0.00000000000E+00 0. -1.
        -13    1    4    4    0    0 -0.43089472886E+02 -0.17007721764E+02  0.56406435539E+02  0.72990761356E+02  0.00000000000E+00 0.  1.
         13    1    4    4    0    0  0.45978527538E+02 -0.11883856868E+02  0.71662861307E+02  0.85969859482E+02  0.00000000000E+00 0. -1.
         21    1    1    2  502  501  0.23848758036E+02  0.17915029669E+02 -0.90489880975E+01  0.31170430435E+02  0.00000000000E+00 0. -1.
<scales pt_clust_5="13000.00000" pt_clust_6="13000.00000" pt_clust_7="13000.00000" pt_clust_8="13000.00000" pt_clust_9="29.82803"></scales>
<clustering>
<clus scale="   29.828">  2  9  1 -1</clus>
<clus scale="   89.575">  7  8 -1 -1</clus>
<clus scale="   90.287">  5  6 -1 -1</clus>
<clus scale="   93.158">  1  7  2 -1</clus>
<clus scale="   93.158">  1  5  2 -1</clus>
</clustering>
</event>
<event>
 9    1  0.1434065E-005  0.1029268E+03  0.7546771E-02  0.1275612E+00
         -1   -1    0    0    0  501 -0.00000000000E+00  0.00000000000E+00  0.25074775105E+03  0.25074775105E+03  0.00000000000E+00 0.  1.
          1   -1    0    0  502    0  0.00000000000E+00 -0.00000000000E+00 -0.18554564518E+03  0.18554564518E+03  0.00000000000E+00 0. -1.
         23    2    1    2    0    0 -0.19490031506E+01 -0.38769782909E+02 -0.52318284845E+02  0.11091147939E+03  0.89762233993E+02 0.  0.
         23    2    1    2    0    0 -0.29899087219E+02  0.45895159252E+02 -0.74290355231E+02  0.13081461715E+03  0.92698900318E+02 0.  0.
        -11    1    3    3    0    0 -0.23186405751E+02 -0.60232895183E+02 -0.22170628888E+02  0.68243299005E+02  0.00000000000E+00 0.  1.
         11    1    3    3    0    0  0.21237402600E+02  0.21463112274E+02 -0.30147655958E+02  0.42668180386E+02  0.00000000000E+00 0. -1.
        -11    1    4    4    0    0  0.24423129103E+02 -0.26855963698E+01  0.28009209588E+01  0.24729472725E+02  0.00000000000E+00 0.  1.
         11    1    4    4    0    0 -0.54322216322E+02  0.48580755622E+02 -0.77091276190E+02  0.10608514442E+03  0.00000000000E+00 0. -1.
         21    1    1    2  502  501  0.31848090370E+02 -0.71253763436E+01  0.19181074594E+03  0.19456729969E+03  0.00000000000E+00 0.  1.
<scales pt_clust_5="13000.00000" pt_clust_6="13000.00000" pt_clust_7="13000.00000" pt_clust_8="13000.00000" pt_clust_9="32.63544"></scales>
<clustering>
<clus scale="   32.635">  1  9  2 -1</clus>
<clus scale="   89.762">  5  6 -1 -1</clus>
<clus scale="   92.699">  7  8 -1 -1</clus>
<clus scale="  100.290">  1  5  2 -1</clus>
<clus scale="  102.927">  2  5  1 -1</clus>
</clustering>
</event>
<event>
 9    1  0.1434065E-005  0.1105263E+03  0.7546771E-02  0.1259980E+00
          1   -1    0    0  502    0  0.00000000000E+00  0.00000000000E+00  0.10119219986E+04  0.10119219986E+04  0.00000000000E+00 0. -1.
         -1   -1    0    0    0  501 -0.00000000000E+00 -0.00000000000E+00 -0.17742946169E+02  0.17742946169E+02  0.00000000000E+00 0.  1.
         23    2    1    2    0    0  0.28938472248E+01 -0.72624831590E+02  0.35358315168E+03  0.37244129981E+03  0.91699161051E+02 0.  0.
         23    2    1    2    0    0  0.28250864433E+02  0.46058819993E+02  0.43940680023E+03  0.45191217376E+03  0.90701435856E+02 0.  0.
        -11    1    3    3    0    0 -0.26996879080E+02 -0.43917347297E+02  0.30152872246E+03  0.30590380080E+03  0.00000000000E+00 0. -1.
         11    1    3    3    0    0  0.29890726305E+02 -0.28707484293E+02  0.52054429216E+02  0.66537499010E+02  0.00000000000E+00 0.  1.
        -13    1    4    4    0    0 -0.24966338184E+02  0.42719127158E+01  0.44099782788E+02  0.50856249592E+02  0.00000000000E+00 0.  1.
         13    1    4    4    0    0  0.53217202617E+02  0.41786907277E+02  0.39530701744E+03  0.40105592417E+03  0.00000000000E+00 0. -1.
         21    1    1    2  502  501 -0.31144711658E+02  0.26566011597E+02  0.20118910053E+03  0.20531147121E+03  0.00000000000E+00 0. -1.
<scales pt_clust_5="13000.00000" pt_clust_6="13000.00000" pt_clust_7="13000.00000" pt_clust_8="13000.00000" pt_clust_9="40.93588"></scales>
<clustering>
<clus scale="   40.936">  1  9  2 -1</clus>
<clus scale="   90.701">  7  8 -1 -1</clus>
<clus scale="   91.699">  5  6 -1 -1</clus>
<clus scale="  109.700">  1  7  2 -1</clus>
<clus scale="   40.936">  1  5  2 -1</clus>
</clustering>
</event>
<event>
 9    1  0.1434065E-005  0.1065821E+03  0.7546771E-02  0.1267751E+00
          3   -1    0    0  502    0  0.00000000000E+00  0.00000000000E+00  0.12469075009E+03  0.12469075009E+03  0.00000000000E+00 0. -1.
         -3   -1    0    0    0  501 -0.00000000000E+00 -0.00000000000E+00 -0.17500159674E+03  0.17500159674E+03  0.00000000000E+00 0.  1.
         23    2    1    2    0    0  0.33936933777E+02 -0.69264104719E+02 -0.65954674611E+01  0.11848634292E+03  0.89701067951E+02 0.  0.
         23    2    1    2    0    0 -0.29491057414E+02  0.29533445197E+02  0.23305058732E+02  0.10316735821E+03  0.91424456160E+02 0.  0.
        -11    1    4    4    0    0 -0.39565429215E+02  0.79122722756E+01 -0.26273629603E+02  0.48149048320E+02  0.00000000000E+00 0.  1.
         11    1    4    4    0    0  0.10074371802E+02  0.21621172921E+02  0.49578688336E+02  0.55018309886E+02  0.00000000000E+00 0. -1.
        -13    1    3    3    0    0 -0.19745745391E+02 -0.44987085421E+02 -0.27093872721E+02  0.56105349609E+02  0.00000000000E+00 0.  1.
         13    1    3    3    0    0  0.53682679168E+02 -0.24277019298E+02  0.20498405260E+02  0.62380993314E+02  0.00000000000E+00 0. -1.
         21    1    1    2  502  501 -0.44458763635E+01  0.39730659522E+02 -0.67020437923E+02  0.78038645696E+02  0.00000000000E+00 0.  1.
<scales pt_clust_5="13000.00000" pt_clust_6="13000.00000" pt_clust_7="13000.00000" pt_clust_8="13000.00000" pt_clust_9="39.97863"></scales>
<clustering>
<clus scale="   39.979">  2  9  1 -1</clus>
<clus scale="   89.701">  7  8 -1 -1</clus>
<clus scale="   91.424">  5  6 -1 -1</clus>
<clus scale="  105.108">  2  7  1 -1</clus>
<clus scale="  106.582">  1  5  2 -1</clus>
</clustering>
</event>
<event>
 9    1  0.1434065E-005  0.1046940E+03  0.7546771E-02  0.1271815E+00
         -1   -1    0    0    0  501 -0.00000000000E+00  0.00000000000E+00  0.68176509340E+02  0.68176509340E+02  0.00000000000E+00 0.  1.
          1   -1    0    0  502    0  0.00000000000E+00 -0.00000000000E+00 -0.30237761011E+03  0.30237761011E+03  0.00000000000E+00 0. -1.
         23    2    1    2    0    0 -0.21968224818E+02  0.20814843441E+02 -0.34320790776E+02  0.10246658902E+03  0.91682193341E+02 0.  0.
         23    2    1    2    0    0 -0.70900005561E+00 -0.55663656714E+02 -0.19833616953E+03  0.22648127268E+03  0.94114745765E+02 0.  0.
        -13    1    4    4    0    0 -0.12124683124E+02  0.25010762541E+02 -0.46907000516E+02  0.54523507602E+02  0.00000000000E+00 0.  1.
         13    1    4    4    0    0  0.11415683068E+02 -0.80674419255E+02 -0.15142916902E+03  0.17195776508E+03  0.00000000000E+00 0. -1.
        -13    1    3    3    0    0 -0.14839669003E+01  0.54638050932E+02 -0.86921500161E+01  0.55345029039E+02  0.00000000000E+00 0.  1.
         13    1    3    3    0    0 -0.20484257918E+02 -0.33823207491E+02 -0.25628640760E+02  0.47121559977E+02  0.00000000000E+00 0. -1.
         21    1    1    2  502  501  0.22677224874E+02  0.34848813273E+02 -0.15441404602E+01  0.41606257754E+02  0.00000000000E+00 0.  1.
<scales pt_clust_5="13000.00000" pt_clust_6="13000.00000" pt_clust_7="13000.00000" pt_clust_8="13000.00000" pt_clust_9="41.57759"></scales>
<clustering>
<clus scale="   41.578">  1  9  2 -1</clus>
<clus scale="   91.682">  7  8 -1 -1</clus>
<clus scale="   94.115">  5  6 -1 -1</clus>
<clus scale="  102.513">  1  7  2 -1</clus>
<clus scale="  104.694">  2  5  1 -1</clus>
</clustering>
</event>
<event>
 9    1  0.1434065E-005  0.1373874E+03  0.7546771E-02  0.1217555E+00
         -2   -1    0    0    0  501 -0.00000000000E+00  0.00000000000E+00  0.14178678870E+03  0.14178678870E+03  0.00000000000E+00 0.  1.
          2   -1    0    0  502    0  0.00000000000E+00 -0.00000000000E+00 -0.21906473010E+03  0.21906473010E+03  0.00000000000E+00 0. -1.
         23    2    1    2    0    0  0.11259327339E+03 -0.10443801612E+02  0.43437341591E+02  0.15179415888E+03  0.91478663206E+02 0.  0.
         23    2    1    2    0    0 -0.67856141698E+02 -0.67280277203E+01 -0.10962110401E+03  0.15987033438E+03  0.94297481651E+02 0.  0.
        -13    1    3    3    0    0  0.93976614923E+02  0.13974895602E+02 -0.42173615856E+01  0.95103564592E+02  0.00000000000E+00 0. -1.
         13    1    3    3    0    0  0.18616658464E+02 -0.24418697214E+02  0.47654703177E+02  0.56690594289E+02  0.00000000000E+00 0.  1.
        -13    1    4    4    0    0  0.58508254068E+01 -0.35213012057E+02 -0.22232590395E+02  0.42053257326E+02  0.00000000000E+00 0.  1.
         13    1    4    4    0    0 -0.73706967105E+02  0.28484984337E+02 -0.87388513617E+02  0.11781707705E+03  0.00000000000E+00 0. -1.
         21    1    1    2  502  501 -0.44737131688E+02  0.17171829332E+02 -0.11094178975E+02  0.49187025539E+02  0.00000000000E+00 0. -1.
<scales pt_clust_5="13000.00000" pt_clust_6="13000.00000" pt_clust_7="13000.00000" pt_clust_8="13000.00000" pt_clust_9="47.91954"></scales>
<clustering>
<clus scale="   47.920">  2  9  1 -1</clus>
<clus scale="   91.479">  5  6 -1 -1</clus>
<clus scale="   94.297">  7  8 -1 -1</clus>
<clus scale="  135.468">  1  5  2 -1</clus>
<clus scale="   47.920">  2  5  1 -1</clus>
</clustering>
</event>
<event>
 9    1  0.1434065E-005  0.1161082E+03  0.7546771E-02  0.1250030E+00
          1   -1    0    0  502    0  0.00000000000E+00  0.00000000000E+00  0.43436460897E+03  0.43436460897E+03  0.00000000000E+00 0. -1.
         -1   -1    0    0    0  501 -0.00000000000E+00 -0.00000000000E+00 -0.68036482245E+02  0.68036482245E+02  0.00000000000E+00 0.  1.
         23    2    1    2    0    0  0.62163425148E+02 -0.26762691839E+02  0.88356683537E+01  0.11493361178E+03  0.92472336298E+02 0.  0.
         23    2    1    2    0    0 -0.72584461071E+02  0.44234953353E+02  0.33303590147E+03  0.35565551490E+03  0.91393098895E+02 0.  0.
        -11    1    4    4    0    0 -0.81271977408E+02  0.24503502393E+02  0.31858817416E+03  0.32970286722E+03  0.00000000000E+00 0. -1.
         11    1    4    4    0    0  0.86875163371E+01  0.19731450961E+02  0.14447727311E+02  0.25952647679E+02  0.00000000000E+00 0.  1.
        -11    1    3    3    0    0  0.21936370344E+02 -0.53044117557E+02  0.27165757684E+02  0.63504811958E+02  0.00000000000E+00 0. -1.
         11    1    3    3    0    0  0.40227054804E+02  0.26281425719E+02 -0.18330089330E+02  0.51428799819E+02  0.00000000000E+00 0.  1.
         21    1    1    2  502  501  0.10421035924E+02 -0.17472261515E+02  0.24456556902E+02  0.31811964536E+02  0.00000000000E+00 0.  1.
<scales pt_clust_5="13000.00000" pt_clust_6="13000.00000" pt_clust_7="13000.00000" pt_clust_8="13000.00000" pt_clust_9="20.34399"></scales>
<clustering>
<clus scale="   20.344">  1  9  2 -1</clus>
<clus scale="   91.393">  5  6 -1 -1</clus>
<clus scale="   92.472">  7  8 -1 -1</clus>
<clus scale="  115.250">  1  5  2 -1</clus>
<clus scale="   20.344">  1  5  2 -1</clus>
</clustering>
</event>
<event>
 9    1  0.1434065E-005  0.1192856E+03  0.7546771E-02  0.1248096E+00
          1   -1    0    0  502    0  0.00000000000E+00  0.00000000000E+00  0.17917935085E+03  0.17917935085E+03  0.00000000000E+00 0. -1.
         -1   -1    0    0    0  501 -0.00000000000E+00 -0.00000000000E+00 -0.16019474391E+03  0.16019474391E+03  0.00000000000E+00 0.  1.
         23    2    1    2    0    0  0.53488688876E+02  0.19519973010E+02 -0.93625947969E+02  0.14558574996E+03  0.95850525682E+02 0.  0.
         23    2    1    2    0    0 -0.50781212550E+02  0.13069021222E+02  0.10923595566E+03  0.16091341677E+03  0.10588249536E+03 0.  0.
        -11    1    4    4    0    0  0.11436905035E+02  0.23217279173E+02 -0.86013266763E+01  0.27273204241E+02  0.00000000000E+00 0.  1.
         11    1    4    4    0    0 -0.62218117585E+02 -0.10148257951E+02  0.11783728234E+03  0.13364021253E+03  0.00000000000E+00 0. -1.
        -13    1    3    3    0    0  0.67144357965E+02 -0.38582277184E+01 -0.97280855962E+02  0.11826586855E+03  0.00000000000E+00 0.  1.
         13    1    3    3    0    0 -0.13655669089E+02  0.23378200728E+02  0.36549079929E+01  0.27319881405E+02  0.00000000000E+00 0. -1.
         21    1    1    2  502  501 -0.27074763259E+01 -0.32588994232E+02  0.33745992522E+01  0.32874928034E+02  0.00000000000E+00 0.  1.
<scales pt_clust_5="13000.00000" pt_clust_6="13000.00000" pt_clust_7="13000.00000" pt_clust_8="13000.00000" pt_clust_9="32.70127"></scales>
<clustering>
<clus scale="   32.701">  1  9  2 -1</clus>
<clus scale="   95.851">  7  8 -1 -1</clus>
<clus scale="  105.882">  5  6 -1 -1</clus>
<clus scale="  110.477">  2  7  1 -1</clus>
<clus scale="   32.701">  1  5  2 -1</clus>
</clustering>
</event>
<event>
 9    1  0.1434065E-005  0.1341445E+03  0.7546771E-02  0.1221652E+00
          1   -1    0    0  502    0  0.00000000000E+00  0.00000000000E+00  0.37173190233E+03  0.37173190233E+03  0.00000000000E+00 0. -1.
         -1   -1    0    0    0  501 -0.00000000000E+00 -0.00000000000E+00 -0.14075483785E+03  0.14075483785E+03  0.00000000000E+00 0.  1.
         23    2    1    2    0    0  0.48012940885E+02 -0.86573235972E+02  0.36104442074E+02  0.13827567009E+03  0.89534700095E+02 0.  0.
         23    2    1    2    0    0 -0.23620148772E+02  0.97101692268E+02  0.26604506268E+03  0.29824151729E+03  0.90450965662E+02 0.  0.
        -11    1    3    3    0    0  0.47459276771E+02 -0.64369103295E+02 -0.16068351405E+02  0.81571786345E+02  0.00000000000E+00 0.  1.
         11    1    3    3    0    0  0.55366411362E+00 -0.22204132677E+02  0.52172793479E+02  0.56703883741E+02  0.00000000000E+00 0. -1.
        -13    1    4    4    0    0 -0.50033812688E+02  0.81615516535E+02  0.23873225851E+03  0.25721113158E+03  0.00000000000E+00 0. -1.
         13    1    4    4    0    0  0.26413663916E+02  0.15486175732E+02  0.27312804163E+02  0.41030385710E+02  0.00000000000E+00 0.  1.
         21    1    1    2  502  501 -0.24392792113E+02 -0.10528456296E+02 -0.71172440277E+02  0.75969552810E+02  0.00000000000E+00 0.  1.
<scales pt_clust_5="13000.00000" pt_clust_6="13000.00000" pt_clust_7="13000.00000" pt_clust_8="13000.00000" pt_clust_9="26.56796"></scales>
<clustering>
<clus scale="   26.568">  2  9  1 -1</clus>
<clus scale="   89.535">  5  6 -1 -1</clus>
<clus scale="   90.451">  7  8 -1 -1</clus>
<clus scale="  133.528">  2  5  1 -1</clus>
<clus scale="  134.144">  1  5  2 -1</clus>
</clustering>
</event>
<event>
 9    1  0.1434065E-005  0.9505064E+02  0.7546771E-02  0.1311967E+00
          1   -1    0    0  502    0  0.00000000000E+00  0.00000000000E+00  0.19378278288E+03  0.19378278288E+03  0.00000000000E+00 0. -1.
         -1   -1    0    0    0  501 -0.00000000000E+00 -0.00000000000E+00 -0.10322600919E+03  0.10322600919E+03  0.00000000000E+00 0.  1.
         23    2    1    2    0    0  0.19180154698E+02 -0.41035571204E+02  0.50051608763E+02  0.11390686364E+03  0.91748643619E+02 0.  0.
         23    2    1    2    0    0 -0.82753280772E+01  0.17165861697E+02  0.10002024398E+03  0.11805792094E+03  0.59753457047E+02 0.  0.
        -11    1    4    4    0    0  0.31953721283E+01  0.37796424355E+02  0.72324145718E+02  0.81667387315E+02  0.00000000000E+00 0.  1.
         11    1    4    4    0    0 -0.11470700205E+02 -0.20630562658E+02  0.27696098262E+02  0.36390533628E+02  0.00000000000E+00 0. -1.
        -11    1    3    3    0    0  0.43986821340E+02  0.21602940672E+01  0.46382545993E+02  0.63959736514E+02  0.00000000000E+00 0.  1.
         11    1    3    3    0    0 -0.24806666643E+02 -0.43195865271E+02  0.36690627700E+01  0.49947127125E+02  0.00000000000E+00 0. -1.
         21    1    1    2  502  501 -0.10904826620E+02  0.23869709507E+02 -0.59515079050E+02  0.65044007486E+02  0.00000000000E+00 0.  1.
<scales pt_clust_5="13000.00000" pt_clust_6="13000.00000" pt_clust_7="13000.00000" pt_clust_8="13000.00000" pt_clust_9="26.24268"></scales>
<clustering>
<clus scale="   26.243">  2  9  1 -1</clus>
<clus scale="   59.753">  5  6 -1 -1</clus>
<clus scale="   64.709">  1  5  2 -1</clus>
<clus scale="   91.749">  7  8 -1 -1</clus>
<clus scale="   64.709">  1  5  2 -1</clus>
</clustering>
</event>
<event>
 9    1  0.1434065E-005  0.1031605E+03  0.7546771E-02  0.1275315E+00
          2   -1    0    0  502    0  0.00000000000E+00  0.00000000000E+00  0.12411820832E+03  0.12411820832E+03  0.00000000000E+00 0. -1.
         -2   -1    0    0    0  501 -0.00000000000E+00 -0.00000000000E+00 -0.14238878380E+03  0.14238878380E+03  0.00000000000E+00 0.  1.
         23    2    1    2    0    0  0.55034944239E+02 -0.11457968378E+02  0.14746087887E+02  0.11013643465E+03  0.93554566982E+02 0.  0.
         23    2    1    2    0    0 -0.33529450508E+02 -0.10660906754E+02  0.16268643834E+02  0.98226147555E+02  0.90254242599E+02 0.  0.
        -11    1    3    3    0    0  0.66081757451E+02  0.12597497166E+02 -0.16419314736E+02  0.69246584746E+02  0.00000000000E+00 0. -1.
         11    1    3    3    0    0 -0.11046813211E+02 -0.24055465545E+02  0.31165402623E+02  0.40889849906E+02  0.00000000000E+00 0.  1.
        -13    1    4    4    0    0 -0.62682547271E+02  0.34055870106E+01  0.18804790807E+01  0.62803152444E+02  0.00000000000E+00 0.  1.
         13    1    4    4    0    0  0.29153096763E+02 -0.14066493765E+02  0.14388164753E+02  0.35422995111E+02  0.00000000000E+00 0. -1.
         21    1    1    2  502  501 -0.21505493731E+02  0.22118875132E+02 -0.49285307206E+02  0.58144409913E+02  0.00000000000E+00 0.  1.
<scales pt_clust_5="13000.00000" pt_clust_6="13000.00000" pt_clust_7="13000.00000" pt_clust_8="13000.00000" pt_clust_9="30.85014"></scales>
<clustering>
<clus scale="   30.850">  2  9  1 -1</clus>
<clus scale="   90.254">  7  8 -1 -1</clus>
<clus scale="   93.555">  5  6 -1 -1</clus>
<clus scale="  100.177">  1  7  2 -1</clus>
<clus scale="  100.177">  1  5  2 -1</clus>
</clustering>
</event>
<event>
 9    1  0.1434065E-005  0.4030014E+03  0.7546771E-02  0.1042979E+00
          2   -1    0    0  502    0  0.00000000000E+00  0.00000000000E+00  0.15462652650E+04  0.15462652650E+04  0.00000000000E+00 0. -1.
         -2   -1    0    0    0  501 -0.00000000000E+00 -0.00000000000E+00 -0.20944477423E+03  0.20944477423E+03  0.00000000000E+00 0.  1.
         23    2    1    2    0    0  0.14080831988E+03  0.38468649841E+03  0.14554710357E+03  0.44400862925E+03  0.90271914140E+02 0.  0.
         23    2    1    2    0    0 -0.82486020270E+02 -0.37742096050E+03  0.11874034401E+04  0.12528010266E+04  0.10165115629E+03 0.  0.
        -13    1    3    3    0    0  0.90423134334E+02  0.33908285434E+03  0.11314807400E+03  0.36872213383E+03  0.00000000000E+00 0.  1.
         13    1    3    3    0    0  0.50385185542E+02  0.45603644079E+02  0.32399029574E+02  0.75286495421E+02  0.00000000000E+00 0. -1.
        -13    1    4    4    0    0 -0.54049860465E+02 -0.95391426748E+02  0.43989050547E+03  0.45334817581E+03  0.00000000000E+00 0.  1.
         13    1    4    4    0    0 -0.28436159805E+02 -0.28202953375E+03  0.74751293467E+03  0.79945285077E+03  0.00000000000E+00 0. -1.
         21    1    1    2  502  501 -0.58322299606E+02 -0.72655379126E+01  0.38699470446E+01  0.58900383383E+02  0.00000000000E+00 0. -1.
<scales pt_clust_5="13000.00000" pt_clust_6="13000.00000" pt_clust_7="13000.00000" pt_clust_8="13000.00000" pt_clust_9="58.77311"></scales>
<clustering>
<clus scale="   58.773">  2  9  1 -1</clus>
<clus scale="   90.272">  5  6 -1 -1</clus>
<clus scale="  101.651">  7  8 -1 -1</clus>
<clus scale="  400.283">  2  5  1 -1</clus>
<clus scale="  403.001">  1  5  2 -1</clus>
</clustering>
</event>
<event>
 9    1  0.1434065E-005  0.9266402E+02  0.7546771E-02  0.1296934E+00
         -1   -1    0    0    0  501 -0.00000000000E+00  0.00000000000E+00  0.37949508830E+02  0.37949508830E+02  0.00000000000E+00 0.  1.
          1   -1    0    0  502    0  0.00000000000E+00 -0.00000000000E+00 -0.35810568491E+03  0.35810568491E+03  0.00000000000E+00 0. -1.
         23    2    1    2    0    0 -0.10467031980E+02 -0.34872727869E+02 -0.92181549572E+02  0.13488480581E+03  0.91492113589E+02 0.  0.
         23    2    1    2    0    0  0.43694034686E+01  0.29782517129E+01 -0.19353858292E+03  0.21383879404E+03  0.90784828502E+02 0.  0.
        -11    1    4    4    0    0 -0.53066017333E+01  0.32923652166E+02 -0.23217266662E+02  0.40634571059E+02  0.00000000000E+00 0.  1.
         11    1    4    4    0    0  0.96760052019E+01 -0.29945400454E+02 -0.17032131626E+03  0.17320422298E+03  0.00000000000E+00 0. -1.
        -13    1    3    3    0    0 -0.46722187343E+02 -0.86033180436E+00 -0.31111098709E+02  0.56139143419E+02  0.00000000000E+00 0.  1.
         13    1    3    3    0    0  0.36255155363E+02 -0.34012396065E+02 -0.61070450863E+02  0.78745662389E+02  0.00000000000E+00 0. -1.
         21    1    1    2  502  501  0.60976285115E+01  0.31894476156E+02 -0.34436043588E+02  0.47331593896E+02  0.00000000000E+00 0. -1.
<scales pt_clust_5="13000.00000" pt_clust_6="13000.00000" pt_clust_7="13000.00000" pt_clust_8="13000.00000" pt_clust_9="32.47212"></scales>
<clustering>
<clus scale="   32.472">  1  9  2 -1</clus>
<clus scale="   90.785">  5  6 -1 -1</clus>
<clus scale="   91.492">  7  8 -1 -1</clus>
<clus scale="   91.966">  2  5  1 -1</clus>
<clus scale="   91.966">  2  5  1 -1</clus>
</clustering>
</event>
<event>
 9    1  0.1434065E-005  0.1069275E+03  0.7546771E-02  0.1275397E+00
         -1   -1    0    0    0  501 -0.00000000000E+00  0.00000000000E+00  0.84441862910E+02  0.84441862910E+02  0.00000000000E+00 0.  1.
          1   -1    0    0  502    0  0.00000000000E+00 -0.00000000000E+00 -0.20164051459E+03  0.20164051459E+03  0.00000000000E+00 0. -1.
         23    2    1    2    0    0 -0.39192294105E+01  0.51364454094E+02 -0.13866957587E+02  0.89557868212E+02  0.71935052251E+02 0.  0.
         23    2    1    2    0    0 -0.16929756705E+02 -0.53716292578E+02 -0.12568948553E+03  0.16586374928E+03  0.92416880494E+02 0.  0.
        -13    1    4    4    0    0 -0.48015771638E+02 -0.51994548008E+02 -0.11050106566E+03  0.13122283666E+03  0.00000000000E+00 0. -1.
         13    1    4    4    0    0  0.31086014932E+02 -0.17217445701E+01 -0.15188419869E+02  0.34640912616E+02  0.00000000000E+00 0.  1.
        -13    1    3    3    0    0  0.22625833546E+02  0.25473702557E+02  0.19857008113E+02  0.39435246123E+02  0.00000000000E+00 0. -1.
         13    1    3    3    0    0 -0.26545062957E+02  0.25890751537E+02 -0.33723965700E+02  0.50122622089E+02  0.00000000000E+00 0.  1.
         21    1    1    2  502  501  0.20848986116E+02  0.23518384842E+01  0.22357791441E+02  0.30660760010E+02  0.00000000000E+00 0.  1.
<scales pt_clust_5="13000.00000" pt_clust_6="13000.00000" pt_clust_7="13000.00000" pt_clust_8="13000.00000" pt_clust_9="20.98121"></scales>
<clustering>
<clus scale="   20.981">  1  9  2 -1</clus>
<clus scale="   71.935">  7  8 -1 -1</clus>
<clus scale="   89.818">  1  7  2 -1</clus>
<clus scale="   92.417">  5  6 -1 -1</clus>
<clus scale="  106.927">  2  5  1 -1</clus>
</clustering>
</event>
<event>
 9    1  0.1434065E-005  0.1394669E+03  0.7546771E-02  0.1219370E+00
         -1   -1    0    0    0  501 -0.00000000000E+00  0.00000000000E+00  0.56823792682E+03  0.56823792682E+03  0.00000000000E+00 0.  1.
          1   -1    0    0  502    0  0.00000000000E+00 -0.00000000000E+00 -0.67214787850E+02  0.67214787850E+02  0.00000000000E+00 0. -1.
         23    2    1    2    0    0  0.48527241575E+02 -0.51977517567E+02  0.36939407558E+03  0.38678541419E+03  0.89968983812E+02 0.  0.
         23    2    1    2    0    0 -0.88319045233E+02  0.26728138564E+02  0.45194688384E+02  0.15022025908E+03  0.10958521450E+03 0.  0.
        -11    1    4    4    0    0 -0.31835420880E+02  0.62911944007E+02  0.21959058960E+01  0.70542389554E+02  0.00000000000E+00 0. -1.
         11    1    4    4    0    0 -0.56483624353E+02 -0.36183805443E+02  0.42998782488E+02  0.79677869524E+02  0.00000000000E+00 0.  1.
        -13    1    3    3    0    0  0.35820083073E+02 -0.71397251534E+02  0.34040214157E+03  0.34964877215E+03  0.00000000000E+00 0.  1.
         13    1    3    3    0    0  0.12707158501E+02  0.19419733967E+02  0.28991934008E+02  0.37136642041E+02  0.00000000000E+00 0. -1.
         21    1    1    2  502  501  0.39791803658E+02  0.25249379003E+02  0.86434375007E+02  0.98447041404E+02  0.00000000000E+00 0.  1.
<scales pt_clust_5="13000.00000" pt_clust_6="13000.00000" pt_clust_7="13000.00000" pt_clust_8="13000.00000" pt_clust_9="47.12662"></scales>
<clustering>
<clus scale="   47.127">  1  9  2 -1</clus>
<clus scale="   89.969">  7  8 -1 -1</clus>
<clus scale="  109.585">  5  6 -1 -1</clus>
<clus scale="  124.646">  1  7  2 -1</clus>
<clus scale="  139.467">  2  5  1 -1</clus>
</clustering>
</event>
<event>
 9    1  0.1434065E-005  0.9091190E+02  0.7546771E-02  0.1308768E+00
         -4   -1    0    0    0  501 -0.00000000000E+00  0.00000000000E+00  0.13269167693E+03  0.13269167693E+03  0.00000000000E+00 0.  1.
          4   -1    0    0  502    0  0.00000000000E+00 -0.00000000000E+00 -0.10477918425E+03  0.10477918425E+03  0.00000000000E+00 0. -1.
         23    2    1    2    0    0 -0.96637622841E+01 -0.60387805989E+01  0.27262931289E+02  0.83329697140E+02  0.77914798533E+02 0.  0.
         23    2    1    2    0    0 -0.12152614976E+02 -0.14202243736E+02 -0.42495475376E+02  0.10172792544E+03  0.90516935481E+02 0.  0.
        -11    1    3    3    0    0 -0.26426844773E+02  0.12938307798E+02  0.44032970755E+02  0.52959233820E+02  0.00000000000E+00 0.  1.
         11    1    3    3    0    0  0.16763082489E+02 -0.18977088397E+02 -0.16770039466E+02  0.30370463320E+02  0.00000000000E+00 0. -1.
        -13    1    4    4    0    0  0.17301763122E+02  0.20863795709E+02  0.12763515724E+02  0.29959244186E+02  0.00000000000E+00 0.  1.
         13    1    4    4    0    0 -0.29454378098E+02 -0.35066039445E+02 -0.55258991100E+02  0.71768681254E+02  0.00000000000E+00 0. -1.
         21    1    1    2  502  501  0.21816377260E+02  0.20241024335E+02  0.43145036768E+02  0.52413238601E+02  0.00000000000E+00 0. -1.
<scales pt_clust_5="13000.00000" pt_clust_6="13000.00000" pt_clust_7="13000.00000" pt_clust_8="13000.00000" pt_clust_9="29.75993"></scales>
<clustering>
<clus scale="   29.760">  1  9  2 -1</clus>
<clus scale="   77.915">  5  6 -1 -1</clus>
<clus scale="   78.373">  1  5  2 -1</clus>
<clus scale="   90.517">  7  8 -1 -1</clus>
<clus scale="   90.912">  2  5  1 -1</clus>
</clustering>
</event>
<event>
 9    1  0.1434065E-005  0.1354448E+03  0.7546771E-02  0.1219645E+00
         -1   -1    0    0    0  501 -0.00000000000E+00  0.00000000000E+00  0.10014619367E+03  0.10014619367E+03  0.00000000000E+00 0.  1.
          1   -1    0    0  502    0  0.00000000000E+00 -0.00000000000E+00 -0.95695094327E+03  0.95695094327E+03  0.00000000000E+00 0. -1.
         23    2    1    2    0    0  0.16134742834E+02 -0.81676723536E+02 -0.12907672035E+03  0.17844485197E+03  0.90831428279E+02 0.  0.
         23    2    1    2    0    0 -0.44022924576E+02  0.95492797566E+02 -0.79367958060E+03  0.80572600914E+03  0.90610335362E+02 0.  0.
        -11    1    4    4    0    0  0.27441617675E+02  0.15503308914E+02 -0.18663002641E+03  0.18927271786E+03  0.00000000000E+00 0.  1.
         11    1    4    4    0    0 -0.71464542251E+02  0.79989488652E+02 -0.60704955418E+03  0.61645329128E+03  0.00000000000E+00 0. -1.
        -13    1    3    3    0    0  0.43419033902E+02 -0.85260581480E+02 -0.10143654543E+03  0.13944157202E+03  0.00000000000E+00 0.  1.
         13    1    3    3    0    0 -0.27284291068E+02  0.35838579434E+01 -0.27640174918E+02  0.39003279943E+02  0.00000000000E+00 0. -1.
         21    1    1    2  502  501  0.27888181742E+02 -0.13816074029E+02  0.65951551348E+02  0.72926275839E+02  0.00000000000E+00 0.  1.
<scales pt_clust_5="13000.00000" pt_clust_6="13000.00000" pt_clust_7="13000.00000" pt_clust_8="13000.00000" pt_clust_9="31.12289"></scales>
<clustering>
<clus scale="   31.123">  1  9  2 -1</clus>
<clus scale="   90.610">  5  6 -1 -1</clus>
<clus scale="   90.831">  7  8 -1 -1</clus>
<clus scale="  135.297">  2  5  1 -1</clus>
<clus scale="  135.297">  2  5  1 -1</clus>
</clustering>
</event>
<event>
 9    1  0.1434065E-005  0.1000492E+03  0.7546771E-02  0.1281219E+00
         -3   -1    0    0    0  501 -0.00000000000E+00  0.00000000000E+00  0.14515408497E+03  0.14515408497E+03  0.00000000000E+00 0.  1.
          3   -1    0    0  502    0  0.00000000000E+00 -0.00000000000E+00 -0.34111775458E+03  0.34111775458E+03  0.00000000000E+00 0. -1.
         23    2    1    2    0    0  0.12978150117E+02  0.14652415199E+02 -0.12955943409E+02  0.94943164432E+02  0.91995773551E+02 0.  0.
         23    2    1    2    0    0 -0.35613914499E+02 -0.25220381400E+02 -0.27679112026E+03  0.29427516028E+03  0.89889527512E+02 0.  0.
        -11    1    4    4    0    0  0.23653201601E+02  0.14319688527E+02 -0.59705781636E+02  0.65797475531E+02  0.00000000000E+00 0.  1.
         11    1    4    4    0    0 -0.59267116100E+02 -0.39540069927E+02 -0.21708533863E+03  0.22847768475E+03  0.00000000000E+00 0. -1.
        -11    1    3    3    0    0 -0.79159364965E+01 -0.34203356508E+02 -0.21436399539E+02  0.41134545971E+02  0.00000000000E+00 0. -1.
         11    1    3    3    0    0  0.20894086614E+02  0.48855771707E+02  0.84804561302E+01  0.53808618461E+02  0.00000000000E+00 0.  1.
         21    1    1    2  502  501  0.22635764381E+02  0.10567966201E+02  0.93783394069E+02  0.97053514835E+02  0.00000000000E+00 0.  1.
<scales pt_clust_5="13000.00000" pt_clust_6="13000.00000" pt_clust_7="13000.00000" pt_clust_8="13000.00000" pt_clust_9="24.98119"></scales>
<clustering>
<clus scale="   24.981">  1  9  2 -1</clus>
<clus scale="   89.890">  5  6 -1 -1</clus>
<clus scale="   91.996">  7  8 -1 -1</clus>
<clus scale="   98.116">  2  5  1 -1</clus>
<clus scale="   98.116">  2  5  1 -1</clus>
</clustering>
</event>
<event>
 9    1  0.1434065E-005  0.2321938E+03  0.7546771E-02  0.1125265E+00
          1   -1    0    0  502    0  0.00000000000E+00  0.00000000000E+00  0.21235926586E+03  0.21235926586E+03  0.00000000000E+00 0. -1.
         -1   -1    0    0    0  501 -0.00000000000E+00 -0.00000000000E+00 -0.39609968875E+03  0.39609968875E+03  0.00000000000E+00 0.  1.
         23    2    1    2    0    0  0.17901856370E+03  0.78633160856E+02 -0.23671256508E+03  0.32027158475E+03  0.91160459625E+02 0.  0.
         23    2    1    2    0    0 -0.19032811989E+03 -0.10635636489E+03  0.77420819971E+02  0.24953222856E+03  0.93465930437E+02 0.  0.
        -11    1    3    3    0    0  0.14779967275E+03  0.22047442164E+02 -0.14622511521E+03  0.20907562577E+03  0.00000000000E+00 0. -1.
         11    1    3    3    0    0  0.31218890952E+02  0.56585718692E+02 -0.90487449863E+02  0.11119595899E+03  0.00000000000E+00 0.  1.
        -13    1    4    4    0    0 -0.12081303649E+02 -0.36652031655E+02 -0.88535993147E+01  0.39594387773E+02  0.00000000000E+00 0.  1.
         13    1    4    4    0    0 -0.17824681624E+03 -0.69704333231E+02  0.86274419286E+02  0.20993784079E+03  0.00000000000E+00 0. -1.
         21    1    1    2  502  501  0.11309556192E+02  0.27723204030E+02 -0.24448677791E+02  0.38655141297E+02  0.00000000000E+00 0.  1.
<scales pt_clust_5="13000.00000" pt_clust_6="13000.00000" pt_clust_7="13000.00000" pt_clust_8="13000.00000" pt_clust_9="29.94131"></scales>
<clustering>
<clus scale="   29.941">  2  9  1 -1</clus>
<clus scale="   91.160">  5  6 -1 -1</clus>
<clus scale="   93.466">  7  8 -1 -1</clus>
<clus scale="  231.275">  2  5  1 -1</clus>
<clus scale="  232.194">  1  5  2 -1</clus>
</clustering>
</event>
<event>
 9    1  0.1434065E-005  0.1164597E+03  0.7546771E-02  0.1249384E+00
         -1   -1    0    0    0  501 -0.00000000000E+00  0.00000000000E+00  0.11757842206E+03  0.11757842206E+03  0.00000000000E+00 0.  1.
          1   -1    0    0  502    0  0.00000000000E+00 -0.00000000000E+00 -0.62056592521E+03  0.62056592521E+03  0.00000000000E+00 0. -1.
         23    2    1    2    0    0 -0.33545281945E+02  0.58132816467E+02 -0.23261420073E+03  0.25871556079E+03  0.91212196126E+02 0.  0.
         23    2    1    2    0    0  0.14084821779E+02 -0.76751880698E+02 -0.36345349505E+03  0.38253037925E+03  0.90232004263E+02 0.  0.
        -11    1    3    3    0    0  0.22388193589E+02  0.46313796463E+02 -0.74082851170E+02  0.90191284459E+02  0.00000000000E+00 0. -1.
         11    1    3    3    0    0 -0.55933475534E+02  0.11819020004E+02 -0.15853134956E+03  0.16852427633E+03  0.00000000000E+00 0.  1.
        -13    1    4    4    0    0 -0.37406410719E+02 -0.41766291240E+02 -0.14803295919E+03  0.15829535575E+03  0.00000000000E+00 0.  1.
         13    1    4    4    0    0  0.51491232498E+02 -0.34985589458E+02 -0.21542053586E+03  0.22423502350E+03  0.00000000000E+00 0. -1.
         21    1    1    2  502  501  0.19460460166E+02  0.18619064231E+02  0.93080192626E+02  0.96898407221E+02  0.00000000000E+00 0.  1.
<scales pt_clust_5="13000.00000" pt_clust_6="13000.00000" pt_clust_7="13000.00000" pt_clust_8="13000.00000" pt_clust_9="26.93286"></scales>
<clustering>
<clus scale="   26.933">  1  9  2 -1</clus>
<clus scale="   90.232">  7  8 -1 -1</clus>
<clus scale="   91.212">  5  6 -1 -1</clus>
<clus scale="  115.694">  2  7  1 -1</clus>
<clus scale="  115.694">  2  5  1 -1</clus>
</clustering>
</event>
<event>
 9    1  0.1434065E-005  0.9977848E+02  0.7546771E-02  0.1284763E+00
         -2   -1    0    0    0  501 -0.00000000000E+00  0.00000000000E+00  0.22163602560E+02  0.22163602560E+02  0.00000000000E+00 0.  1.
          2   -1    0    0  502    0  0.00000000000E+00 -0.00000000000E+00 -0.69385323636E+03  0.69385323636E+03  0.00000000000E+00 0. -1.
         23    2    1    2    0    0  0.14636819519E+02 -0.57064123718E+01 -0.31062557549E+03  0.32646831982E+03  0.99229612868E+02 0.  0.
         23    2    1    2    0    0  0.19443182763E+02  0.13148343183E+02 -0.32816783969E+03  0.34160073407E+03  0.91902199242E+02 0.  0.
        -11    1    3    3    0    0 -0.71312998790E+01  0.44585458589E+02 -0.12408109878E+03  0.13204104524E+03  0.00000000000E+00 0.  1.
         11    1    3    3    0    0  0.21768119398E+02 -0.50291870961E+02 -0.18654447672E+03  0.19442727458E+03  0.00000000000E+00 0. -1.
        -13    1    4    4    0    0  0.51694296411E+02  0.20059922996E+02 -0.26032458228E+03  0.26616458992E+03  0.00000000000E+00 0.  1.
         13    1    4    4    0    0 -0.32251113648E+02 -0.69115798121E+01 -0.67843257415E+02  0.75436144147E+02  0.00000000000E+00 0. -1.
         21    1    1    2  502  501 -0.34080002282E+02 -0.74419308116E+01 -0.32896218618E+02  0.47947785028E+02  0.00000000000E+00 0. -1.
<scales pt_clust_5="13000.00000" pt_clust_6="13000.00000" pt_clust_7="13000.00000" pt_clust_8="13000.00000" pt_clust_9="34.88307"></scales>
<clustering>
<clus scale="   34.883">  1  9  2 -1</clus>
<clus scale="   91.902">  7  8 -1 -1</clus>
<clus scale="   92.495">  2  7  1 -1</clus>
<clus scale="   99.230">  5  6 -1 -1</clus>
<clus scale="   92.495">  2  5  1 -1</clus>
</clustering>
</event>
<event>
 9    1  0.1434065E-005  0.1498512E+03  0.7546771E-02  0.1202524E+00
          2   -1    0    0  502    0  0.00000000000E+00  0.00000000000E+00  0.40849612387E+03  0.40849612387E+03  0.00000000000E+00 0. -1.
         -2   -1    0    0    0  501 -0.00000000000E+00 -0.00000000000E+00 -0.13273842137E+03  0.13273842137E+03  0.00000000000E+00 0.  1.
         23    2    1    2    0    0  0.92727403918E+02  0.53894931881E+02 -0.64292804865E+02  0.15393180648E+03  0.89768597906E+02 0.  0.
         23    2    1    2    0    0 -0.85653607328E+02 -0.74489483463E+02  0.33111242826E+03  0.36376418716E+03  0.99013737000E+02 0.  0.
        -11    1    3    3    0    0  0.53161928705E+02  0.70025883885E+02 -0.15847376436E+02  0.89336187614E+02  0.00000000000E+00 0. -1.
         11    1    3    3    0    0  0.39565475213E+02 -0.16130952004E+02 -0.48445428429E+02  0.64595618869E+02  0.00000000000E+00 0.  1.
        -13    1    4    4    0    0  0.15970449272E+02 -0.27024582449E+02  0.34450798520E+02  0.46607304419E+02  0.00000000000E+00 0.  1.
         13    1    4    4    0    0 -0.10162405660E+03 -0.47464901014E+02  0.29666162974E+03  0.31715688274E+03  0.00000000000E+00 0. -1.
         21    1    1    2  502  501 -0.70737965901E+01  0.20594551582E+02  0.89380791051E+01  0.23538551594E+02  0.00000000000E+00 0.  1.
<scales pt_clust_5="13000.00000" pt_clust_6="13000.00000" pt_clust_7="13000.00000" pt_clust_8="13000.00000" pt_clust_9="21.77554"></scales>
<clustering>
<clus scale="   21.776">  2  9  1 -1</clus>
<clus scale="   89.769">  5  6 -1 -1</clus>
<clus scale="   99.014">  7  8 -1 -1</clus>
<clus scale="  143.910">  2  5  1 -1</clus>
<clus scale="  149.851">  1  5  2 -1</clus>
</clustering>
</event>
<event>
 9    1  0.1434065E-005  0.1437780E+03  0.7546771E-02  0.1208696E+00
          1   -1    0    0  502    0  0.00000000000E+00  0.00000000000E+00  0.50865225616E+03  0.50865225616E+03  0.00000000000E+00 0. -1.
         -1   -1    0    0    0  501 -0.00000000000E+00 -0.00000000000E+00 -0.69342974829E+02  0.69342974829E+02  0.00000000000E+00 0.  1.
         23    2    1    2    0    0 -0.12129332163E+03  0.41493577061E+02  0.17769099755E+03  0.23706708307E+03  0.90514774788E+02 0.  0.
         23    2    1    2    0    0  0.94360538819E+02 -0.41571759821E+02  0.27793159546E+03  0.30943997489E+03  0.88741218187E+02 0.  0.
        -11    1    3    3    0    0 -0.56666258478E+02  0.42990046508E+02  0.15140976294E+03  0.16728456373E+03  0.00000000000E+00 0.  1.
         11    1    3    3    0    0 -0.64627063155E+02 -0.14964694470E+01  0.26281234609E+02  0.69782519340E+02  0.00000000000E+00 0. -1.
        -13    1    4    4    0    0 -0.92390474827E+01 -0.18844754249E+02  0.14643334611E+02  0.25591248692E+02  0.00000000000E+00 0.  1.
         13    1    4    4    0    0  0.10359958630E+03 -0.22727005572E+02  0.26328826085E+03  0.28384872620E+03  0.00000000000E+00 0. -1.
         21    1    1    2  502  501  0.26932782814E+02  0.78182759971E-01 -0.16313311679E+02  0.31488173027E+02  0.00000000000E+00 0. -1.
<scales pt_clust_5="13000.00000" pt_clust_6="13000.00000" pt_clust_7="13000.00000" pt_clust_8="13000.00000" pt_clust_9="26.93290"></scales>
<clustering>
<clus scale="   26.933">  2  9  1 -1</clus>
<clus scale="   88.741">  7  8 -1 -1</clus>
<clus scale="   90.515">  5  6 -1 -1</clus>
<clus scale="  142.668">  1  7  2 -1</clus>
<clus scale="  142.668">  1  5  2 -1</clus>
</clustering>
</event>
<event>
 9    1  0.1434065E-005  0.1090966E+03  0.7546771E-02  0.1263681E+00
          1   -1    0    0  502    0  0.00000000000E+00  0.00000000000E+00  0.95915683663E+02  0.95915683663E+02  0.00000000000E+00 0. -1.
         -1   -1    0    0    0  501 -0.00000000000E+00 -0.00000000000E+00 -0.19141363146E+03  0.19141363146E+03  0.00000000000E+00 0.  1.
         23    2    1    2    0    0 -0.54445899460E+02  0.48451113763E+02 -0.85833027466E+02  0.14368369856E+03  0.89251499900E+02 0.  0.
         23    2    1    2    0    0  0.35224705669E+02 -0.10947966187E+02 -0.15632250196E+02  0.10108331641E+03  0.92805343363E+02 0.  0.
        -11    1    3    3    0    0 -0.69732853419E+02  0.34601146376E+02 -0.28744801575E+02  0.82982972917E+02  0.00000000000E+00 0.  1.
         11    1    3    3    0    0  0.15286953959E+02  0.13849967387E+02 -0.57088225891E+02  0.60700725641E+02  0.00000000000E+00 0. -1.
        -11    1    4    4    0    0 -0.98467281341E+01  0.30987017562E+02  0.10552215603E+02  0.34183366810E+02  0.00000000000E+00 0.  1.
         11    1    4    4    0    0  0.45071433803E+02 -0.41934983749E+02 -0.26184465799E+02  0.66899949598E+02  0.00000000000E+00 0. -1.
         21    1    1    2  502  501  0.19221193792E+02 -0.37503147576E+02  0.59673298657E+01  0.42562300156E+02  0.00000000000E+00 0. -1.
<scales pt_clust_5="13000.00000" pt_clust_6="13000.00000" pt_clust_7="13000.00000" pt_clust_8="13000.00000" pt_clust_9="42.14191"></scales>
<clustering>
<clus scale="   42.142">  1  9  2 -1</clus>
<clus scale="   89.251">  5  6 -1 -1</clus>
<clus scale="   92.805">  7  8 -1 -1</clus>
<clus scale="  106.090">  2  5  1 -1</clus>
<clus scale="   42.142">  1  5  2 -1</clus>
</clustering>
</event>
<event>
 9    1  0.1434065E-005  0.1007007E+03  0.7546771E-02  0.1280161E+00
          2   -1    0    0  502    0  0.00000000000E+00  0.00000000000E+00  0.51080910359E+03  0.51080910359E+03  0.00000000000E+00 0. -1.
         -2   -1    0    0    0  501 -0.00000000000E+00 -0.00000000000E+00 -0.38861779359E+02  0.38861779359E+02  0.00000000000E+00 0.  1.
         23    2    1    2    0    0 -0.49736275921E+01 -0.35045735380E+02  0.63823209488E+02  0.11528452970E+03  0.89242255563E+02 0.  0.
         23    2    1    2    0    0 -0.11123574002E+02  0.64102123325E+02  0.34673034092E+03  0.36458242039E+03  0.92008672563E+02 0.  0.
        -11    1    4    4    0    0 -0.26808448149E+02 -0.11536230636E+02  0.49360907901E+02  0.57343497785E+02  0.00000000000E+00 0.  1.
         11    1    4    4    0    0  0.15684874147E+02  0.75638353961E+02  0.29736943302E+03  0.30723892260E+03  0.00000000000E+00 0. -1.
        -13    1    3    3    0    0 -0.40561638957E+02  0.15367508269E+01  0.45703742791E+02  0.61126428516E+02  0.00000000000E+00 0. -1.
         13    1    3    3    0    0  0.35588011365E+02 -0.36582486207E+02  0.18119466697E+02  0.54158101179E+02  0.00000000000E+00 0.  1.
         21    1    1    2  502  501  0.16097201595E+02 -0.29056387945E+02  0.61393773823E+02  0.69803932868E+02  0.00000000000E+00 0.  1.
<scales pt_clust_5="13000.00000" pt_clust_6="13000.00000" pt_clust_7="13000.00000" pt_clust_8="13000.00000" pt_clust_9="33.21737"></scales>
<clustering>
<clus scale="   33.217">  1  9  2 -1</clus>
<clus scale="   89.242">  7  8 -1 -1</clus>
<clus scale="   92.009">  5  6 -1 -1</clus>
<clus scale="   98.180">  2  7  1 -1</clus>
<clus scale="   33.217">  1  5  2 -1</clus>
</clustering>
</event>
<event>
 9    1  0.1434065E-005  0.9432637E+02  0.7546771E-02  0.1294940E+00
         -2   -1    0    0    0  501 -0.00000000000E+00  0.00000000000E+00  0.58008233043E+02  0.58008233043E+02  0.00000000000E+00 0.  1.
          2   -1    0    0  502    0  0.00000000000E+00 -0.00000000000E+00 -0.28381193465E+03  0.28381193465E+03  0.00000000000E+00 0. -1.
         23    2    1    2    0    0 -0.27287588918E+02  0.17768160124E+02 -0.37597461082E+02  0.10308563732E+03  0.90292632699E+02 0.  0.
         23    2    1    2    0    0 -0.54870527486E+01 -0.21443258570E-01 -0.17571626692E+03  0.19942648365E+03  0.94152045725E+02 0.  0.
        -11    1    4    4    0    0  0.28596224138E+02  0.23658237653E+02 -0.29428232942E+02  0.47365357994E+02  0.00000000000E+00 0.  1.
         11    1    4    4    0    0 -0.34083276887E+02 -0.23679680912E+02 -0.14628803398E+03  0.15206112566E+03  0.00000000000E+00 0. -1.
        -13    1    3    3    0    0 -0.16581483247E+02 -0.36596657697E+02 -0.20457290338E+02  0.45086158289E+02  0.00000000000E+00 0. -1.
         13    1    3    3    0    0 -0.10706105671E+02  0.54364817821E+02 -0.17140170744E+02  0.57999479036E+02  0.00000000000E+00 0.  1.
         21    1    1    2  502  501  0.32774641667E+02 -0.17746716865E+02 -0.12489973604E+02  0.39308046714E+02  0.00000000000E+00 0. -1.
<scales pt_clust_5="13000.00000" pt_clust_6="13000.00000" pt_clust_7="13000.00000" pt_clust_8="13000.00000" pt_clust_9="37.27094"></scales>
<clustering>
<clus scale="   37.271">  1  9  2 -1</clus>
<clus scale="   90.293">  7  8 -1 -1</clus>
<clus scale="   90.474">  1  7  2 -1</clus>
<clus scale="   94.152">  5  6 -1 -1</clus>
<clus scale="   94.326">  2  5  1 -1</clus>
</clustering>
</event>
<event>
 9    1  0.1434065E-005  0.9158098E+02  0.7546771E-02  0.1301290E+00
          3   -1    0    0  502    0  0.00000000000E+00  0.00000000000E+00  0.22606698026E+03  0.22606698026E+03  0.00000000000E+00 0. -1.
         -3   -1    0    0    0  501 -0.00000000000E+00 -0.00000000000E+00 -0.59206936033E+02  0.59206936033E+02  0.00000000000E+00 0.  1.
         23    2    1    2    0    0  0.14243818303E+02  0.71264633627E+01  0.85745467551E+01  0.86897925677E+02  0.84994433906E+02 0.  0.
         23    2    1    2    0    0 -0.23654475317E+02  0.11965149110E+02  0.14828927891E+03  0.17486058039E+03  0.88790840412E+02 0.  0.
        -11    1    4    4    0    0  0.27656755330E+02 -0.17988301504E+02  0.59300410163E+02  0.67860251634E+02  0.00000000000E+00 0. -1.
         11    1    4    4    0    0 -0.51311230647E+02  0.29953450614E+02  0.88988868744E+02  0.10700032876E+03  0.00000000000E+00 0.  1.
        -13    1    3    3    0    0 -0.12228724479E+02  0.38602063687E+02  0.18608216151E+02  0.44563737854E+02  0.00000000000E+00 0.  1.
         13    1    3    3    0    0  0.26472542782E+02 -0.31475600324E+02 -0.10033669395E+02  0.42334187823E+02  0.00000000000E+00 0. -1.
         21    1    1    2  502  501  0.94106570137E+01 -0.19091612473E+02  0.99962185617E+01  0.23515410219E+02  0.00000000000E+00 0. -1.
<scales pt_clust_5="13000.00000" pt_clust_6="13000.00000" pt_clust_7="13000.00000" pt_clust_8="13000.00000" pt_clust_9="21.28497"></scales>
<clustering>
<clus scale="   21.285">  2  9  1 -1</clus>
<clus scale="   84.994">  7  8 -1 -1</clus>
<clus scale="   87.905">  2  7  1 -1</clus>
<clus scale="   88.791">  5  6 -1 -1</clus>
<clus scale="   91.581">  1  5  2 -1</clus>
</clustering>
</event>
<event>
 9    1  0.1434065E-005  0.2018020E+03  0.7546771E-02  0.1179844E+00
          4   -1    0    0  502    0  0.00000000000E+00  0.00000000000E+00  0.14102322941E+04  0.14102322941E+04  0.00000000000E+00 0. -1.
         -4   -1    0    0    0  501 -0.00000000000E+00 -0.00000000000E+00 -0.49205458771E+02  0.49205458771E+02  0.00000000000E+00 0.  1.
         23    2    1    2    0    0 -0.21544830685E+02  0.31895264897E+02  0.15522313124E+03  0.18312393406E+03  0.89211361952E+02 0.  0.
         23    2    1    2    0    0  0.18295886058E+03 -0.57483633130E+02  0.94771360722E+03  0.97083100140E+03  0.87025508961E+02 0.  0.
        -11    1    4    4    0    0  0.14589667550E+03 -0.46678400885E+01  0.64289375240E+03  0.65925716191E+03  0.00000000000E+00 0.  1.
         11    1    4    4    0    0  0.37062185080E+02 -0.52815793041E+02  0.30481985482E+03  0.31157383948E+03  0.00000000000E+00 0. -1.
        -11    1    3    3    0    0 -0.87413009844E+01  0.60010839505E+02  0.70779348288E+02  0.93206369659E+02  0.00000000000E+00 0.  1.
         11    1    3    3    0    0 -0.12803529701E+02 -0.28115574608E+02  0.84443782955E+02  0.89917564402E+02  0.00000000000E+00 0. -1.
         21    1    1    2  502  501 -0.16141402989E+03  0.25588368233E+02  0.25809009684E+03  0.30548281739E+03  0.00000000000E+00 0. -1.
<scales pt_clust_5="13000.00000" pt_clust_6="13000.00000" pt_clust_7="13000.00000" pt_clust_8="13000.00000" pt_clust_9="182.07308"></scales>
<clustering>
<clus scale="   87.026">  5  6 -1 -1</clus>
<clus scale="   89.211">  7  8 -1 -1</clus>
<clus scale="   97.160">  2  7  1 -1</clus>
<clus scale="  182.073">  2  9  1 -1</clus>
<clus scale="  201.802">  1  5  2 -1</clus>
</clustering>
</event>
<event>
 9    1  0.1434065E-005  0.9806321E+02  0.7546771E-02  0.1292630E+00
         -4   -1    0    0    0  501 -0.00000000000E+00  0.00000000000E+00  0.13954839580E+03  0.13954839580E+03  0.00000000000E+00 0.  1.
          4   -1    0    0  502    0  0.00000000000E+00 -0.00000000000E+00 -0.12348170111E+03  0.12348170111E+03  0.00000000000E+00 0. -1.
         23    2    1    2    0    0 -0.50582176665E+02 -0.33640387051E+01  0.51601350227E+02  0.12047096325E+03  0.96336287494E+02 0.  0.
         23    2    1    2    0    0  0.54184184032E+01  0.11847125947E+02 -0.46665438563E+02  0.95276767395E+02  0.82038317863E+02 0.  0.
        -11    1    3    3    0    0  0.78783545592E+01 -0.35558852146E+02  0.37465574081E+02  0.52251025614E+02  0.00000000000E+00 0. -1.
         11    1    3    3    0    0 -0.58460531224E+02  0.32194813441E+02  0.14135776146E+02  0.68219937634E+02  0.00000000000E+00 0.  1.
        -13    1    4    4    0    0 -0.10187258382E+02  0.24411817231E+02 -0.63703058792E+02  0.68976784162E+02  0.00000000000E+00 0. -1.
         13    1    4    4    0    0  0.15605676785E+02 -0.12564691284E+02  0.17037620229E+02  0.26299983233E+02  0.00000000000E+00 0.  1.
         21    1    1    2  502  501  0.45163758262E+02 -0.84830872418E+01  0.11130783025E+02  0.47282366272E+02  0.00000000000E+00 0. -1.
<scales pt_clust_5="13000.00000" pt_clust_6="13000.00000" pt_clust_7="13000.00000" pt_clust_8="13000.00000" pt_clust_9="45.95354"></scales>
<clustering>
<clus scale="   45.954">  1  9  2 -1</clus>
<clus scale="   82.038">  7  8 -1 -1</clus>
<clus scale="   84.059">  2  7  1 -1</clus>
<clus scale="   96.336">  5  6 -1 -1</clus>
<clus scale="   84.059">  2  5  1 -1</clus>
</clustering>
</event>
<event>
 9    1  0.1434065E-005  0.9654181E+02  0.7546771E-02  0.1288700E+00
          2   -1    0    0  502    0  0.00000000000E+00  0.00000000000E+00  0.22045591506E+03  0.22045591506E+03  0.00000000000E+00 0. -1.
         -2   -1    0    0    0  501 -0.00000000000E+00 -0.00000000000E+00 -0.12032873855E+03  0.12032873855E+03  0.00000000000E+00 0.  1.
         23    2    1    2    0    0 -0.31745957421E+02  0.53070447992E+01 -0.48430125344E+02  0.10868040971E+03  0.91814943650E+02 0.  0.
         23    2    1    2    0    0 -0.12668096495E+02  0.49744580749E+02  0.10031882499E+03  0.14648742131E+03  0.93593236789E+02 0.  0.
        -13    1    4    4    0    0  0.23596283733E+02  0.61483267831E+02  0.78872234349E+02  0.10275118579E+03  0.00000000000E+00 0. -1.
         13    1    4    4    0    0 -0.36264380228E+02 -0.11738687083E+02  0.21446590636E+02  0.43736235522E+02  0.00000000000E+00 0.  1.
        -13    1    3    3    0    0  0.18301652332E+02 -0.15984010234E+02  0.12234208778E+02  0.27205053311E+02  0.00000000000E+00 0.  1.
         13    1    3    3    0    0 -0.50047609753E+02  0.21291055033E+02 -0.60664334122E+02  0.81475356402E+02  0.00000000000E+00 0. -1.
         21    1    1    2  502  501  0.44414053916E+02 -0.55051625548E+02  0.48238476864E+02  0.85616822593E+02  0.00000000000E+00 0.  1.
<scales pt_clust_5="13000.00000" pt_clust_6="13000.00000" pt_clust_7="13000.00000" pt_clust_8="13000.00000" pt_clust_9="70.73394"></scales>
<clustering>
<clus scale="   70.734">  1  9  2 -1</clus>
<clus scale="   91.815">  7  8 -1 -1</clus>
<clus scale="   93.593">  5  6 -1 -1</clus>
<clus scale="   94.819">  2  7  1 -1</clus>
<clus scale="   70.734">  1  5  2 -1</clus>
</clustering>
</event>
<event>
 9    1  0.1434065E-005  0.9850567E+02  0.7546771E-02  0.1283894E+00
         -3   -1    0    0    0  501 -0.00000000000E+00  0.00000000000E+00  0.40089265075E+03  0.40089265075E+03  0.00000000000E+00 0.  1.
          3   -1    0    0  502    0  0.00000000000E+00 -0.00000000000E+00 -0.57764157808E+02  0.57764157808E+02  0.00000000000E+00 0. -1.
         23    2    1    2    0    0  0.13120058050E+01 -0.63603111925E+01  0.24079968486E+03  0.25795393935E+03  0.92269018003E+02 0.  0.
         23    2    1    2    0    0 -0.38602317762E+02  0.47815962807E+01  0.10338411781E+02  0.10142904225E+03  0.93101907893E+02 0.  0.
        -11    1    3    3    0    0  0.39633809819E+02  0.19368994131E+02  0.89685118354E+02  0.99947072336E+02  0.00000000000E+00 0. -1.
         11    1    3    3    0    0 -0.38321804014E+02 -0.25729305324E+02  0.15111456650E+03  0.15800686702E+03  0.00000000000E+00 0.  1.
        -11    1    4    4    0    0  0.29010317626E+02 -0.25062350553E+01 -0.94342450432E+01  0.30608572695E+02  0.00000000000E+00 0. -1.
         11    1    4    4    0    0 -0.67612635388E+02  0.72878313359E+01  0.19772656825E+02  0.70820469552E+02  0.00000000000E+00 0.  1.
         21    1    1    2  502  501  0.37290311957E+02  0.15787149118E+01  0.91990396304E+02  0.99273826958E+02  0.00000000000E+00 0. -1.
<scales pt_clust_5="13000.00000" pt_clust_6="13000.00000" pt_clust_7="13000.00000" pt_clust_8="13000.00000" pt_clust_9="37.32372"></scales>
<clustering>
<clus scale="   37.324">  1  9  2 -1</clus>
<clus scale="   92.269">  5  6 -1 -1</clus>
<clus scale="   93.102">  7  8 -1 -1</clus>
<clus scale="   97.719">  1  5  2 -1</clus>
<clus scale="   98.506">  2  5  1 -1</clus>
</clustering>
</event>
<event>
 9    1  0.1434065E-005  0.1092554E+03  0.7546771E-02  0.1263134E+00
          1   -1    0    0  502    0  0.00000000000E+00  0.00000000000E+00  0.26171174735E+03  0.26171174735E+03  0.00000000000E+00 0. -1.
         -1   -1    0    0    0  501 -0.00000000000E+00 -0.00000000000E+00 -0.67920225472E+02  0.67920225472E+02  0.00000000000E+00 0.  1.
         23    2    1    2    0    0 -0.50317903038E+02  0.54457336328E+02  0.11307833583E+03  0.16117562482E+03  0.87711909999E+02 0.  0.
         23    2    1    2    0    0  0.38534975129E+02 -0.29657522305E+02  0.92672482195E+02  0.13850817727E+03  0.90729340767E+02 0.  0.
        -13    1    4    4    0    0 -0.12437560131E+02  0.24112896240E+02  0.36756366480E+02  0.45685393113E+02  0.00000000000E+00 0. -1.
         13    1    4    4    0    0  0.50972535260E+02 -0.53770418544E+02  0.55916115715E+02  0.92822784153E+02  0.00000000000E+00 0.  1.
        -13    1    3    3    0    0 -0.14957225290E+02  0.23919874868E+02  0.11086874649E+03  0.11440173928E+03  0.00000000000E+00 0. -1.
         13    1    3    3    0    0 -0.35360677749E+02  0.30537461460E+02  0.22095893396E+01  0.46773885538E+02  0.00000000000E+00 0.  1.
         21    1    1    2  502  501  0.11782927910E+02 -0.24799814023E+02 -0.11959296153E+02  0.29948170732E+02  0.00000000000E+00 0.  1.
<scales pt_clust_5="13000.00000" pt_clust_6="13000.00000" pt_clust_7="13000.00000" pt_clust_8="13000.00000" pt_clust_9="27.45666"></scales>
<clustering>
<clus scale="   27.457">  2  9  1 -1</clus>
<clus scale="   87.712">  7  8 -1 -1</clus>
<clus scale="   90.729">  5  6 -1 -1</clus>
<clus scale="  106.763">  2  7  1 -1</clus>
<clus scale="  109.255">  1  5  2 -1</clus>
</clustering>
</event>
<event>
 9    1  0.1434065E-005  0.2449369E+03  0.7546771E-02  0.1116596E+00
         -1   -1    0    0    0  501 -0.00000000000E+00  0.00000000000E+00  0.20040904608E+03  0.20040904608E+03  0.00000000000E+00 0.  1.
          1   -1    0    0  502    0  0.00000000000E+00 -0.00000000000E+00 -0.10514592845E+04  0.10514592845E+04  0.00000000000E+00 0. -1.
         23    2    1    2    0    0  0.36996210897E+03 -0.10160719320E+03 -0.29541754097E+03  0.49291513331E+03  0.92183628434E+02 0.  0.
         23    2    1    2    0    0 -0.18582762807E+03  0.52391835081E+02 -0.52350264641E+03  0.56566584977E+03  0.92983982803E+02 0.  0.
        -11    1    4    4    0    0 -0.65007717508E+01  0.26636418609E+02 -0.33778381151E+02  0.43505607258E+02  0.00000000000E+00 0. -1.
         11    1    4    4    0    0 -0.17932685632E+03  0.25755416472E+02 -0.48972426526E+03  0.52216024251E+03  0.00000000000E+00 0.  1.
        -13    1    3    3    0    0  0.25933769563E+03 -0.52889703157E+02 -0.24912129465E+03  0.36347596967E+03  0.00000000000E+00 0. -1.
         13    1    3    3    0    0  0.11062441333E+03 -0.48717490039E+02 -0.46296246320E+02  0.12943916364E+03  0.00000000000E+00 0.  1.
         21    1    1    2  502  501 -0.18413448090E+03  0.49215358116E+02 -0.32130051063E+02  0.19328734752E+03  0.00000000000E+00 0.  1.
<scales pt_clust_5="13000.00000" pt_clust_6="13000.00000" pt_clust_7="13000.00000" pt_clust_8="13000.00000" pt_clust_9="190.59816"></scales>
<clustering>
<clus scale="   92.184">  7  8 -1 -1</clus>
<clus scale="   92.984">  5  6 -1 -1</clus>
<clus scale="  190.598">  1  9  2 -1</clus>
<clus scale="  244.634">  1  7  2 -1</clus>
<clus scale="  244.937">  2  5  1 -1</clus>
</clustering>
</event>
<event>
 9    1  0.1434065E-005  0.1076969E+03  0.7546771E-02  0.1265212E+00
         -1   -1    0    0    0  501 -0.00000000000E+00  0.00000000000E+00  0.12176584394E+03  0.12176584394E+03  0.00000000000E+00 0.  1.
          1   -1    0    0  502    0  0.00000000000E+00 -0.00000000000E+00 -0.13511964613E+03  0.13511964613E+03  0.00000000000E+00 0. -1.
         23    2    1    2    0    0  0.43447056443E+01 -0.62070123707E+02  0.39010476583E+02  0.11746712418E+03  0.91679502923E+02 0.  0.
         23    2    1    2    0    0 -0.16724950725E+02  0.39110116659E+02 -0.49527387356E+02  0.11317945690E+03  0.92451620664E+02 0.  0.
        -11    1    3    3    0    0  0.88875503653E+01 -0.85195339653E+02  0.38454235323E+02  0.93893357935E+02  0.00000000000E+00 0.  1.
         11    1    3    3    0    0 -0.45428447209E+01  0.23125215946E+02  0.55624126051E+00  0.23573766247E+02  0.00000000000E+00 0. -1.
        -13    1    4    4    0    0  0.18141163635E+02  0.31289189890E+02  0.15209469565E+02  0.39235738638E+02  0.00000000000E+00 0. -1.
         13    1    4    4    0    0 -0.34866114360E+02  0.78209267683E+01 -0.64736856921E+02  0.73943718260E+02  0.00000000000E+00 0.  1.
         21    1    1    2  502  501  0.12380245081E+02  0.22960007048E+02 -0.28368914206E+01  0.26238908987E+02  0.00000000000E+00 0. -1.
<scales pt_clust_5="13000.00000" pt_clust_6="13000.00000" pt_clust_7="13000.00000" pt_clust_8="13000.00000" pt_clust_9="26.08510"></scales>
<clustering>
<clus scale="   26.085">  2  9  1 -1</clus>
<clus scale="   91.680">  5  6 -1 -1</clus>
<clus scale="   92.452">  7  8 -1 -1</clus>
<clus scale="  107.035">  1  5  2 -1</clus>
<clus scale="   26.085">  2  5  1 -1</clus>
</clustering>
</event>
<event>
 9    1  0.1434065E-005  0.2586538E+03  0.7546771E-02  0.1108023E+00
         -1   -1    0    0    0  501 -0.00000000000E+00  0.00000000000E+00  0.29144755731E+03  0.29144755731E+03  0.00000000000E+00 0.  1.
          1   -1    0    0  502    0  0.00000000000E+00 -0.00000000000E+00 -0.93085421913E+03  0.93085421913E+03  0.00000000000E+00 0. -1.
         23    2    1    2    0    0 -0.67343146688E+02  0.26070219067E+03  0.50301098236E+02  0.28832287828E+03  0.89995277838E+02 0.  0.
         23    2    1    2    0    0  0.59449996923E+02 -0.23124593195E+03 -0.78938529419E+03  0.82974078707E+03  0.91277860772E+02 0.  0.
        -13    1    4    4    0    0  0.56962224798E+02 -0.55722660005E+02 -0.26820720256E+03  0.27979423403E+03  0.00000000000E+00 0. -1.
         13    1    4    4    0    0  0.24877721251E+01 -0.17552327195E+03 -0.52117809163E+03  0.54994655304E+03  0.00000000000E+00 0.  1.
        -13    1    3    3    0    0 -0.23936564284E+01  0.17345946500E+03  0.15689814637E+02  0.17418405746E+03  0.00000000000E+00 0.  1.
         13    1    3    3    0    0 -0.64949490260E+02  0.87242725665E+02  0.34611283599E+02  0.11413882082E+03  0.00000000000E+00 0. -1.
         21    1    1    2  502  501  0.78931497647E+01 -0.29456258715E+02  0.99677534135E+02  0.10423811108E+03  0.00000000000E+00 0.  1.
<scales pt_clust_5="13000.00000" pt_clust_6="13000.00000" pt_clust_7="13000.00000" pt_clust_8="13000.00000" pt_clust_9="30.49546"></scales>
<clustering>
<clus scale="   30.495">  1  9  2 -1</clus>
<clus scale="   89.995">  7  8 -1 -1</clus>
<clus scale="   91.278">  5  6 -1 -1</clus>
<clus scale="  258.204">  1  7  2 -1</clus>
<clus scale="  258.654">  2  5  1 -1</clus>
</clustering>
</event>
<event>
 9    1  0.1434065E-005  0.1377713E+03  0.7546771E-02  0.1216412E+00
         -1   -1    0    0    0  501 -0.00000000000E+00  0.00000000000E+00  0.10126137850E+03  0.10126137850E+03  0.00000000000E+00 0.  1.
          1   -1    0    0  502    0  0.00000000000E+00 -0.00000000000E+00 -0.32547858446E+03  0.32547858446E+03  0.00000000000E+00 0. -1.
         23    2    1    2    0    0  0.79630450771E+02 -0.34091950213E+02 -0.22521978534E+02  0.12768679089E+03  0.91068146412E+02 0.  0.
         23    2    1    2    0    0 -0.94188160699E+02  0.56881291763E+02 -0.22281381127E+03  0.26474172223E+03  0.91297831465E+02 0.  0.
        -11    1    3    3    0    0  0.46059475928E+02  0.60812819453E+01 -0.50256211193E+02  0.68440807099E+02  0.00000000000E+00 0. -1.
         11    1    3    3    0    0  0.33570974843E+02 -0.40173232158E+02  0.27734232659E+02  0.59245983790E+02  0.00000000000E+00 0.  1.
        -11    1    4    4    0    0 -0.75159841255E+02  0.78573579729E+02 -0.20115680092E+03  0.22866321900E+03  0.00000000000E+00 0. -1.
         11    1    4    4    0    0 -0.19028319444E+02 -0.21692287965E+02 -0.21657010351E+02  0.36078503231E+02  0.00000000000E+00 0.  1.
         21    1    1    2  502  501  0.14557709928E+02 -0.22789341550E+02  0.21118583839E+02  0.34311449838E+02  0.00000000000E+00 0.  1.
<scales pt_clust_5="13000.00000" pt_clust_6="13000.00000" pt_clust_7="13000.00000" pt_clust_8="13000.00000" pt_clust_9="27.04221"></scales>
<clustering>
<clus scale="   27.042">  1  9  2 -1</clus>
<clus scale="   91.068">  5  6 -1 -1</clus>
<clus scale="   91.298">  7  8 -1 -1</clus>
<clus scale="  137.619">  1  5  2 -1</clus>
<clus scale="  137.771">  2  5  1 -1</clus>
</clustering>
</event>
<event>
 9    1  0.1434065E-005  0.9234229E+02  0.7546771E-02  0.1297772E+00
         -1   -1    0    0    0  501 -0.00000000000E+00  0.00000000000E+00  0.39360215074E+02  0.39360215074E+02  0.00000000000E+00 0.  1.
          1   -1    0    0  502    0  0.00000000000E+00 -0.00000000000E+00 -0.30926139852E+03  0.30926139852E+03  0.00000000000E+00 0. -1.
         23    2    1    2    0    0 -0.14802609470E+01  0.10168325181E+01 -0.12647655956E+03  0.15575312125E+03  0.90881733801E+02 0.  0.
         23    2    1    2    0    0  0.99021753415E+01  0.18426831994E+02 -0.14360210511E+03  0.17167848925E+03  0.91729700023E+02 0.  0.
        -11    1    3    3    0    0 -0.14276990732E+02 -0.32680865038E+02 -0.11088659898E+03  0.11648051012E+03  0.00000000000E+00 0. -1.
         11    1    3    3    0    0  0.12796729785E+02  0.33697697556E+02 -0.15589960579E+02  0.39272611126E+02  0.00000000000E+00 0.  1.
        -11    1    4    4    0    0  0.41232021763E+02  0.13257898684E+02 -0.27480241560E+02  0.51293422311E+02  0.00000000000E+00 0.  1.
         11    1    4    4    0    0 -0.31329846421E+02  0.51689333101E+01 -0.11612186355E+03  0.12038506694E+03  0.00000000000E+00 0. -1.
         21    1    1    2  502  501 -0.84219143945E+01 -0.19443664512E+02  0.17748122208E+00  0.21190003099E+02  0.00000000000E+00 0. -1.
<scales pt_clust_5="13000.00000" pt_clust_6="13000.00000" pt_clust_7="13000.00000" pt_clust_8="13000.00000" pt_clust_9="21.18926"></scales>
<clustering>
<clus scale="   21.189">  1  9  2 -1</clus>
<clus scale="   90.882">  5  6 -1 -1</clus>
<clus scale="   91.500">  1  5  2 -1</clus>
<clus scale="   91.730">  7  8 -1 -1</clus>
<clus scale="   92.342">  2  5  1 -1</clus>
</clustering>
</event>
<event>
 9    1  0.1434065E-005  0.9954215E+02  0.7546771E-02  0.1282427E+00
          1   -1    0    0  502    0  0.00000000000E+00  0.00000000000E+00  0.24897757688E+03  0.24897757688E+03  0.00000000000E+00 0. -1.
         -1   -1    0    0    0  501 -0.00000000000E+00 -0.00000000000E+00 -0.10472712905E+03  0.10472712905E+03  0.00000000000E+00 0.  1.
         23    2    1    2    0    0 -0.14135094566E+02 -0.25911124739E+02 -0.52067655536E+02  0.11133334073E+03  0.93876965869E+02 0.  0.
         23    2    1    2    0    0  0.32687875498E+02  0.46732578779E+02  0.18058498624E+03  0.21035153379E+03  0.91566366040E+02 0.  0.
        -13    1    4    4    0    0  0.26913138985E+02  0.74646274477E+02  0.13107390616E+03  0.15322125251E+03  0.00000000000E+00 0. -1.
         13    1    4    4    0    0  0.57747365132E+01 -0.27913695697E+02  0.49511080078E+02  0.57130281285E+02  0.00000000000E+00 0.  1.
        -13    1    3    3    0    0  0.92580572335E+01 -0.52761430183E+02 -0.71975369055E+01  0.54048910037E+02  0.00000000000E+00 0. -1.
         13    1    3    3    0    0 -0.23393151800E+02  0.26850305444E+02 -0.44870118630E+02  0.57284430690E+02  0.00000000000E+00 0.  1.
         21    1    1    2  502  501 -0.18552780932E+02 -0.20821454041E+02  0.15733117131E+02  0.32019831407E+02  0.00000000000E+00 0.  1.
<scales pt_clust_5="13000.00000" pt_clust_6="13000.00000" pt_clust_7="13000.00000" pt_clust_8="13000.00000" pt_clust_9="27.88797"></scales>
<clustering>
<clus scale="   27.888">  1  9  2 -1</clus>
<clus scale="   91.566">  5  6 -1 -1</clus>
<clus scale="   93.877">  7  8 -1 -1</clus>
<clus scale="   97.366">  1  5  2 -1</clus>
<clus scale="   27.888">  1  5  2 -1</clus>
</clustering>
</event>
<event>
 9    1  0.1434065E-005  0.9729927E+02  0.7546771E-02  0.1286151E+00
          4   -1    0    0  502    0  0.00000000000E+00  0.00000000000E+00  0.32345591992E+03  0.32345591992E+03  0.00000000000E+00 0. -1.
         -4   -1    0    0    0  501 -0.00000000000E+00 -0.00000000000E+00 -0.51965533762E+02  0.51965533762E+02  0.00000000000E+00 0.  1.
         23    2    1    2    0    0  0.92993625908E+01 -0.62406078070E+02  0.13299285309E+03  0.17306074719E+03  0.91005090627E+02 0.  0.
         23    2    1    2    0    0 -0.34580520899E+01  0.63991871504E+01  0.88684686390E+02  0.12717950916E+03  0.90866639803E+02 0.  0.
        -11    1    4    4    0    0  0.45573258780E+01 -0.41469234567E+02  0.32153603363E+02  0.52671822105E+02  0.00000000000E+00 0. -1.
         11    1    4    4    0    0 -0.80153779679E+01  0.47868421717E+02  0.56531083027E+02  0.74507687052E+02  0.00000000000E+00 0.  1.
        -13    1    3    3    0    0  0.35473932661E+02 -0.41895945600E+01  0.14662985278E+02  0.38612896010E+02  0.00000000000E+00 0.  1.
         13    1    3    3    0    0 -0.26174570070E+02 -0.58216483510E+02  0.11832986781E+03  0.13444785118E+03  0.00000000000E+00 0. -1.
         21    1    1    2  502  501 -0.58413105009E+01  0.56006890920E+02  0.49812846684E+02  0.75181197341E+02  0.00000000000E+00 0.  1.
<scales pt_clust_5="13000.00000" pt_clust_6="13000.00000" pt_clust_7="13000.00000" pt_clust_8="13000.00000" pt_clust_9="56.31068"></scales>
<clustering>
<clus scale="   56.311">  2  9  1 -1</clus>
<clus scale="   90.867">  5  6 -1 -1</clus>
<clus scale="   91.005">  7  8 -1 -1</clus>
<clus scale="   97.170">  1  5  2 -1</clus>
<clus scale="   97.170">  1  5  2 -1</clus>
</clustering>
</event>
<event>
 9    1  0.1434065E-005  0.2424724E+03  0.7546771E-02  0.1118183E+00
          1   -1    0    0  502    0  0.00000000000E+00  0.00000000000E+00  0.12211350778E+04  0.12211350778E+04  0.00000000000E+00 0. -1.
         -1   -1    0    0    0  501 -0.00000000000E+00 -0.00000000000E+00 -0.65591236118E+02  0.65591236118E+02  0.00000000000E+00 0.  1.
         23    2    1    2    0    0 -0.24340484231E+02  0.23291286908E+03  0.55824031503E+03  0.61220535644E+03  0.91226560689E+02 0.  0.
         23    2    1    2    0    0  0.34944171715E+02 -0.21390082689E+03  0.60675416870E+03  0.65078889963E+03  0.91656487896E+02 0.  0.
        -11    1    4    4    0    0  0.47681085909E+02 -0.10177248016E+03  0.20858108609E+03  0.23693288743E+03  0.00000000000E+00 0.  1.
         11    1    4    4    0    0 -0.12736914194E+02 -0.11212834673E+03  0.39817308261E+03  0.41385601220E+03  0.00000000000E+00 0. -1.
        -11    1    3    3    0    0 -0.42813588288E+02  0.15888809287E+03  0.45493052465E+03  0.48377702680E+03  0.00000000000E+00 0. -1.
         11    1    3    3    0    0  0.18473104058E+02  0.74024776214E+02  0.10330979037E+03  0.12842832964E+03  0.00000000000E+00 0.  1.
         21    1    1    2  502  501 -0.10603687484E+02 -0.19012042189E+02 -0.94506420128E+01  0.23732057874E+02  0.00000000000E+00 0.  1.
<scales pt_clust_5="13000.00000" pt_clust_6="13000.00000" pt_clust_7="13000.00000" pt_clust_8="13000.00000" pt_clust_9="21.76915"></scales>
<clustering>
<clus scale="   21.769">  2  9  1 -1</clus>
<clus scale="   91.227">  7  8 -1 -1</clus>
<clus scale="   91.656">  5  6 -1 -1</clus>
<clus scale="  242.310">  2  7  1 -1</clus>
<clus scale="  242.472">  1  5  2 -1</clus>
</clustering>
</event>
<event>
 9    1  0.1434065E-005  0.1767725E+03  0.7546771E-02  0.1171617E+00
         -1   -1    0    0    0  501 -0.00000000000E+00  0.00000000000E+00  0.11190642586E+03  0.11190642586E+03  0.00000000000E+00 0.  1.
          1   -1    0    0  502    0  0.00000000000E+00 -0.00000000000E+00 -0.10514734944E+04  0.10514734944E+04  0.00000000000E+00 0. -1.
         23    2    1    2    0    0  0.14218107704E+03  0.86994802345E+02 -0.31634338790E+03  0.36911333479E+03  0.91585809774E+02 0.  0.
         23    2    1    2    0    0 -0.11656978125E+03 -0.79183664243E+02 -0.69603939832E+03  0.71668384848E+03  0.96469311561E+02 0.  0.
        -11    1    3    3    0    0  0.11174849584E+03  0.15978991821E+02 -0.18402050121E+03  0.21588561640E+03  0.00000000000E+00 0. -1.
         11    1    3    3    0    0  0.30432581200E+02  0.71015810524E+02 -0.13232288669E+03  0.15322771839E+03  0.00000000000E+00 0.  1.
        -13    1    4    4    0    0 -0.95194263047E+02 -0.10030822349E+03 -0.61209449712E+03  0.62752160188E+03  0.00000000000E+00 0. -1.
         13    1    4    4    0    0 -0.21375518205E+02  0.21124559245E+02 -0.83944901200E+02  0.89162246603E+02  0.00000000000E+00 0.  1.
         21    1    1    2  502  501 -0.25611295790E+02 -0.78111381019E+01  0.72815717636E+02  0.77582737031E+02  0.00000000000E+00 0.  1.
<scales pt_clust_5="13000.00000" pt_clust_6="13000.00000" pt_clust_7="13000.00000" pt_clust_8="13000.00000" pt_clust_9="26.77597"></scales>
<clustering>
<clus scale="   26.776">  1  9  2 -1</clus>
<clus scale="   91.586">  5  6 -1 -1</clus>
<clus scale="   96.469">  7  8 -1 -1</clus>
<clus scale="  174.156">  1  5  2 -1</clus>
<clus scale="  176.773">  2  5  1 -1</clus>
</clustering>
</event>
<event>
 9    1  0.1434065E-005  0.3829197E+03  0.7546771E-02  0.1049861E+00
         -1   -1    0    0    0  501 -0.00000000000E+00  0.00000000000E+00  0.56808843384E+03  0.56808843384E+03  0.00000000000E+00 0.  1.
          1   -1    0    0  502    0  0.00000000000E+00 -0.00000000000E+00 -0.29916129535E+03  0.29916129535E+03  0.00000000000E+00 0. -1.
         23    2    1    2    0    0  0.27173257569E+03  0.22533044215E+03  0.20798253381E+03  0.41965950281E+03  0.90801779031E+02 0.  0.
         23    2    1    2    0    0 -0.27799595508E+03 -0.26694024453E+03  0.33578288692E+02  0.39739539771E+03  0.90866690612E+02 0.  0.
        -11    1    4    4    0    0 -0.89559686438E+02 -0.94986739845E+02 -0.31141213138E+02  0.13421323831E+03  0.00000000000E+00 0.  1.
         11    1    4    4    0    0 -0.18843626864E+03 -0.17195350468E+03  0.64719501830E+02  0.26318215940E+03  0.00000000000E+00 0. -1.
        -13    1    3    3    0    0  0.17312739682E+03  0.11490775788E+03  0.75768819141E+02  0.22117369261E+03  0.00000000000E+00 0. -1.
         13    1    3    3    0    0  0.98605178877E+02  0.11042268428E+03  0.13221371467E+03  0.19848581020E+03  0.00000000000E+00 0.  1.
         21    1    1    2  502  501  0.62633793846E+01  0.41609802372E+02  0.27366315980E+02  0.50194828669E+02  0.00000000000E+00 0.  1.
<scales pt_clust_5="13000.00000" pt_clust_6="13000.00000" pt_clust_7="13000.00000" pt_clust_8="13000.00000" pt_clust_9="42.07856"></scales>
<clustering>
<clus scale="   42.079">  1  9  2 -1</clus>
<clus scale="   90.802">  7  8 -1 -1</clus>
<clus scale="   90.867">  5  6 -1 -1</clus>
<clus scale="  382.904">  1  7  2 -1</clus>
<clus scale="  382.920">  2  5  1 -1</clus>
</clustering>
</event>
<event>
 9    1  0.1434065E-005  0.9826329E+02  0.7546771E-02  0.1286510E+00
          1   -1    0    0  502    0  0.00000000000E+00  0.00000000000E+00  0.24044831063E+03  0.24044831063E+03  0.00000000000E+00 0. -1.
         -1   -1    0    0    0  501 -0.00000000000E+00 -0.00000000000E+00 -0.28906997555E+03  0.28906997555E+03  0.00000000000E+00 0.  1.
         23    2    1    2    0    0  0.15639550714E+02  0.37465677523E+01 -0.88046775398E+02  0.13188412465E+03  0.96863591510E+02 0.  0.
         23    2    1    2    0    0  0.75798784243E+01 -0.16633122975E+02  0.20732351033E+03  0.22764863901E+03  0.92232041999E+02 0.  0.
        -11    1    3    3    0    0 -0.27525957673E+02  0.33849605652E+02 -0.53041507513E+02  0.68679514179E+02  0.00000000000E+00 0.  1.
         11    1    3    3    0    0  0.43165508386E+02 -0.30103037900E+02 -0.35005267885E+02  0.63204610471E+02  0.00000000000E+00 0. -1.
        -11    1    4    4    0    0 -0.12954010874E+01 -0.54593797305E+02  0.13155943860E+03  0.14244313480E+03  0.00000000000E+00 0.  1.
         11    1    4    4    0    0  0.88752795117E+01  0.37960674330E+02  0.75764071726E+02  0.85205504203E+02  0.00000000000E+00 0. -1.
         21    1    1    2  502  501 -0.23219429138E+02  0.12886555223E+02 -0.16789839985E+03  0.16998552252E+03  0.00000000000E+00 0.  1.
<scales pt_clust_5="13000.00000" pt_clust_6="13000.00000" pt_clust_7="13000.00000" pt_clust_8="13000.00000" pt_clust_9="26.55570"></scales>
<clustering>
<clus scale="   26.556">  2  9  1 -1</clus>
<clus scale="   92.232">  7  8 -1 -1</clus>
<clus scale="   93.701">  1  7  2 -1</clus>
<clus scale="   96.864">  5  6 -1 -1</clus>
<clus scale="   93.701">  1  5  2 -1</clus>
</clustering>
</event>
<event>
 9    1  0.1434065E-005  0.1236914E+03  0.7546771E-02  0.1237642E+00
         -1   -1    0    0    0  501 -0.00000000000E+00  0.00000000000E+00  0.33446008743E+02  0.33446008743E+02  0.00000000000E+00 0.  1.
          1   -1    0    0  502    0  0.00000000000E+00 -0.00000000000E+00 -0.92783723361E+03  0.92783723361E+03  0.00000000000E+00 0. -1.
         23    2    1    2    0    0  0.70383249768E+02 -0.27251970351E+02 -0.37295530128E+03  0.39154856747E+03  0.92293836155E+02 0.  0.
         23    2    1    2    0    0 -0.66126387074E+02  0.62404899400E+02 -0.51856628851E+03  0.53420885180E+03  0.90559545195E+02 0.  0.
        -11    1    4    4    0    0 -0.39078942705E+01  0.59170412862E+02 -0.16821611346E+03  0.17836218832E+03  0.00000000000E+00 0.  1.
         11    1    4    4    0    0 -0.62218492804E+02  0.32344865379E+01 -0.35035017505E+03  0.35584666348E+03  0.00000000000E+00 0. -1.
        -13    1    3    3    0    0  0.84582363606E-02  0.24265648068E+02 -0.35472202551E+02  0.42977888519E+02  0.00000000000E+00 0.  1.
         13    1    3    3    0    0  0.70374791532E+02 -0.51517618420E+02 -0.33748309873E+03  0.34857067895E+03  0.00000000000E+00 0. -1.
         21    1    1    2  502  501 -0.42568626940E+01 -0.35152929049E+02 -0.28696350739E+01  0.35525823089E+02  0.00000000000E+00 0.  1.
<scales pt_clust_5="13000.00000" pt_clust_6="13000.00000" pt_clust_7="13000.00000" pt_clust_8="13000.00000" pt_clust_9="35.40973"></scales>
<clustering>
<clus scale="   35.410">  1  9  2 -1</clus>
<clus scale="   90.560">  5  6 -1 -1</clus>
<clus scale="   92.294">  7  8 -1 -1</clus>
<clus scale="  122.403">  2  5  1 -1</clus>
<clus scale="  122.403">  2  5  1 -1</clus>
</clustering>
</event>
<event>
 9    1  0.1434065E-005  0.9353006E+02  0.7546771E-02  0.1295604E+00
          1   -1    0    0  502    0  0.00000000000E+00  0.00000000000E+00  0.27567324401E+02  0.27567324401E+02  0.00000000000E+00 0. -1.
         -1   -1    0    0    0  501 -0.00000000000E+00 -0.00000000000E+00 -0.70851819809E+03  0.70851819809E+03  0.00000000000E+00 0.  1.
         23    2    1    2    0    0 -0.15265300323E+02  0.31361269963E+02 -0.42510426199E+03  0.43617253363E+03  0.91193677835E+02 0.  0.
         23    2    1    2    0    0  0.16727766262E+01 -0.25772777286E+01 -0.84842948908E+02  0.12597182756E+03  0.93065218085E+02 0.  0.
        -11    1    4    4    0    0 -0.38304017445E+02  0.15066577486E+02 -0.67290690977E+02  0.78881154922E+02  0.00000000000E+00 0.  1.
         11    1    4    4    0    0  0.39976794072E+02 -0.17643855214E+02 -0.17552257931E+02  0.47090672638E+02  0.00000000000E+00 0. -1.
        -13    1    3    3    0    0 -0.30496073262E+02 -0.23903513953E+02 -0.13459624578E+03  0.14006262114E+03  0.00000000000E+00 0. -1.
         13    1    3    3    0    0  0.15230772939E+02  0.55264783916E+02 -0.29050801622E+03  0.29610991249E+03  0.00000000000E+00 0.  1.
         21    1    1    2  502  501  0.13592523697E+02 -0.28783992234E+02 -0.17100366278E+03  0.17394116130E+03  0.00000000000E+00 0. -1.
<scales pt_clust_5="13000.00000" pt_clust_6="13000.00000" pt_clust_7="13000.00000" pt_clust_8="13000.00000" pt_clust_9="31.83198"></scales>
<clustering>
<clus scale="   31.832">  2  9  1 -1</clus>
<clus scale="   91.194">  7  8 -1 -1</clus>
<clus scale="   91.668">  2  7  1 -1</clus>
<clus scale="   93.065">  5  6 -1 -1</clus>
<clus scale="   93.530">  1  5  2 -1</clus>
</clustering>
</event>
<event>
 9    1  0.1434065E-005  0.2109850E+03  0.7546771E-02  0.1140967E+00
          1   -1    0    0  502    0  0.00000000000E+00  0.00000000000E+00  0.42994628476E+03  0.42994628476E+03  0.00000000000E+00 0. -1.
         -1   -1    0    0    0  501 -0.00000000000E+00 -0.00000000000E+00 -0.12987446830E+03  0.12987446830E+03  0.00000000000E+00 0.  1.
         23    2    1    2    0    0 -0.86388120301E+02  0.16727378993E+03  0.84613008236E+02  0.22422960425E+03  0.87613504295E+02 0.  0.
         23    2    1    2    0    0  0.50269013182E+02 -0.18795195079E+03  0.19259946056E+03  0.28810719350E+03  0.89767996756E+02 0.  0.
        -11    1    4    4    0    0  0.23581211085E+02 -0.17317915124E+03  0.18894478477E+03  0.25738536018E+03  0.00000000000E+00 0. -1.
         11    1    4    4    0    0  0.26687802097E+02 -0.14772799558E+02  0.36546757906E+01  0.30721833322E+02  0.00000000000E+00 0.  1.
        -13    1    3    3    0    0 -0.52073580702E+02  0.47809860870E+02  0.69301384665E+02  0.98995568184E+02  0.00000000000E+00 0. -1.
         13    1    3    3    0    0 -0.34314539599E+02  0.11946392906E+03  0.15311623571E+02  0.12523403607E+03  0.00000000000E+00 0.  1.
         21    1    1    2  502  501  0.36119107119E+02  0.20678160866E+02  0.22859347665E+02  0.47483955307E+02  0.00000000000E+00 0.  1.
<scales pt_clust_5="13000.00000" pt_clust_6="13000.00000" pt_clust_7="13000.00000" pt_clust_8="13000.00000" pt_clust_9="41.61942"></scales>
<clustering>
<clus scale="   41.619">  2  9  1 -1</clus>
<clus scale="   87.614">  7  8 -1 -1</clus>
<clus scale="   89.768">  5  6 -1 -1</clus>
<clus scale="  210.077">  2  7  1 -1</clus>
<clus scale="  210.985">  1  5  2 -1</clus>
</clustering>
</event>
<event>
 9    1  0.1434065E-005  0.1271208E+03  0.7546771E-02  0.1232933E+00
          2   -1    0    0  502    0  0.00000000000E+00  0.00000000000E+00  0.26847274248E+03  0.26847274248E+03  0.00000000000E+00 0. -1.
         -2   -1    0    0    0  501 -0.00000000000E+00 -0.00000000000E+00 -0.21053086393E+03  0.21053086393E+03  0.00000000000E+00 0.  1.
         23    2    1    2    0    0  0.40184665156E+02  0.48930945344E+02 -0.98564391907E+02  0.14549800816E+03  0.86288390299E+02 0.  0.
         23    2    1    2    0    0 -0.52438967927E+02 -0.76844054890E+02  0.22432033388E+03  0.25915469497E+03  0.90480327154E+02 0.  0.
        -11    1    3    3    0    0 -0.26285695465E+02  0.23504593348E+02 -0.25610383888E+02  0.43580907028E+02  0.00000000000E+00 0. -1.
         11    1    3    3    0    0  0.66470360621E+02  0.25426351997E+02 -0.72954008020E+02  0.10191710113E+03  0.00000000000E+00 0.  1.
        -13    1    4    4    0    0 -0.66055280980E+02 -0.26704347225E+02  0.87735606230E+02  0.11302193993E+03  0.00000000000E+00 0. -1.
         13    1    4    4    0    0  0.13616313053E+02 -0.50139707664E+02  0.13658472766E+03  0.14613275504E+03  0.00000000000E+00 0.  1.
         21    1    1    2  502  501  0.12254302771E+02  0.27913109545E+02 -0.67814063425E+02  0.74350903283E+02  0.00000000000E+00 0. -1.
<scales pt_clust_5="13000.00000" pt_clust_6="13000.00000" pt_clust_7="13000.00000" pt_clust_8="13000.00000" pt_clust_9="30.48458"></scales>
<clustering>
<clus scale="   30.485">  2  9  1 -1</clus>
<clus scale="   86.288">  5  6 -1 -1</clus>
<clus scale="   90.480">  7  8 -1 -1</clus>
<clus scale="  124.172">  2  5  1 -1</clus>
<clus scale="  127.121">  1  5  2 -1</clus>
</clustering>
</event>
<event>
 9    1  0.1434065E-005  0.9411833E+02  0.7546771E-02  0.1294863E+00
          1   -1    0    0  502    0  0.00000000000E+00  0.00000000000E+00  0.66110217479E+02  0.66110217479E+02  0.00000000000E+00 0. -1.
         -1   -1    0    0    0  501 -0.00000000000E+00 -0.00000000000E+00 -0.18674006796E+03  0.18674006796E+03  0.00000000000E+00 0.  1.
         23    2    1    2    0    0  0.37516828929E+01  0.86879448727E+01 -0.48068826866E+02  0.10405164032E+03  0.91796384606E+02 0.  0.
         23    2    1    2    0    0 -0.19769124786E+02 -0.22831901850E+02 -0.25645584964E+02  0.97246066641E+02  0.88808712478E+02 0.  0.
        -11    1    4    4    0    0 -0.44856503189E+01  0.26312280068E+02  0.15930925509E+02  0.31084586674E+02  0.00000000000E+00 0. -1.
         11    1    4    4    0    0 -0.15283474467E+02 -0.49144181918E+02 -0.41576510474E+02  0.66161479966E+02  0.00000000000E+00 0.  1.
        -13    1    3    3    0    0 -0.41161447417E+02 -0.85012500179E+01 -0.33666005148E+02  0.53851052988E+02  0.00000000000E+00 0.  1.
         13    1    3    3    0    0  0.44913130310E+02  0.17189194891E+02 -0.14402821718E+02  0.50200587334E+02  0.00000000000E+00 0. -1.
         21    1    1    2  502  501  0.16017441893E+02  0.14143956977E+02 -0.46915438654E+02  0.51552578480E+02  0.00000000000E+00 0. -1.
<scales pt_clust_5="13000.00000" pt_clust_6="13000.00000" pt_clust_7="13000.00000" pt_clust_8="13000.00000" pt_clust_9="21.36843"></scales>
<clustering>
<clus scale="   21.368">  2  9  1 -1</clus>
<clus scale="   88.809">  5  6 -1 -1</clus>
<clus scale="   91.207">  1  5  2 -1</clus>
<clus scale="   91.796">  7  8 -1 -1</clus>
<clus scale="   91.207">  1  5  2 -1</clus>
</clustering>
</event>
<event>
 9    1  0.1434065E-005  0.1096904E+03  0.7546771E-02  0.1268597E+00
         -3   -1    0    0    0  501 -0.00000000000E+00  0.00000000000E+00  0.15689888918E+03  0.15689888918E+03  0.00000000000E+00 0.  1.
          3   -1    0    0  502    0  0.00000000000E+00 -0.00000000000E+00 -0.13629294001E+03  0.13629294001E+03  0.00000000000E+00 0. -1.
         23    2    1    2    0    0 -0.21452493839E+01 -0.56508826477E+01  0.89193797878E+02  0.13848356591E+03  0.10576213820E+03 0.  0.
         23    2    1    2    0    0  0.12737901539E+02  0.31187550422E+02 -0.79562790229E+02  0.12496309524E+03  0.90280785027E+02 0.  0.
        -11    1    3    3    0    0  0.51695276210E+02 -0.25647796958E+01  0.38961250311E+02  0.64783938620E+02  0.00000000000E+00 0. -1.
         11    1    3    3    0    0 -0.53840525594E+02 -0.30861029520E+01  0.50232547567E+02  0.73699627290E+02  0.00000000000E+00 0.  1.
        -13    1    4    4    0    0  0.51007885678E+02  0.82993237558E+01 -0.45406550072E+02  0.68792717388E+02  0.00000000000E+00 0. -1.
         13    1    4    4    0    0 -0.38269984140E+02  0.22888226666E+02 -0.34156240157E+02  0.56170377848E+02  0.00000000000E+00 0.  1.
         21    1    1    2  502  501 -0.10592652155E+02 -0.25536667774E+02  0.10974941518E+02  0.29745168045E+02  0.00000000000E+00 0. -1.
<scales pt_clust_5="13000.00000" pt_clust_6="13000.00000" pt_clust_7="13000.00000" pt_clust_8="13000.00000" pt_clust_9="27.64644"></scales>
<clustering>
<clus scale="   27.646">  1  9  2 -1</clus>
<clus scale="   90.281">  7  8 -1 -1</clus>
<clus scale="   94.852">  2  7  1 -1</clus>
<clus scale="  105.762">  5  6 -1 -1</clus>
<clus scale="   94.852">  2  5  1 -1</clus>
</clustering>
</event>
<event>
 9    1  0.1434065E-005  0.1157537E+03  0.7546771E-02  0.1250401E+00
         -1   -1    0    0    0  501 -0.00000000000E+00  0.00000000000E+00  0.31894464870E+03  0.31894464870E+03  0.00000000000E+00 0.  1.
          1   -1    0    0  502    0  0.00000000000E+00 -0.00000000000E+00 -0.48912169310E+03  0.48912169310E+03  0.00000000000E+00 0. -1.
         23    2    1    2    0    0 -0.49781429676E+02 -0.24694907498E+02 -0.15296177054E+03  0.18673419128E+03  0.91565963925E+02 0.  0.
         23    2    1    2    0    0  0.85109459306E+02 -0.54867839561E+02 -0.29783056938E+03  0.32752397420E+03  0.91185556621E+02 0.  0.
        -11    1    3    3    0    0 -0.28155562409E+02  0.88902667652E+01 -0.92804553254E+00  0.29540375865E+02  0.00000000000E+00 0.  1.
         11    1    3    3    0    0 -0.21625867267E+02 -0.33585174263E+02 -0.15203372500E+03  0.15719381541E+03  0.00000000000E+00 0. -1.
        -13    1    4    4    0    0  0.30417230331E+01 -0.40191985747E+02 -0.40974035465E+02  0.57476250570E+02  0.00000000000E+00 0.  1.
         13    1    4    4    0    0  0.82067736273E+02 -0.14675853814E+02 -0.25685653392E+03  0.27004772363E+03  0.00000000000E+00 0. -1.
         21    1    1    2  502  501 -0.35328029630E+02  0.79562747059E+02  0.28061529552E+03  0.29380817633E+03  0.00000000000E+00 0.  1.
<scales pt_clust_5="13000.00000" pt_clust_6="13000.00000" pt_clust_7="13000.00000" pt_clust_8="13000.00000" pt_clust_9="87.05343"></scales>
<clustering>
<clus scale="   87.053">  1  9  2 -1</clus>
<clus scale="   91.186">  7  8 -1 -1</clus>
<clus scale="   91.566">  5  6 -1 -1</clus>
<clus scale="  115.453">  2  7  1 -1</clus>
<clus scale="  115.453">  2  5  1 -1</clus>
</clustering>
</event>
<event>
 9    1  0.1434569E-005  0.1213963E+03  0.7546771E-02  0.1251988E+00
          1   -1    0    0  502    0  0.00000000000E+00  0.00000000000E+00  0.51089158317E+03  0.51089158317E+03  0.00000000000E+00 0. -1.
         -1   -1    0    0    0  501 -0.00000000000E+00 -0.00000000000E+00 -0.20995611744E+03  0.20995611744E+03  0.00000000000E+00 0.  1.
         23    2    1    2    0    0 -0.42448640069E+02 -0.23056361220E+01 -0.16919893609E+03  0.19655023760E+03  0.90534595188E+02 0.  0.
         23    2    1    2    0    0  0.26228222843E+02  0.22842282748E+02  0.48090866080E+03  0.49599657174E+03  0.11631753778E+03 0.  0.
        -11    1    4    4    0    0 -0.42316961024E+01 -0.42293601515E+02  0.10508197305E+03  0.11335288722E+03  0.00000000000E+00 0.  1.
         11    1    4    4    0    0  0.30459918945E+02  0.65135884263E+02  0.37582668774E+03  0.38264368452E+03  0.00000000000E+00 0. -1.
        -13    1    3    3    0    0 -0.19771158407E+02  0.18417426001E+02 -0.26028007158E+01  0.27145438969E+02  0.00000000000E+00 0. -1.
         13    1    3    3    0    0 -0.22677481662E+02 -0.20723062123E+02 -0.16659613537E+03  0.16940479863E+03  0.00000000000E+00 0.  1.
         21    1    1    2  502  501  0.16220417227E+02 -0.20536646626E+02 -0.10774258985E+02  0.28300891264E+02  0.00000000000E+00 0.  1.
<scales pt_clust_5="13000.00000" pt_clust_6="13000.00000" pt_clust_7="13000.00000" pt_clust_8="13000.00000" pt_clust_9="26.16975"></scales>
<clustering>
<clus scale="   26.170">  2  9  1 -1</clus>
<clus scale="   90.535">  7  8 -1 -1</clus>
<clus scale="   96.973">  2  7  1 -1</clus>
<clus scale="  116.318">  5  6 -1 -1</clus>
<clus scale="  121.396">  1  5  2 -1</clus>
</clustering>
</event>
<event>
 9    1  0.1434065E-005  0.1117510E+03  0.7546771E-02  0.1257409E+00
          1   -1    0    0  502    0  0.00000000000E+00  0.00000000000E+00  0.45420420721E+03  0.45420420721E+03  0.00000000000E+00 0. -1.
         -1   -1    0    0    0  501 -0.00000000000E+00 -0.00000000000E+00 -0.39760829378E+02  0.39760829378E+02  0.00000000000E+00 0.  1.
         23    2    1    2    0    0 -0.27380159878E+02 -0.52989732226E+02  0.10210290771E+03  0.14979565304E+03  0.91957321782E+02 0.  0.
         23    2    1    2    0    0  0.52518690791E+02  0.52080965576E+02  0.27325957087E+03  0.29769263367E+03  0.92084044280E+02 0.  0.
        -13    1    3    3    0    0  0.83527945082E+01 -0.56979275649E+02  0.21382678720E+02  0.61429845994E+02  0.00000000000E+00 0. -1.
         13    1    3    3    0    0 -0.35732954387E+02  0.39895434232E+01  0.80720228991E+02  0.88365807043E+02  0.00000000000E+00 0.  1.
        -13    1    4    4    0    0 -0.55300687868E+01  0.38009386149E+02  0.19759486785E+03  0.20129338513E+03  0.00000000000E+00 0.  1.
         13    1    4    4    0    0  0.58048759578E+02  0.14071579427E+02  0.75664703027E+02  0.96399248546E+02  0.00000000000E+00 0. -1.
         21    1    1    2  502  501 -0.25138530912E+02  0.90876664977E+00  0.39080899243E+02  0.46476749874E+02  0.00000000000E+00 0.  1.
<scales pt_clust_5="13000.00000" pt_clust_6="13000.00000" pt_clust_7="13000.00000" pt_clust_8="13000.00000" pt_clust_9="25.15495"></scales>
<clustering>
<clus scale="   25.155">  1  9  2 -1</clus>
<clus scale="   91.957">  5  6 -1 -1</clus>
<clus scale="   92.084">  7  8 -1 -1</clus>
<clus scale="  111.647">  2  5  1 -1</clus>
<clus scale="   25.155">  1  5  2 -1</clus>
</clustering>
</event>
<event>
 9    1  0.1434065E-005  0.9228315E+02  0.7546771E-02  0.1305468E+00
         -1   -1    0    0    0  501 -0.00000000000E+00  0.00000000000E+00  0.15339301775E+03  0.15339301775E+03  0.00000000000E+00 0.  1.
          1   -1    0    0  502    0  0.00000000000E+00 -0.00000000000E+00 -0.34091761845E+03  0.34091761845E+03  0.00000000000E+00 0. -1.
         23    2    1    2    0    0  0.36235852980E+01 -0.22339061865E+02 -0.30977184657E+02  0.87022572878E+02  0.78110038827E+02 0.  0.
         23    2    1    2    0    0  0.15284699294E+02  0.69658017885E+01 -0.27302570180E+03  0.28828784734E+03  0.91020352971E+02 0.  0.
        -13    1    3    3    0    0  0.10874033599E+02  0.23221007084E+02 -0.31840320461E+02  0.40881117692E+02  0.00000000000E+00 0.  1.
         13    1    3    3    0    0 -0.72504483013E+01 -0.45560068949E+02  0.86313580426E+00  0.46141455185E+02  0.00000000000E+00 0. -1.
        -13    1    4    4    0    0  0.47338151301E+02  0.19540845579E+02 -0.10566107588E+03  0.11741809133E+03  0.00000000000E+00 0.  1.
         13    1    4    4    0    0 -0.32053452007E+02 -0.12575043791E+02 -0.16736462591E+03  0.17086975601E+03  0.00000000000E+00 0. -1.
         21    1    1    2  502  501 -0.18908284592E+02  0.15373260077E+02  0.11647828576E+03  0.11900021599E+03  0.00000000000E+00 0.  1.
<scales pt_clust_5="13000.00000" pt_clust_6="13000.00000" pt_clust_7="13000.00000" pt_clust_8="13000.00000" pt_clust_9="24.36925"></scales>
<clustering>
<clus scale="   24.369">  1  9  2 -1</clus>
<clus scale="   78.110">  5  6 -1 -1</clus>
<clus scale="   79.578">  1  5  2 -1</clus>
<clus scale="   91.020">  7  8 -1 -1</clus>
<clus scale="   92.283">  2  5  1 -1</clus>
</clustering>
</event>
<event>
 9    1  0.1434065E-005  0.2103003E+03  0.7546771E-02  0.1144696E+00
         -4   -1    0    0    0  501 -0.00000000000E+00  0.00000000000E+00  0.14947224212E+03  0.14947224212E+03  0.00000000000E+00 0.  1.
          4   -1    0    0  502    0  0.00000000000E+00 -0.00000000000E+00 -0.32036778460E+03  0.32036778460E+03  0.00000000000E+00 0. -1.
         23    2    1    2    0    0 -0.32442089229E+02 -0.16214263193E+03 -0.62116629975E+02  0.20035090138E+03  0.94547795981E+02 0.  0.
         23    2    1    2    0    0  0.63257892278E+02  0.16394913796E+03 -0.91132896153E+02  0.23393270433E+03  0.12465321745E+03 0.  0.
        -11    1    3    3    0    0 -0.26523949403E+02 -0.53206334930E+02  0.21157806659E+02  0.63103777630E+02  0.00000000000E+00 0. -1.
         11    1    3    3    0    0 -0.59181398254E+01 -0.10893629700E+03 -0.83274436634E+02  0.13724712375E+03  0.00000000000E+00 0.  1.
        -13    1    4    4    0    0  0.80339825799E+02  0.10717722271E+03 -0.10825625191E+03  0.17222328749E+03  0.00000000000E+00 0. -1.
         13    1    4    4    0    0 -0.17081933521E+02  0.56771915250E+02  0.17123355755E+02  0.61709416836E+02  0.00000000000E+00 0.  1.
         21    1    1    2  502  501 -0.30815803049E+02 -0.18065060344E+01 -0.17646016348E+02  0.35556421004E+02  0.00000000000E+00 0. -1.
<scales pt_clust_5="13000.00000" pt_clust_6="13000.00000" pt_clust_7="13000.00000" pt_clust_8="13000.00000" pt_clust_9="30.86871"></scales>
<clustering>
<clus scale="   30.869">  2  9  1 -1</clus>
<clus scale="   94.548">  5  6 -1 -1</clus>
<clus scale="  124.653">  7  8 -1 -1</clus>
<clus scale="  193.977">  1  5  2 -1</clus>
<clus scale="   30.869">  2  5  1 -1</clus>
</clustering>
</event>
<event>
 9    1  0.1434065E-005  0.1317430E+03  0.7546771E-02  0.1225325E+00
         -2   -1    0    0    0  501 -0.00000000000E+00  0.00000000000E+00  0.24294515219E+02  0.24294515219E+02  0.00000000000E+00 0.  1.
          2   -1    0    0  502    0  0.00000000000E+00 -0.00000000000E+00 -0.84207141360E+03  0.84207141360E+03  0.00000000000E+00 0. -1.
         23    2    1    2    0    0  0.16623480590E+02 -0.95048527029E+02 -0.35619892709E+03  0.38103249095E+03  0.94855262896E+02 0.  0.
         23    2    1    2    0    0 -0.33260251948E+02  0.80564548467E+02 -0.38175622984E+03  0.40251992325E+03  0.93207181914E+02 0.  0.
        -13    1    3    3    0    0  0.33397226577E+02  0.78100398413E+00 -0.53397516122E+02  0.62986343268E+02  0.00000000000E+00 0. -1.
         13    1    3    3    0    0 -0.16773745987E+02 -0.95829531013E+02 -0.30280141097E+03  0.31804614768E+03  0.00000000000E+00 0.  1.
        -13    1    4    4    0    0 -0.49015255652E+02  0.79148798620E+01 -0.10828701968E+03  0.11912690394E+03  0.00000000000E+00 0.  1.
         13    1    4    4    0    0  0.15755003703E+02  0.72649668605E+02 -0.27346921016E+03  0.28339301931E+03  0.00000000000E+00 0. -1.
         21    1    1    2  502  501  0.16636771358E+02  0.14483978562E+02 -0.79821741443E+02  0.82813514617E+02  0.00000000000E+00 0.  1.
<scales pt_clust_5="13000.00000" pt_clust_6="13000.00000" pt_clust_7="13000.00000" pt_clust_8="13000.00000" pt_clust_9="22.05828"></scales>
<clustering>
<clus scale="   22.058">  2  9  1 -1</clus>
<clus scale="   93.207">  7  8 -1 -1</clus>
<clus scale="   94.855">  5  6 -1 -1</clus>
<clus scale="  130.561">  2  7  1 -1</clus>
<clus scale="   22.058">  2  5  1 -1</clus>
</clustering>
</event>
<event>
 9    1  0.1434065E-005  0.1748294E+03  0.7546771E-02  0.1172957E+00
         -1   -1    0    0    0  501 -0.00000000000E+00  0.00000000000E+00  0.92364118155E+02  0.92364118155E+02  0.00000000000E+00 0.  1.
          1   -1    0    0  502    0  0.00000000000E+00 -0.00000000000E+00 -0.83775552093E+03  0.83775552093E+03  0.00000000000E+00 0. -1.
         23    2    1    2    0    0  0.15773986322E+03  0.34173191290E+02 -0.32484395701E+03  0.37407784674E+03  0.91438326560E+02 0.  0.
         23    2    1    2    0    0 -0.14290464744E+03  0.89822729280E+00 -0.46652557284E+03  0.49634190794E+03  0.91030952909E+02 0.  0.
        -11    1    4    4    0    0 -0.20165364385E+02 -0.22059012511E+02 -0.30152384458E+02  0.42454778791E+02  0.00000000000E+00 0. -1.
         11    1    4    4    0    0 -0.12273928306E+03  0.22957239804E+02 -0.43637318838E+03  0.45388712915E+03  0.00000000000E+00 0.  1.
        -13    1    3    3    0    0  0.10835433639E+03 -0.89990905233E+01 -0.13571824819E+03  0.17389965134E+03  0.00000000000E+00 0.  1.
         13    1    3    3    0    0  0.49385526833E+02  0.43172281814E+02 -0.18912570881E+03  0.20017819540E+03  0.00000000000E+00 0. -1.
         21    1    1    2  502  501 -0.14835215778E+02 -0.35071418583E+02  0.45978127078E+02  0.59699884407E+02  0.00000000000E+00 0.  1.
<scales pt_clust_5="13000.00000" pt_clust_6="13000.00000" pt_clust_7="13000.00000" pt_clust_8="13000.00000" pt_clust_9="38.08002"></scales>
<clustering>
<clus scale="   38.080">  1  9  2 -1</clus>
<clus scale="   91.031">  5  6 -1 -1</clus>
<clus scale="   91.438">  7  8 -1 -1</clus>
<clus scale="  174.617">  2  5  1 -1</clus>
<clus scale="  174.617">  2  5  1 -1</clus>
</clustering>
</event>
<event>
 9    1  0.1434065E-005  0.1035453E+03  0.7546771E-02  0.1273409E+00
          1   -1    0    0  502    0  0.00000000000E+00  0.00000000000E+00  0.41698126043E+03  0.41698126043E+03  0.00000000000E+00 0. -1.
         -1   -1    0    0    0  501 -0.00000000000E+00 -0.00000000000E+00 -0.33541552125E+02  0.33541552125E+02  0.00000000000E+00 0.  1.
         23    2    1    2    0    0 -0.29533810717E+02 -0.11561254449E+02  0.12307023367E+03  0.15736206298E+03  0.92793468886E+02 0.  0.
         23    2    1    2    0    0  0.48571588727E+02  0.28299990461E+02  0.22684043750E+03  0.25112720814E+03  0.91914100611E+02 0.  0.
        -11    1    4    4    0    0  0.44316308263E+02 -0.20835576385E+02  0.16451419713E+03  0.17164782981E+03  0.00000000000E+00 0.  1.
         11    1    4    4    0    0  0.42552804643E+01  0.49135566846E+02  0.62326240379E+02  0.79479378337E+02  0.00000000000E+00 0. -1.
        -13    1    3    3    0    0 -0.15827616982E+02 -0.40511993471E+02  0.17232562968E+02  0.46783504580E+02  0.00000000000E+00 0.  1.
         13    1    3    3    0    0 -0.13706193734E+02  0.28950739023E+02  0.10583767070E+03  0.11057855840E+03  0.00000000000E+00 0. -1.
         21    1    1    2  502  501 -0.19037778011E+02 -0.16738736012E+02  0.33529037125E+02  0.42033541433E+02  0.00000000000E+00 0.  1.
<scales pt_clust_5="13000.00000" pt_clust_6="13000.00000" pt_clust_7="13000.00000" pt_clust_8="13000.00000" pt_clust_9="25.35000"></scales>
<clustering>
<clus scale="   25.350">  2  9  1 -1</clus>
<clus scale="   91.914">  5  6 -1 -1</clus>
<clus scale="   92.793">  7  8 -1 -1</clus>
<clus scale="  102.758">  1  5  2 -1</clus>
<clus scale="  102.758">  1  5  2 -1</clus>
</clustering>
</event>
<event>
 9    1  0.1434065E-005  0.9551911E+02  0.7546771E-02  0.1290530E+00
         -2   -1    0    0    0  501 -0.00000000000E+00  0.00000000000E+00  0.35669638411E+02  0.35669638411E+02  0.00000000000E+00 0.  1.
          2   -1    0    0  502    0  0.00000000000E+00 -0.00000000000E+00 -0.47209194280E+03  0.47209194280E+03  0.00000000000E+00 0. -1.
         23    2    1    2    0    0 -0.95403542032E+01 -0.66458403319E+00 -0.16358524483E+03  0.18806232261E+03  0.92281335222E+02 0.  0.
         23    2    1    2    0    0  0.31393890479E+02  0.16737582255E+02 -0.27552558010E+03  0.29243854580E+03  0.91324885780E+02 0.  0.
        -13    1    3    3    0    0 -0.27855954082E+01 -0.45207746054E+02 -0.60620989285E+02  0.75673008312E+02  0.00000000000E+00 0. -1.
         13    1    3    3    0    0 -0.67547587951E+01  0.44543162021E+02 -0.10296425554E+03  0.11238931430E+03  0.00000000000E+00 0.  1.
        -13    1    4    4    0    0 -0.21959945775E+02 -0.62440146839E+00 -0.16684706615E+02  0.27586383062E+02  0.00000000000E+00 0.  1.
         13    1    4    4    0    0  0.53353836254E+02  0.17361983723E+02 -0.25884087349E+03  0.26485216274E+03  0.00000000000E+00 0. -1.
         21    1    1    2  502  501 -0.21853536276E+02 -0.16072998222E+02  0.26885205365E+01  0.27260712798E+02  0.00000000000E+00 0.  1.
<scales pt_clust_5="13000.00000" pt_clust_6="13000.00000" pt_clust_7="13000.00000" pt_clust_8="13000.00000" pt_clust_9="27.12781"></scales>
<clustering>
<clus scale="   27.128">  1  9  2 -1</clus>
<clus scale="   91.325">  7  8 -1 -1</clus>
<clus scale="   92.281">  5  6 -1 -1</clus>
<clus scale="   94.595">  2  7  1 -1</clus>
<clus scale="   94.595">  2  5  1 -1</clus>
</clustering>
</event>
<event>
 9    1  0.1434065E-005  0.9942975E+02  0.7546771E-02  0.1283541E+00
         -2   -1    0    0    0  501 -0.00000000000E+00  0.00000000000E+00  0.41534058574E+02  0.41534058574E+02  0.00000000000E+00 0.  1.
          2   -1    0    0  502    0  0.00000000000E+00 -0.00000000000E+00 -0.39429127030E+03  0.39429127030E+03  0.00000000000E+00 0. -1.
         23    2    1    2    0    0  0.39676963289E+02  0.24235352142E+02 -0.12228752274E+03  0.16136428690E+03  0.94459415416E+02 0.  0.
         23    2    1    2    0    0 -0.16609564047E+02 -0.17692109277E+02 -0.23223709389E+03  0.25041852432E+03  0.90479175486E+02 0.  0.
        -13    1    3    3    0    0 -0.22911697723E+02 -0.52582051415E+01 -0.72247644217E+02  0.75975763956E+02  0.00000000000E+00 0.  1.
         13    1    3    3    0    0  0.62588661011E+02  0.29493557283E+02 -0.50039878519E+02  0.85388522944E+02  0.00000000000E+00 0. -1.
        -13    1    4    4    0    0 -0.11855428562E+02  0.24134708696E+02 -0.18653406267E+02  0.32725905879E+02  0.00000000000E+00 0.  1.
         13    1    4    4    0    0 -0.47541354854E+01 -0.41826817973E+02 -0.21358368762E+03  0.21769261844E+03  0.00000000000E+00 0. -1.
         21    1    1    2  502  501 -0.23067399241E+02 -0.65432428654E+01  0.17674049004E+01  0.24042517652E+02  0.00000000000E+00 0. -1.
<scales pt_clust_5="13000.00000" pt_clust_6="13000.00000" pt_clust_7="13000.00000" pt_clust_8="13000.00000" pt_clust_9="23.97747"></scales>
<clustering>
<clus scale="   23.977">  1  9  2 -1</clus>
<clus scale="   90.479">  7  8 -1 -1</clus>
<clus scale="   94.459">  5  6 -1 -1</clus>
<clus scale="   95.657">  2  7  1 -1</clus>
<clus scale="   95.657">  2  5  1 -1</clus>
</clustering>
</event>
<event>
 9    1  0.1434065E-005  0.1222600E+03  0.7546771E-02  0.1239500E+00
         -2   -1    0    0    0  501 -0.00000000000E+00  0.00000000000E+00  0.17598546976E+03  0.17598546976E+03  0.00000000000E+00 0.  1.
          2   -1    0    0  502    0  0.00000000000E+00 -0.00000000000E+00 -0.22449990894E+03  0.22449990894E+03  0.00000000000E+00 0. -1.
         23    2    1    2    0    0 -0.87350163331E+02  0.58692512948E+02  0.94592665923E+02  0.16921735547E+03  0.92800209237E+02 0.  0.
         23    2    1    2    0    0  0.20147556170E+02 -0.17106000951E+02 -0.47750933732E+02  0.10741961667E+03  0.92521797892E+02 0.  0.
        -11    1    3    3    0    0  0.19928709161E+02  0.62069492165E+01  0.13489524093E+02  0.24852503449E+02  0.00000000000E+00 0. -1.
         11    1    3    3    0    0 -0.10727887249E+03  0.52485563732E+02  0.81103141830E+02  0.14436485202E+03  0.00000000000E+00 0.  1.
        -11    1    4    4    0    0  0.37379601289E+02  0.83682732299E+01 -0.62505035516E+02  0.73308540118E+02  0.00000000000E+00 0. -1.
         11    1    4    4    0    0 -0.17232045120E+02 -0.25474274181E+02  0.14754101784E+02  0.34111076552E+02  0.00000000000E+00 0.  1.
         21    1    1    2  502  501  0.67202607161E+02 -0.41586511997E+02 -0.95356171374E+02  0.12384840656E+03  0.00000000000E+00 0. -1.
<scales pt_clust_5="13000.00000" pt_clust_6="13000.00000" pt_clust_7="13000.00000" pt_clust_8="13000.00000" pt_clust_9="79.02929"></scales>
<clustering>
<clus scale="   79.029">  2  9  1 -1</clus>
<clus scale="   92.522">  7  8 -1 -1</clus>
<clus scale="   92.800">  5  6 -1 -1</clus>
<clus scale="  122.049">  2  7  1 -1</clus>
<clus scale="   79.029">  2  5  1 -1</clus>
</clustering>
</event>
<event>
 9    1  0.1434065E-005  0.2121439E+03  0.7546771E-02  0.1140369E+00
         -1   -1    0    0    0  501 -0.00000000000E+00  0.00000000000E+00  0.10731560175E+03  0.10731560175E+03  0.00000000000E+00 0.  1.
          1   -1    0    0  502    0  0.00000000000E+00 -0.00000000000E+00 -0.88629883272E+03  0.88629883272E+03  0.00000000000E+00 0. -1.
         23    2    1    2    0    0 -0.16479276876E+03 -0.15079947517E+03 -0.10927887105E+03  0.26677714923E+03  0.96597294703E+02 0.  0.
         23    2    1    2    0    0  0.11773607046E+03  0.13904802457E+03 -0.63590346485E+03  0.66771935265E+03  0.90993306794E+02 0.  0.
        -11    1    3    3    0    0 -0.94150746276E+01 -0.30673439207E+02  0.13877398948E+02  0.34958342417E+02  0.00000000000E+00 0.  1.
         11    1    3    3    0    0 -0.15537769413E+03 -0.12012603597E+03 -0.12315627000E+03  0.23181880681E+03  0.00000000000E+00 0. -1.
        -13    1    4    4    0    0 -0.72643629474E+01  0.28890465134E+02 -0.17736193722E+03  0.17984628636E+03  0.00000000000E+00 0. -1.
         13    1    4    4    0    0  0.12500043341E+03  0.11015755943E+03 -0.45854152763E+03  0.48787306629E+03  0.00000000000E+00 0.  1.
         21    1    1    2  502  501  0.47056698300E+02  0.11751450606E+02 -0.33800895066E+02  0.59117932588E+02  0.00000000000E+00 0. -1.
<scales pt_clust_5="13000.00000" pt_clust_6="13000.00000" pt_clust_7="13000.00000" pt_clust_8="13000.00000" pt_clust_9="48.50185"></scales>
<clustering>
<clus scale="   48.502">  1  9  2 -1</clus>
<clus scale="   90.993">  7  8 -1 -1</clus>
<clus scale="   96.597">  5  6 -1 -1</clus>
<clus scale="  209.652">  2  7  1 -1</clus>
<clus scale="  209.652">  2  5  1 -1</clus>
</clustering>
</event>
<event>
 9    1  0.1434065E-005  0.1229648E+03  0.7546771E-02  0.1239380E+00
          2   -1    0    0  502    0  0.00000000000E+00  0.00000000000E+00  0.64036813396E+03  0.64036813396E+03  0.00000000000E+00 0. -1.
         -2   -1    0    0    0  501 -0.00000000000E+00 -0.00000000000E+00 -0.63593676830E+02  0.63593676830E+02  0.00000000000E+00 0.  1.
         23    2    1    2    0    0 -0.59035541174E+02  0.38406211382E+02  0.47171517503E+02  0.12237966245E+03  0.88268893295E+02 0.  0.
         23    2    1    2    0    0  0.11922640482E+03 -0.72420031066E+02  0.41986184264E+03  0.45187868515E+03  0.91928138693E+02 0.  0.
        -11    1    3    3    0    0  0.74923957885E+01  0.36631498983E+02 -0.51243633092E+01  0.37739393367E+02  0.00000000000E+00 0.  1.
         11    1    3    3    0    0 -0.66527936963E+02  0.17747123989E+01  0.52295880813E+02  0.84640269084E+02  0.00000000000E+00 0. -1.
        -11    1    4    4    0    0  0.27056262965E+01 -0.45536301612E+02  0.87834173357E+02  0.98973315533E+02  0.00000000000E+00 0. -1.
         11    1    4    4    0    0  0.11652077852E+03 -0.26883729455E+02  0.33202766928E+03  0.35290536962E+03  0.00000000000E+00 0.  1.
         21    1    1    2  502  501 -0.60190863641E+02  0.34013819685E+02  0.10974109698E+03  0.12970346319E+03  0.00000000000E+00 0. -1.
<scales pt_clust_5="13000.00000" pt_clust_6="13000.00000" pt_clust_7="13000.00000" pt_clust_8="13000.00000" pt_clust_9="69.13668"></scales>
<clustering>
<clus scale="   69.137">  1  9  2 -1</clus>
<clus scale="   88.269">  5  6 -1 -1</clus>
<clus scale="   91.928">  7  8 -1 -1</clus>
<clus scale="  120.254">  2  5  1 -1</clus>
<clus scale="   69.137">  1  5  2 -1</clus>
</clustering>
</event>
<event>
 9    1  0.1434065E-005  0.1572645E+03  0.7546771E-02  0.1192583E+00
          1   -1    0    0  502    0  0.00000000000E+00  0.00000000000E+00  0.53699531657E+03  0.53699531657E+03  0.00000000000E+00 0. -1.
         -1   -1    0    0    0  501 -0.00000000000E+00 -0.00000000000E+00 -0.17827868524E+03  0.17827868524E+03  0.00000000000E+00 0.  1.
         23    2    1    2    0    0  0.84224852964E+02 -0.72983206089E+02 -0.61664536197E+02  0.15747586664E+03  0.92605395740E+02 0.  0.
         23    2    1    2    0    0 -0.63888343872E+02  0.11278031944E+03  0.46737250699E+03  0.49294777035E+03  0.88087019847E+02 0.  0.
        -11    1    3    3    0    0  0.66892894976E+01 -0.61424298004E+02 -0.47216773898E+02  0.77763196415E+02  0.00000000000E+00 0.  1.
         11    1    3    3    0    0  0.77535563467E+02 -0.11558908085E+02 -0.14447762299E+02  0.79712670221E+02  0.00000000000E+00 0. -1.
        -11    1    4    4    0    0 -0.76779764010E+01  0.82241223533E+02  0.34629799664E+03  0.35601246136E+03  0.00000000000E+00 0. -1.
         11    1    4    4    0    0 -0.56210367471E+02  0.30539095912E+02  0.12107451035E+03  0.13693530898E+03  0.00000000000E+00 0.  1.
         21    1    1    2  502  501 -0.20336509092E+02 -0.39797113355E+02 -0.46991339460E+02  0.64850364823E+02  0.00000000000E+00 0. -1.
<scales pt_clust_5="13000.00000" pt_clust_6="13000.00000" pt_clust_7="13000.00000" pt_clust_8="13000.00000" pt_clust_9="44.69210"></scales>
<clustering>
<clus scale="   44.692">  2  9  1 -1</clus>
<clus scale="   88.087">  7  8 -1 -1</clus>
<clus scale="   92.605">  5  6 -1 -1</clus>
<clus scale="  154.647">  1  7  2 -1</clus>
<clus scale="  154.647">  1  5  2 -1</clus>
</clustering>
</event>
<event>
 9    1  0.1434065E-005  0.1288040E+03  0.7546771E-02  0.1235803E+00
         -2   -1    0    0    0  501 -0.00000000000E+00  0.00000000000E+00  0.22994956319E+03  0.22994956319E+03  0.00000000000E+00 0.  1.
          2   -1    0    0  502    0  0.00000000000E+00 -0.00000000000E+00 -0.26891189408E+03  0.26891189408E+03  0.00000000000E+00 0. -1.
         23    2    1    2    0    0 -0.42693839824E+02  0.58439951382E+02  0.80726407180E+02  0.15050879941E+03  0.10439422401E+03 0.  0.
         23    2    1    2    0    0  0.79413194956E+02  0.72883807199E+00 -0.20685122821E+03  0.23678852215E+03  0.83512794674E+02 0.  0.
        -11    1    4    4    0    0  0.27920734466E+02 -0.30950540532E+02 -0.34393697175E+02  0.54041000895E+02  0.00000000000E+00 0. -1.
         11    1    4    4    0    0  0.51492460489E+02  0.31679378604E+02 -0.17245753104E+03  0.18274752126E+03  0.00000000000E+00 0.  1.
        -13    1    3    3    0    0  0.22541458136E+02  0.44796599593E+01  0.58687401054E+02  0.63026944482E+02  0.00000000000E+00 0. -1.
         13    1    3    3    0    0 -0.65235297960E+02  0.53960291423E+02  0.22039006126E+02  0.87481854927E+02  0.00000000000E+00 0.  1.
         21    1    1    2  502  501 -0.36719355131E+02 -0.59168789454E+02  0.87162490142E+02  0.11156413570E+03  0.00000000000E+00 0.  1.
<scales pt_clust_5="13000.00000" pt_clust_6="13000.00000" pt_clust_7="13000.00000" pt_clust_8="13000.00000" pt_clust_9="69.63660"></scales>
<clustering>
<clus scale="   69.637">  1  9  2 -1</clus>
<clus scale="   83.513">  5  6 -1 -1</clus>
<clus scale="  104.394">  7  8 -1 -1</clus>
<clus scale="  112.546">  2  5  1 -1</clus>
<clus scale="  112.546">  2  5  1 -1</clus>
</clustering>
</event>
<event>
 9    1  0.1434065E-005  0.1363884E+03  0.7546771E-02  0.1218353E+00
         -2   -1    0    0    0  501 -0.00000000000E+00  0.00000000000E+00  0.71280630740E+02  0.71280630740E+02  0.00000000000E+00 0.  1.
          2   -1    0    0  502    0  0.00000000000E+00 -0.00000000000E+00 -0.64002384186E+03  0.64002384186E+03  0.00000000000E+00 0. -1.
         23    2    1    2    0    0  0.79922450190E+02 -0.46787046066E+02 -0.61343548841E+02  0.14355744927E+03  0.90934506830E+02 0.  0.
         23    2    1    2    0    0 -0.75228012279E+02  0.71934749309E+02 -0.52086836244E+03  0.53883594224E+03  0.90589511902E+02 0.  0.
        -11    1    3    3    0    0  0.77960852485E+02  0.13606338365E+01 -0.21104830394E+02  0.80778460684E+02  0.00000000000E+00 0. -1.
         11    1    3    3    0    0  0.19615977057E+01 -0.48147679902E+02 -0.40238718448E+02  0.62778988586E+02  0.00000000000E+00 0.  1.
        -13    1    4    4    0    0 -0.48281570553E+02 -0.16222092179E+01 -0.10401853140E+03  0.11468912979E+03  0.00000000000E+00 0.  1.
         13    1    4    4    0    0 -0.26946441725E+02  0.73556958527E+02 -0.41684983105E+03  0.42414681245E+03  0.00000000000E+00 0. -1.
         21    1    1    2  502  501 -0.46944379118E+01 -0.25147703243E+02  0.13468700163E+02  0.28911081090E+02  0.00000000000E+00 0. -1.
<scales pt_clust_5="13000.00000" pt_clust_6="13000.00000" pt_clust_7="13000.00000" pt_clust_8="13000.00000" pt_clust_9="25.58212"></scales>
<clustering>
<clus scale="   25.582">  1  9  2 -1</clus>
<clus scale="   90.590">  7  8 -1 -1</clus>
<clus scale="   90.935">  5  6 -1 -1</clus>
<clus scale="  136.159">  2  7  1 -1</clus>
<clus scale="  136.159">  2  5  1 -1</clus>
</clustering>
</event>
<event>
 9    1  0.1434065E-005  0.1503594E+03  0.7546771E-02  0.1200595E+00
          2   -1    0    0  502    0  0.00000000000E+00  0.00000000000E+00  0.62753057508E+03  0.62753057508E+03  0.00000000000E+00 0. -1.
         -2   -1    0    0    0  501 -0.00000000000E+00 -0.00000000000E+00 -0.26520207476E+03  0.26520207476E+03  0.00000000000E+00 0.  1.
         23    2    1    2    0    0 -0.15806508686E+02  0.62003021680E+02 -0.17654499286E+03  0.20961454636E+03  0.93144528168E+02 0.  0.
         23    2    1    2    0    0 -0.50990796522E+02 -0.11027063037E+03  0.57394759791E+03  0.59355340701E+03  0.90167225557E+02 0.  0.
        -13    1    4    4    0    0 -0.25225359500E+02 -0.87583777872E+01  0.32466175369E+02  0.42036656462E+02  0.00000000000E+00 0.  1.
         13    1    4    4    0    0 -0.25765437022E+02 -0.10151225259E+03  0.54148142254E+03  0.55151675054E+03  0.00000000000E+00 0. -1.
        -13    1    3    3    0    0 -0.21941073868E+02 -0.10456128933E+02 -0.72512180722E+01  0.25363783596E+02  0.00000000000E+00 0. -1.
         13    1    3    3    0    0  0.61345651823E+01  0.72459150613E+02 -0.16929377479E+03  0.18425076276E+03  0.00000000000E+00 0.  1.
         21    1    1    2  502  501  0.66797305208E+02  0.48267608693E+02 -0.35074104726E+02  0.89564696473E+02  0.00000000000E+00 0.  1.
<scales pt_clust_5="13000.00000" pt_clust_6="13000.00000" pt_clust_7="13000.00000" pt_clust_8="13000.00000" pt_clust_9="82.41142"></scales>
<clustering>
<clus scale="   82.411">  2  9  1 -1</clus>
<clus scale="   90.167">  5  6 -1 -1</clus>
<clus scale="   93.145">  7  8 -1 -1</clus>
<clus scale="  148.533">  1  5  2 -1</clus>
<clus scale="  148.533">  1  5  2 -1</clus>
</clustering>
</event>
<event>
 9    1  0.1434065E-005  0.1440004E+03  0.7546771E-02  0.1220331E+00
          2   -1    0    0  502    0  0.00000000000E+00  0.00000000000E+00  0.16363494164E+03  0.16363494164E+03  0.00000000000E+00 0. -1.
         -2   -1    0    0    0  501 -0.00000000000E+00 -0.00000000000E+00 -0.48182754013E+03  0.48182754013E+03  0.00000000000E+00 0.  1.
         23    2    1    2    0    0 -0.52837052945E+02 -0.83413136895E+02  0.65397066549E+02  0.14973089443E+03  0.91613639063E+02 0.  0.
         23    2    1    2    0    0  0.55061412957E+02 -0.29873767595E+02 -0.17300272506E+02  0.11231694287E+03  0.91605649609E+02 0.  0.
        -13    1    4    4    0    0  0.25043459687E+02  0.30607593589E+02  0.77487286388E+01  0.40299410094E+02  0.00000000000E+00 0.  1.
         13    1    4    4    0    0  0.30017953270E+02 -0.60481361184E+02 -0.25049001145E+02  0.72017532779E+02  0.00000000000E+00 0. -1.
        -13    1    3    3    0    0 -0.73205528436E+02 -0.84512952082E+02  0.43964595418E+02  0.12014314010E+03  0.00000000000E+00 0.  1.
         13    1    3    3    0    0  0.20368475491E+02  0.10998151872E+01  0.21432471131E+02  0.29587754326E+02  0.00000000000E+00 0. -1.
         21    1    1    2  502  501 -0.22243600120E+01  0.11328690449E+03 -0.36628939254E+03  0.38341464447E+03  0.00000000000E+00 0. -1.
<scales pt_clust_5="13000.00000" pt_clust_6="13000.00000" pt_clust_7="13000.00000" pt_clust_8="13000.00000" pt_clust_9="111.09932"></scales>
<clustering>
<clus scale="   91.606">  5  6 -1 -1</clus>
<clus scale="   91.614">  7  8 -1 -1</clus>
<clus scale="  110.977">  1  5  2 -1</clus>
<clus scale="  111.099">  2  9  1 -1</clus>
<clus scale="  110.977">  1  5  2 -1</clus>
</clustering>
</event>
<event>
 9    1  0.1434065E-005  0.2806805E+03  0.7546771E-02  0.1095455E+00
         -1   -1    0    0    0  501 -0.00000000000E+00  0.00000000000E+00  0.93056773838E+02  0.93056773838E+02  0.00000000000E+00 0.  1.
          1   -1    0    0  502    0  0.00000000000E+00 -0.00000000000E+00 -0.13454516131E+04  0.13454516131E+04  0.00000000000E+00 0. -1.
         23    2    1    2    0    0  0.52010160828E+02  0.23732554888E+03 -0.43865627008E+03  0.50974789568E+03  0.91624892319E+02 0.  0.
         23    2    1    2    0    0 -0.41186007853E+02 -0.27664190656E+03 -0.83290994897E+03  0.88369964266E+03  0.94652224695E+02 0.  0.
        -11    1    4    4    0    0  0.19597050991E+02 -0.13803594809E+03 -0.32306387861E+03  0.35186394677E+03  0.00000000000E+00 0.  1.
         11    1    4    4    0    0 -0.60783058844E+02 -0.13860595847E+03 -0.50984607036E+03  0.53183569589E+03  0.00000000000E+00 0. -1.
        -13    1    3    3    0    0 -0.19597300413E+02  0.60344317585E+02 -0.15846505132E+03  0.17069464941E+03  0.00000000000E+00 0.  1.
         13    1    3    3    0    0  0.71607461241E+02  0.17698123129E+03 -0.28019121875E+03  0.33905324626E+03  0.00000000000E+00 0. -1.
         21    1    1    2  502  501 -0.10824152975E+02  0.39316357683E+02  0.19171379817E+02  0.45060848563E+02  0.00000000000E+00 0.  1.
<scales pt_clust_5="13000.00000" pt_clust_6="13000.00000" pt_clust_7="13000.00000" pt_clust_8="13000.00000" pt_clust_9="40.77914"></scales>
<clustering>
<clus scale="   40.779">  1  9  2 -1</clus>
<clus scale="   91.625">  7  8 -1 -1</clus>
<clus scale="   94.652">  5  6 -1 -1</clus>
<clus scale="  279.674">  1  7  2 -1</clus>
<clus scale="  280.681">  2  5  1 -1</clus>
</clustering>
</event>
<event>
 9    1  0.1434065E-005  0.1112269E+03  0.7546771E-02  0.1262697E+00
          1   -1    0    0  502    0  0.00000000000E+00  0.00000000000E+00  0.22791379858E+03  0.22791379858E+03  0.00000000000E+00 0. -1.
         -1   -1    0    0    0  501 -0.00000000000E+00 -0.00000000000E+00 -0.41572166058E+03  0.41572166058E+03  0.00000000000E+00 0.  1.
         23    2    1    2    0    0 -0.39319525408E+02 -0.57381275656E+00 -0.13726587164E+03  0.16963133862E+03  0.91577929570E+02 0.  0.
         23    2    1    2    0    0  0.35296741589E+02 -0.30241051599E+02  0.19592398800E+03  0.22558669536E+03  0.10169939469E+03 0.  0.
        -13    1    3    3    0    0 -0.55347293486E+02 -0.27644571355E+02 -0.11658326969E+03  0.13198183206E+03  0.00000000000E+00 0. -1.
         13    1    3    3    0    0  0.16027768078E+02  0.27070758598E+02 -0.20682601949E+02  0.37649506558E+02  0.00000000000E+00 0.  1.
        -13    1    4    4    0    0  0.57112894948E+02 -0.51485130645E+02  0.10829148042E+03  0.13281432971E+03  0.00000000000E+00 0. -1.
         13    1    4    4    0    0 -0.21816153359E+02  0.21244079046E+02  0.87632507580E+02  0.92772365641E+02  0.00000000000E+00 0.  1.
         21    1    1    2  502  501  0.40227838187E+01  0.30814864356E+02 -0.24646597835E+03  0.24841742519E+03  0.00000000000E+00 0.  1.
<scales pt_clust_5="13000.00000" pt_clust_6="13000.00000" pt_clust_7="13000.00000" pt_clust_8="13000.00000" pt_clust_9="31.07634"></scales>
<clustering>
<clus scale="   31.076">  2  9  1 -1</clus>
<clus scale="   91.578">  5  6 -1 -1</clus>
<clus scale="  101.699">  7  8 -1 -1</clus>
<clus scale="  102.055">  2  5  1 -1</clus>
<clus scale="  111.227">  1  5  2 -1</clus>
</clustering>
</event>
<event>
 9    1  0.1434065E-005  0.9569171E+02  0.7546771E-02  0.1289814E+00
          1   -1    0    0  502    0  0.00000000000E+00  0.00000000000E+00  0.32041746517E+03  0.32041746517E+03  0.00000000000E+00 0. -1.
         -1   -1    0    0    0  501 -0.00000000000E+00 -0.00000000000E+00 -0.52116937805E+02  0.52116937805E+02  0.00000000000E+00 0.  1.
         23    2    1    2    0    0  0.49087529425E+01 -0.31398387933E+01  0.32179696133E+02  0.97142150405E+02  0.91471908797E+02 0.  0.
         23    2    1    2    0    0 -0.32514776266E+02  0.13380816018E+02  0.22241507325E+03  0.24291429173E+03  0.91118776365E+02 0.  0.
        -13    1    4    4    0    0 -0.21637923080E+02 -0.36854965223E+02  0.69469579570E+02  0.81562924558E+02  0.00000000000E+00 0.  1.
         13    1    4    4    0    0 -0.10876853186E+02  0.50235781241E+02  0.15294549368E+03  0.16135136717E+03  0.00000000000E+00 0. -1.
        -13    1    3    3    0    0 -0.60271920491E+01  0.28605785556E+02  0.50901355947E+02  0.58698944186E+02  0.00000000000E+00 0. -1.
         13    1    3    3    0    0  0.10935944992E+02 -0.31745624350E+02 -0.18721659814E+02  0.38443206219E+02  0.00000000000E+00 0.  1.
         21    1    1    2  502  501  0.27606023323E+02 -0.10240977225E+02  0.13705757982E+02  0.32477960837E+02  0.00000000000E+00 0.  1.
<scales pt_clust_5="13000.00000" pt_clust_6="13000.00000" pt_clust_7="13000.00000" pt_clust_8="13000.00000" pt_clust_9="29.44436"></scales>
<clustering>
<clus scale="   29.444">  2  9  1 -1</clus>
<clus scale="   91.119">  5  6 -1 -1</clus>
<clus scale="   91.472">  7  8 -1 -1</clus>
<clus scale="   95.354">  1  5  2 -1</clus>
<clus scale="   95.354">  1  5  2 -1</clus>
</clustering>
</event>
<event>
 9    1  0.1434065E-005  0.1173971E+03  0.7546771E-02  0.1248419E+00
          2   -1    0    0  502    0  0.00000000000E+00  0.00000000000E+00  0.14304543362E+03  0.14304543362E+03  0.00000000000E+00 0. -1.
         -2   -1    0    0    0  501 -0.00000000000E+00 -0.00000000000E+00 -0.14713412092E+03  0.14713412092E+03  0.00000000000E+00 0.  1.
         23    2    1    2    0    0 -0.94457260128E+01 -0.98473342653E+02 -0.29077622602E+01  0.13325692543E+03  0.89234142231E+02 0.  0.
         23    2    1    2    0    0  0.18645233319E+01  0.55364849247E+02  0.18253064194E+02  0.10903216267E+03  0.92120004152E+02 0.  0.
        -11    1    3    3    0    0  0.17482086183E+02 -0.37879895467E+02 -0.39560202942E+02  0.57493647255E+02  0.00000000000E+00 0.  1.
         11    1    3    3    0    0 -0.26927812195E+02 -0.60593447185E+02  0.36652440681E+02  0.75763278172E+02  0.00000000000E+00 0. -1.
        -13    1    4    4    0    0  0.34930095412E+02 -0.70019113761E+01  0.14120368645E+02  0.38321314423E+02  0.00000000000E+00 0.  1.
         13    1    4    4    0    0 -0.33065572080E+02  0.62366760623E+02  0.41326955494E+01  0.70710848249E+02  0.00000000000E+00 0. -1.
         21    1    1    2  502  501  0.75812026809E+01  0.43108493405E+02 -0.19433989236E+02  0.47890466435E+02  0.00000000000E+00 0. -1.
<scales pt_clust_5="13000.00000" pt_clust_6="13000.00000" pt_clust_7="13000.00000" pt_clust_8="13000.00000" pt_clust_9="43.77004"></scales>
<clustering>
<clus scale="   43.770">  2  9  1 -1</clus>
<clus scale="   89.234">  5  6 -1 -1</clus>
<clus scale="   92.120">  7  8 -1 -1</clus>
<clus scale="  115.146">  2  5  1 -1</clus>
<clus scale="  117.397">  1  5  2 -1</clus>
</clustering>
</event>
<event>
 9    1  0.1434065E-005  0.9812300E+02  0.7546771E-02  0.1285618E+00
         -3   -1    0    0    0  501 -0.00000000000E+00  0.00000000000E+00  0.21962731698E+03  0.21962731698E+03  0.00000000000E+00 0.  1.
          3   -1    0    0  502    0  0.00000000000E+00 -0.00000000000E+00 -0.62204207137E+02  0.62204207137E+02  0.00000000000E+00 0. -1.
         23    2    1    2    0    0 -0.23789212922E+02 -0.98879800446E+01  0.72919083320E+02  0.11945170764E+03  0.91037459017E+02 0.  0.
         23    2    1    2    0    0  0.79642828064E+01  0.41837091805E+02  0.66390999394E+02  0.12238911872E+03  0.93581833330E+02 0.  0.
        -11    1    4    4    0    0 -0.27456654035E+02 -0.13714137295E+02  0.42253504435E+02  0.52223596674E+02  0.00000000000E+00 0.  1.
         11    1    4    4    0    0  0.35420936841E+02  0.55551229100E+02  0.24137494960E+02  0.70165522048E+02  0.00000000000E+00 0. -1.
        -11    1    3    3    0    0 -0.49685768891E+02  0.15430475989E+02  0.63381854403E+02  0.82000211506E+02  0.00000000000E+00 0.  1.
         11    1    3    3    0    0  0.25896555969E+02 -0.25318456033E+02  0.95372289176E+01  0.37451496130E+02  0.00000000000E+00 0. -1.
         21    1    1    2  502  501  0.15824930116E+02 -0.31949111761E+02  0.18113027127E+02  0.39990697758E+02  0.00000000000E+00 0.  1.
<scales pt_clust_5="13000.00000" pt_clust_6="13000.00000" pt_clust_7="13000.00000" pt_clust_8="13000.00000" pt_clust_9="35.65353"></scales>
<clustering>
<clus scale="   35.654">  2  9  1 -1</clus>
<clus scale="   91.037">  7  8 -1 -1</clus>
<clus scale="   93.582">  5  6 -1 -1</clus>
<clus scale="   95.699">  1  7  2 -1</clus>
<clus scale="   35.654">  2  5  1 -1</clus>
</clustering>
</event>
<event>
 9    1  0.1434065E-005  0.1198719E+03  0.7546771E-02  0.1252200E+00
         -4   -1    0    0    0  501 -0.00000000000E+00  0.00000000000E+00  0.44287452766E+03  0.44287452766E+03  0.00000000000E+00 0.  1.
          4   -1    0    0  502    0  0.00000000000E+00 -0.00000000000E+00 -0.35557359236E+02  0.35557359236E+02  0.00000000000E+00 0. -1.
         23    2    1    2    0    0 -0.19189736243E+02  0.24294598335E+02  0.18754084602E+03  0.22131334461E+03  0.11335587365E+03 0.  0.
         23    2    1    2    0    0  0.67028321611E+01 -0.47296648331E+02  0.14954247141E+03  0.18216648492E+03  0.92410911536E+02 0.  0.
        -11    1    3    3    0    0 -0.51687861076E+02 -0.44034400427E+01  0.34622814441E+02  0.62367976932E+02  0.00000000000E+00 0. -1.
         11    1    3    3    0    0  0.32498124833E+02  0.28698038378E+02  0.15291803158E+03  0.15894536768E+03  0.00000000000E+00 0.  1.
        -13    1    4    4    0    0 -0.29774577595E+01  0.27432687166E+02  0.29171043415E+02  0.40154294338E+02  0.00000000000E+00 0. -1.
         13    1    4    4    0    0  0.96802899206E+01 -0.74729335497E+02  0.12037142799E+03  0.14201219058E+03  0.00000000000E+00 0.  1.
         21    1    1    2  502  501  0.12486904082E+02  0.23002049996E+02  0.70233850988E+02  0.74952057358E+02  0.00000000000E+00 0.  1.
<scales pt_clust_5="13000.00000" pt_clust_6="13000.00000" pt_clust_7="13000.00000" pt_clust_8="13000.00000" pt_clust_9="26.17283"></scales>
<clustering>
<clus scale="   26.173">  1  9  2 -1</clus>
<clus scale="   92.411">  7  8 -1 -1</clus>
<clus scale="  100.297">  2  7  1 -1</clus>
<clus scale="  113.356">  5  6 -1 -1</clus>
<clus scale="  100.297">  2  5  1 -1</clus>
</clustering>
</event>
<event>
 9    1  0.1434065E-005  0.1722781E+03  0.7546771E-02  0.1197957E+00
          2   -1    0    0  502    0  0.00000000000E+00  0.00000000000E+00  0.53983323049E+03  0.53983323049E+03  0.00000000000E+00 0. -1.
         -2   -1    0    0    0  501 -0.00000000000E+00 -0.00000000000E+00 -0.12515025995E+03  0.12515025995E+03  0.00000000000E+00 0.  1.
         23    2    1    2    0    0  0.16107211774E+03  0.25313146299E+02  0.32248722336E+03  0.37273464582E+03  0.91368071423E+02 0.  0.
         23    2    1    2    0    0 -0.31273939271E+02  0.36800500512E+02  0.10448493142E+03  0.14783036830E+03  0.92759801547E+02 0.  0.
        -11    1    3    3    0    0  0.57004751797E+02 -0.96423701585E+00  0.37590871865E+02  0.68290153961E+02  0.00000000000E+00 0.  1.
         11    1    3    3    0    0  0.10406736594E+03  0.26277383315E+02  0.28489635149E+03  0.30444449186E+03  0.00000000000E+00 0. -1.
        -13    1    4    4    0    0 -0.64414426523E+02  0.22660051773E+02  0.73303483503E+02  0.10018032234E+03  0.00000000000E+00 0.  1.
         13    1    4    4    0    0  0.33140487253E+02  0.14140448739E+02  0.31181447918E+02  0.47650045961E+02  0.00000000000E+00 0. -1.
         21    1    1    2  502  501 -0.12979817847E+03 -0.62113646811E+02 -0.12289184235E+02  0.14441847632E+03  0.00000000000E+00 0.  1.
<scales pt_clust_5="13000.00000" pt_clust_6="13000.00000" pt_clust_7="13000.00000" pt_clust_8="13000.00000" pt_clust_9="146.05347"></scales>
<clustering>
<clus scale="   91.368">  5  6 -1 -1</clus>
<clus scale="   92.760">  7  8 -1 -1</clus>
<clus scale="  104.579">  1  7  2 -1</clus>
<clus scale="  146.053">  2  9  1 -1</clus>
<clus scale="  104.579">  1  5  2 -1</clus>
</clustering>
</event>
<event>
 9    1  0.1434065E-005  0.1208627E+03  0.7546771E-02  0.1242468E+00
         -1   -1    0    0    0  501 -0.00000000000E+00  0.00000000000E+00  0.27834997987E+03  0.27834997987E+03  0.00000000000E+00 0.  1.
          1   -1    0    0  502    0  0.00000000000E+00 -0.00000000000E+00 -0.16243895543E+03  0.16243895543E+03  0.00000000000E+00 0. -1.
         23    2    1    2    0    0  0.52239969068E+02 -0.81133972152E+02  0.18535866761E+03  0.22901286684E+03  0.93687361564E+02 0.  0.
         23    2    1    2    0    0 -0.31876321412E+02  0.62813398207E+02 -0.11044786822E+03  0.16246744822E+03  0.96100558140E+02 0.  0.
        -11    1    3    3    0    0 -0.24818406262E+02 -0.25939394894E+02  0.28922677730E+02  0.46101266619E+02  0.00000000000E+00 0. -1.
         11    1    3    3    0    0  0.77058375330E+02 -0.55194577257E+02  0.15643598988E+03  0.18291160022E+03  0.00000000000E+00 0.  1.
        -11    1    4    4    0    0 -0.20630874530E+01 -0.23819384777E+02 -0.84375637986E+01  0.25353735501E+02  0.00000000000E+00 0.  1.
         11    1    4    4    0    0 -0.29813233959E+02  0.86632782984E+02 -0.10201030442E+03  0.13711371272E+03  0.00000000000E+00 0. -1.
         21    1    1    2  502  501 -0.20363647656E+02  0.18320573945E+02  0.41000225050E+02  0.49308620237E+02  0.00000000000E+00 0. -1.
<scales pt_clust_5="13000.00000" pt_clust_6="13000.00000" pt_clust_7="13000.00000" pt_clust_8="13000.00000" pt_clust_9="27.39200"></scales>
<clustering>
<clus scale="   27.392">  1  9  2 -1</clus>
<clus scale="   93.687">  5  6 -1 -1</clus>
<clus scale="   96.101">  7  8 -1 -1</clus>
<clus scale="  118.953">  1  5  2 -1</clus>
<clus scale="  120.863">  2  5  1 -1</clus>
</clustering>
</event>
<event>
 9    1  0.1434065E-005  0.9236978E+02  0.7546771E-02  0.1297350E+00
          1   -1    0    0  502    0  0.00000000000E+00  0.00000000000E+00  0.16611231278E+03  0.16611231278E+03  0.00000000000E+00 0. -1.
         -1   -1    0    0    0  501 -0.00000000000E+00 -0.00000000000E+00 -0.20696090361E+03  0.20696090361E+03  0.00000000000E+00 0.  1.
         23    2    1    2    0    0  0.35136854586E+02 -0.23485928819E+02 -0.36811533658E+02  0.10679638132E+03  0.90907594015E+02 0.  0.
         23    2    1    2    0    0  0.29359235710E+02 -0.16492395791E+01  0.10202627469E+03  0.13962395228E+03  0.90668641824E+02 0.  0.
        -11    1    3    3    0    0  0.11386378864E+02 -0.20516498907E+02 -0.65417001936E+02  0.69497917187E+02  0.00000000000E+00 0.  1.
         11    1    3    3    0    0  0.23750475722E+02 -0.29694299118E+01  0.28605468279E+02  0.37298464130E+02  0.00000000000E+00 0. -1.
        -11    1    4    4    0    0  0.11393595370E+02  0.21116473403E+02  0.10747068176E+03  0.11011660593E+03  0.00000000000E+00 0. -1.
         11    1    4    4    0    0  0.17965640340E+02 -0.22765712982E+02 -0.54444070626E+01  0.29507346351E+02  0.00000000000E+00 0.  1.
         21    1    1    2  502  501 -0.64496090296E+02  0.25135168398E+02 -0.10606333186E+03  0.12665288279E+03  0.00000000000E+00 0.  1.
<scales pt_clust_5="13000.00000" pt_clust_6="13000.00000" pt_clust_7="13000.00000" pt_clust_8="13000.00000" pt_clust_9="69.22082"></scales>
<clustering>
<clus scale="   69.221">  2  9  1 -1</clus>
<clus scale="   90.669">  7  8 -1 -1</clus>
<clus scale="   90.908">  5  6 -1 -1</clus>
<clus scale="   92.135">  1  7  2 -1</clus>
<clus scale="   92.135">  1  5  2 -1</clus>
</clustering>
</event>
<event>
 9    1  0.1434065E-005  0.1340184E+03  0.7546771E-02  0.1221814E+00
         -1   -1    0    0    0  501 -0.00000000000E+00  0.00000000000E+00  0.29649179960E+03  0.29649179960E+03  0.00000000000E+00 0.  1.
          1   -1    0    0  502    0  0.00000000000E+00 -0.00000000000E+00 -0.12542324601E+03  0.12542324601E+03  0.00000000000E+00 0. -1.
         23    2    1    2    0    0  0.85668157411E+02 -0.27845516755E+02  0.15056905520E+03  0.19777818010E+03  0.91273008834E+02 0.  0.
         23    2    1    2    0    0 -0.99798726685E+02  0.54677121095E+01 -0.53105951326E+02  0.14591793330E+03  0.92098422722E+02 0.  0.
        -11    1    4    4    0    0 -0.54902111316E+02  0.48842851603E+02 -0.28537467431E+02  0.78830533596E+02  0.00000000000E+00 0.  1.
         11    1    4    4    0    0 -0.44896615370E+02 -0.43375139494E+02 -0.24568483895E+02  0.67087399701E+02  0.00000000000E+00 0. -1.
        -11    1    3    3    0    0  0.82060078704E+01  0.30161915039E+02  0.32064966247E+02  0.44779925685E+02  0.00000000000E+00 0.  1.
         11    1    3    3    0    0  0.77462149540E+02 -0.58007431794E+02  0.11850408895E+03  0.15299825441E+03  0.00000000000E+00 0. -1.
         21    1    1    2  502  501  0.14130569274E+02  0.22377804646E+02  0.73605449717E+02  0.78218932215E+02  0.00000000000E+00 0.  1.
<scales pt_clust_5="13000.00000" pt_clust_6="13000.00000" pt_clust_7="13000.00000" pt_clust_8="13000.00000" pt_clust_9="26.46581"></scales>
<clustering>
<clus scale="   26.466">  1  9  2 -1</clus>
<clus scale="   91.273">  7  8 -1 -1</clus>
<clus scale="   92.098">  5  6 -1 -1</clus>
<clus scale="  133.452">  1  7  2 -1</clus>
<clus scale="  134.018">  2  5  1 -1</clus>
</clustering>
</event>
<event>
 9    1  0.1434065E-005  0.2119301E+03  0.7546771E-02  0.1140257E+00
          2   -1    0    0  502    0  0.00000000000E+00  0.00000000000E+00  0.30498306966E+03  0.30498306966E+03  0.00000000000E+00 0. -1.
         -2   -1    0    0    0  501 -0.00000000000E+00 -0.00000000000E+00 -0.18894849155E+03  0.18894849155E+03  0.00000000000E+00 0.  1.
         23    2    1    2    0    0  0.14757171714E+03 -0.14826857282E+03  0.58955778652E+02  0.23572445535E+03  0.91264744739E+02 0.  0.
         23    2    1    2    0    0 -0.14622207045E+03  0.97373327080E+02  0.57658979736E+02  0.20729066260E+03  0.93714471356E+02 0.  0.
        -11    1    4    4    0    0 -0.73407289520E+02  0.45564820516E+02  0.77142470855E+02  0.11582635207E+03  0.00000000000E+00 0. -1.
         11    1    4    4    0    0 -0.72814780934E+02  0.51808506564E+02 -0.19483491119E+02  0.91464310532E+02  0.00000000000E+00 0.  1.
        -13    1    3    3    0    0  0.82664866639E+02 -0.14025910572E+03  0.43689374818E+02  0.16856707385E+03  0.00000000000E+00 0.  1.
         13    1    3    3    0    0  0.64906850497E+02 -0.80094670949E+01  0.15266403833E+02  0.67157381504E+02  0.00000000000E+00 0. -1.
         21    1    1    2  502  501 -0.13496466818E+01  0.50895245737E+02 -0.58018028362E+00  0.50916443257E+02  0.00000000000E+00 0.  1.
<scales pt_clust_5="13000.00000" pt_clust_6="13000.00000" pt_clust_7="13000.00000" pt_clust_8="13000.00000" pt_clust_9="50.91314"></scales>
<clustering>
<clus scale="   50.913">  2  9  1 -1</clus>
<clus scale="   91.265">  7  8 -1 -1</clus>
<clus scale="   93.714">  5  6 -1 -1</clus>
<clus scale="  210.858">  2  7  1 -1</clus>
<clus scale="  211.930">  1  5  2 -1</clus>
</clustering>
</event>
<event>
 9    1  0.1434065E-005  0.9783328E+02  0.7546771E-02  0.1286127E+00
          1   -1    0    0  502    0  0.00000000000E+00  0.00000000000E+00  0.50336570816E+03  0.50336570816E+03  0.00000000000E+00 0. -1.
         -1   -1    0    0    0  501 -0.00000000000E+00 -0.00000000000E+00 -0.36791538495E+02  0.36791538495E+02  0.00000000000E+00 0.  1.
         23    2    1    2    0    0 -0.63598164729E+01 -0.17274699886E+01  0.15844687545E+03  0.18256324703E+03  0.90446091187E+02 0.  0.
         23    2    1    2    0    0 -0.73995393902E+01  0.57945916777E+02  0.26053370330E+03  0.28266080585E+03  0.92773046467E+02 0.  0.
        -11    1    3    3    0    0 -0.25004855008E+01 -0.45717651844E+02  0.92274349665E+02  0.10300927979E+03  0.00000000000E+00 0. -1.
         11    1    3    3    0    0 -0.38593309721E+01  0.43990181855E+02  0.66172525781E+02  0.79553967239E+02  0.00000000000E+00 0.  1.
        -11    1    4    4    0    0 -0.47657697222E+02  0.17836716542E+02  0.97047322065E+02  0.10957913707E+03  0.00000000000E+00 0.  1.
         11    1    4    4    0    0  0.40258157832E+02  0.40109200235E+02  0.16348638124E+03  0.17308166877E+03  0.00000000000E+00 0. -1.
         21    1    1    2  502  501  0.13759355863E+02 -0.56218446788E+02  0.47593590919E+02  0.74933193777E+02  0.00000000000E+00 0. -1.
<scales pt_clust_5="13000.00000" pt_clust_6="13000.00000" pt_clust_7="13000.00000" pt_clust_8="13000.00000" pt_clust_9="57.87775"></scales>
<clustering>
<clus scale="   57.878">  2  9  1 -1</clus>
<clus scale="   90.446">  5  6 -1 -1</clus>
<clus scale="   92.773">  7  8 -1 -1</clus>
<clus scale="   95.630">  2  5  1 -1</clus>
<clus scale="   97.833">  1  5  2 -1</clus>
</clustering>
</event>
<event>
 9    1  0.1434065E-005  0.1091626E+03  0.7546771E-02  0.1265465E+00
         -1   -1    0    0    0  501 -0.00000000000E+00  0.00000000000E+00  0.37305500390E+02  0.37305500390E+02  0.00000000000E+00 0.  1.
          1   -1    0    0  502    0  0.00000000000E+00 -0.00000000000E+00 -0.44913897248E+03  0.44913897248E+03  0.00000000000E+00 0. -1.
         23    2    1    2    0    0  0.55236812565E+02 -0.19661137307E+02 -0.15088021995E+03  0.18590824962E+03  0.91429594339E+02 0.  0.
         23    2    1    2    0    0 -0.39546616469E+02 -0.74912256749E+01 -0.24020483095E+03  0.26293396201E+03  0.99074992955E+02 0.  0.
        -13    1    3    3    0    0 -0.13480745503E+02  0.18364512628E+02 -0.10571414016E+02  0.25114549920E+02  0.00000000000E+00 0.  1.
         13    1    3    3    0    0  0.68717558068E+02 -0.38025649935E+02 -0.14030880593E+03  0.16079369970E+03  0.00000000000E+00 0. -1.
        -13    1    4    4    0    0  0.99337986196E+01  0.36902537244E+02 -0.11488079548E+03  0.12107053638E+03  0.00000000000E+00 0. -1.
         13    1    4    4    0    0 -0.49480415088E+02 -0.44393762919E+02 -0.12532403548E+03  0.14186342563E+03  0.00000000000E+00 0.  1.
         21    1    1    2  502  501 -0.15690196097E+02  0.27152362982E+02 -0.20748421195E+02  0.37602261250E+02  0.00000000000E+00 0.  1.
<scales pt_clust_5="13000.00000" pt_clust_6="13000.00000" pt_clust_7="13000.00000" pt_clust_8="13000.00000" pt_clust_9="31.35974"></scales>
<clustering>
<clus scale="   31.360">  1  9  2 -1</clus>
<clus scale="   91.430">  5  6 -1 -1</clus>
<clus scale="   99.075">  7  8 -1 -1</clus>
<clus scale="  102.274">  1  5  2 -1</clus>
<clus scale="  109.163">  2  5  1 -1</clus>
</clustering>
</event>
<event>
 9    1  0.1434065E-005  0.1272216E+03  0.7546771E-02  0.1239238E+00
         -1   -1    0    0    0  501 -0.00000000000E+00  0.00000000000E+00  0.45267933645E+03  0.45267933645E+03  0.00000000000E+00 0.  1.
          1   -1    0    0  502    0  0.00000000000E+00 -0.00000000000E+00 -0.63065542562E+02  0.63065542562E+02  0.00000000000E+00 0. -1.
         23    2    1    2    0    0  0.35776366788E+02 -0.40088972980E+01  0.32158437060E+03  0.34297842563E+03  0.11367353848E+03 0.  0.
         23    2    1    2    0    0 -0.57887046642E+02 -0.22453417820E+02  0.19559229670E+02  0.11328119509E+03  0.92709220446E+02 0.  0.
        -11    1    3    3    0    0  0.58726623401E+02 -0.34657807452E+02  0.27151215228E+03  0.27994433152E+03  0.00000000000E+00 0.  1.
         11    1    3    3    0    0 -0.22950256613E+02  0.30648910154E+02  0.50072218323E+02  0.63034094108E+02  0.00000000000E+00 0. -1.
        -13    1    4    4    0    0 -0.14543252191E+02 -0.15936176148E+02  0.53603193068E+02  0.57782092395E+02  0.00000000000E+00 0.  1.
         13    1    4    4    0    0 -0.43343794451E+02 -0.65172416716E+01 -0.34043963398E+02  0.55499102698E+02  0.00000000000E+00 0. -1.
         21    1    1    2  502  501  0.22110679854E+02  0.26462315118E+02  0.48470193618E+02  0.59485258294E+02  0.00000000000E+00 0.  1.
<scales pt_clust_5="13000.00000" pt_clust_6="13000.00000" pt_clust_7="13000.00000" pt_clust_8="13000.00000" pt_clust_9="34.48386"></scales>
<clustering>
<clus scale="   34.484">  1  9  2 -1</clus>
<clus scale="   92.709">  7  8 -1 -1</clus>
<clus scale="  108.897">  2  7  1 -1</clus>
<clus scale="  113.674">  5  6 -1 -1</clus>
<clus scale="  108.897">  2  5  1 -1</clus>
</clustering>
</event>
<event>
 9    1  0.1434065E-005  0.9575982E+02  0.7546771E-02  0.1293612E+00
         -2   -1    0    0    0  501 -0.00000000000E+00  0.00000000000E+00  0.27776002909E+03  0.27776002909E+03  0.00000000000E+00 0.  1.
          2   -1    0    0  502    0  0.00000000000E+00 -0.00000000000E+00 -0.44180013771E+02  0.44180013771E+02  0.00000000000E+00 0. -1.
         23    2    1    2    0    0  0.16526163047E+02  0.20520717098E+02  0.14619058076E+03  0.17114110393E+03  0.84990456259E+02 0.  0.
         23    2    1    2    0    0  0.51550565804E+01 -0.27412254141E+02  0.54597312186E+02  0.11088788962E+03  0.92397247154E+02 0.  0.
        -11    1    4    4    0    0  0.25145696861E+01  0.33638012523E+02  0.29556391290E+02  0.44848848517E+02  0.00000000000E+00 0.  1.
         11    1    4    4    0    0  0.26404868943E+01 -0.61050266664E+02  0.25040920897E+02  0.66039041106E+02  0.00000000000E+00 0. -1.
        -11    1    3    3    0    0 -0.23736953362E+02 -0.36953970767E+01  0.82206770375E+01  0.25390518810E+02  0.00000000000E+00 0. -1.
         11    1    3    3    0    0  0.40263116409E+02  0.24216114175E+02  0.13796990372E+03  0.14575058512E+03  0.00000000000E+00 0.  1.
         21    1    1    2  502  501 -0.21681219627E+02  0.68915370430E+01  0.32792122369E+02  0.39911049307E+02  0.00000000000E+00 0. -1.
<scales pt_clust_5="13000.00000" pt_clust_6="13000.00000" pt_clust_7="13000.00000" pt_clust_8="13000.00000" pt_clust_9="22.75013"></scales>
<clustering>
<clus scale="   22.750">  1  9  2 -1</clus>
<clus scale="   84.990">  7  8 -1 -1</clus>
<clus scale="   88.634">  1  7  2 -1</clus>
<clus scale="   92.397">  5  6 -1 -1</clus>
<clus scale="   95.760">  2  5  1 -1</clus>
</clustering>
</event>
<event>
 9    1  0.1434065E-005  0.1127592E+03  0.7546771E-02  0.1255859E+00
          1   -1    0    0  502    0  0.00000000000E+00  0.00000000000E+00  0.56227574622E+03  0.56227574622E+03  0.00000000000E+00 0. -1.
         -1   -1    0    0    0  501 -0.00000000000E+00 -0.00000000000E+00 -0.38853406278E+02  0.38853406278E+02  0.00000000000E+00 0.  1.
         23    2    1    2    0    0  0.30748923236E+02  0.50144781143E+02  0.82670614968E+02  0.13598026180E+03  0.90532898243E+02 0.  0.
         23    2    1    2    0    0 -0.52292625932E+02 -0.46802751680E+02  0.41959822376E+03  0.43477174632E+03  0.89659275740E+02 0.  0.
        -11    1    3    3    0    0  0.12062251505E+02 -0.25179214690E+02  0.35494283742E+02  0.45158996248E+02  0.00000000000E+00 0. -1.
         11    1    3    3    0    0  0.18686671731E+02  0.75323995833E+02  0.47176331226E+02  0.90821265552E+02  0.00000000000E+00 0.  1.
        -11    1    4    4    0    0 -0.19868514725E+02  0.25794235445E+02  0.89663085397E+02  0.95391662857E+02  0.00000000000E+00 0.  1.
         11    1    4    4    0    0 -0.32424111207E+02 -0.72596987124E+02  0.32993513836E+03  0.33938008346E+03  0.00000000000E+00 0. -1.
         21    1    1    2  502  501  0.21543702696E+02 -0.33420294630E+01  0.21153501220E+02  0.30377144379E+02  0.00000000000E+00 0. -1.
<scales pt_clust_5="13000.00000" pt_clust_6="13000.00000" pt_clust_7="13000.00000" pt_clust_8="13000.00000" pt_clust_9="21.80138"></scales>
<clustering>
<clus scale="   21.801">  2  9  1 -1</clus>
<clus scale="   89.659">  7  8 -1 -1</clus>
<clus scale="   90.533">  5  6 -1 -1</clus>
<clus scale="  112.059">  1  7  2 -1</clus>
<clus scale="  112.059">  1  5  2 -1</clus>
</clustering>
</event>
<event>
 9    1  0.1434065E-005  0.3868308E+03  0.7546771E-02  0.1048520E+00
         -1   -1    0    0    0  501 -0.00000000000E+00  0.00000000000E+00  0.54965455670E+03  0.54965455670E+03  0.00000000000E+00 0.  1.
          1   -1    0    0  502    0  0.00000000000E+00 -0.00000000000E+00 -0.39375696612E+03  0.39375696612E+03  0.00000000000E+00 0. -1.
         23    2    1    2    0    0  0.32799617320E+03 -0.14172487480E+03  0.22691387206E+03  0.43298330100E+03  0.91198705242E+02 0.  0.
         23    2    1    2    0    0 -0.36836057720E+03  0.10996957594E+03 -0.14529089430E+03  0.42012649302E+03  0.87258258641E+02 0.  0.
        -11    1    4    4    0    0 -0.33881361226E+03  0.73716938224E+02 -0.13591962419E+03  0.37242851002E+03  0.00000000000E+00 0. -1.
         11    1    4    4    0    0 -0.29546964940E+02  0.36252637721E+02 -0.93712701064E+01  0.47697983000E+02  0.00000000000E+00 0.  1.
        -13    1    3    3    0    0  0.21997347178E+03 -0.56968018416E+02  0.17250066326E+03  0.28528961115E+03  0.00000000000E+00 0.  1.
         13    1    3    3    0    0  0.10802270143E+03 -0.84756856389E+02  0.54413208799E+02  0.14769368985E+03  0.00000000000E+00 0. -1.
         21    1    1    2  502  501  0.40364403999E+02  0.31755298860E+02  0.74274612819E+02  0.90301728806E+02  0.00000000000E+00 0.  1.
<scales pt_clust_5="13000.00000" pt_clust_6="13000.00000" pt_clust_7="13000.00000" pt_clust_8="13000.00000" pt_clust_9="51.35839"></scales>
<clustering>
<clus scale="   51.358">  1  9  2 -1</clus>
<clus scale="   87.258">  5  6 -1 -1</clus>
<clus scale="   91.199">  7  8 -1 -1</clus>
<clus scale="  385.921">  2  5  1 -1</clus>
<clus scale="  385.921">  2  5  1 -1</clus>
</clustering>
</event>
<event>
 9    1  0.1434065E-005  0.9487100E+02  0.7546771E-02  0.1292956E+00
         -3   -1    0    0    0  501 -0.00000000000E+00  0.00000000000E+00  0.29364641151E+03  0.29364641151E+03  0.00000000000E+00 0.  1.
          3   -1    0    0  502    0  0.00000000000E+00 -0.00000000000E+00 -0.49080318845E+02  0.49080318845E+02  0.00000000000E+00 0. -1.
         23    2    1    2    0    0 -0.12106016033E+01 -0.74207613116E+01  0.14070919727E+03  0.16863110108E+03  0.92632806282E+02 0.  0.
         23    2    1    2    0    0  0.24874683804E+02  0.11462141878E+02  0.33626473746E+02  0.99875459052E+02  0.89967977600E+02 0.  0.
        -11    1    3    3    0    0 -0.12022268829E+02 -0.46638649250E+02  0.10043639768E+03  0.11138747026E+03  0.00000000000E+00 0.  1.
         11    1    3    3    0    0  0.10811667225E+02  0.39217887938E+02  0.40272799590E+02  0.57243630819E+02  0.00000000000E+00 0. -1.
        -11    1    4    4    0    0  0.18249497722E+02 -0.19849303061E+02  0.55093623533E+02  0.61337968283E+02  0.00000000000E+00 0.  1.
         11    1    4    4    0    0  0.66251860818E+01  0.31311444939E+02 -0.21467149787E+02  0.38537490769E+02  0.00000000000E+00 0. -1.
         21    1    1    2  502  501 -0.23664082201E+02 -0.40413805667E+01  0.70230421653E+02  0.74220170230E+02  0.00000000000E+00 0.  1.
<scales pt_clust_5="13000.00000" pt_clust_6="13000.00000" pt_clust_7="13000.00000" pt_clust_8="13000.00000" pt_clust_9="24.00670"></scales>
<clustering>
<clus scale="   24.007">  1  9  2 -1</clus>
<clus scale="   89.968">  7  8 -1 -1</clus>
<clus scale="   92.271">  2  7  1 -1</clus>
<clus scale="   92.633">  5  6 -1 -1</clus>
<clus scale="   92.271">  2  5  1 -1</clus>
</clustering>
</event>
<event>
 9    1  0.1434065E-005  0.1002390E+03  0.7546771E-02  0.1284152E+00
          1   -1    0    0  502    0  0.00000000000E+00  0.00000000000E+00  0.65781044390E+03  0.65781044390E+03  0.00000000000E+00 0. -1.
         -1   -1    0    0    0  501 -0.00000000000E+00 -0.00000000000E+00 -0.49272171484E+02  0.49272171484E+02  0.00000000000E+00 0.  1.
         23    2    1    2    0    0 -0.58154234939E+02 -0.17073432766E+02  0.24445116550E+03  0.26489680351E+03  0.82100712849E+02 0.  0.
         23    2    1    2    0    0 -0.58826984088E+00  0.47420753750E+02  0.36176690599E+03  0.37602672261E+03  0.90949040134E+02 0.  0.
        -13    1    3    3    0    0 -0.66870213658E+02 -0.39628835646E+02  0.19211968288E+03  0.20724874581E+03  0.00000000000E+00 0. -1.
         13    1    3    3    0    0  0.87159787193E+01  0.22555402880E+02  0.52331482621E+02  0.57648057707E+02  0.00000000000E+00 0.  1.
        -13    1    4    4    0    0 -0.30831179134E+01 -0.24456511334E+02  0.46166076654E+02  0.52334818203E+02  0.00000000000E+00 0. -1.
         13    1    4    4    0    0  0.24948480725E+01  0.71877265083E+02  0.31560082934E+03  0.32369190441E+03  0.00000000000E+00 0.  1.
         21    1    1    2  502  501  0.58742504779E+02 -0.30347320984E+02  0.23202009239E+01  0.66159089255E+02  0.00000000000E+00 0.  1.
<scales pt_clust_5="13000.00000" pt_clust_6="13000.00000" pt_clust_7="13000.00000" pt_clust_8="13000.00000" pt_clust_9="66.11839"></scales>
<clustering>
<clus scale="   66.118">  2  9  1 -1</clus>
<clus scale="   82.101">  5  6 -1 -1</clus>
<clus scale="   90.949">  7  8 -1 -1</clus>
<clus scale="   92.286">  2  5  1 -1</clus>
<clus scale="  100.239">  1  5  2 -1</clus>
</clustering>
</event>
<event>
 9    1  0.1434065E-005  0.9803869E+02  0.7546771E-02  0.1286759E+00
          2   -1    0    0  502    0  0.00000000000E+00  0.00000000000E+00  0.63938011159E+02  0.63938011159E+02  0.00000000000E+00 0. -1.
         -2   -1    0    0    0  501 -0.00000000000E+00 -0.00000000000E+00 -0.35778113847E+03  0.35778113847E+03  0.00000000000E+00 0.  1.
         23    2    1    2    0    0 -0.24320402176E+02 -0.30148680239E+02 -0.15159162286E+03  0.18118652940E+03  0.91368010987E+02 0.  0.
         23    2    1    2    0    0  0.36170983785E+02  0.64755387956E+01  0.14846541558E+01  0.94378806729E+02  0.86918825872E+02 0.  0.
        -13    1    4    4    0    0  0.63883328878E+02 -0.38908380373E+01 -0.46185408139E+01  0.64168132655E+02  0.00000000000E+00 0. -1.
         13    1    4    4    0    0 -0.27712345093E+02  0.10366376833E+02  0.61031949697E+01  0.30210674074E+02  0.00000000000E+00 0.  1.
        -13    1    3    3    0    0  0.37762090278E+01 -0.46292886672E+02 -0.13877167522E+03  0.14633820060E+03  0.00000000000E+00 0.  1.
         13    1    3    3    0    0 -0.28096611204E+02  0.16144206433E+02 -0.12819947638E+02  0.34848328797E+02  0.00000000000E+00 0. -1.
         21    1    1    2  502  501 -0.11850581608E+02  0.23673141443E+02 -0.14373615860E+03  0.14615381350E+03  0.00000000000E+00 0. -1.
<scales pt_clust_5="13000.00000" pt_clust_6="13000.00000" pt_clust_7="13000.00000" pt_clust_8="13000.00000" pt_clust_9="26.47365"></scales>
<clustering>
<clus scale="   26.474">  2  9  1 -1</clus>
<clus scale="   86.919">  5  6 -1 -1</clus>
<clus scale="   91.368">  7  8 -1 -1</clus>
<clus scale="   93.906">  1  5  2 -1</clus>
<clus scale="   93.906">  1  5  2 -1</clus>
</clustering>
</event>
<event>
 9    1  0.1434065E-005  0.9990193E+02  0.7546771E-02  0.1281432E+00
          3   -1    0    0  502    0  0.00000000000E+00  0.00000000000E+00  0.48627450861E+03  0.48627450861E+03  0.00000000000E+00 0. -1.
         -3   -1    0    0    0  501 -0.00000000000E+00 -0.00000000000E+00 -0.37961796653E+02  0.37961796653E+02  0.00000000000E+00 0.  1.
         23    2    1    2    0    0 -0.48157522247E+01 -0.27121942350E+02  0.97492422113E+02  0.13930279188E+03  0.95612259835E+02 0.  0.
         23    2    1    2    0    0  0.29227266726E+02  0.14269537957E+02  0.34177894689E+03  0.35590159610E+03  0.93782966096E+02 0.  0.
        -13    1    3    3    0    0 -0.40500157242E+02 -0.10446791558E+02  0.89950088750E+02  0.99198874271E+02  0.00000000000E+00 0. -1.
         13    1    3    3    0    0  0.35684405017E+02 -0.16675150792E+02  0.75423333634E+01  0.40103917613E+02  0.00000000000E+00 0.  1.
        -13    1    4    4    0    0 -0.34374046889E+02  0.27509560380E+01  0.12814835709E+03  0.13270698657E+03  0.00000000000E+00 0. -1.
         13    1    4    4    0    0  0.63601313615E+02  0.11518581919E+02  0.21363058980E+03  0.22319460953E+03  0.00000000000E+00 0.  1.
         21    1    1    2  502  501 -0.24411514502E+02  0.12852404393E+02  0.90413429524E+01  0.29031917286E+02  0.00000000000E+00 0.  1.
<scales pt_clust_5="13000.00000" pt_clust_6="13000.00000" pt_clust_7="13000.00000" pt_clust_8="13000.00000" pt_clust_9="27.58816"></scales>
<clustering>
<clus scale="   27.588">  2  9  1 -1</clus>
<clus scale="   93.783">  7  8 -1 -1</clus>
<clus scale="   95.612">  5  6 -1 -1</clus>
<clus scale="   98.153">  1  7  2 -1</clus>
<clus scale="   98.153">  1  5  2 -1</clus>
</clustering>
</event>
<event>
 9    1  0.1434065E-005  0.3546947E+03  0.7546771E-02  0.1060907E+00
         -2   -1    0    0    0  501 -0.00000000000E+00  0.00000000000E+00  0.13257723018E+03  0.13257723018E+03  0.00000000000E+00 0.  1.
          2   -1    0    0  502    0  0.00000000000E+00 -0.00000000000E+00 -0.11040568918E+04  0.11040568918E+04  0.00000000000E+00 0. -1.
         23    2    1    2    0    0 -0.20092757142E+02 -0.36538855080E+03 -0.49547461081E+03  0.62292269096E+03  0.92871292668E+02 0.  0.
         23    2    1    2    0    0  0.37179055607E+01  0.32215897885E+03 -0.45226878419E+03  0.56174661594E+03  0.84923358973E+02 0.  0.
        -13    1    3    3    0    0 -0.12863312265E+02 -0.30051697872E+03 -0.45714663919E+03  0.54722844318E+03  0.00000000000E+00 0. -1.
         13    1    3    3    0    0 -0.72294448774E+01 -0.64871572087E+02 -0.38327971621E+02  0.75694247780E+02  0.00000000000E+00 0.  1.
        -13    1    4    4    0    0  0.14863971387E+02  0.17474523882E+02 -0.64576751240E+02  0.68530675109E+02  0.00000000000E+00 0. -1.
         13    1    4    4    0    0 -0.11146065826E+02  0.30468445497E+03 -0.38769203295E+03  0.49321594083E+03  0.00000000000E+00 0.  1.
         21    1    1    2  502  501  0.16374851581E+02  0.43229571955E+02 -0.23736266673E+02  0.51964815128E+02  0.00000000000E+00 0. -1.
<scales pt_clust_5="13000.00000" pt_clust_6="13000.00000" pt_clust_7="13000.00000" pt_clust_8="13000.00000" pt_clust_9="46.22696"></scales>
<clustering>
<clus scale="   46.227">  1  9  2 -1</clus>
<clus scale="   84.923">  7  8 -1 -1</clus>
<clus scale="   92.871">  5  6 -1 -1</clus>
<clus scale="  352.697">  2  7  1 -1</clus>
<clus scale="  352.697">  2  5  1 -1</clus>
</clustering>
</event>
<event>
 9    1  0.1434065E-005  0.1271196E+03  0.7546771E-02  0.1231992E+00
          1   -1    0    0  502    0  0.00000000000E+00  0.00000000000E+00  0.17491974203E+03  0.17491974203E+03  0.00000000000E+00 0. -1.
         -1   -1    0    0    0  501 -0.00000000000E+00 -0.00000000000E+00 -0.18139251335E+03  0.18139251335E+03  0.00000000000E+00 0.  1.
         23    2    1    2    0    0 -0.32283490945E+02  0.10167239023E+03 -0.53016167425E+02  0.14934460025E+03  0.90075506608E+02 0.  0.
         23    2    1    2    0    0  0.35383440902E+02 -0.75901926247E+02  0.92410828039E+02  0.15426520911E+03  0.90801449905E+02 0.  0.
        -11    1    4    4    0    0 -0.10330906476E+02 -0.64342590406E+02  0.20577736021E+02  0.68338421028E+02  0.00000000000E+00 0.  1.
         11    1    4    4    0    0  0.45714347378E+02 -0.11559335841E+02  0.71833092018E+02  0.85926788082E+02  0.00000000000E+00 0. -1.
        -13    1    3    3    0    0  0.13236617948E+02  0.53834404300E+02  0.11948824879E+02  0.56710894518E+02  0.00000000000E+00 0. -1.
         13    1    3    3    0    0 -0.45520108892E+02  0.47837985934E+02 -0.64964992304E+02  0.92633705728E+02  0.00000000000E+00 0.  1.
         21    1    1    2  502  501 -0.30999499570E+01 -0.25770463987E+02 -0.45867431943E+02  0.52702446024E+02  0.00000000000E+00 0. -1.
<scales pt_clust_5="13000.00000" pt_clust_6="13000.00000" pt_clust_7="13000.00000" pt_clust_8="13000.00000" pt_clust_9="25.95624"></scales>
<clustering>
<clus scale="   25.956">  2  9  1 -1</clus>
<clus scale="   90.076">  7  8 -1 -1</clus>
<clus scale="   90.801">  5  6 -1 -1</clus>
<clus scale="  126.602">  2  7  1 -1</clus>
<clus scale="  127.120">  1  5  2 -1</clus>
</clustering>
</event>
<event>
 9    1  0.1434065E-005  0.1379715E+03  0.7546771E-02  0.1216592E+00
          1   -1    0    0  502    0  0.00000000000E+00  0.00000000000E+00  0.57928492308E+03  0.57928492308E+03  0.00000000000E+00 0. -1.
         -1   -1    0    0    0  501 -0.00000000000E+00 -0.00000000000E+00 -0.48956180019E+02  0.48956180019E+02  0.00000000000E+00 0.  1.
         23    2    1    2    0    0 -0.10793675197E+03  0.16500372333E+02  0.27748378600E+03  0.31352343738E+03  0.96835373599E+02 0.  0.
         23    2    1    2    0    0  0.89564734154E+02  0.31761145585E+01  0.25630923412E+03  0.28757551417E+03  0.94727628219E+02 0.  0.
        -11    1    4    4    0    0  0.68270079429E+02  0.56483754678E+01  0.25715325305E+03  0.26612121945E+03  0.00000000000E+00 0. -1.
         11    1    4    4    0    0  0.21294654725E+02 -0.24722609093E+01 -0.84401892760E+00  0.21454294718E+02  0.00000000000E+00 0.  1.
        -11    1    3    3    0    0 -0.55980385197E+02  0.41414437978E+02  0.72209714077E+02  0.10031551229E+03  0.00000000000E+00 0.  1.
         11    1    3    3    0    0 -0.51956366776E+02 -0.24914065645E+02  0.20527407192E+03  0.21320792508E+03  0.00000000000E+00 0. -1.
         21    1    1    2  502  501  0.18372017819E+02 -0.19676486892E+02 -0.34642770584E+01  0.27142151548E+02  0.00000000000E+00 0. -1.
<scales pt_clust_5="13000.00000" pt_clust_6="13000.00000" pt_clust_7="13000.00000" pt_clust_8="13000.00000" pt_clust_9="26.92016"></scales>
<clustering>
<clus scale="   26.920">  2  9  1 -1</clus>
<clus scale="   94.728">  5  6 -1 -1</clus>
<clus scale="   96.835">  7  8 -1 -1</clus>
<clus scale="  136.500">  1  5  2 -1</clus>
<clus scale="  136.500">  1  5  2 -1</clus>
</clustering>
</event>
<event>
 9    1  0.1434065E-005  0.9350883E+02  0.7546771E-02  0.1304766E+00
         -1   -1    0    0    0  501 -0.00000000000E+00  0.00000000000E+00  0.13565889367E+03  0.13565889367E+03  0.00000000000E+00 0.  1.
          1   -1    0    0  502    0  0.00000000000E+00 -0.00000000000E+00 -0.87024377724E+02  0.87024377724E+02  0.00000000000E+00 0. -1.
         23    2    1    2    0    0 -0.57618479793E+01 -0.26653873991E+02  0.64999745984E+02  0.11591100589E+03  0.92015033646E+02 0.  0.
         23    2    1    2    0    0 -0.61902627687E+01  0.14319359529E+00 -0.71063011706E+01  0.76253469821E+02  0.75668700833E+02 0.  0.
        -11    1    3    3    0    0  0.22431625364E+02 -0.46013081815E+02  0.11582834153E+02  0.52483745689E+02  0.00000000000E+00 0.  1.
         11    1    3    3    0    0 -0.28193473343E+02  0.19359207823E+02  0.53416911830E+02  0.63427260198E+02  0.00000000000E+00 0. -1.
        -11    1    4    4    0    0  0.28828661241E+02  0.59157542924E+01  0.16393386991E+02  0.33687252705E+02  0.00000000000E+00 0. -1.
         11    1    4    4    0    0 -0.35018924010E+02 -0.57725606971E+01 -0.23499688161E+02  0.42566217115E+02  0.00000000000E+00 0.  1.
         21    1    1    2  502  501  0.11952110748E+02  0.26510680396E+02 -0.92589288673E+01  0.30518795687E+02  0.00000000000E+00 0. -1.
<scales pt_clust_5="13000.00000" pt_clust_6="13000.00000" pt_clust_7="13000.00000" pt_clust_8="13000.00000" pt_clust_9="29.08039"></scales>
<clustering>
<clus scale="   29.080">  2  9  1 -1</clus>
<clus scale="   75.669">  7  8 -1 -1</clus>
<clus scale="   77.478">  2  7  1 -1</clus>
<clus scale="   92.015">  5  6 -1 -1</clus>
<clus scale="   29.080">  2  5  1 -1</clus>
</clustering>
</event>
<event>
 9    1  0.1434065E-005  0.1112271E+03  0.7546771E-02  0.1260693E+00
          2   -1    0    0  502    0  0.00000000000E+00  0.00000000000E+00  0.51173172723E+02  0.51173172723E+02  0.00000000000E+00 0. -1.
         -2   -1    0    0    0  501 -0.00000000000E+00 -0.00000000000E+00 -0.42696193395E+03  0.42696193395E+03  0.00000000000E+00 0.  1.
         23    2    1    2    0    0 -0.61916321088E+02  0.38526639437E+02 -0.26786580137E+03  0.29264723357E+03  0.92587164393E+02 0.  0.
         23    2    1    2    0    0  0.35664446508E+02 -0.28782765021E+02 -0.46666935585E+02  0.11813503710E+03  0.98375219477E+02 0.  0.
        -13    1    4    4    0    0 -0.12232860620E+01 -0.60110466122E+02 -0.25123403512E+02  0.65160954338E+02  0.00000000000E+00 0. -1.
         13    1    4    4    0    0  0.36887732570E+02  0.31327701101E+02 -0.21543532073E+02  0.52974082764E+02  0.00000000000E+00 0.  1.
        -13    1    3    3    0    0 -0.39121895241E+02 -0.95930382212E+01 -0.21073828451E+03  0.21455342837E+03  0.00000000000E+00 0.  1.
         13    1    3    3    0    0 -0.22794425847E+02  0.48119677658E+02 -0.57127516864E+02  0.78093805200E+02  0.00000000000E+00 0. -1.
         21    1    1    2  502  501  0.26251874580E+02 -0.97438744159E+01 -0.61256024270E+02  0.67352835998E+02  0.00000000000E+00 0. -1.
<scales pt_clust_5="13000.00000" pt_clust_6="13000.00000" pt_clust_7="13000.00000" pt_clust_8="13000.00000" pt_clust_9="28.00186"></scales>
<clustering>
<clus scale="   28.002">  2  9  1 -1</clus>
<clus scale="   92.587">  7  8 -1 -1</clus>
<clus scale="   98.375">  5  6 -1 -1</clus>
<clus scale="  106.142">  2  7  1 -1</clus>
<clus scale="  111.227">  1  5  2 -1</clus>
</clustering>
</event>
<event>
 9    1  0.1434065E-005  0.1003185E+03  0.7546771E-02  0.1280884E+00
          2   -1    0    0  502    0  0.00000000000E+00  0.00000000000E+00  0.15031148747E+03  0.15031148747E+03  0.00000000000E+00 0. -1.
         -2   -1    0    0    0  501 -0.00000000000E+00 -0.00000000000E+00 -0.15267972887E+03  0.15267972887E+03  0.00000000000E+00 0.  1.
         23    2    1    2    0    0  0.12206351947E+02  0.39718082768E+02 -0.68285918753E+02  0.12176211674E+03  0.91850559319E+02 0.  0.
         23    2    1    2    0    0  0.46466323698E+02 -0.41441005610E+02  0.31992714277E+02  0.11343268044E+03  0.89257845821E+02 0.  0.
        -13    1    4    4    0    0  0.35959956788E+02  0.16860656340E+02 -0.98318681871E+01  0.40915349888E+02  0.00000000000E+00 0.  1.
         13    1    4    4    0    0  0.10506366911E+02 -0.58301661950E+02  0.41824582464E+02  0.72517330551E+02  0.00000000000E+00 0. -1.
        -13    1    3    3    0    0 -0.13842677156E+02 -0.20925637765E+02  0.22154531890E+01  0.25187502051E+02  0.00000000000E+00 0. -1.
         13    1    3    3    0    0  0.26049029103E+02  0.60643720533E+02 -0.70501371942E+02  0.96574614693E+02  0.00000000000E+00 0.  1.
         21    1    1    2  502  501 -0.58672675645E+02  0.17229228419E+01  0.33924963077E+02  0.67796419155E+02  0.00000000000E+00 0. -1.
<scales pt_clust_5="13000.00000" pt_clust_6="13000.00000" pt_clust_7="13000.00000" pt_clust_8="13000.00000" pt_clust_9="58.69797"></scales>
<clustering>
<clus scale="   58.698">  1  9  2 -1</clus>
<clus scale="   89.258">  5  6 -1 -1</clus>
<clus scale="   91.851">  7  8 -1 -1</clus>
<clus scale="   97.950">  1  5  2 -1</clus>
<clus scale="   58.698">  1  5  2 -1</clus>
</clustering>
</event>
<event>
 9    1  0.1434065E-005  0.9535072E+02  0.7546771E-02  0.1291065E+00
         -1   -1    0    0    0  501 -0.00000000000E+00  0.00000000000E+00  0.87508203493E+02  0.87508203493E+02  0.00000000000E+00 0.  1.
          1   -1    0    0  502    0  0.00000000000E+00 -0.00000000000E+00 -0.14533797693E+03  0.14533797693E+03  0.00000000000E+00 0. -1.
         23    2    1    2    0    0 -0.21836880187E+01  0.32065294596E+02  0.72725389348E+01  0.99039669963E+02  0.93397081287E+02 0.  0.
         23    2    1    2    0    0 -0.64736247409E+01 -0.12664615886E+02 -0.62804835992E+02  0.11243798696E+03  0.92171325128E+02 0.  0.
        -11    1    3    3    0    0 -0.40231318571E+02  0.97762768917E+00 -0.17654060904E+02  0.43945200150E+02  0.00000000000E+00 0. -1.
         11    1    3    3    0    0  0.38047630552E+02  0.31087666907E+02  0.24926599839E+02  0.55094469812E+02  0.00000000000E+00 0.  1.
        -13    1    4    4    0    0  0.16690228694E+02 -0.33983928723E+02 -0.70505822547E+02  0.80028383454E+02  0.00000000000E+00 0.  1.
         13    1    4    4    0    0 -0.23163853435E+02  0.21319312837E+02  0.77009865551E+01  0.32409603511E+02  0.00000000000E+00 0. -1.
         21    1    1    2  502  501  0.86573127595E+01 -0.19400678711E+02 -0.22974763807E+01  0.21368523495E+02  0.00000000000E+00 0.  1.
<scales pt_clust_5="13000.00000" pt_clust_6="13000.00000" pt_clust_7="13000.00000" pt_clust_8="13000.00000" pt_clust_9="21.24466"></scales>
<clustering>
<clus scale="   21.245">  1  9  2 -1</clus>
<clus scale="   92.171">  7  8 -1 -1</clus>
<clus scale="   93.397">  5  6 -1 -1</clus>
<clus scale="   94.150">  2  7  1 -1</clus>
<clus scale="   94.150">  2  5  1 -1</clus>
</clustering>
</event>
<event>
 9    1  0.1434065E-005  0.1012051E+03  0.7546771E-02  0.1280523E+00
         -1   -1    0    0    0  501 -0.00000000000E+00  0.00000000000E+00  0.13675163619E+03  0.13675163619E+03  0.00000000000E+00 0.  1.
          1   -1    0    0  502    0  0.00000000000E+00 -0.00000000000E+00 -0.10143734640E+03  0.10143734640E+03  0.00000000000E+00 0. -1.
         23    2    1    2    0    0 -0.20324207696E+02  0.32694246439E+02  0.34017480369E+02  0.10871383843E+03  0.95809824796E+02 0.  0.
         23    2    1    2    0    0 -0.32675202193E+01 -0.31935770334E+02 -0.19694796208E+02  0.97887291763E+02  0.90351905214E+02 0.  0.
        -11    1    4    4    0    0  0.28090305431E+01 -0.62767253976E+02 -0.21510622294E+02  0.66410283057E+02  0.00000000000E+00 0.  1.
         11    1    4    4    0    0 -0.60765507623E+01  0.30831483641E+02  0.18158260864E+01  0.31477008706E+02  0.00000000000E+00 0. -1.
        -11    1    3    3    0    0  0.33156657503E+02 -0.34092956646E+01  0.28671307434E+02  0.43966249598E+02  0.00000000000E+00 0. -1.
         11    1    3    3    0    0 -0.53480865199E+02  0.36103542104E+02  0.53461729348E+01  0.64747588835E+02  0.00000000000E+00 0.  1.
         21    1    1    2  502  501  0.23591727916E+02 -0.75847610463E+00  0.20991605635E+02  0.31587852399E+02  0.00000000000E+00 0. -1.
<scales pt_clust_5="13000.00000" pt_clust_6="13000.00000" pt_clust_7="13000.00000" pt_clust_8="13000.00000" pt_clust_9="23.60392"></scales>
<clustering>
<clus scale="   23.604">  1  9  2 -1</clus>
<clus scale="   90.352">  5  6 -1 -1</clus>
<clus scale="   95.810">  7  8 -1 -1</clus>
<clus scale="   96.054">  2  5  1 -1</clus>
<clus scale="   96.054">  2  5  1 -1</clus>
</clustering>
</event>
<event>
 9    1  0.1434065E-005  0.9762490E+02  0.7546771E-02  0.1286457E+00
          1   -1    0    0  502    0  0.00000000000E+00  0.00000000000E+00  0.32377432656E+03  0.32377432656E+03  0.00000000000E+00 0. -1.
         -1   -1    0    0    0  501 -0.00000000000E+00 -0.00000000000E+00 -0.50115831370E+02  0.50115831370E+02  0.00000000000E+00 0.  1.
         23    2    1    2    0    0 -0.49091538787E+02 -0.21807778482E+02  0.49955077898E+02  0.11545541390E+03  0.89156516354E+02 0.  0.
         23    2    1    2    0    0  0.15512773729E+02  0.27687372337E+01  0.13123000119E+03  0.15822820113E+03  0.86985851527E+02 0.  0.
        -11    1    4    4    0    0 -0.23361644422E+02  0.27165729522E+02  0.88672679070E+02  0.95637792238E+02  0.00000000000E+00 0.  1.
         11    1    4    4    0    0  0.38874418151E+02 -0.24396992289E+02  0.42557322118E+02  0.62590408891E+02  0.00000000000E+00 0. -1.
        -13    1    3    3    0    0  0.10491894265E+02  0.24889185310E+02  0.51777418342E+01  0.27502007220E+02  0.00000000000E+00 0. -1.
         13    1    3    3    0    0 -0.59583433052E+02 -0.46696963792E+02  0.44777336064E+02  0.87953406680E+02  0.00000000000E+00 0.  1.
         21    1    1    2  502  501  0.33578765057E+02  0.19039041248E+02  0.92473416102E+02  0.10020654290E+03  0.00000000000E+00 0. -1.
<scales pt_clust_5="13000.00000" pt_clust_6="13000.00000" pt_clust_7="13000.00000" pt_clust_8="13000.00000" pt_clust_9="38.60076"></scales>
<clustering>
<clus scale="   38.601">  1  9  2 -1</clus>
<clus scale="   86.986">  5  6 -1 -1</clus>
<clus scale="   89.157">  7  8 -1 -1</clus>
<clus scale="   95.647">  1  5  2 -1</clus>
<clus scale="   38.601">  1  5  2 -1</clus>
</clustering>
</event>
<event>
 9    1  0.1434065E-005  0.9893582E+02  0.7546771E-02  0.1284457E+00
         -3   -1    0    0    0  501 -0.00000000000E+00  0.00000000000E+00  0.23592753227E+03  0.23592753227E+03  0.00000000000E+00 0.  1.
          3   -1    0    0  502    0  0.00000000000E+00 -0.00000000000E+00 -0.53277359649E+02  0.53277359649E+02  0.00000000000E+00 0. -1.
         23    2    1    2    0    0 -0.35669178777E+01 -0.27186224656E+01  0.93487292712E+02  0.13568729681E+03  0.98239782197E+02 0.  0.
         23    2    1    2    0    0  0.13270701796E+02 -0.22236779799E+02  0.69206754450E+02  0.12012324726E+03  0.94707094612E+02 0.  0.
        -11    1    3    3    0    0 -0.66155196008E+01  0.23170297949E+02  0.10460735710E+03  0.10734676039E+03  0.00000000000E+00 0.  1.
         11    1    3    3    0    0  0.30486017231E+01 -0.25888920415E+02 -0.11120064387E+02  0.28340536422E+02  0.00000000000E+00 0. -1.
        -11    1    4    4    0    0 -0.33110671748E+02 -0.30349589557E+02  0.54857764379E+02  0.70899848255E+02  0.00000000000E+00 0.  1.
         11    1    4    4    0    0  0.46381373544E+02  0.81128097585E+01  0.14348990071E+02  0.49223399010E+02  0.00000000000E+00 0. -1.
         21    1    1    2  502  501 -0.97037839178E+01  0.24955402264E+02  0.19956125459E+02  0.33394347843E+02  0.00000000000E+00 0. -1.
<scales pt_clust_5="13000.00000" pt_clust_6="13000.00000" pt_clust_7="13000.00000" pt_clust_8="13000.00000" pt_clust_9="26.77565"></scales>
<clustering>
<clus scale="   26.776">  2  9  1 -1</clus>
<clus scale="   94.707">  7  8 -1 -1</clus>
<clus scale="   95.429">  2  7  1 -1</clus>
<clus scale="   98.240">  5  6 -1 -1</clus>
<clus scale="   26.776">  2  5  1 -1</clus>
</clustering>
</event>
<event>
 9    1  0.1434065E-005  0.9186243E+02  0.7546771E-02  0.1298491E+00
         -1   -1    0    0    0  501 -0.00000000000E+00  0.00000000000E+00  0.26498211343E+03  0.26498211343E+03  0.00000000000E+00 0.  1.
          1   -1    0    0  502    0  0.00000000000E+00 -0.00000000000E+00 -0.99361500877E+02  0.99361500877E+02  0.00000000000E+00 0. -1.
         23    2    1    2    0    0 -0.25059739463E+02  0.11313255804E+02  0.14023358485E+02  0.95794917559E+02  0.90686445228E+02 0.  0.
         23    2    1    2    0    0 -0.13365143513E+01 -0.94171831849E+01 -0.21179967628E+02  0.93756461097E+02  0.90836189699E+02 0.  0.
        -11    1    4    4    0    0 -0.20170686147E+02 -0.41541700843E+02 -0.30533429638E+02  0.55361176053E+02  0.00000000000E+00 0. -1.
         11    1    4    4    0    0  0.18834171795E+02  0.32124517658E+02  0.93534620102E+01  0.38395285044E+02  0.00000000000E+00 0.  1.
        -13    1    3    3    0    0  0.22191057438E+02  0.27058623598E+02 -0.15085054381E+02  0.38107361584E+02  0.00000000000E+00 0.  1.
         13    1    3    3    0    0 -0.47250796901E+02 -0.15745367794E+02  0.29108412866E+02  0.57687555974E+02  0.00000000000E+00 0. -1.
         21    1    1    2  502  501  0.26396253814E+02 -0.18960726193E+01  0.17277722170E+03  0.17479223565E+03  0.00000000000E+00 0. -1.
<scales pt_clust_5="13000.00000" pt_clust_6="13000.00000" pt_clust_7="13000.00000" pt_clust_8="13000.00000" pt_clust_9="26.46426"></scales>
<clustering>
<clus scale="   26.464">  1  9  2 -1</clus>
<clus scale="   90.686">  7  8 -1 -1</clus>
<clus scale="   90.836">  5  6 -1 -1</clus>
<clus scale="   91.714">  1  7  2 -1</clus>
<clus scale="   91.862">  2  5  1 -1</clus>
</clustering>
</event>
<event>
 9    1  0.1434065E-005  0.9917517E+02  0.7546771E-02  0.1282053E+00
          2   -1    0    0  502    0  0.00000000000E+00  0.00000000000E+00  0.27213981671E+03  0.27213981671E+03  0.00000000000E+00 0. -1.
         -2   -1    0    0    0  501 -0.00000000000E+00 -0.00000000000E+00 -0.14697577097E+03  0.14697577097E+03  0.00000000000E+00 0.  1.
         23    2    1    2    0    0 -0.15812715828E+02 -0.51275196410E+02  0.57958717111E+02  0.12085501549E+03  0.91474226599E+02 0.  0.
         23    2    1    2    0    0  0.14600102779E+02  0.28692457127E+02  0.16853914221E+03  0.19443383035E+03  0.91447535946E+02 0.  0.
        -11    1    3    3    0    0 -0.12482687496E+01  0.20566458509E+02 -0.81376342936E+01  0.22153069366E+02  0.00000000000E+00 0.  1.
         11    1    3    3    0    0 -0.14564447078E+02 -0.71841654919E+02  0.66096351405E+02  0.98701946127E+02  0.00000000000E+00 0. -1.
        -13    1    4    4    0    0 -0.27090920788E+02 -0.15090952515E+02  0.29419457925E+02  0.42745284436E+02  0.00000000000E+00 0. -1.
         13    1    4    4    0    0  0.41691023567E+02  0.43783409642E+02  0.13911968429E+03  0.15168854592E+03  0.00000000000E+00 0.  1.
         21    1    1    2  502  501  0.12126130484E+01  0.22582739283E+02 -0.10133381358E+03  0.10382674183E+03  0.00000000000E+00 0.  1.
<scales pt_clust_5="13000.00000" pt_clust_6="13000.00000" pt_clust_7="13000.00000" pt_clust_8="13000.00000" pt_clust_9="22.61527"></scales>
<clustering>
<clus scale="   22.615">  2  9  1 -1</clus>
<clus scale="   91.448">  7  8 -1 -1</clus>
<clus scale="   91.474">  5  6 -1 -1</clus>
<clus scale="   99.151">  1  7  2 -1</clus>
<clus scale="   99.151">  1  5  2 -1</clus>
</clustering>
</event>
<event>
 9    1  0.1434065E-005  0.1038718E+03  0.7546771E-02  0.1272887E+00
          1   -1    0    0  502    0  0.00000000000E+00  0.00000000000E+00  0.18329345664E+02  0.18329345664E+02  0.00000000000E+00 0. -1.
         -1   -1    0    0    0  501 -0.00000000000E+00 -0.00000000000E+00 -0.86140193683E+03  0.86140193683E+03  0.00000000000E+00 0.  1.
         23    2    1    2    0    0 -0.71401013003E+01  0.54169383668E+02 -0.53152457629E+03  0.54188181386E+03  0.90178832400E+02 0.  0.
         23    2    1    2    0    0  0.24953361178E+02 -0.41589861125E+02 -0.21140435448E+03  0.23535893575E+03  0.91376368722E+02 0.  0.
        -11    1    4    4    0    0  0.55261922677E+02 -0.46152948179E+02 -0.13423028689E+03  0.15232118908E+03  0.00000000000E+00 0.  1.
         11    1    4    4    0    0 -0.30308561499E+02  0.45630870543E+01 -0.77174067592E+02  0.83037746672E+02  0.00000000000E+00 0. -1.
        -11    1    3    3    0    0  0.36488853433E+02  0.83563664192E+00 -0.17739786827E+03  0.18111360628E+03  0.00000000000E+00 0.  1.
         11    1    3    3    0    0 -0.43628954733E+02  0.53333747026E+02 -0.35412670802E+03  0.36076820758E+03  0.00000000000E+00 0. -1.
         21    1    1    2  502  501 -0.17813259878E+02 -0.12579522543E+02 -0.10014366040E+03  0.10249053289E+03  0.00000000000E+00 0.  1.
<scales pt_clust_5="13000.00000" pt_clust_6="13000.00000" pt_clust_7="13000.00000" pt_clust_8="13000.00000" pt_clust_9="21.80726"></scales>
<clustering>
<clus scale="   21.807">  2  9  1 -1</clus>
<clus scale="   90.179">  7  8 -1 -1</clus>
<clus scale="   91.376">  5  6 -1 -1</clus>
<clus scale="  102.820">  2  7  1 -1</clus>
<clus scale="  103.872">  1  5  2 -1</clus>
</clustering>
</event>
<event>
 9    1  0.1434065E-005  0.1636337E+03  0.7546771E-02  0.1184710E+00
          2   -1    0    0  502    0  0.00000000000E+00  0.00000000000E+00  0.52694387438E+02  0.52694387438E+02  0.00000000000E+00 0. -1.
         -2   -1    0    0    0  501 -0.00000000000E+00 -0.00000000000E+00 -0.70027517066E+03  0.70027517066E+03  0.00000000000E+00 0.  1.
         23    2    1    2    0    0 -0.10312328594E+03 -0.87510644497E+02 -0.45332593549E+03  0.48191474982E+03  0.91896122382E+02 0.  0.
         23    2    1    2    0    0  0.11818761109E+03  0.69598530165E+02 -0.16160537201E+03  0.23088310185E+03  0.91533838774E+02 0.  0.
        -11    1    3    3    0    0 -0.16611966272E+02 -0.71893799002E+02 -0.24300480916E+03  0.25396065253E+03  0.00000000000E+00 0.  1.
         11    1    3    3    0    0 -0.86511319664E+02 -0.15616845494E+02 -0.21032112633E+03  0.22795409729E+03  0.00000000000E+00 0. -1.
        -11    1    4    4    0    0  0.70219323298E+02 -0.71035210384E+00 -0.11250607737E+03  0.13262305761E+03  0.00000000000E+00 0.  1.
         11    1    4    4    0    0  0.47968287790E+02  0.70308882269E+02 -0.49099294636E+02  0.98260044236E+02  0.00000000000E+00 0. -1.
         21    1    1    2  502  501 -0.15064325152E+02  0.17912114331E+02 -0.32649475729E+02  0.40171706430E+02  0.00000000000E+00 0. -1.
<scales pt_clust_5="13000.00000" pt_clust_6="13000.00000" pt_clust_7="13000.00000" pt_clust_8="13000.00000" pt_clust_9="23.40465"></scales>
<clustering>
<clus scale="   23.405">  1  9  2 -1</clus>
<clus scale="   91.534">  7  8 -1 -1</clus>
<clus scale="   91.896">  5  6 -1 -1</clus>
<clus scale="  163.430">  1  7  2 -1</clus>
<clus scale="   23.405">  1  5  2 -1</clus>
</clustering>
</event>
<event>
 9    1  0.1434065E-005  0.9841402E+02  0.7546771E-02  0.1284395E+00
          2   -1    0    0  502    0  0.00000000000E+00  0.00000000000E+00  0.12175153589E+03  0.12175153589E+03  0.00000000000E+00 0. -1.
         -2   -1    0    0    0  501 -0.00000000000E+00 -0.00000000000E+00 -0.11135893166E+03  0.11135893166E+03  0.00000000000E+00 0.  1.
         23    2    1    2    0    0  0.41067133939E+02 -0.18797589249E+02  0.71572008357E+01  0.10309234873E+03  0.92395605906E+02 0.  0.
         23    2    1    2    0    0 -0.18188611250E+02  0.19194209977E+02  0.25492875034E+02  0.98096665972E+02  0.90960573445E+02 0.  0.
        -11    1    4    4    0    0  0.18479136278E+02 -0.28629165188E+02  0.49723020691E+01  0.34435902265E+02  0.00000000000E+00 0. -1.
         11    1    4    4    0    0 -0.36667747528E+02  0.47823375164E+02  0.20520572965E+02  0.63660763707E+02  0.00000000000E+00 0.  1.
        -11    1    3    3    0    0 -0.28752612944E+02  0.46008390893E+01  0.97503024763E-01  0.29118550415E+02  0.00000000000E+00 0.  1.
         11    1    3    3    0    0  0.69819746883E+02 -0.23398428338E+02  0.70596978110E+01  0.73973798312E+02  0.00000000000E+00 0. -1.
         21    1    1    2  502  501 -0.22878522689E+02 -0.39662072778E+00 -0.22257471634E+02  0.31921452849E+02  0.00000000000E+00 0.  1.
<scales pt_clust_5="13000.00000" pt_clust_6="13000.00000" pt_clust_7="13000.00000" pt_clust_8="13000.00000" pt_clust_9="22.88196"></scales>
<clustering>
<clus scale="   22.882">  2  9  1 -1</clus>
<clus scale="   90.961">  5  6 -1 -1</clus>
<clus scale="   92.396">  7  8 -1 -1</clus>
<clus scale="   97.068">  1  5  2 -1</clus>
<clus scale="   97.068">  1  5  2 -1</clus>
</clustering>
</event>
<event>
 9    1  0.1434065E-005  0.1184437E+03  0.7546771E-02  0.1245751E+00
         -1   -1    0    0    0  501 -0.00000000000E+00  0.00000000000E+00  0.82210318242E+02  0.82210318242E+02  0.00000000000E+00 0.  1.
          1   -1    0    0  502    0  0.00000000000E+00 -0.00000000000E+00 -0.32641305856E+03  0.32641305856E+03  0.00000000000E+00 0. -1.
         23    2    1    2    0    0  0.52109903858E+02 -0.72965386956E+01 -0.54840060535E+02  0.12158155498E+03  0.94899740324E+02 0.  0.
         23    2    1    2    0    0 -0.69486211732E+02  0.44123477061E+02 -0.20748024264E+03  0.24247271202E+03  0.94708764858E+02 0.  0.
        -11    1    4    4    0    0 -0.88624549367E+02  0.35826403374E+02 -0.12480899878E+03  0.15721045801E+03  0.00000000000E+00 0. -1.
         11    1    4    4    0    0  0.19138337636E+02  0.82970736871E+01 -0.82671243854E+02  0.85262254014E+02  0.00000000000E+00 0.  1.
        -11    1    3    3    0    0  0.10383142265E+02 -0.27312525595E+02 -0.67541523938E+02  0.73591039900E+02  0.00000000000E+00 0. -1.
         11    1    3    3    0    0  0.41726761593E+02  0.20015986899E+02  0.12701463403E+02  0.47990515075E+02  0.00000000000E+00 0.  1.
         21    1    1    2  502  501  0.17376307874E+02 -0.36826938365E+02  0.18117562858E+02  0.44569109802E+02  0.00000000000E+00 0.  1.
<scales pt_clust_5="13000.00000" pt_clust_6="13000.00000" pt_clust_7="13000.00000" pt_clust_8="13000.00000" pt_clust_9="40.72050"></scales>
<clustering>
<clus scale="   40.721">  1  9  2 -1</clus>
<clus scale="   94.709">  5  6 -1 -1</clus>
<clus scale="   94.900">  7  8 -1 -1</clus>
<clus scale="  118.291">  2  5  1 -1</clus>
<clus scale="  118.291">  2  5  1 -1</clus>
</clustering>
</event>
<event>
 9    1  0.1434065E-005  0.1529678E+03  0.7546771E-02  0.1204482E+00
         -1   -1    0    0    0  501 -0.00000000000E+00  0.00000000000E+00  0.93916732407E+02  0.93916732407E+02  0.00000000000E+00 0.  1.
          1   -1    0    0  502    0  0.00000000000E+00 -0.00000000000E+00 -0.43676364709E+03  0.43676364709E+03  0.00000000000E+00 0. -1.
         23    2    1    2    0    0 -0.26660730950E+02 -0.91420067061E+02 -0.91235411528E+01  0.13172083939E+03  0.90546768520E+02 0.  0.
         23    2    1    2    0    0 -0.25094346306E+02  0.92098714522E+02 -0.29913206029E+03  0.33670516247E+03  0.12156676150E+03 0.  0.
        -13    1    3    3    0    0 -0.56326283616E+02 -0.32408065191E+02  0.42355863210E+00  0.64985477742E+02  0.00000000000E+00 0. -1.
         13    1    3    3    0    0  0.29665552666E+02 -0.59012001870E+02 -0.95470997849E+01  0.66735361646E+02  0.00000000000E+00 0.  1.
        -13    1    4    4    0    0 -0.25968504033E+02  0.64771643161E+02 -0.30130252654E+03  0.30927809728E+03  0.00000000000E+00 0. -1.
         13    1    4    4    0    0  0.87415772642E+00  0.27327071361E+02  0.21704662446E+01  0.27427065184E+02  0.00000000000E+00 0.  1.
         21    1    1    2  502  501  0.51755077257E+02 -0.67864746107E+00 -0.34591313233E+02  0.62254377640E+02  0.00000000000E+00 0. -1.
<scales pt_clust_5="13000.00000" pt_clust_6="13000.00000" pt_clust_7="13000.00000" pt_clust_8="13000.00000" pt_clust_9="51.75953"></scales>
<clustering>
<clus scale="   51.760">  1  9  2 -1</clus>
<clus scale="   90.547">  5  6 -1 -1</clus>
<clus scale="  121.567">  7  8 -1 -1</clus>
<clus scale="  129.690">  1  5  2 -1</clus>
<clus scale="  152.968">  2  5  1 -1</clus>
</clustering>
</event>
<event>
 9    1  0.1434065E-005  0.1378053E+03  0.7546771E-02  0.1217416E+00
         -1   -1    0    0    0  501 -0.00000000000E+00  0.00000000000E+00  0.80791865697E+02  0.80791865697E+02  0.00000000000E+00 0.  1.
          1   -1    0    0  502    0  0.00000000000E+00 -0.00000000000E+00 -0.48628808714E+03  0.48628808714E+03  0.00000000000E+00 0. -1.
         23    2    1    2    0    0 -0.18621049305E+02 -0.14786796939E+03 -0.11118570140E+03  0.20822856610E+03  0.93729374783E+02 0.  0.
         23    2    1    2    0    0  0.18978301603E+02  0.84940985473E+02 -0.25733766399E+03  0.28586560032E+03  0.89001804439E+02 0.  0.
        -11    1    4    4    0    0  0.47810868314E+02  0.39968550052E+02 -0.84719815479E+02  0.10517039154E+03  0.00000000000E+00 0.  1.
         11    1    4    4    0    0 -0.28832566711E+02  0.44972435421E+02 -0.17261784851E+03  0.18069520878E+03  0.00000000000E+00 0. -1.
        -13    1    3    3    0    0  0.14615943143E+02 -0.11476226334E+03 -0.11240160913E+03  0.16130134722E+03  0.00000000000E+00 0.  1.
         13    1    3    3    0    0 -0.33236992448E+02 -0.33105706053E+02  0.12159077338E+01  0.46927218881E+02  0.00000000000E+00 0. -1.
         21    1    1    2  502  501 -0.35725229857E+00  0.62926983917E+02 -0.36972856059E+02  0.72985786420E+02  0.00000000000E+00 0. -1.
<scales pt_clust_5="13000.00000" pt_clust_6="13000.00000" pt_clust_7="13000.00000" pt_clust_8="13000.00000" pt_clust_9="62.92800"></scales>
<clustering>
<clus scale="   62.928">  1  9  2 -1</clus>
<clus scale="   89.002">  5  6 -1 -1</clus>
<clus scale="   93.729">  7  8 -1 -1</clus>
<clus scale="  134.634">  2  5  1 -1</clus>
<clus scale="  134.634">  2  5  1 -1</clus>
</clustering>
</event>
<event>
 9    1  0.1434065E-005  0.3255888E+03  0.7546771E-02  0.1073179E+00
         -2   -1    0    0    0  501 -0.00000000000E+00  0.00000000000E+00  0.31634088076E+03  0.31634088076E+03  0.00000000000E+00 0.  1.
          2   -1    0    0  502    0  0.00000000000E+00 -0.00000000000E+00 -0.75093672625E+03  0.75093672625E+03  0.00000000000E+00 0. -1.
         23    2    1    2    0    0 -0.32182266277E+03  0.52471284859E+02  0.20221050993E+01  0.33880791196E+03  0.91998099363E+02 0.  0.
         23    2    1    2    0    0  0.30214368773E+03 -0.63792123870E+02 -0.53680223912E+03  0.62574523292E+03  0.89667215246E+02 0.  0.
        -11    1    3    3    0    0 -0.15852183058E+03  0.31088684757E+02  0.46707899505E+02  0.16815857090E+03  0.00000000000E+00 0.  1.
         11    1    3    3    0    0 -0.16330083219E+03  0.21382600101E+02 -0.44685794406E+02  0.17064934105E+03  0.00000000000E+00 0. -1.
        -13    1    4    4    0    0  0.29580344056E+03 -0.44679180855E+02 -0.51807751846E+03  0.59824762414E+03  0.00000000000E+00 0.  1.
         13    1    4    4    0    0  0.63402471692E+01 -0.19112943015E+02 -0.18724720657E+02  0.27497608778E+02  0.00000000000E+00 0. -1.
         21    1    1    2  502  501  0.19678975045E+02  0.11320839012E+02  0.10018428853E+03  0.10272446215E+03  0.00000000000E+00 0.  1.
<scales pt_clust_5="13000.00000" pt_clust_6="13000.00000" pt_clust_7="13000.00000" pt_clust_8="13000.00000" pt_clust_9="22.70294"></scales>
<clustering>
<clus scale="   22.703">  1  9  2 -1</clus>
<clus scale="   89.667">  7  8 -1 -1</clus>
<clus scale="   91.998">  5  6 -1 -1</clus>
<clus scale="  324.938">  2  7  1 -1</clus>
<clus scale="  324.938">  2  5  1 -1</clus>
</clustering>
</event>
<event>
 9    1  0.1434065E-005  0.1030390E+03  0.7546771E-02  0.1275795E+00
          3   -1    0    0  502    0  0.00000000000E+00  0.00000000000E+00  0.64232978565E+02  0.64232978565E+02  0.00000000000E+00 0. -1.
         -3   -1    0    0    0  501 -0.00000000000E+00 -0.00000000000E+00 -0.36111396845E+03  0.36111396845E+03  0.00000000000E+00 0.  1.
         23    2    1    2    0    0 -0.41170426757E+02  0.34562825455E+02 -0.22759232864E+03  0.25108001749E+03  0.91396467024E+02 0.  0.
         23    2    1    2    0    0  0.17402468194E+02 -0.44090195564E+02  0.92278486286E+00  0.99531838704E+02  0.87515393731E+02 0.  0.
        -11    1    4    4    0    0 -0.29817632075E+02  0.11615510964E+01 -0.13188091505E+02  0.32624624765E+02  0.00000000000E+00 0.  1.
         11    1    4    4    0    0  0.47220100269E+02 -0.45251746660E+02  0.14110876368E+02  0.66907213939E+02  0.00000000000E+00 0. -1.
        -13    1    3    3    0    0 -0.62058300962E+02 -0.82033566260E-01 -0.16761639195E+03  0.17873582265E+03  0.00000000000E+00 0.  1.
         13    1    3    3    0    0  0.20887874205E+02  0.34644859022E+02 -0.59975936693E+02  0.72344194844E+02  0.00000000000E+00 0. -1.
         21    1    1    2  502  501  0.23767958563E+02  0.95273701083E+01 -0.70211446106E+02  0.74735090819E+02  0.00000000000E+00 0.  1.
<scales pt_clust_5="13000.00000" pt_clust_6="13000.00000" pt_clust_7="13000.00000" pt_clust_8="13000.00000" pt_clust_9="25.60638"></scales>
<clustering>
<clus scale="   25.606">  2  9  1 -1</clus>
<clus scale="   87.515">  5  6 -1 -1</clus>
<clus scale="   91.396">  7  8 -1 -1</clus>
<clus scale="   99.613">  1  5  2 -1</clus>
<clus scale="   99.613">  1  5  2 -1</clus>
</clustering>
</event>
<event>
 9    1  0.1434065E-005  0.1154046E+03  0.7546771E-02  0.1251428E+00
          1   -1    0    0  502    0  0.00000000000E+00  0.00000000000E+00  0.35907851771E+03  0.35907851771E+03  0.00000000000E+00 0. -1.
         -1   -1    0    0    0  501 -0.00000000000E+00 -0.00000000000E+00 -0.72765290831E+02  0.72765290831E+02  0.00000000000E+00 0.  1.
         23    2    1    2    0    0 -0.48453645117E+01  0.86346259765E+02  0.88054529119E+02  0.15343727931E+03  0.91160542183E+02 0.  0.
         23    2    1    2    0    0  0.95949900753E+01 -0.63871423966E+02  0.22039359506E+03  0.24650620219E+03  0.89556397539E+02 0.  0.
        -13    1    4    4    0    0 -0.11470562632E+02 -0.33426601551E+02  0.20218169642E+03  0.20524704593E+03  0.00000000000E+00 0. -1.
         13    1    4    4    0    0  0.21065552708E+02 -0.30444822415E+02  0.18211898644E+02  0.41259156256E+02  0.00000000000E+00 0.  1.
        -13    1    3    3    0    0  0.23535058057E+02  0.91962974334E+02  0.55814585505E+02  0.11011973284E+03  0.00000000000E+00 0.  1.
         13    1    3    3    0    0 -0.28380422569E+02 -0.56167145694E+01  0.32239943614E+02  0.43317546468E+02  0.00000000000E+00 0. -1.
         21    1    1    2  502  501 -0.47496255636E+01 -0.22474835798E+02 -0.22134897298E+02  0.31900327045E+02  0.00000000000E+00 0. -1.
<scales pt_clust_5="13000.00000" pt_clust_6="13000.00000" pt_clust_7="13000.00000" pt_clust_8="13000.00000" pt_clust_9="22.97123"></scales>
<clustering>
<clus scale="   22.971">  2  9  1 -1</clus>
<clus scale="   89.556">  5  6 -1 -1</clus>
<clus scale="   91.161">  7  8 -1 -1</clus>
<clus scale="  114.142">  1  5  2 -1</clus>
<clus scale="  114.142">  1  5  2 -1</clus>
</clustering>
</event>
<event>
 9    1  0.1434065E-005  0.9596894E+02  0.7546771E-02  0.1289092E+00
          3   -1    0    0  502    0  0.00000000000E+00  0.00000000000E+00  0.18697243311E+03  0.18697243311E+03  0.00000000000E+00 0. -1.
         -3   -1    0    0    0  501 -0.00000000000E+00 -0.00000000000E+00 -0.17747765458E+03  0.17747765458E+03  0.00000000000E+00 0.  1.
         23    2    1    2    0    0 -0.44276139323E+02  0.40021250604E+01 -0.12069360616E+03  0.15784302212E+03  0.91493603858E+02 0.  0.
         23    2    1    2    0    0  0.25242809064E+02 -0.11226118675E+02  0.15027255379E+03  0.17800938047E+03  0.91336049633E+02 0.  0.
        -11    1    3    3    0    0  0.21871807168E+02  0.10237194171E+02 -0.53541161845E+01  0.24735453370E+02  0.00000000000E+00 0. -1.
         11    1    3    3    0    0 -0.66147946491E+02 -0.62350691108E+01 -0.11533948997E+03  0.13310756875E+03  0.00000000000E+00 0.  1.
        -11    1    4    4    0    0  0.55063535279E+02 -0.74221475916E+01  0.55294706872E+02  0.78387408430E+02  0.00000000000E+00 0.  1.
         11    1    4    4    0    0 -0.29820726215E+02 -0.38039710834E+01  0.94977846915E+02  0.99621972037E+02  0.00000000000E+00 0. -1.
         21    1    1    2  502  501  0.19033330259E+02  0.72239936146E+01 -0.20084169100E+02  0.28597685097E+02  0.00000000000E+00 0. -1.
<scales pt_clust_5="13000.00000" pt_clust_6="13000.00000" pt_clust_7="13000.00000" pt_clust_8="13000.00000" pt_clust_9="20.35814"></scales>
<clustering>
<clus scale="   20.358">  2  9  1 -1</clus>
<clus scale="   91.336">  7  8 -1 -1</clus>
<clus scale="   91.494">  5  6 -1 -1</clus>
<clus scale="   95.819">  1  7  2 -1</clus>
<clus scale="   95.819">  1  5  2 -1</clus>
</clustering>
</event>
<event>
 9    1  0.1434065E-005  0.1036089E+03  0.7546771E-02  0.1273982E+00
          1   -1    0    0  502    0  0.00000000000E+00  0.00000000000E+00  0.25202490540E+03  0.25202490540E+03  0.00000000000E+00 0. -1.
         -1   -1    0    0    0  501 -0.00000000000E+00 -0.00000000000E+00 -0.11030205287E+03  0.11030205287E+03  0.00000000000E+00 0.  1.
         23    2    1    2    0    0 -0.14831737032E+01  0.21747333348E+02 -0.29911139641E+02  0.10015344657E+03  0.93063904241E+02 0.  0.
         23    2    1    2    0    0  0.70205737082E+01 -0.49709284903E+02  0.19791595350E+03  0.22340142090E+03  0.90648600356E+02 0.  0.
        -11    1    3    3    0    0 -0.32049270258E+02  0.23027442915E+02 -0.49892358721E+02  0.63613412973E+02  0.00000000000E+00 0. -1.
         11    1    3    3    0    0  0.30566096555E+02 -0.12801095663E+01  0.19981219080E+02  0.36540033594E+02  0.00000000000E+00 0.  1.
        -13    1    4    4    0    0 -0.13392104014E+02  0.23469876599E+02  0.41678692213E+02  0.49671892878E+02  0.00000000000E+00 0.  1.
         13    1    4    4    0    0  0.20412677722E+02 -0.73179161502E+02  0.15623726129E+03  0.17372952802E+03  0.00000000000E+00 0. -1.
         21    1    1    2  502  501 -0.55374000050E+01  0.27961951555E+02 -0.26281961337E+02  0.38772090804E+02  0.00000000000E+00 0.  1.
<scales pt_clust_5="13000.00000" pt_clust_6="13000.00000" pt_clust_7="13000.00000" pt_clust_8="13000.00000" pt_clust_9="28.50497"></scales>
<clustering>
<clus scale="   28.505">  2  9  1 -1</clus>
<clus scale="   90.649">  7  8 -1 -1</clus>
<clus scale="   93.064">  5  6 -1 -1</clus>
<clus scale="  101.445">  1  7  2 -1</clus>
<clus scale="  101.445">  1  5  2 -1</clus>
</clustering>
</event>
<event>
 9    1  0.1434065E-005  0.1073588E+03  0.7546771E-02  0.1266439E+00
         -1   -1    0    0    0  501 -0.00000000000E+00  0.00000000000E+00  0.20282139929E+03  0.20282139929E+03  0.00000000000E+00 0.  1.
          1   -1    0    0  502    0  0.00000000000E+00 -0.00000000000E+00 -0.11780841947E+03  0.11780841947E+03  0.00000000000E+00 0. -1.
         23    2    1    2    0    0 -0.19299412379E+02 -0.50212749841E+02  0.23424483214E+02  0.10970860879E+03  0.92701051037E+02 0.  0.
         23    2    1    2    0    0 -0.15236773715E+01  0.55885858392E+02 -0.34947772455E+02  0.11200186672E+03  0.90540160080E+02 0.  0.
        -11    1    4    4    0    0 -0.21998951299E+02  0.54060488055E+02 -0.57190761996E+02  0.81714585508E+02  0.00000000000E+00 0. -1.
         11    1    4    4    0    0  0.20475273927E+02  0.18253703371E+01  0.22242989541E+02  0.30287281208E+02  0.00000000000E+00 0.  1.
        -11    1    3    3    0    0  0.14602036214E+02 -0.58444001902E+02 -0.10382908504E+02  0.61128762534E+02  0.00000000000E+00 0.  1.
         11    1    3    3    0    0 -0.33901448594E+02  0.82312520607E+01  0.33807391718E+02  0.48579846254E+02  0.00000000000E+00 0. -1.
         21    1    1    2  502  501  0.20823089751E+02 -0.56731085516E+01  0.96536269057E+02  0.98919343259E+02  0.00000000000E+00 0. -1.
<scales pt_clust_5="13000.00000" pt_clust_6="13000.00000" pt_clust_7="13000.00000" pt_clust_8="13000.00000" pt_clust_9="21.58206"></scales>
<clustering>
<clus scale="   21.582">  1  9  2 -1</clus>
<clus scale="   90.540">  5  6 -1 -1</clus>
<clus scale="   92.701">  7  8 -1 -1</clus>
<clus scale="  105.499">  2  5  1 -1</clus>
<clus scale="  105.499">  2  5  1 -1</clus>
</clustering>
</event>
<event>
 9    1  0.1434065E-005  0.1262700E+03  0.7546771E-02  0.1233614E+00
         -1   -1    0    0    0  501 -0.00000000000E+00  0.00000000000E+00  0.18549826504E+03  0.18549826504E+03  0.00000000000E+00 0.  1.
          1   -1    0    0  502    0  0.00000000000E+00 -0.00000000000E+00 -0.22640024048E+03  0.22640024048E+03  0.00000000000E+00 0. -1.
         23    2    1    2    0    0  0.30582871080E+02  0.99193399074E+02  0.11747561179E+03  0.18004377182E+03  0.88547151187E+02 0.  0.
         23    2    1    2    0    0 -0.16722702228E+02 -0.84394645187E+02 -0.16810049979E+03  0.20936823939E+03  0.90416683916E+02 0.  0.
        -11    1    3    3    0    0 -0.16293995391E+02  0.86065215395E+02  0.79688786780E+02  0.11841882589E+03  0.00000000000E+00 0.  1.
         11    1    3    3    0    0  0.46876866471E+02  0.13128183679E+02  0.37786825011E+02  0.61624945933E+02  0.00000000000E+00 0. -1.
        -13    1    4    4    0    0  0.12763178003E+02 -0.85024472250E+02 -0.15467325308E+03  0.17696291931E+03  0.00000000000E+00 0. -1.
         13    1    4    4    0    0 -0.29485880231E+02  0.62982706332E+00 -0.13427246713E+02  0.32405320079E+02  0.00000000000E+00 0.  1.
         21    1    1    2  502  501 -0.13860168852E+02 -0.14798753887E+02  0.97229125587E+01  0.22486494299E+02  0.00000000000E+00 0.  1.
<scales pt_clust_5="13000.00000" pt_clust_6="13000.00000" pt_clust_7="13000.00000" pt_clust_8="13000.00000" pt_clust_9="20.27578"></scales>
<clustering>
<clus scale="   20.276">  1  9  2 -1</clus>
<clus scale="   88.547">  5  6 -1 -1</clus>
<clus scale="   90.417">  7  8 -1 -1</clus>
<clus scale="  124.938">  1  5  2 -1</clus>
<clus scale="  126.270">  2  5  1 -1</clus>
</clustering>
</event>
<event>
 9    1  0.1434065E-005  0.9614638E+02  0.7546771E-02  0.1291524E+00
         -1   -1    0    0    0  501 -0.00000000000E+00  0.00000000000E+00  0.23145332813E+03  0.23145332813E+03  0.00000000000E+00 0.  1.
          1   -1    0    0  502    0  0.00000000000E+00 -0.00000000000E+00 -0.12862336797E+03  0.12862336797E+03  0.00000000000E+00 0. -1.
         23    2    1    2    0    0  0.22635298472E+02 -0.46891558756E+01  0.12918426036E+03  0.16016175717E+03  0.91808879829E+02 0.  0.
         23    2    1    2    0    0 -0.12750981408E+01  0.31473100327E+02 -0.89317314339E+02  0.12823524174E+03  0.86455263952E+02 0.  0.
        -13    1    4    4    0    0  0.39980177483E+02  0.73634287697E+01 -0.58986032325E+02  0.71637885817E+02  0.00000000000E+00 0.  1.
         13    1    4    4    0    0 -0.41255275624E+02  0.24109671557E+02 -0.30331282014E+02  0.56597355928E+02  0.00000000000E+00 0. -1.
        -13    1    3    3    0    0  0.42270051877E+02  0.17437344901E+02  0.25532073111E+02  0.52370841508E+02  0.00000000000E+00 0. -1.
         13    1    3    3    0    0 -0.19634753406E+02 -0.22126500776E+02  0.10365218725E+03  0.10779091566E+03  0.00000000000E+00 0.  1.
         21    1    1    2  502  501 -0.21360200331E+02 -0.26783944451E+02  0.62963014146E+02  0.71679697187E+02  0.00000000000E+00 0.  1.
<scales pt_clust_5="13000.00000" pt_clust_6="13000.00000" pt_clust_7="13000.00000" pt_clust_8="13000.00000" pt_clust_9="34.25840"></scales>
<clustering>
<clus scale="   34.258">  1  9  2 -1</clus>
<clus scale="   86.455">  5  6 -1 -1</clus>
<clus scale="   91.048">  2  5  1 -1</clus>
<clus scale="   91.809">  7  8 -1 -1</clus>
<clus scale="   91.048">  2  5  1 -1</clus>
</clustering>
</event>
<event>
 9    1  0.1434065E-005  0.9791815E+02  0.7546771E-02  0.1284742E+00
         -3   -1    0    0    0  501 -0.00000000000E+00  0.00000000000E+00  0.14005797390E+03  0.14005797390E+03  0.00000000000E+00 0.  1.
          3   -1    0    0  502    0  0.00000000000E+00 -0.00000000000E+00 -0.23694785991E+03  0.23694785991E+03  0.00000000000E+00 0. -1.
         23    2    1    2    0    0 -0.32445132965E+02  0.16843115697E+02 -0.29466100637E+02  0.10259682750E+03  0.91222150417E+02 0.  0.
         23    2    1    2    0    0  0.25067669789E+02  0.40547246383E+02 -0.14488853981E+03  0.17771945773E+03  0.91208823208E+02 0.  0.
        -11    1    4    4    0    0  0.30210297842E+02  0.10485539541E+02 -0.14368159445E+03  0.14719717802E+03  0.00000000000E+00 0. -1.
         11    1    4    4    0    0 -0.51426280531E+01  0.30061706842E+02 -0.12069453618E+01  0.30522279710E+02  0.00000000000E+00 0.  1.
        -13    1    3    3    0    0  0.99561533540E+01  0.24589117601E+02 -0.48653680209E+02  0.55415975060E+02  0.00000000000E+00 0.  1.
         13    1    3    3    0    0 -0.42401286319E+02 -0.77460019038E+01  0.19187579572E+02  0.47180852439E+02  0.00000000000E+00 0. -1.
         21    1    1    2  502  501  0.73774631767E+01 -0.57390362080E+02  0.77464754438E+02  0.96689548571E+02  0.00000000000E+00 0.  1.
<scales pt_clust_5="13000.00000" pt_clust_6="13000.00000" pt_clust_7="13000.00000" pt_clust_8="13000.00000" pt_clust_9="57.86260"></scales>
<clustering>
<clus scale="   57.863">  1  9  2 -1</clus>
<clus scale="   91.209">  5  6 -1 -1</clus>
<clus scale="   91.222">  7  8 -1 -1</clus>
<clus scale="   97.906">  2  5  1 -1</clus>
<clus scale="   97.906">  2  5  1 -1</clus>
</clustering>
</event>
<event>
 9    1  0.1434065E-005  0.1036206E+03  0.7546771E-02  0.1273706E+00
         -1   -1    0    0    0  501 -0.00000000000E+00  0.00000000000E+00  0.25313114852E+02  0.25313114852E+02  0.00000000000E+00 0.  1.
          1   -1    0    0  502    0  0.00000000000E+00 -0.00000000000E+00 -0.57565718128E+03  0.57565718128E+03  0.00000000000E+00 0. -1.
         23    2    1    2    0    0 -0.21191585866E+02 -0.25149671161E+02 -0.19991784044E+03  0.22282446936E+03  0.92747032017E+02 0.  0.
         23    2    1    2    0    0  0.21954048903E+02  0.52991602491E+02 -0.31652486029E+03  0.33427035428E+03  0.90876797771E+02 0.  0.
        -11    1    3    3    0    0  0.32952844793E+02 -0.25013148941E+02 -0.60789568476E+02  0.73531756646E+02  0.00000000000E+00 0.  1.
         11    1    3    3    0    0 -0.54144430659E+02 -0.13652221944E+00 -0.13912827196E+03  0.14929271271E+03  0.00000000000E+00 0. -1.
        -13    1    4    4    0    0  0.37725346818E+01 -0.25419746071E+02 -0.56444172048E+02  0.62018868632E+02  0.00000000000E+00 0. -1.
         13    1    4    4    0    0  0.18181514221E+02  0.78411348561E+02 -0.26008068824E+03  0.27225148565E+03  0.00000000000E+00 0.  1.
         21    1    1    2  502  501 -0.76246303677E+00 -0.27841931330E+02 -0.33901365699E+02  0.43875472491E+02  0.00000000000E+00 0. -1.
<scales pt_clust_5="13000.00000" pt_clust_6="13000.00000" pt_clust_7="13000.00000" pt_clust_8="13000.00000" pt_clust_9="27.85237"></scales>
<clustering>
<clus scale="   27.852">  1  9  2 -1</clus>
<clus scale="   90.877">  7  8 -1 -1</clus>
<clus scale="   92.747">  5  6 -1 -1</clus>
<clus scale="  101.950">  2  7  1 -1</clus>
<clus scale="  101.950">  2  5  1 -1</clus>
</clustering>
</event>
<event>
 9    1  0.1434065E-005  0.1178780E+03  0.7546771E-02  0.1247299E+00
          2   -1    0    0  502    0  0.00000000000E+00  0.00000000000E+00  0.44321932486E+03  0.44321932486E+03  0.00000000000E+00 0. -1.
         -2   -1    0    0    0  501 -0.00000000000E+00 -0.00000000000E+00 -0.90690317881E+02  0.90690317881E+02  0.00000000000E+00 0.  1.
         23    2    1    2    0    0  0.16031295487E+02  0.57118709717E+02 -0.15084764449E+02  0.10932868262E+03  0.90585105235E+02 0.  0.
         23    2    1    2    0    0 -0.38389019477E+02 -0.64728089435E+02  0.37973555249E+03  0.39803462218E+03  0.92569045843E+02 0.  0.
        -13    1    4    4    0    0 -0.37231267420E+02 -0.89537219150E+01  0.46856420840E+02  0.60513309146E+02  0.00000000000E+00 0.  1.
         13    1    4    4    0    0 -0.11577520565E+01 -0.55774367520E+02  0.33287913165E+03  0.33752131303E+03  0.00000000000E+00 0. -1.
        -13    1    3    3    0    0  0.48813369339E+02  0.56292948676E+02 -0.36462649330E+01  0.74598500956E+02  0.00000000000E+00 0.  1.
         13    1    3    3    0    0 -0.32782073852E+02  0.82576104082E+00 -0.11438499516E+02  0.34730181665E+02  0.00000000000E+00 0. -1.
         21    1    1    2  502  501  0.22357723989E+02  0.76093797183E+01 -0.12121781067E+02  0.26546337938E+02  0.00000000000E+00 0.  1.
<scales pt_clust_5="13000.00000" pt_clust_6="13000.00000" pt_clust_7="13000.00000" pt_clust_8="13000.00000" pt_clust_9="23.61716"></scales>
<clustering>
<clus scale="   23.617">  2  9  1 -1</clus>
<clus scale="   90.585">  7  8 -1 -1</clus>
<clus scale="   92.569">  5  6 -1 -1</clus>
<clus scale="  116.327">  2  7  1 -1</clus>
<clus scale="  117.878">  1  5  2 -1</clus>
</clustering>
</event>
<event>
 9    1  0.3055645E-005  0.9793217E+02  0.7546771E-02  0.1288665E+00
          1   -1    0    0  502    0  0.00000000000E+00  0.00000000000E+00  0.30110973754E+03  0.30110973754E+03  0.00000000000E+00 0. -1.
         -1   -1    0    0    0  501 -0.00000000000E+00 -0.00000000000E+00 -0.11561179524E+03  0.11561179524E+03  0.00000000000E+00 0.  1.
         23    2    1    2    0    0 -0.21436105187E+02 -0.15463215963E+02 -0.48759613155E+02  0.11190205011E+03  0.97190283928E+02 0.  0.
         23    2    1    2    0    0  0.10235746702E+02 -0.62455961350E+01  0.25628614063E+03  0.27192603169E+03  0.90096630615E+02 0.  0.
        -11    1    4    4    0    0 -0.22425211987E+01 -0.47179953667E+02  0.15302005488E+03  0.16014404180E+03  0.00000000000E+00 0. -1.
         11    1    4    4    0    0  0.12478267900E+02  0.40934357532E+02  0.10326608576E+03  0.11178198989E+03  0.00000000000E+00 0.  1.
        -13    1    3    3    0    0 -0.22565036466E+02  0.52871969022E+01 -0.74959878425E+02  0.78460937385E+02  0.00000000000E+00 0.  1.
         13    1    3    3    0    0  0.11289312795E+01 -0.20750412865E+02  0.26200265271E+02  0.33441112723E+02  0.00000000000E+00 0. -1.
         21    1    1    2  502  501  0.11200358485E+02  0.21708812098E+02 -0.22028585178E+02  0.32893450987E+02  0.00000000000E+00 0. -1.
<scales pt_clust_5="13000.00000" pt_clust_6="13000.00000" pt_clust_7="13000.00000" pt_clust_8="13000.00000" pt_clust_9="24.42786"></scales>
<clustering>
<clus scale="   24.428">  2  9  1 -1</clus>
<clus scale="   90.097">  5  6 -1 -1</clus>
<clus scale="   90.896">  1  5  2 -1</clus>
<clus scale="   97.190">  7  8 -1 -1</clus>
<clus scale="   90.896">  1  5  2 -1</clus>
</clustering>
</event>
<event>
 9    1  0.1434065E-005  0.1100097E+03  0.7546771E-02  0.1261895E+00
          1   -1    0    0  502    0  0.00000000000E+00  0.00000000000E+00  0.24759711119E+03  0.24759711119E+03  0.00000000000E+00 0. -1.
         -1   -1    0    0    0  501 -0.00000000000E+00 -0.00000000000E+00 -0.10324691004E+03  0.10324691004E+03  0.00000000000E+00 0.  1.
         23    2    1    2    0    0  0.29615681345E+02  0.78997220985E+02  0.11246455339E+03  0.16712065230E+03  0.90351464566E+02 0.  0.
         23    2    1    2    0    0 -0.24088494751E+02 -0.23290518756E+02  0.64813459967E+02  0.11877702738E+03  0.93725630418E+02 0.  0.
        -11    1    4    4    0    0  0.22158231225E+02 -0.36044100786E+01  0.64732332101E+02  0.68514624732E+02  0.00000000000E+00 0.  1.
         11    1    4    4    0    0 -0.46246725976E+02 -0.19686108678E+02  0.81127866560E-01  0.50262402649E+02  0.00000000000E+00 0. -1.
        -11    1    3    3    0    0  0.30942194104E+02  0.70302835966E+01 -0.21225867691E+01  0.31801723821E+02  0.00000000000E+00 0.  1.
         11    1    3    3    0    0 -0.13265127586E+01  0.71966937388E+02  0.11458714016E+03  0.13531892848E+03  0.00000000000E+00 0. -1.
         21    1    1    2  502  501 -0.55271865943E+01 -0.55706702229E+02 -0.32927812204E+02  0.64946341555E+02  0.00000000000E+00 0.  1.
<scales pt_clust_5="13000.00000" pt_clust_6="13000.00000" pt_clust_7="13000.00000" pt_clust_8="13000.00000" pt_clust_9="55.98023"></scales>
<clustering>
<clus scale="   55.980">  2  9  1 -1</clus>
<clus scale="   90.351">  7  8 -1 -1</clus>
<clus scale="   93.726">  5  6 -1 -1</clus>
<clus scale="  107.150">  2  7  1 -1</clus>
<clus scale="  110.010">  1  5  2 -1</clus>
</clustering>
</event>
<event>
 9    1  0.1434065E-005  0.9365683E+02  0.7546771E-02  0.1295745E+00
         -2   -1    0    0    0  501 -0.00000000000E+00  0.00000000000E+00  0.97713131448E+02  0.97713131448E+02  0.00000000000E+00 0.  1.
          2   -1    0    0  502    0  0.00000000000E+00 -0.00000000000E+00 -0.44789676385E+03  0.44789676385E+03  0.00000000000E+00 0. -1.
         23    2    1    2    0    0  0.31642174096E+02 -0.10107038088E+02  0.35037943576E+01  0.98653128061E+02  0.92826632497E+02 0.  0.
         23    2    1    2    0    0 -0.10066035746E+02 -0.43919198514E+01 -0.39103434988E+03  0.40145355642E+03  0.90202445340E+02 0.  0.
        -11    1    3    3    0    0  0.18590427011E+02  0.11978715665E+02 -0.41400606413E+02  0.46937232735E+02  0.00000000000E+00 0. -1.
         11    1    3    3    0    0  0.13051747085E+02 -0.22085753754E+02  0.44904400770E+02  0.51715895326E+02  0.00000000000E+00 0.  1.
        -11    1    4    4    0    0 -0.49654604355E+02  0.20188347384E+01 -0.18538920374E+03  0.19193439580E+03  0.00000000000E+00 0. -1.
         11    1    4    4    0    0  0.39588568609E+02 -0.64107545899E+01 -0.20564514613E+03  0.20951916062E+03  0.00000000000E+00 0.  1.
         21    1    1    2  502  501 -0.21576138350E+02  0.14498957940E+02  0.37346923121E+02  0.45503210810E+02  0.00000000000E+00 0.  1.
<scales pt_clust_5="13000.00000" pt_clust_6="13000.00000" pt_clust_7="13000.00000" pt_clust_8="13000.00000" pt_clust_9="25.99518"></scales>
<clustering>
<clus scale="   25.995">  1  9  2 -1</clus>
<clus scale="   90.202">  7  8 -1 -1</clus>
<clus scale="   91.057">  2  7  1 -1</clus>
<clus scale="   92.827">  5  6 -1 -1</clus>
<clus scale="   91.057">  2  5  1 -1</clus>
</clustering>
</event>
<event>
 9    1  0.1434065E-005  0.1108181E+03  0.7546771E-02  0.1259334E+00
         -4   -1    0    0    0  501 -0.00000000000E+00  0.00000000000E+00  0.12637539694E+03  0.12637539694E+03  0.00000000000E+00 0.  1.
          4   -1    0    0  502    0  0.00000000000E+00 -0.00000000000E+00 -0.14590323348E+03  0.14590323348E+03  0.00000000000E+00 0. -1.
         23    2    1    2    0    0 -0.55641980407E+02 -0.20595740139E+02  0.40770882792E+02  0.11594055007E+03  0.90883066478E+02 0.  0.
         23    2    1    2    0    0  0.72587500154E+02 -0.86302142399E+00 -0.47756668273E+02  0.12625599046E+03  0.91597957274E+02 0.  0.
        -13    1    3    3    0    0 -0.36205621627E+02  0.20893156912E+02 -0.14412789247E+02  0.44216507517E+02  0.00000000000E+00 0. -1.
         13    1    3    3    0    0 -0.19436358780E+02 -0.41488897051E+02  0.55183672039E+02  0.71724042558E+02  0.00000000000E+00 0.  1.
        -13    1    4    4    0    0  0.53854661948E+02  0.41469451575E+02 -0.15165933019E+02  0.69642268428E+02  0.00000000000E+00 0. -1.
         13    1    4    4    0    0  0.18732838207E+02 -0.42332472999E+02 -0.32590735254E+02  0.56613722028E+02  0.00000000000E+00 0.  1.
         21    1    1    2  502  501 -0.16945519747E+02  0.21458761563E+02 -0.12542051055E+02  0.30082089888E+02  0.00000000000E+00 0.  1.
<scales pt_clust_5="13000.00000" pt_clust_6="13000.00000" pt_clust_7="13000.00000" pt_clust_8="13000.00000" pt_clust_9="27.34281"></scales>
<clustering>
<clus scale="   27.343">  2  9  1 -1</clus>
<clus scale="   90.883">  5  6 -1 -1</clus>
<clus scale="   91.598">  7  8 -1 -1</clus>
<clus scale="  110.228">  1  5  2 -1</clus>
<clus scale="   27.343">  2  5  1 -1</clus>
</clustering>
</event>
<event>
 9    1  0.1434065E-005  0.9105485E+02  0.7546771E-02  0.1300803E+00
         -2   -1    0    0    0  501 -0.00000000000E+00  0.00000000000E+00  0.28311087821E+02  0.28311087821E+02  0.00000000000E+00 0.  1.
          2   -1    0    0  502    0  0.00000000000E+00 -0.00000000000E+00 -0.38912121409E+03  0.38912121409E+03  0.00000000000E+00 0. -1.
         23    2    1    2    0    0  0.16572555706E+02  0.60385668874E+01 -0.11521167376E+03  0.14703220506E+03  0.89630495154E+02 0.  0.
         23    2    1    2    0    0  0.27562199373E+01 -0.11611798419E+02 -0.21735464344E+03  0.23572481418E+03  0.90447312753E+02 0.  0.
        -11    1    4    4    0    0  0.37030682648E+02 -0.19234902757E+02 -0.17868494760E+03  0.18349267953E+03  0.00000000000E+00 0. -1.
         11    1    4    4    0    0 -0.34274462711E+02  0.76231043382E+01 -0.38669695836E+02  0.52232134648E+02  0.00000000000E+00 0.  1.
        -11    1    3    3    0    0 -0.24596871268E+02 -0.19340132224E+02 -0.83575611311E+02  0.89240851613E+02  0.00000000000E+00 0.  1.
         11    1    3    3    0    0  0.41169426974E+02  0.25378699112E+02 -0.31636062451E+02  0.57791353448E+02  0.00000000000E+00 0. -1.
         21    1    1    2  502  501 -0.19328775643E+02  0.55732315318E+01 -0.28243809066E+02  0.34675282668E+02  0.00000000000E+00 0.  1.
<scales pt_clust_5="13000.00000" pt_clust_6="13000.00000" pt_clust_7="13000.00000" pt_clust_8="13000.00000" pt_clust_9="20.11622"></scales>
<clustering>
<clus scale="   20.116">  1  9  2 -1</clus>
<clus scale="   89.630">  7  8 -1 -1</clus>
<clus scale="   90.244">  1  7  2 -1</clus>
<clus scale="   90.447">  5  6 -1 -1</clus>
<clus scale="   91.055">  2  5  1 -1</clus>
</clustering>
</event>
<event>
 9    1  0.1434065E-005  0.1197959E+03  0.7546771E-02  0.1254904E+00
         -1   -1    0    0    0  501 -0.00000000000E+00  0.00000000000E+00  0.11756218879E+03  0.11756218879E+03  0.00000000000E+00 0.  1.
          1   -1    0    0  502    0  0.00000000000E+00 -0.00000000000E+00 -0.33843334280E+03  0.33843334280E+03  0.00000000000E+00 0. -1.
         23    2    1    2    0    0 -0.52074757543E+02 -0.46022516399E+02 -0.12576081148E+03  0.16856885174E+03  0.88146603354E+02 0.  0.
         23    2    1    2    0    0 -0.22326795896E+01  0.11988644738E+02 -0.15950360691E+03  0.19657463174E+03  0.11424304252E+03 0.  0.
        -11    1    4    4    0    0 -0.24341227608E+02  0.57835575135E+02 -0.10223443565E+03  0.11995552904E+03  0.00000000000E+00 0.  1.
         11    1    4    4    0    0  0.22108548018E+02 -0.45846930397E+02 -0.57269171259E+02  0.76619102703E+02  0.00000000000E+00 0. -1.
        -13    1    3    3    0    0 -0.41972656161E+02  0.12988866400E+02 -0.22882737962E+02  0.49538209619E+02  0.00000000000E+00 0.  1.
         13    1    3    3    0    0 -0.10102101381E+02 -0.59011382799E+02 -0.10287807352E+03  0.11903064212E+03  0.00000000000E+00 0. -1.
         21    1    1    2  502  501  0.54307437132E+02  0.34033871661E+02  0.64393264384E+02  0.90852048112E+02  0.00000000000E+00 0.  1.
<scales pt_clust_5="13000.00000" pt_clust_6="13000.00000" pt_clust_7="13000.00000" pt_clust_8="13000.00000" pt_clust_9="64.09058"></scales>
<clustering>
<clus scale="   64.091">  1  9  2 -1</clus>
<clus scale="   88.147">  7  8 -1 -1</clus>
<clus scale="   95.233">  1  7  2 -1</clus>
<clus scale="  114.243">  5  6 -1 -1</clus>
<clus scale="  119.796">  2  5  1 -1</clus>
</clustering>
</event>
<event>
 9    1  0.1434065E-005  0.1656241E+03  0.7546771E-02  0.1186211E+00
         -2   -1    0    0    0  501 -0.00000000000E+00  0.00000000000E+00  0.10256251984E+03  0.10256251984E+03  0.00000000000E+00 0.  1.
          2   -1    0    0  502    0  0.00000000000E+00 -0.00000000000E+00 -0.38290395656E+03  0.38290395656E+03  0.00000000000E+00 0. -1.
         23    2    1    2    0    0  0.63727552476E+02  0.11517525728E+03 -0.47344395118E+02  0.17710934616E+03  0.10862636841E+03 0.  0.
         23    2    1    2    0    0 -0.76563316051E+02 -0.96596042384E+02 -0.24100883669E+03  0.28439605945E+03  0.87195885778E+02 0.  0.
        -11    1    3    3    0    0  0.37380502359E+02 -0.29829386315E+01  0.15657348563E+02  0.40636836043E+02  0.00000000000E+00 0.  1.
         11    1    3    3    0    0  0.26347050116E+02  0.11815819591E+03 -0.63001743681E+02  0.13647251012E+03  0.00000000000E+00 0. -1.
        -13    1    4    4    0    0 -0.56410478847E+02 -0.11718112883E+02 -0.58491839608E+02  0.82102080327E+02  0.00000000000E+00 0.  1.
         13    1    4    4    0    0 -0.20152837203E+02 -0.84877929501E+02 -0.18251699708E+03  0.20229397912E+03  0.00000000000E+00 0. -1.
         21    1    1    2  502  501  0.12835763575E+02 -0.18579214896E+02  0.80117950872E+01  0.23961070786E+02  0.00000000000E+00 0. -1.
<scales pt_clust_5="13000.00000" pt_clust_6="13000.00000" pt_clust_7="13000.00000" pt_clust_8="13000.00000" pt_clust_9="22.58194"></scales>
<clustering>
<clus scale="   22.582">  1  9  2 -1</clus>
<clus scale="   87.196">  7  8 -1 -1</clus>
<clus scale="  108.626">  5  6 -1 -1</clus>
<clus scale="  152.430">  2  7  1 -1</clus>
<clus scale="  152.430">  2  5  1 -1</clus>
</clustering>
</event>
<event>
 9    1  0.1434065E-005  0.1415190E+03  0.7546771E-02  0.1230210E+00
          1   -1    0    0  502    0  0.00000000000E+00  0.00000000000E+00  0.29894686740E+03  0.29894686740E+03  0.00000000000E+00 0. -1.
         -1   -1    0    0    0  501 -0.00000000000E+00 -0.00000000000E+00 -0.20564237558E+03  0.20564237558E+03  0.00000000000E+00 0.  1.
         23    2    1    2    0    0 -0.18072578627E+02 -0.16738771631E+02 -0.23092605569E+02  0.97948771374E+02  0.91945031446E+02 0.  0.
         23    2    1    2    0    0 -0.30994187191E+02  0.10218151779E+03  0.22093737990E+03  0.26298574301E+03  0.94585796906E+02 0.  0.
        -11    1    4    4    0    0  0.15530106082E+01  0.55812676669E+02  0.29108417875E+02  0.62966393498E+02  0.00000000000E+00 0.  1.
         11    1    4    4    0    0 -0.32547197799E+02  0.46368841122E+02  0.19182896202E+03  0.20001934952E+03  0.00000000000E+00 0. -1.
        -13    1    3    3    0    0 -0.94118099623E+00 -0.27725005703E+02 -0.54135542133E+02  0.60829422856E+02  0.00000000000E+00 0.  1.
         13    1    3    3    0    0 -0.17131397631E+02  0.10986234072E+02  0.31042936564E+02  0.37119348518E+02  0.00000000000E+00 0. -1.
         21    1    1    2  502  501  0.49066765818E+02 -0.85442746160E+02 -0.10454028250E+03  0.14365472859E+03  0.00000000000E+00 0.  1.
<scales pt_clust_5="13000.00000" pt_clust_6="13000.00000" pt_clust_7="13000.00000" pt_clust_8="13000.00000" pt_clust_9="105.26708"></scales>
<clustering>
<clus scale="   91.945">  7  8 -1 -1</clus>
<clus scale="   94.586">  5  6 -1 -1</clus>
<clus scale="   95.188">  2  7  1 -1</clus>
<clus scale="  105.267">  2  9  1 -1</clus>
<clus scale="  141.519">  1  5  2 -1</clus>
</clustering>
</event>
<event>
 9    1  0.1434065E-005  0.1384371E+03  0.7546771E-02  0.1215974E+00
         -2   -1    0    0    0  501 -0.00000000000E+00  0.00000000000E+00  0.20417989378E+03  0.20417989378E+03  0.00000000000E+00 0.  1.
          2   -1    0    0  502    0  0.00000000000E+00 -0.00000000000E+00 -0.22289095702E+03  0.22289095702E+03  0.00000000000E+00 0. -1.
         23    2    1    2    0    0  0.88331048583E+02  0.27832248190E+01 -0.81139863740E+00  0.12770417539E+03  0.92182306110E+02 0.  0.
         23    2    1    2    0    0 -0.11084100629E+03 -0.30027310205E+01 -0.12512332767E+03  0.18980545828E+03  0.89863895937E+02 0.  0.
        -11    1    4    4    0    0 -0.85918153147E+02 -0.26961035820E+02 -0.12641761887E+03  0.15521031169E+03  0.00000000000E+00 0. -1.
         11    1    4    4    0    0 -0.24922853147E+02  0.23958304799E+02  0.12942911969E+01  0.34595146589E+02  0.00000000000E+00 0.  1.
        -11    1    3    3    0    0  0.69880462496E+02  0.16434048241E+02  0.39040193054E+02  0.81715932681E+02  0.00000000000E+00 0.  1.
         11    1    3    3    0    0  0.18450586087E+02 -0.13650823422E+02 -0.39851591691E+02  0.45988242708E+02  0.00000000000E+00 0. -1.
         21    1    1    2  502  501  0.22509957711E+02  0.21950620141E+00  0.10722366307E+03  0.10956121714E+03  0.00000000000E+00 0.  1.
<scales pt_clust_5="13000.00000" pt_clust_6="13000.00000" pt_clust_7="13000.00000" pt_clust_8="13000.00000" pt_clust_9="22.51103"></scales>
<clustering>
<clus scale="   22.511">  1  9  2 -1</clus>
<clus scale="   89.864">  5  6 -1 -1</clus>
<clus scale="   92.182">  7  8 -1 -1</clus>
<clus scale="  136.904">  2  5  1 -1</clus>
<clus scale="  136.904">  2  5  1 -1</clus>
</clustering>
</event>
<event>
 9    1  0.1434065E-005  0.9682820E+02  0.7546771E-02  0.1287295E+00
         -1   -1    0    0    0  501 -0.00000000000E+00  0.00000000000E+00  0.25921644702E+02  0.25921644702E+02  0.00000000000E+00 0.  1.
          1   -1    0    0  502    0  0.00000000000E+00 -0.00000000000E+00 -0.56926011598E+03  0.56926011598E+03  0.00000000000E+00 0. -1.
         23    2    1    2    0    0 -0.37446213942E+02  0.75704537388E+01 -0.13054563976E+03  0.16343254286E+03  0.90600779773E+02 0.  0.
         23    2    1    2    0    0  0.21164127821E+02 -0.28286197185E+02 -0.35899126828E+03  0.37184215179E+03  0.90243148682E+02 0.  0.
        -11    1    3    3    0    0 -0.20311287922E+02 -0.17265249130E+02  0.27177745273E+01  0.26795961318E+02  0.00000000000E+00 0.  1.
         11    1    3    3    0    0 -0.17134926019E+02  0.24835702868E+02 -0.13326341429E+03  0.13663658154E+03  0.00000000000E+00 0. -1.
        -13    1    4    4    0    0 -0.25634723697E+02 -0.39137769425E+02 -0.13886312954E+03  0.14653283864E+03  0.00000000000E+00 0.  1.
         13    1    4    4    0    0  0.46798851518E+02  0.10851572240E+02 -0.22012813874E+03  0.22530931315E+03  0.00000000000E+00 0. -1.
         21    1    1    2  502  501  0.16282086121E+02  0.20715743447E+02 -0.53801563228E+02  0.59907066034E+02  0.00000000000E+00 0.  1.
<scales pt_clust_5="13000.00000" pt_clust_6="13000.00000" pt_clust_7="13000.00000" pt_clust_8="13000.00000" pt_clust_9="26.34859"></scales>
<clustering>
<clus scale="   26.349">  1  9  2 -1</clus>
<clus scale="   90.243">  7  8 -1 -1</clus>
<clus scale="   90.601">  5  6 -1 -1</clus>
<clus scale="   96.494">  2  7  1 -1</clus>
<clus scale="   96.494">  2  5  1 -1</clus>
</clustering>
</event>
<event>
 9    1  0.1434065E-005  0.1334037E+03  0.7546771E-02  0.1227696E+00
         -1   -1    0    0    0  501 -0.00000000000E+00  0.00000000000E+00  0.48906998523E+03  0.48906998523E+03  0.00000000000E+00 0.  1.
          1   -1    0    0  502    0  0.00000000000E+00 -0.00000000000E+00 -0.77528286120E+02  0.77528286120E+02  0.00000000000E+00 0. -1.
         23    2    1    2    0    0 -0.68250474975E+02  0.11269207476E+03  0.11613163980E+03  0.20314581791E+03  0.10209816122E+03 0.  0.
         23    2    1    2    0    0  0.37104232697E+02 -0.46578773221E+02  0.64113249378E+02  0.12088437777E+03  0.83403943821E+02 0.  0.
        -11    1    3    3    0    0 -0.89790059868E+02  0.92460740079E+02  0.65627074088E+02  0.14463110371E+03  0.00000000000E+00 0. -1.
         11    1    3    3    0    0  0.21539584892E+02  0.20231334678E+02  0.50504565708E+02  0.58514714197E+02  0.00000000000E+00 0.  1.
        -13    1    4    4    0    0  0.75061980947E+01 -0.47137749454E+02  0.75370130235E+02  0.89213042572E+02  0.00000000000E+00 0.  1.
         13    1    4    4    0    0  0.29598034602E+02  0.55897623285E+00 -0.11256880857E+02  0.31671335200E+02  0.00000000000E+00 0. -1.
         21    1    1    2  502  501  0.31146242278E+02 -0.66113301536E+02  0.23129680994E+03  0.24256807567E+03  0.00000000000E+00 0.  1.
<scales pt_clust_5="13000.00000" pt_clust_6="13000.00000" pt_clust_7="13000.00000" pt_clust_8="13000.00000" pt_clust_9="73.08254"></scales>
<clustering>
<clus scale="   73.083">  1  9  2 -1</clus>
<clus scale="   83.404">  7  8 -1 -1</clus>
<clus scale="  102.098">  5  6 -1 -1</clus>
<clus scale="  119.703">  2  7  1 -1</clus>
<clus scale="  119.703">  2  5  1 -1</clus>
</clustering>
</event>
<event>
 9    1  0.1434065E-005  0.1047486E+03  0.7546771E-02  0.1270926E+00
         -2   -1    0    0    0  501 -0.00000000000E+00  0.00000000000E+00  0.43482398755E+02  0.43482398755E+02  0.00000000000E+00 0.  1.
          2   -1    0    0  502    0  0.00000000000E+00 -0.00000000000E+00 -0.34925630540E+03  0.34925630540E+03  0.00000000000E+00 0. -1.
         23    2    1    2    0    0  0.69539633175E+01 -0.61720829529E+02 -0.13572648424E+03  0.17494753323E+03  0.91253177784E+02 0.  0.
         23    2    1    2    0    0  0.15435721700E+02  0.40354394591E+02 -0.14905919370E+03  0.18039694301E+03  0.91965619405E+02 0.  0.
        -11    1    4    4    0    0  0.20732033534E+02 -0.66577247489E+01  0.22247766609E+01  0.21888173621E+02  0.00000000000E+00 0.  1.
         11    1    4    4    0    0 -0.52963118336E+01  0.47012119340E+02 -0.15128397036E+03  0.15850876939E+03  0.00000000000E+00 0. -1.
        -11    1    3    3    0    0  0.39096014653E+01 -0.84940499566E+02 -0.11861289292E+03  0.14594242638E+03  0.00000000000E+00 0. -1.
         11    1    3    3    0    0  0.30443618522E+01  0.23219670037E+02 -0.17113591321E+02  0.29005106853E+02  0.00000000000E+00 0.  1.
         21    1    1    2  502  501 -0.22389685018E+02  0.21366434938E+02 -0.20988228699E+02  0.37394227912E+02  0.00000000000E+00 0. -1.
<scales pt_clust_5="13000.00000" pt_clust_6="13000.00000" pt_clust_7="13000.00000" pt_clust_8="13000.00000" pt_clust_9="30.94871"></scales>
<clustering>
<clus scale="   30.949">  1  9  2 -1</clus>
<clus scale="   91.253">  7  8 -1 -1</clus>
<clus scale="   91.966">  5  6 -1 -1</clus>
<clus scale="  104.124">  1  7  2 -1</clus>
<clus scale="  104.749">  2  5  1 -1</clus>
</clustering>
</event>
<event>
 9    1  0.1434065E-005  0.9279410E+02  0.7546771E-02  0.1298776E+00
          1   -1    0    0  502    0  0.00000000000E+00  0.00000000000E+00  0.13897065867E+03  0.13897065867E+03  0.00000000000E+00 0. -1.
         -1   -1    0    0    0  501 -0.00000000000E+00 -0.00000000000E+00 -0.24393374633E+03  0.24393374633E+03  0.00000000000E+00 0.  1.
         23    2    1    2    0    0  0.17573741845E+02  0.48113197030E+01 -0.19882410208E+03  0.21793697796E+03  0.87370003963E+02 0.  0.
         23    2    1    2    0    0 -0.66704360492E+01  0.13421569533E+02  0.10562636473E+03  0.14068278590E+03  0.91706510549E+02 0.  0.
        -11    1    4    4    0    0  0.16228250414E+02  0.38926553696E+02  0.96346536085E+02  0.10517265666E+03  0.00000000000E+00 0.  1.
         11    1    4    4    0    0 -0.22898686463E+02 -0.25504984163E+02  0.92798286461E+01  0.35510129239E+02  0.00000000000E+00 0. -1.
        -13    1    3    3    0    0  0.30609336514E+02  0.30886058284E+02 -0.17490179479E+03  0.18022629636E+03  0.00000000000E+00 0.  1.
         13    1    3    3    0    0 -0.13035594669E+02 -0.26074738581E+02 -0.23922307291E+02  0.37710681598E+02  0.00000000000E+00 0. -1.
         21    1    1    2  502  501 -0.10903305796E+02 -0.18232889236E+02 -0.11765350312E+02  0.24284641137E+02  0.00000000000E+00 0. -1.
<scales pt_clust_5="13000.00000" pt_clust_6="13000.00000" pt_clust_7="13000.00000" pt_clust_8="13000.00000" pt_clust_9="21.24430"></scales>
<clustering>
<clus scale="   21.244">  2  9  1 -1</clus>
<clus scale="   87.370">  7  8 -1 -1</clus>
<clus scale="   88.511">  2  7  1 -1</clus>
<clus scale="   91.707">  5  6 -1 -1</clus>
<clus scale="   92.794">  1  5  2 -1</clus>
</clustering>
</event>
<event>
 9    1  0.1434065E-005  0.9601897E+02  0.7546771E-02  0.1288979E+00
          1   -1    0    0  502    0  0.00000000000E+00  0.00000000000E+00  0.47250005568E+03  0.47250005568E+03  0.00000000000E+00 0. -1.
         -1   -1    0    0    0  501 -0.00000000000E+00 -0.00000000000E+00 -0.35468939066E+02  0.35468939066E+02  0.00000000000E+00 0.  1.
         23    2    1    2    0    0 -0.38746612158E+02  0.17848237609E+02  0.13845606756E+03  0.17105922376E+03  0.90946774822E+02 0.  0.
         23    2    1    2    0    0  0.18503305295E+02 -0.18596019734E+02  0.30193175913E+03  0.31637642850E+03  0.90791371180E+02 0.  0.
        -13    1    4    4    0    0  0.45220470519E+02  0.14426947927E+02  0.20703724415E+03  0.21240868214E+03  0.00000000000E+00 0. -1.
         13    1    4    4    0    0 -0.26717165224E+02 -0.33022967661E+02  0.94894514979E+02  0.10396774636E+03  0.00000000000E+00 0.  1.
        -13    1    3    3    0    0 -0.30081563686E+02 -0.25336671969E+02  0.18875692463E+02  0.43624983510E+02  0.00000000000E+00 0.  1.
         13    1    3    3    0    0 -0.86650484721E+01  0.43184909578E+02  0.11958037510E+03  0.12743424026E+03  0.00000000000E+00 0. -1.
         21    1    1    2  502  501  0.20243306863E+02  0.74778212505E+00 -0.33567100825E+01  0.20533342481E+02  0.00000000000E+00 0.  1.
<scales pt_clust_5="13000.00000" pt_clust_6="13000.00000" pt_clust_7="13000.00000" pt_clust_8="13000.00000" pt_clust_9="20.25711"></scales>
<clustering>
<clus scale="   20.257">  2  9  1 -1</clus>
<clus scale="   90.791">  5  6 -1 -1</clus>
<clus scale="   90.947">  7  8 -1 -1</clus>
<clus scale="   95.872">  1  5  2 -1</clus>
<clus scale="   95.872">  1  5  2 -1</clus>
</clustering>
</event>
<event>
 9    1  0.1434065E-005  0.2347972E+03  0.7546771E-02  0.1149161E+00
         -2   -1    0    0    0  501 -0.00000000000E+00  0.00000000000E+00  0.16809166255E+03  0.16809166255E+03  0.00000000000E+00 0.  1.
          2   -1    0    0  502    0  0.00000000000E+00 -0.00000000000E+00 -0.99944292301E+03  0.99944292301E+03  0.00000000000E+00 0. -1.
         23    2    1    2    0    0  0.78219544773E+02 -0.36534224259E+02  0.68337269430E+02  0.14273503903E+03  0.90830954228E+02 0.  0.
         23    2    1    2    0    0 -0.11875269749E+03 -0.18285070101E+03 -0.64033111907E+03  0.68268999032E+03  0.92223092649E+02 0.  0.
        -11    1    4    4    0    0 -0.81427720784E+02 -0.10361037740E+03 -0.50160000303E+03  0.51862139086E+03  0.00000000000E+00 0. -1.
         11    1    4    4    0    0 -0.37324976703E+02 -0.79240323616E+02 -0.13873111603E+03  0.16406859946E+03  0.00000000000E+00 0.  1.
        -13    1    3    3    0    0  0.81335175313E+02  0.93068668621E+00  0.66553913337E+02  0.10509852664E+03  0.00000000000E+00 0. -1.
         13    1    3    3    0    0 -0.31156305406E+01 -0.37464910945E+02  0.17833560927E+01  0.37636512388E+02  0.00000000000E+00 0.  1.
         21    1    1    2  502  501  0.40533152714E+02  0.21938492527E+03 -0.25935741082E+03  0.34210955621E+03  0.00000000000E+00 0. -1.
<scales pt_clust_5="13000.00000" pt_clust_6="13000.00000" pt_clust_7="13000.00000" pt_clust_8="13000.00000" pt_clust_9="215.92735"></scales>
<clustering>
<clus scale="   90.831">  7  8 -1 -1</clus>
<clus scale="   92.223">  5  6 -1 -1</clus>
<clus scale="  125.313">  1  7  2 -1</clus>
<clus scale="  215.927">  1  9  2 -1</clus>
<clus scale="  234.797">  2  5  1 -1</clus>
</clustering>
</event>
<event>
 9    1  0.1434065E-005  0.9398379E+02  0.7546771E-02  0.1293801E+00
         -2   -1    0    0    0  501 -0.00000000000E+00  0.00000000000E+00  0.84251740780E+02  0.84251740780E+02  0.00000000000E+00 0.  1.
          2   -1    0    0  502    0  0.00000000000E+00 -0.00000000000E+00 -0.26701404302E+03  0.26701404302E+03  0.00000000000E+00 0. -1.
         23    2    1    2    0    0 -0.32540400669E+02 -0.13447383971E+02  0.19048347777E+02  0.98568933107E+02  0.90073776481E+02 0.  0.
         23    2    1    2    0    0  0.12102009595E+02  0.20758959003E+02 -0.20960831745E+03  0.22963192978E+03  0.90651990687E+02 0.  0.
        -11    1    4    4    0    0 -0.30948789171E+02  0.31115934372E+02 -0.65253551043E+02  0.78638761731E+02  0.00000000000E+00 0.  1.
         11    1    4    4    0    0  0.43050798765E+02 -0.10356975369E+02 -0.14435476641E+03  0.15099316805E+03  0.00000000000E+00 0. -1.
        -13    1    3    3    0    0 -0.10636051350E+02 -0.35314170437E+02  0.44996589146E+02  0.58179972987E+02  0.00000000000E+00 0.  1.
         13    1    3    3    0    0 -0.21904349319E+02  0.21866786465E+02 -0.25948241369E+02  0.40388960120E+02  0.00000000000E+00 0. -1.
         21    1    1    2  502  501  0.20438391075E+02 -0.73115750312E+01  0.77976674345E+01  0.23064920910E+02  0.00000000000E+00 0.  1.
<scales pt_clust_5="13000.00000" pt_clust_6="13000.00000" pt_clust_7="13000.00000" pt_clust_8="13000.00000" pt_clust_9="21.70684"></scales>
<clustering>
<clus scale="   21.707">  1  9  2 -1</clus>
<clus scale="   90.074">  7  8 -1 -1</clus>
<clus scale="   90.652">  5  6 -1 -1</clus>
<clus scale="   93.426">  1  7  2 -1</clus>
<clus scale="   93.984">  2  5  1 -1</clus>
</clustering>
</event>
<event>
 9    1  0.1434065E-005  0.9628314E+02  0.7546771E-02  0.1289468E+00
          2   -1    0    0  502    0  0.00000000000E+00  0.00000000000E+00  0.11133607781E+03  0.11133607781E+03  0.00000000000E+00 0.  1.
         -2   -1    0    0    0  501 -0.00000000000E+00 -0.00000000000E+00 -0.28635959944E+03  0.28635959944E+03  0.00000000000E+00 0. -1.
         23    2    1    2    0    0  0.15194697871E+02 -0.49723794140E+01 -0.10164380112E+03  0.13603718535E+03  0.88989044787E+02 0.  0.
         23    2    1    2    0    0  0.40852162239E+01 -0.39234468642E+02  0.62573127463E+02  0.11740476620E+03  0.91172640222E+02 0.  0.
        -13    1    4    4    0    0 -0.26853323942E+02 -0.52860353561E+02  0.58606106032E+02  0.83366621915E+02  0.00000000000E+00 0.  1.
         13    1    4    4    0    0  0.30938540166E+02  0.13625884919E+02  0.39670214317E+01  0.34038144286E+02  0.00000000000E+00 0. -1.
        -13    1    3    3    0    0  0.37585768354E+02 -0.35814653022E+02 -0.64734482432E+02  0.82981519446E+02  0.00000000000E+00 0. -1.
         13    1    3    3    0    0 -0.22391070483E+02  0.30842273608E+02 -0.36909318690E+02  0.53055665907E+02  0.00000000000E+00 0.  1.
         21    1    1    2  502  501 -0.19279914095E+02  0.44206848056E+02 -0.13595284798E+03  0.14425372569E+03  0.00000000000E+00 0.  1.
<scales pt_clust_5="13000.00000" pt_clust_6="13000.00000" pt_clust_7="13000.00000" pt_clust_8="13000.00000" pt_clust_9="48.22821"></scales>
<clustering>
<clus scale="   48.228">  2  9  1 -1</clus>
<clus scale="   88.989">  7  8 -1 -1</clus>
<clus scale="   91.173">  5  6 -1 -1</clus>
<clus scale="   94.218">  2  7  1 -1</clus>
<clus scale="   96.283">  1  5  2 -1</clus>
</clustering>
</event>
<event>
 9    1  0.1434065E-005  0.2008880E+03  0.7546771E-02  0.1151320E+00
         -1   -1    0    0    0  501 -0.00000000000E+00  0.00000000000E+00  0.14003477357E+03  0.14003477357E+03  0.00000000000E+00 0.  1.
          1   -1    0    0  502    0  0.00000000000E+00 -0.00000000000E+00 -0.41251537755E+03  0.41251537755E+03  0.00000000000E+00 0. -1.
         23    2    1    2    0    0 -0.93427224394E+02  0.11399153096E+03 -0.10787010350E+02  0.18585397750E+03  0.11270592696E+03 0.  0.
         23    2    1    2    0    0  0.14409939302E+03 -0.10071487752E+03 -0.23594290090E+03  0.30832634943E+03  0.92130145126E+02 0.  0.
        -11    1    4    4    0    0  0.95832547444E+02 -0.97728419268E+02 -0.21664032065E+03  0.25625719426E+03  0.00000000000E+00 0. -1.
         11    1    4    4    0    0  0.48266845577E+02 -0.29864582551E+01 -0.19302580257E+02  0.52069155163E+02  0.00000000000E+00 0.  1.
        -11    1    3    3    0    0 -0.56558077066E+02  0.12496878529E+03  0.17250791989E+02  0.13825195551E+03  0.00000000000E+00 0.  1.
         11    1    3    3    0    0 -0.36869147327E+02 -0.10977254331E+02 -0.28037802339E+02  0.47602021987E+02  0.00000000000E+00 0. -1.
         21    1    1    2  502  501 -0.50672168627E+02 -0.13276653438E+02 -0.25750692733E+02  0.58369824191E+02  0.00000000000E+00 0.  1.
<scales pt_clust_5="13000.00000" pt_clust_6="13000.00000" pt_clust_7="13000.00000" pt_clust_8="13000.00000" pt_clust_9="52.38261"></scales>
<clustering>
<clus scale="   52.383">  1  9  2 -1</clus>
<clus scale="   92.130">  5  6 -1 -1</clus>
<clus scale="  112.706">  7  8 -1 -1</clus>
<clus scale="  190.109">  2  5  1 -1</clus>
<clus scale="  190.109">  2  5  1 -1</clus>
</clustering>
</event>
<event>
 9    1  0.1434065E-005  0.1218594E+03  0.7546771E-02  0.1240065E+00
          1   -1    0    0  502    0  0.00000000000E+00  0.00000000000E+00  0.47994740032E+02  0.47994740032E+02  0.00000000000E+00 0. -1.
         -1   -1    0    0    0  501 -0.00000000000E+00 -0.00000000000E+00 -0.56397216133E+03  0.56397216133E+03  0.00000000000E+00 0.  1.
         23    2    1    2    0    0 -0.14230651857E+02  0.43472858958E+02 -0.23199179734E+03  0.25373086683E+03  0.92014986977E+02 0.  0.
         23    2    1    2    0    0  0.34812419526E+02 -0.93022285346E+02 -0.10485085556E+03  0.17123865471E+03  0.91999591462E+02 0.  0.
        -11    1    4    4    0    0  0.17435461204E+02 -0.10381026263E+03 -0.58156411227E+02  0.12026110802E+03  0.00000000000E+00 0. -1.
         11    1    4    4    0    0  0.17376958322E+02  0.10787977286E+02 -0.46694444337E+02  0.50977546688E+02  0.00000000000E+00 0.  1.
        -11    1    3    3    0    0 -0.49594636348E+02  0.43711967484E+02 -0.13118802344E+03  0.14690357909E+03  0.00000000000E+00 0.  1.
         11    1    3    3    0    0  0.35363984491E+02 -0.23910852608E+00 -0.10080377390E+03  0.10682728774E+03  0.00000000000E+00 0. -1.
         21    1    1    2  502  501 -0.20581767669E+02  0.49549426388E+02 -0.17913476839E+03  0.18699737982E+03  0.00000000000E+00 0.  1.
<scales pt_clust_5="13000.00000" pt_clust_6="13000.00000" pt_clust_7="13000.00000" pt_clust_8="13000.00000" pt_clust_9="53.65403"></scales>
<clustering>
<clus scale="   53.654">  2  9  1 -1</clus>
<clus scale="   92.000">  5  6 -1 -1</clus>
<clus scale="   92.015">  7  8 -1 -1</clus>
<clus scale="  121.848">  1  5  2 -1</clus>
<clus scale="  121.848">  1  5  2 -1</clus>
</clustering>
</event>
<event>
 9    1  0.1434065E-005  0.9984664E+02  0.7546771E-02  0.1281887E+00
          2   -1    0    0  502    0  0.00000000000E+00  0.00000000000E+00  0.20706059207E+03  0.20706059207E+03  0.00000000000E+00 0. -1.
         -2   -1    0    0    0  501 -0.00000000000E+00 -0.00000000000E+00 -0.72130799144E+02  0.72130799144E+02  0.00000000000E+00 0.  1.
         23    2    1    2    0    0  0.28453256809E+02 -0.88276143197E+00  0.30107554049E+02  0.10062863732E+03  0.91702185075E+02 0.  0.
         23    2    1    2    0    0 -0.41351818141E+02  0.21388124442E+02  0.11459071553E+03  0.15244253313E+03  0.89108187567E+02 0.  0.
        -11    1    4    4    0    0 -0.36045196387E+02 -0.21355164134E+01  0.12198708662E+03  0.12721896838E+03  0.00000000000E+00 0. -1.
         11    1    4    4    0    0 -0.53066217536E+01  0.23523640855E+02 -0.73963710927E+01  0.25223564753E+02  0.00000000000E+00 0.  1.
        -13    1    3    3    0    0  0.25936037564E+02 -0.40543079517E+02 -0.39504279167E+01  0.48291047016E+02  0.00000000000E+00 0.  1.
         13    1    3    3    0    0  0.25172192453E+01  0.39660318085E+02  0.34057981966E+02  0.52337590305E+02  0.00000000000E+00 0. -1.
         21    1    1    2  502  501  0.12898561332E+02 -0.20505363010E+02 -0.97684766511E+01  0.26120220762E+02  0.00000000000E+00 0.  1.
<scales pt_clust_5="13000.00000" pt_clust_6="13000.00000" pt_clust_7="13000.00000" pt_clust_8="13000.00000" pt_clust_9="24.22484"></scales>
<clustering>
<clus scale="   24.225">  2  9  1 -1</clus>
<clus scale="   89.108">  5  6 -1 -1</clus>
<clus scale="   91.702">  7  8 -1 -1</clus>
<clus scale="   97.470">  1  5  2 -1</clus>
<clus scale="   97.470">  1  5  2 -1</clus>
</clustering>
</event>
<event>
 9    1  0.1434065E-005  0.2214854E+03  0.7546771E-02  0.1133418E+00
         -2   -1    0    0    0  501 -0.00000000000E+00  0.00000000000E+00  0.70330684773E+03  0.70330684773E+03  0.00000000000E+00 0.  1.
          2   -1    0    0  502    0  0.00000000000E+00 -0.00000000000E+00 -0.12755189288E+03  0.12755189288E+03  0.00000000000E+00 0. -1.
         23    2    1    2    0    0  0.13855451516E+03 -0.51381540105E+02  0.34070231023E+03  0.38233895950E+03  0.90926340641E+02 0.  0.
         23    2    1    2    0    0 -0.15748064626E+03  0.16790565704E+03  0.10159785887E+03  0.27034501268E+03  0.98852604108E+02 0.  0.
        -11    1    3    3    0    0  0.37237310186E+02  0.19078924435E+00  0.18972131263E+03  0.19334122720E+03  0.00000000000E+00 0.  1.
         11    1    3    3    0    0  0.10131720497E+03 -0.51572329350E+02  0.15098099760E+03  0.18899773230E+03  0.00000000000E+00 0. -1.
        -13    1    4    4    0    0 -0.58947048005E+02  0.11775210989E+02  0.10564286634E+01  0.60120929000E+02  0.00000000000E+00 0.  1.
         13    1    4    4    0    0 -0.98533598260E+02  0.15613044605E+03  0.10054143021E+03  0.21022408368E+03  0.00000000000E+00 0. -1.
         21    1    1    2  502  501  0.18926131108E+02 -0.11652411693E+03  0.13345478575E+03  0.17817476843E+03  0.00000000000E+00 0. -1.
<scales pt_clust_5="13000.00000" pt_clust_6="13000.00000" pt_clust_7="13000.00000" pt_clust_8="13000.00000" pt_clust_9="118.05113"></scales>
<clustering>
<clus scale="   90.926">  5  6 -1 -1</clus>
<clus scale="   98.853">  7  8 -1 -1</clus>
<clus scale="  118.051">  1  9  2 -1</clus>
<clus scale="  218.063">  1  5  2 -1</clus>
<clus scale="  221.485">  2  5  1 -1</clus>
</clustering>
</event>
<event>
 9    1  0.1434065E-005  0.1016792E+03  0.7546771E-02  0.1276930E+00
          1   -1    0    0  502    0  0.00000000000E+00  0.00000000000E+00  0.53072426946E+02  0.53072426946E+02  0.00000000000E+00 0. -1.
         -1   -1    0    0    0  501 -0.00000000000E+00 -0.00000000000E+00 -0.82081150319E+03  0.82081150319E+03  0.00000000000E+00 0.  1.
         23    2    1    2    0    0 -0.71355260027E+02 -0.32002133857E+02 -0.13453934170E+03  0.18047749203E+03  0.91408866970E+02 0.  0.
         23    2    1    2    0    0 -0.21374524273E+02  0.48042100819E+02 -0.79784419568E+02  0.13204683474E+03  0.91136706218E+02 0.  0.
        -11    1    3    3    0    0 -0.10333368187E+02  0.24772426727E+02 -0.63636576144E+01  0.27585281624E+02  0.00000000000E+00 0.  1.
         11    1    3    3    0    0 -0.61021891840E+02 -0.56774560584E+02 -0.12817568408E+03  0.15289221041E+03  0.00000000000E+00 0. -1.
        -13    1    4    4    0    0 -0.40009930831E+02  0.12535203768E+02  0.91051145315E+00  0.41937512202E+02  0.00000000000E+00 0. -1.
         13    1    4    4    0    0  0.18635406558E+02  0.35506897051E+02 -0.80694931021E+02  0.90109322538E+02  0.00000000000E+00 0.  1.
         21    1    1    2  502  501  0.92729784300E+02 -0.16039966961E+02 -0.55341531497E+03  0.56135960336E+03  0.00000000000E+00 0. -1.
<scales pt_clust_5="13000.00000" pt_clust_6="13000.00000" pt_clust_7="13000.00000" pt_clust_8="13000.00000" pt_clust_9="94.10682"></scales>
<clustering>
<clus scale="   91.137">  7  8 -1 -1</clus>
<clus scale="   91.409">  5  6 -1 -1</clus>
<clus scale="   94.107">  2  9  1 -1</clus>
<clus scale="  101.435">  1  7  2 -1</clus>
<clus scale="  101.435">  1  5  2 -1</clus>
</clustering>
</event>
<event>
 9    1  0.1434065E-005  0.9601173E+02  0.7546771E-02  0.1289822E+00
         -2   -1    0    0    0  501 -0.00000000000E+00  0.00000000000E+00  0.27503191395E+03  0.27503191395E+03  0.00000000000E+00 0.  1.
          2   -1    0    0  502    0  0.00000000000E+00 -0.00000000000E+00 -0.36432719528E+03  0.36432719528E+03  0.00000000000E+00 0. -1.
         23    2    1    2    0    0  0.69027725467E+01 -0.15678374937E+02  0.13787353081E+03  0.16730258304E+03  0.93207210469E+02 0.  0.
         23    2    1    2    0    0 -0.17217510407E+02 -0.17094149833E+02 -0.34060874363E+03  0.35352783662E+03  0.91536672474E+02 0.  0.
        -11    1    3    3    0    0 -0.83876789616E+01 -0.49602260292E+02  0.10951802318E+03  0.12051943738E+03  0.00000000000E+00 0.  1.
         11    1    3    3    0    0  0.15290451508E+02  0.33923885355E+02  0.28355507629E+02  0.46783145660E+02  0.00000000000E+00 0. -1.
        -11    1    4    4    0    0 -0.24824104355E+02  0.33805442019E+02 -0.18235879991E+03  0.18711968355E+03  0.00000000000E+00 0. -1.
         11    1    4    4    0    0  0.76065939482E+01 -0.50899591851E+02 -0.15824994372E+03  0.16640815307E+03  0.00000000000E+00 0.  1.
         21    1    1    2  502  501  0.10314737860E+02  0.32772524770E+02  0.11343993148E+03  0.11852868957E+03  0.00000000000E+00 0. -1.
<scales pt_clust_5="13000.00000" pt_clust_6="13000.00000" pt_clust_7="13000.00000" pt_clust_8="13000.00000" pt_clust_9="34.35742"></scales>
<clustering>
<clus scale="   34.357">  1  9  2 -1</clus>
<clus scale="   91.537">  7  8 -1 -1</clus>
<clus scale="   93.207">  5  6 -1 -1</clus>
<clus scale="   94.391">  2  7  1 -1</clus>
<clus scale="   94.391">  2  5  1 -1</clus>
</clustering>
</event>
<event>
 9    1  0.1434065E-005  0.9139725E+02  0.7546771E-02  0.1300876E+00
          2   -1    0    0  502    0  0.00000000000E+00  0.00000000000E+00  0.19062333795E+03  0.19062333795E+03  0.00000000000E+00 0. -1.
         -2   -1    0    0    0  501 -0.00000000000E+00 -0.00000000000E+00 -0.75064243897E+02  0.75064243897E+02  0.00000000000E+00 0.  1.
         23    2    1    2    0    0  0.12428082792E+02 -0.59792288146E+01  0.14887247698E+02  0.93070030271E+02  0.90830567386E+02 0.  0.
         23    2    1    2    0    0  0.19930228416E+02 -0.29426933460E+01  0.10495688193E+03  0.13877937005E+03  0.88531875838E+02 0.  0.
        -13    1    3    3    0    0  0.38679356683E+02 -0.30001251989E+02  0.26469568462E+02  0.55648951552E+02  0.00000000000E+00 0.  1.
         13    1    3    3    0    0 -0.26251273891E+02  0.24022023174E+02 -0.11582320763E+02  0.37421078720E+02  0.00000000000E+00 0. -1.
        -13    1    4    4    0    0 -0.27101656494E+02 -0.23201258062E+02  0.24041661210E+02  0.43020920889E+02  0.00000000000E+00 0.  1.
         13    1    4    4    0    0  0.47031884910E+02  0.20258564716E+02  0.80915220716E+02  0.95758449163E+02  0.00000000000E+00 0. -1.
         21    1    1    2  502  501 -0.32358311208E+02  0.89219221606E+01 -0.42850355679E+01  0.33838181528E+02  0.00000000000E+00 0.  1.
<scales pt_clust_5="13000.00000" pt_clust_6="13000.00000" pt_clust_7="13000.00000" pt_clust_8="13000.00000" pt_clust_9="33.56577"></scales>
<clustering>
<clus scale="   33.566">  2  9  1 -1</clus>
<clus scale="   88.532">  7  8 -1 -1</clus>
<clus scale="   89.113">  1  7  2 -1</clus>
<clus scale="   90.831">  5  6 -1 -1</clus>
<clus scale="   89.113">  1  5  2 -1</clus>
</clustering>
</event>
<event>
 9    1  0.1434065E-005  0.1193678E+03  0.7546771E-02  0.1244497E+00
          1   -1    0    0  502    0  0.00000000000E+00  0.00000000000E+00  0.60454753966E+03  0.60454753966E+03  0.00000000000E+00 0. -1.
         -1   -1    0    0    0  501 -0.00000000000E+00 -0.00000000000E+00 -0.40130997139E+02  0.40130997139E+02  0.00000000000E+00 0.  1.
         23    2    1    2    0    0  0.61889861300E+02 -0.42757053241E+02  0.96757232994E+02  0.15401824893E+03  0.93279892431E+02 0.  0.
         23    2    1    2    0    0 -0.69504582476E+02  0.13951758213E+02  0.39065556586E+03  0.40809331180E+03  0.94354869779E+02 0.  0.
        -13    1    4    4    0    0 -0.33082687900E+02 -0.30645061782E+02  0.77307139782E+02  0.89498479941E+02  0.00000000000E+00 0.  1.
         13    1    4    4    0    0 -0.36421894576E+02  0.44596819995E+02  0.31334842608E+03  0.31859483186E+03  0.00000000000E+00 0. -1.
        -13    1    3    3    0    0 -0.53258349339E+01 -0.51742599843E+02  0.41540092469E+02  0.66567562961E+02  0.00000000000E+00 0. -1.
         13    1    3    3    0    0  0.67215696234E+02  0.89855466020E+01  0.55217140525E+02  0.87450685965E+02  0.00000000000E+00 0.  1.
         21    1    1    2  502  501  0.76147211763E+01  0.28805295028E+02  0.77003743664E+02  0.82566976078E+02  0.00000000000E+00 0.  1.
<scales pt_clust_5="13000.00000" pt_clust_6="13000.00000" pt_clust_7="13000.00000" pt_clust_8="13000.00000" pt_clust_9="29.79478"></scales>
<clustering>
<clus scale="   29.795">  1  9  2 -1</clus>
<clus scale="   93.280">  7  8 -1 -1</clus>
<clus scale="   94.355">  5  6 -1 -1</clus>
<clus scale="  118.520">  2  7  1 -1</clus>
<clus scale="   29.795">  1  5  2 -1</clus>
</clustering>
</event>
<event>
 9    1  0.1434065E-005  0.9592408E+02  0.7546771E-02  0.1289178E+00
          1   -1    0    0  502    0  0.00000000000E+00  0.00000000000E+00  0.10817881977E+03  0.10817881977E+03  0.00000000000E+00 0. -1.
         -1   -1    0    0    0  501 -0.00000000000E+00 -0.00000000000E+00 -0.17096894638E+03  0.17096894638E+03  0.00000000000E+00 0.  1.
         23    2    1    2    0    0  0.18743789614E+02 -0.21135111227E+02 -0.22110843907E+01  0.95266383962E+02  0.90954782410E+02 0.  0.
         23    2    1    2    0    0 -0.38931359216E+02 -0.46533840476E+01  0.16353590225E+02  0.10026790009E+03  0.90823494548E+02 0.  0.
        -13    1    4    4    0    0  0.20904458621E+02 -0.21268525947E+02 -0.11816188967E+02  0.32077545228E+02  0.00000000000E+00 0.  1.
         13    1    4    4    0    0 -0.59835817837E+02  0.16615141899E+02  0.28169779192E+02  0.68190354863E+02  0.00000000000E+00 0. -1.
        -13    1    3    3    0    0  0.55657809528E+02 -0.14699781127E+02  0.17051845404E+01  0.57591518308E+02  0.00000000000E+00 0.  1.
         13    1    3    3    0    0 -0.36914019914E+02 -0.64353300996E+01 -0.39162689312E+01  0.37674865654E+02  0.00000000000E+00 0. -1.
         21    1    1    2  502  501  0.20187569602E+02  0.25788495275E+02 -0.76932632444E+02  0.83613482105E+02  0.00000000000E+00 0.  1.
<scales pt_clust_5="13000.00000" pt_clust_6="13000.00000" pt_clust_7="13000.00000" pt_clust_8="13000.00000" pt_clust_9="32.75034"></scales>
<clustering>
<clus scale="   32.750">  2  9  1 -1</clus>
<clus scale="   90.823">  5  6 -1 -1</clus>
<clus scale="   90.955">  7  8 -1 -1</clus>
<clus scale="   95.800">  1  5  2 -1</clus>
<clus scale="   95.800">  1  5  2 -1</clus>
</clustering>
</event>
<event>
 9    1  0.1434065E-005  0.1204459E+03  0.7546771E-02  0.1243171E+00
         -1   -1    0    0    0  501 -0.00000000000E+00  0.00000000000E+00  0.33911098293E+03  0.33911098293E+03  0.00000000000E+00 0.  1.
          1   -1    0    0  502    0  0.00000000000E+00 -0.00000000000E+00 -0.80926383490E+02  0.80926383490E+02  0.00000000000E+00 0. -1.
         23    2    1    2    0    0 -0.17740810926E+02  0.78323018920E+02  0.64399115059E+02  0.13900061435E+03  0.93406065666E+02 0.  0.
         23    2    1    2    0    0 -0.35652161609E+02 -0.72677416744E+02  0.57590182715E+02  0.13464056860E+03  0.90875574471E+02 0.  0.
        -11    1    4    4    0    0  0.16336490793E+02 -0.25032240087E+02  0.56722476364E+02  0.64116560264E+02  0.00000000000E+00 0.  1.
         11    1    4    4    0    0 -0.51988652402E+02 -0.47645176657E+02  0.86770635052E+00  0.70524008334E+02  0.00000000000E+00 0. -1.
        -13    1    3    3    0    0  0.27772972815E+02  0.71522486869E+02  0.45868039634E+02  0.89390610283E+02  0.00000000000E+00 0.  1.
         13    1    3    3    0    0 -0.45513783742E+02  0.68005320502E+01  0.18531075425E+02  0.49610004063E+02  0.00000000000E+00 0. -1.
         21    1    1    2  502  501  0.53392972535E+02 -0.56456021758E+01  0.13619530167E+03  0.14639618348E+03  0.00000000000E+00 0.  1.
<scales pt_clust_5="13000.00000" pt_clust_6="13000.00000" pt_clust_7="13000.00000" pt_clust_8="13000.00000" pt_clust_9="53.69062"></scales>
<clustering>
<clus scale="   53.691">  1  9  2 -1</clus>
<clus scale="   90.876">  5  6 -1 -1</clus>
<clus scale="   93.406">  7  8 -1 -1</clus>
<clus scale="  118.494">  2  5  1 -1</clus>
<clus scale="  118.494">  2  5  1 -1</clus>
</clustering>
</event>
<event>
 9    1  0.1434065E-005  0.9543757E+02  0.7546771E-02  0.1290703E+00
         -1   -1    0    0    0  501 -0.00000000000E+00  0.00000000000E+00  0.53984715287E+02  0.53984715287E+02  0.00000000000E+00 0.  1.
          1   -1    0    0  502    0  0.00000000000E+00 -0.00000000000E+00 -0.26123795483E+03  0.26123795483E+03  0.00000000000E+00 0. -1.
         23    2    1    2    0    0 -0.43897073517E+00  0.41024127532E+02 -0.44167770581E+02  0.10893780315E+03  0.90738532396E+02 0.  0.
         23    2    1    2    0    0  0.15353398920E+01 -0.20751354368E+02 -0.16024185407E+03  0.18578429374E+03  0.91680837840E+02 0.  0.
        -13    1    4    4    0    0 -0.15174647039E+02  0.30000911934E+02 -0.30197998905E+02  0.45191191260E+02  0.00000000000E+00 0.  1.
         13    1    4    4    0    0  0.16709986931E+02 -0.50752266302E+02 -0.13004385517E+03  0.14059310248E+03  0.00000000000E+00 0. -1.
        -13    1    3    3    0    0 -0.54365758117E+01  0.20894737777E+02  0.27136925513E+02  0.34677934622E+02  0.00000000000E+00 0.  1.
         13    1    3    3    0    0  0.49976050765E+01  0.20129389755E+02 -0.71304696094E+02  0.74259868526E+02  0.00000000000E+00 0. -1.
         21    1    1    2  502  501 -0.10963691568E+01 -0.20272773164E+02 -0.28436148898E+01  0.20500573230E+02  0.00000000000E+00 0.  1.
<scales pt_clust_5="13000.00000" pt_clust_6="13000.00000" pt_clust_7="13000.00000" pt_clust_8="13000.00000" pt_clust_9="20.30240"></scales>
<clustering>
<clus scale="   20.302">  1  9  2 -1</clus>
<clus scale="   90.739">  7  8 -1 -1</clus>
<clus scale="   91.681">  5  6 -1 -1</clus>
<clus scale="   94.533">  1  7  2 -1</clus>
<clus scale="   95.438">  2  5  1 -1</clus>
</clustering>
</event>
<event>
 9    1  0.1434065E-005  0.1072640E+03  0.7546771E-02  0.1266709E+00
         -2   -1    0    0    0  501 -0.00000000000E+00  0.00000000000E+00  0.53658856418E+03  0.53658856418E+03  0.00000000000E+00 0.  1.
          2   -1    0    0  502    0  0.00000000000E+00 -0.00000000000E+00 -0.39912318834E+02  0.39912318834E+02  0.00000000000E+00 0. -1.
         23    2    1    2    0    0 -0.42000715152E+02  0.26145241628E+02  0.22144089927E+03  0.24490382808E+03  0.92163872546E+02 0.  0.
         23    2    1    2    0    0  0.31878864198E+02 -0.49513530827E+02  0.77970484200E+02  0.13269518331E+03  0.89781755106E+02 0.  0.
        -13    1    4    4    0    0  0.57618086080E+02 -0.56416643037E+02  0.56314029948E+02  0.98356247509E+02  0.00000000000E+00 0. -1.
         13    1    4    4    0    0 -0.25739221882E+02  0.69031122093E+01  0.21656454252E+02  0.34338935802E+02  0.00000000000E+00 0.  1.
        -13    1    3    3    0    0 -0.50244032869E+02  0.52253873000E+02  0.12345273526E+03  0.14316252277E+03  0.00000000000E+00 0.  1.
         13    1    3    3    0    0  0.82433177168E+01 -0.26108631372E+02  0.97988164011E+02  0.10174130531E+03  0.00000000000E+00 0. -1.
         21    1    1    2  502  501  0.10121850954E+02  0.23368289199E+02  0.19726486187E+03  0.19890187162E+03  0.00000000000E+00 0.  1.
<scales pt_clust_5="13000.00000" pt_clust_6="13000.00000" pt_clust_7="13000.00000" pt_clust_8="13000.00000" pt_clust_9="25.46623"></scales>
<clustering>
<clus scale="   25.466">  1  9  2 -1</clus>
<clus scale="   89.782">  5  6 -1 -1</clus>
<clus scale="   92.164">  7  8 -1 -1</clus>
<clus scale="  105.224">  2  5  1 -1</clus>
<clus scale="  105.224">  2  5  1 -1</clus>
</clustering>
</event>
<event>
 9    1  0.1434065E-005  0.9302753E+02  0.7546771E-02  0.1297123E+00
         -4   -1    0    0    0  501 -0.00000000000E+00  0.00000000000E+00  0.83574633576E+02  0.83574633576E+02  0.00000000000E+00 0.  1.
          4   -1    0    0  502    0  0.00000000000E+00 -0.00000000000E+00 -0.19596464878E+03  0.19596464878E+03  0.00000000000E+00 0. -1.
         23    2    1    2    0    0  0.61335633691E+01 -0.61404510564E+01 -0.21267031051E+02  0.92050099374E+02  0.89138142488E+02 0.  0.
         23    2    1    2    0    0  0.24942666399E+02  0.63828016798E+01 -0.11428617178E+03  0.14872935775E+03  0.91630868330E+02 0.  0.
        -11    1    3    3    0    0 -0.17402303026E+02  0.14030467001E+02  0.26772893608E+02  0.34878101827E+02  0.00000000000E+00 0.  1.
         11    1    3    3    0    0  0.23535866395E+02 -0.20170918057E+02 -0.48039924659E+02  0.57171997547E+02  0.00000000000E+00 0. -1.
        -13    1    4    4    0    0  0.98358312507E+01  0.48683093381E+02 -0.51681175704E+02  0.71677967882E+02  0.00000000000E+00 0.  1.
         13    1    4    4    0    0  0.15106835149E+02 -0.42300291701E+02 -0.62604996081E+02  0.77051389868E+02  0.00000000000E+00 0. -1.
         21    1    1    2  502  501 -0.31076229769E+02 -0.24235062335E+00  0.23163187634E+02  0.38759825230E+02  0.00000000000E+00 0.  1.
<scales pt_clust_5="13000.00000" pt_clust_6="13000.00000" pt_clust_7="13000.00000" pt_clust_8="13000.00000" pt_clust_9="31.07717"></scales>
<clustering>
<clus scale="   31.077">  1  9  2 -1</clus>
<clus scale="   89.138">  5  6 -1 -1</clus>
<clus scale="   90.573">  1  5  2 -1</clus>
<clus scale="   91.631">  7  8 -1 -1</clus>
<clus scale="   93.028">  2  5  1 -1</clus>
</clustering>
</event>
<event>
 9    1  0.1434065E-005  0.2567878E+03  0.7546771E-02  0.1109252E+00
         -2   -1    0    0    0  501 -0.00000000000E+00  0.00000000000E+00  0.51165504676E+02  0.51165504676E+02  0.00000000000E+00 0.  1.
          2   -1    0    0  502    0  0.00000000000E+00 -0.00000000000E+00 -0.21642407498E+04  0.21642407498E+04  0.00000000000E+00 0. -1.
         23    2    1    2    0    0  0.13258622834E+03 -0.12337565988E+03 -0.51638593135E+03  0.55488140166E+03  0.91860102432E+02 0.  0.
         23    2    1    2    0    0 -0.16136437486E+03  0.25048787052E+03 -0.12887986740E+04  0.13261861894E+04  0.94790041820E+02 0.  0.
        -11    1    3    3    0    0  0.12159572935E+03 -0.56629270549E+02 -0.37172557949E+03  0.39518641440E+03  0.00000000000E+00 0.  1.
         11    1    3    3    0    0  0.10990498990E+02 -0.66746389330E+02 -0.14466035186E+03  0.15969498726E+03  0.00000000000E+00 0. -1.
        -13    1    4    4    0    0 -0.11779168185E+02  0.75984068214E+02 -0.44741721111E+03  0.45397630799E+03  0.00000000000E+00 0.  1.
         13    1    4    4    0    0 -0.14958520668E+03  0.17450380230E+03 -0.84138146294E+03  0.87220988143E+03  0.00000000000E+00 0. -1.
         21    1    1    2  502  501  0.28778146523E+02 -0.12711221064E+03 -0.30789063976E+03  0.33433866342E+03  0.00000000000E+00 0.  1.
<scales pt_clust_5="13000.00000" pt_clust_6="13000.00000" pt_clust_7="13000.00000" pt_clust_8="13000.00000" pt_clust_9="130.32918"></scales>
<clustering>
<clus scale="   91.860">  5  6 -1 -1</clus>
<clus scale="   94.790">  7  8 -1 -1</clus>
<clus scale="  130.329">  1  9  2 -1</clus>
<clus scale="  255.721">  1  5  2 -1</clus>
<clus scale="  256.788">  2  5  1 -1</clus>
</clustering>
</event>
<event>
 9    1  0.1434065E-005  0.1216744E+03  0.7546771E-02  0.1240983E+00
         -2   -1    0    0    0  501 -0.00000000000E+00  0.00000000000E+00  0.18993945062E+03  0.18993945062E+03  0.00000000000E+00 0.  1.
          2   -1    0    0  502    0  0.00000000000E+00 -0.00000000000E+00 -0.22739621352E+03  0.22739621352E+03  0.00000000000E+00 0. -1.
         23    2    1    2    0    0  0.11340510015E+03 -0.16711687573E+02 -0.11675241494E+01  0.14559749645E+03  0.89762300652E+02 0.  0.
         23    2    1    2    0    0 -0.67262778441E+02  0.16441153163E+02 -0.12616982652E+03  0.17070496967E+03  0.91797432788E+02 0.  0.
        -11    1    3    3    0    0  0.72984353003E+02 -0.51813512289E+02 -0.13874892742E+02  0.90575209012E+02  0.00000000000E+00 0.  1.
         11    1    3    3    0    0  0.40420747151E+02  0.35101824716E+02  0.12707368593E+02  0.55022287441E+02  0.00000000000E+00 0. -1.
        -11    1    4    4    0    0 -0.64419575601E+02  0.46660905166E+02 -0.11157314063E+03  0.13702440477E+03  0.00000000000E+00 0. -1.
         11    1    4    4    0    0 -0.28432028405E+01 -0.30219752003E+02 -0.14596685889E+02  0.33680564907E+02  0.00000000000E+00 0.  1.
         21    1    1    2  502  501 -0.46142321713E+02  0.27053440942E+00  0.89880587767E+02  0.10103319801E+03  0.00000000000E+00 0.  1.
<scales pt_clust_5="13000.00000" pt_clust_6="13000.00000" pt_clust_7="13000.00000" pt_clust_8="13000.00000" pt_clust_9="46.14311"></scales>
<clustering>
<clus scale="   46.143">  1  9  2 -1</clus>
<clus scale="   89.762">  5  6 -1 -1</clus>
<clus scale="   91.797">  7  8 -1 -1</clus>
<clus scale="  120.146">  1  5  2 -1</clus>
<clus scale="  121.674">  2  5  1 -1</clus>
</clustering>
</event>
<event>
 9    1  0.1434065E-005  0.1208227E+03  0.7546771E-02  0.1244879E+00
         -1   -1    0    0    0  501 -0.00000000000E+00  0.00000000000E+00  0.38765790576E+02  0.38765790576E+02  0.00000000000E+00 0.  1.
          1   -1    0    0  502    0  0.00000000000E+00 -0.00000000000E+00 -0.86249288346E+03  0.86249288346E+03  0.00000000000E+00 0. -1.
         23    2    1    2    0    0  0.57874646718E+02  0.40642719364E+02 -0.23723491301E+03  0.26326947309E+03  0.89605279641E+02 0.  0.
         23    2    1    2    0    0 -0.35951897399E+02 -0.61255936132E+02 -0.59451820789E+03  0.60684552151E+03  0.98816794268E+02 0.  0.
        -11    1    3    3    0    0 -0.18419615211E+02  0.19902332848E+02 -0.11143791041E+03  0.11468998628E+03  0.00000000000E+00 0. -1.
         11    1    3    3    0    0  0.76294261928E+02  0.20740386516E+02 -0.12579700260E+03  0.14857948681E+03  0.00000000000E+00 0.  1.
        -13    1    4    4    0    0 -0.65658447969E+02 -0.57343940744E+02 -0.50437459300E+03  0.51185260515E+03  0.00000000000E+00 0. -1.
         13    1    4    4    0    0  0.29706550570E+02 -0.39119953888E+01 -0.90143614889E+02  0.94992916367E+02  0.00000000000E+00 0.  1.
         21    1    1    2  502  501 -0.21922749319E+02  0.20613216769E+02  0.80260280136E+01  0.31143679438E+02  0.00000000000E+00 0.  1.
<scales pt_clust_5="13000.00000" pt_clust_6="13000.00000" pt_clust_7="13000.00000" pt_clust_8="13000.00000" pt_clust_9="30.09172"></scales>
<clustering>
<clus scale="   30.092">  1  9  2 -1</clus>
<clus scale="   89.605">  5  6 -1 -1</clus>
<clus scale="   98.817">  7  8 -1 -1</clus>
<clus scale="  113.413">  1  5  2 -1</clus>
<clus scale="  120.823">  2  5  1 -1</clus>
</clustering>
</event>
<event>
 9    1  0.1434065E-005  0.1060599E+03  0.7546771E-02  0.1268665E+00
         -4   -1    0    0    0  501 -0.00000000000E+00  0.00000000000E+00  0.19942905008E+03  0.19942905008E+03  0.00000000000E+00 0.  1.
          4   -1    0    0  502    0  0.00000000000E+00 -0.00000000000E+00 -0.36033208614E+03  0.36033208614E+03  0.00000000000E+00 0. -1.
         23    2    1    2    0    0 -0.26538145816E+02 -0.75977811459E+01  0.15837197263E+03  0.18467922601E+03  0.90899589334E+02 0.  0.
         23    2    1    2    0    0  0.53368764801E+02  0.15105852517E+01 -0.32902961041E+03  0.34589135825E+03  0.92357134315E+02 0.  0.
        -11    1    3    3    0    0 -0.52050650230E+02 -0.44204821433E+01  0.14801381340E+03  0.15696145962E+03  0.00000000000E+00 0.  1.
         11    1    3    3    0    0  0.25512504413E+02 -0.31772990026E+01  0.10358159237E+02  0.27717766381E+02  0.00000000000E+00 0. -1.
        -13    1    4    4    0    0  0.56566210671E+02  0.34140090493E+02 -0.15032002424E+03  0.16419924378E+03  0.00000000000E+00 0. -1.
         13    1    4    4    0    0 -0.31974458693E+01 -0.32629505241E+02 -0.17870958617E+03  0.18169211447E+03  0.00000000000E+00 0.  1.
         21    1    1    2  502  501 -0.26830618985E+02  0.60871958942E+01  0.97546017259E+01  0.29190551961E+02  0.00000000000E+00 0.  1.
<scales pt_clust_5="13000.00000" pt_clust_6="13000.00000" pt_clust_7="13000.00000" pt_clust_8="13000.00000" pt_clust_9="27.51247"></scales>
<clustering>
<clus scale="   27.512">  1  9  2 -1</clus>
<clus scale="   90.900">  5  6 -1 -1</clus>
<clus scale="   92.357">  7  8 -1 -1</clus>
<clus scale="  104.793">  1  5  2 -1</clus>
<clus scale="  106.060">  2  5  1 -1</clus>
</clustering>
</event>
<event>
 9    1  0.1434065E-005  0.1146899E+03  0.7546771E-02  0.1254290E+00
         -2   -1    0    0    0  501 -0.00000000000E+00  0.00000000000E+00  0.96337570974E+02  0.96337570974E+02  0.00000000000E+00 0.  1.
          2   -1    0    0  502    0  0.00000000000E+00 -0.00000000000E+00 -0.16072632163E+03  0.16072632163E+03  0.00000000000E+00 0. -1.
         23    2    1    2    0    0  0.18784491797E+02 -0.48039570332E+02 -0.22922455348E+02  0.10666612120E+03  0.90507264919E+02 0.  0.
         23    2    1    2    0    0 -0.27870793087E+02  0.67515989495E+02 -0.44251100344E+02  0.12872643288E+03  0.96317935477E+02 0.  0.
        -11    1    4    4    0    0  0.12290420960E+02  0.65754946826E+02  0.26607685348E+01  0.66946599381E+02  0.00000000000E+00 0.  1.
         11    1    4    4    0    0 -0.40161214047E+02  0.17610426688E+01 -0.46911868878E+02  0.61779833495E+02  0.00000000000E+00 0. -1.
        -13    1    3    3    0    0  0.52825309839E+02 -0.17624620792E+02 -0.24839843727E+02  0.60976704191E+02  0.00000000000E+00 0.  1.
         13    1    3    3    0    0 -0.34040818042E+02 -0.30414949540E+02  0.19173883786E+01  0.45689417009E+02  0.00000000000E+00 0. -1.
         21    1    1    2  502  501  0.90863012898E+01 -0.19476419163E+02  0.27848050340E+01  0.21671338529E+02  0.00000000000E+00 0. -1.
<scales pt_clust_5="13000.00000" pt_clust_6="13000.00000" pt_clust_7="13000.00000" pt_clust_8="13000.00000" pt_clust_9="21.49167"></scales>
<clustering>
<clus scale="   21.492">  1  9  2 -1</clus>
<clus scale="   90.507">  7  8 -1 -1</clus>
<clus scale="   96.318">  5  6 -1 -1</clus>
<clus scale="  109.855">  1  7  2 -1</clus>
<clus scale="  114.690">  2  5  1 -1</clus>
</clustering>
</event>
<event>
 9    1  0.1434065E-005  0.1058136E+03  0.7546771E-02  0.1275716E+00
          1   -1    0    0  502    0  0.00000000000E+00  0.00000000000E+00  0.74515591148E+03  0.74515591148E+03  0.00000000000E+00 0. -1.
         -1   -1    0    0    0  501 -0.00000000000E+00 -0.00000000000E+00 -0.29494481959E+02  0.29494481959E+02  0.00000000000E+00 0.  1.
         23    2    1    2    0    0  0.56850316042E+00  0.83656705988E+01  0.12621807897E+03  0.15498058255E+03  0.89541442183E+02 0.  0.
         23    2    1    2    0    0 -0.20493886139E+02  0.23874638227E+02  0.56334843678E+03  0.57365456423E+03  0.10357654235E+03 0.  0.
        -11    1    4    4    0    0  0.28355641620E+02  0.46331588353E+02  0.26724065553E+03  0.27270538399E+03  0.00000000000E+00 0.  1.
         11    1    4    4    0    0 -0.48849527759E+02 -0.22456950125E+02  0.29610778125E+03  0.30094918024E+03  0.00000000000E+00 0. -1.
        -11    1    3    3    0    0  0.28092494562E+02  0.37110369109E+02  0.46035255088E+02  0.65464589338E+02  0.00000000000E+00 0.  1.
         11    1    3    3    0    0 -0.27523991402E+02 -0.28744698510E+02  0.80182823882E+02  0.89515993212E+02  0.00000000000E+00 0. -1.
         21    1    1    2  502  501  0.19925382978E+02 -0.32240308826E+02  0.26094913774E+02  0.46015246657E+02  0.00000000000E+00 0.  1.
<scales pt_clust_5="13000.00000" pt_clust_6="13000.00000" pt_clust_7="13000.00000" pt_clust_8="13000.00000" pt_clust_9="37.90064"></scales>
<clustering>
<clus scale="   37.901">  2  9  1 -1</clus>
<clus scale="   89.541">  7  8 -1 -1</clus>
<clus scale="   92.120">  2  7  1 -1</clus>
<clus scale="  103.577">  5  6 -1 -1</clus>
<clus scale="  105.814">  1  5  2 -1</clus>
</clustering>
</event>
<event>
 9    1  0.1434065E-005  0.1326436E+03  0.7546771E-02  0.1232310E+00
          2   -1    0    0  502    0  0.00000000000E+00  0.00000000000E+00  0.36500883893E+03  0.36500883893E+03  0.00000000000E+00 0. -1.
         -2   -1    0    0    0  501 -0.00000000000E+00 -0.00000000000E+00 -0.10537504111E+03  0.10537504111E+03  0.00000000000E+00 0.  1.
         23    2    1    2    0    0 -0.21830450766E+02  0.61000561504E+00 -0.26051894342E+02  0.97625778580E+02  0.91515849758E+02 0.  0.
         23    2    1    2    0    0  0.44694975928E+02  0.61147635180E+02  0.27174637706E+03  0.30544467625E+03  0.11710543386E+03 0.  0.
        -11    1    4    4    0    0 -0.12767130188E+02  0.58599059979E+02  0.55618863081E+02  0.81794299154E+02  0.00000000000E+00 0.  1.
         11    1    4    4    0    0  0.57462106116E+02  0.25485752009E+01  0.21612751398E+03  0.22365037709E+03  0.00000000000E+00 0. -1.
        -13    1    3    3    0    0  0.31865312342E+00  0.27126946127E+02 -0.49097983577E+02  0.56094426973E+02  0.00000000000E+00 0. -1.
         13    1    3    3    0    0 -0.22149103890E+02 -0.26516940512E+02  0.23046089236E+02  0.41531351607E+02  0.00000000000E+00 0.  1.
         21    1    1    2  502  501 -0.22864525162E+02 -0.61757640795E+02  0.13939315098E+02  0.67313425205E+02  0.00000000000E+00 0.  1.
<scales pt_clust_5="13000.00000" pt_clust_6="13000.00000" pt_clust_7="13000.00000" pt_clust_8="13000.00000" pt_clust_9="65.85433"></scales>
<clustering>
<clus scale="   65.854">  2  9  1 -1</clus>
<clus scale="   91.516">  7  8 -1 -1</clus>
<clus scale="  110.706">  2  7  1 -1</clus>
<clus scale="  117.105">  5  6 -1 -1</clus>
<clus scale="  132.644">  1  5  2 -1</clus>
</clustering>
</event>
<event>
 9    1  0.1434065E-005  0.9301999E+02  0.7546771E-02  0.1296356E+00
         -3   -1    0    0    0  501 -0.00000000000E+00  0.00000000000E+00  0.45751972437E+02  0.45751972437E+02  0.00000000000E+00 0.  1.
          3   -1    0    0  502    0  0.00000000000E+00 -0.00000000000E+00 -0.34299296105E+03  0.34299296105E+03  0.00000000000E+00 0. -1.
         23    2    1    2    0    0 -0.19694039382E+02 -0.19985894185E+02 -0.51229878443E+02  0.10854743370E+03  0.91491823486E+02 0.  0.
         23    2    1    2    0    0  0.45793341878E+01 -0.91867377885E+01 -0.21777119251E+03  0.23687326039E+03  0.92624417674E+02 0.  0.
        -13    1    4    4    0    0  0.16650927682E+02  0.31337556617E+02 -0.37176395348E+02  0.51394359792E+02  0.00000000000E+00 0.  1.
         13    1    4    4    0    0 -0.12071593494E+02 -0.40524294405E+02 -0.18059479716E+03  0.18547890060E+03  0.00000000000E+00 0. -1.
        -13    1    3    3    0    0 -0.51546945295E+02 -0.26530402236E+00 -0.94071551302E+01  0.52398974447E+02  0.00000000000E+00 0.  1.
         13    1    3    3    0    0  0.31852905914E+02 -0.19720590163E+02 -0.41822723313E+02  0.56148459256E+02  0.00000000000E+00 0. -1.
         21    1    1    2  502  501  0.15114705194E+02  0.29172631974E+02 -0.28239917665E+02  0.43324239394E+02  0.00000000000E+00 0.  1.
<scales pt_clust_5="13000.00000" pt_clust_6="13000.00000" pt_clust_7="13000.00000" pt_clust_8="13000.00000" pt_clust_9="32.85570"></scales>
<clustering>
<clus scale="   32.856">  1  9  2 -1</clus>
<clus scale="   91.492">  7  8 -1 -1</clus>
<clus scale="   91.892">  1  7  2 -1</clus>
<clus scale="   92.624">  5  6 -1 -1</clus>
<clus scale="   93.020">  2  5  1 -1</clus>
</clustering>
</event>
<event>
 9    1  0.1434065E-005  0.1267407E+03  0.7546771E-02  0.1234774E+00
         -2   -1    0    0    0  501 -0.00000000000E+00  0.00000000000E+00  0.53816981814E+03  0.53816981814E+03  0.00000000000E+00 0.  1.
          2   -1    0    0  502    0  0.00000000000E+00 -0.00000000000E+00 -0.10940814984E+03  0.10940814984E+03  0.00000000000E+00 0. -1.
         23    2    1    2    0    0  0.64901999824E+02  0.45303522759E+02  0.28949048627E+03  0.31601306932E+03  0.98968881918E+02 0.  0.
         23    2    1    2    0    0 -0.69458060074E+01 -0.82451858387E+02 -0.47990688085E+02  0.13205067048E+03  0.91036917009E+02 0.  0.
        -13    1    4    4    0    0 -0.87510604842E+01  0.19318620706E+02 -0.72427884553E+01  0.22410893561E+02  0.00000000000E+00 0.  1.
         13    1    4    4    0    0  0.18052544768E+01 -0.10177047909E+03 -0.40747899630E+02  0.10963977692E+03  0.00000000000E+00 0. -1.
        -13    1    3    3    0    0  0.90670860086E+02  0.29426112817E+02  0.20030507391E+03  0.22183152079E+03  0.00000000000E+00 0.  1.
         13    1    3    3    0    0 -0.25768860262E+02  0.15877409942E+02  0.89185412363E+02  0.94181548532E+02  0.00000000000E+00 0. -1.
         21    1    1    2  502  501 -0.57956193816E+02  0.37148335628E+02  0.18726187012E+03  0.19951422817E+03  0.00000000000E+00 0.  1.
<scales pt_clust_5="13000.00000" pt_clust_6="13000.00000" pt_clust_7="13000.00000" pt_clust_8="13000.00000" pt_clust_9="68.83981"></scales>
<clustering>
<clus scale="   68.840">  1  9  2 -1</clus>
<clus scale="   91.037">  5  6 -1 -1</clus>
<clus scale="   98.969">  7  8 -1 -1</clus>
<clus scale="  120.649">  2  5  1 -1</clus>
<clus scale="  120.649">  2  5  1 -1</clus>
</clustering>
</event>
<event>
 9    1  0.1434065E-005  0.9273196E+02  0.7546771E-02  0.1306037E+00
         -1   -1    0    0    0  501 -0.00000000000E+00  0.00000000000E+00  0.42302243129E+02  0.42302243129E+02  0.00000000000E+00 0.  1.
          1   -1    0    0  502    0  0.00000000000E+00 -0.00000000000E+00 -0.28532036178E+03  0.28532036178E+03  0.00000000000E+00 0. -1.
         23    2    1    2    0    0 -0.67038385367E+01  0.12243081081E+02 -0.47580511789E+02  0.10423785230E+03  0.91688550345E+02 0.  0.
         23    2    1    2    0    0  0.15513811027E+02  0.72122930453E+01 -0.18210163479E+03  0.19820588550E+03  0.76366695308E+02 0.  0.
        -13    1    4    4    0    0 -0.47811467922E+01  0.30076782412E+02 -0.28902519910E+02  0.41986043658E+02  0.00000000000E+00 0.  1.
         13    1    4    4    0    0  0.20294957819E+02 -0.22864489366E+02 -0.15319911488E+03  0.15621984185E+03  0.00000000000E+00 0. -1.
        -13    1    3    3    0    0 -0.47752150931E+02  0.15083380052E+02 -0.16687715503E+02  0.52784999015E+02  0.00000000000E+00 0.  1.
         13    1    3    3    0    0  0.41048312394E+02 -0.28402989709E+01 -0.30892796286E+02  0.51452853284E+02  0.00000000000E+00 0. -1.
         21    1    1    2  502  501 -0.88099724905E+01 -0.19455374127E+02 -0.13335972078E+02  0.25178867110E+02  0.00000000000E+00 0.  1.
<scales pt_clust_5="13000.00000" pt_clust_6="13000.00000" pt_clust_7="13000.00000" pt_clust_8="13000.00000" pt_clust_9="21.35713"></scales>
<clustering>
<clus scale="   21.357">  1  9  2 -1</clus>
<clus scale="   76.367">  5  6 -1 -1</clus>
<clus scale="   77.616">  2  5  1 -1</clus>
<clus scale="   91.689">  7  8 -1 -1</clus>
<clus scale="   77.616">  2  5  1 -1</clus>
</clustering>
</event>
<event>
 9    1  0.1434065E-005  0.9049848E+02  0.7546771E-02  0.1319091E+00
          1   -1    0    0  502    0  0.00000000000E+00  0.00000000000E+00  0.23795664117E+03  0.23795664117E+03  0.00000000000E+00 0. -1.
         -1   -1    0    0    0  501 -0.00000000000E+00 -0.00000000000E+00 -0.55926466787E+02  0.55926466787E+02  0.00000000000E+00 0.  1.
         23    2    1    2    0    0  0.50842670522E+01 -0.45194172510E+00  0.68711724858E+02  0.95159442226E+02  0.65635084284E+02 0.  0.
         23    2    1    2    0    0  0.18265300444E+02 -0.41835135215E+01  0.13700970778E+03  0.16513846861E+03  0.90265889482E+02 0.  0.
        -11    1    4    4    0    0  0.44153537454E+02 -0.29877034252E+02  0.62271772727E+02  0.81975275077E+02  0.00000000000E+00 0. -1.
         11    1    4    4    0    0 -0.25888237009E+02  0.25693520731E+02  0.74737935056E+02  0.83163193538E+02  0.00000000000E+00 0.  1.
        -13    1    3    3    0    0  0.90195748822E+01 -0.30434437156E+02  0.19064587615E+02  0.37027911053E+02  0.00000000000E+00 0.  1.
         13    1    3    3    0    0 -0.39353078300E+01  0.29982495431E+02  0.49647137243E+02  0.58131531172E+02  0.00000000000E+00 0. -1.
         21    1    1    2  502  501 -0.23349567497E+02  0.46354552466E+01 -0.23691258257E+02  0.33585197117E+02  0.00000000000E+00 0.  1.
<scales pt_clust_5="13000.00000" pt_clust_6="13000.00000" pt_clust_7="13000.00000" pt_clust_8="13000.00000" pt_clust_9="23.80525"></scales>
<clustering>
<clus scale="   23.805">  2  9  1 -1</clus>
<clus scale="   65.635">  7  8 -1 -1</clus>
<clus scale="   65.955">  2  7  1 -1</clus>
<clus scale="   90.266">  5  6 -1 -1</clus>
<clus scale="   90.498">  1  5  2 -1</clus>
</clustering>
</event>
<event>
 9    1  0.1434065E-005  0.2569959E+03  0.7546771E-02  0.1109147E+00
          2   -1    0    0  502    0  0.00000000000E+00  0.00000000000E+00  0.47512732240E+03  0.47512732240E+03  0.00000000000E+00 0. -1.
         -2   -1    0    0    0  501 -0.00000000000E+00 -0.00000000000E+00 -0.24773308836E+03  0.24773308836E+03  0.00000000000E+00 0.  1.
         23    2    1    2    0    0 -0.81316363107E+02  0.18207034698E+03 -0.40345526870E+02  0.22266784586E+03  0.90505501948E+02 0.  0.
         23    2    1    2    0    0  0.27337827071E+02 -0.25911704243E+03  0.29415907646E+03  0.40247943444E+03  0.87012265901E+02 0.  0.
        -11    1    3    3    0    0 -0.46513672852E+02  0.17338951357E+03 -0.48348909293E+02  0.18591681529E+03  0.00000000000E+00 0.  1.
         11    1    3    3    0    0 -0.34802690255E+02  0.86808334105E+01  0.80033824234E+01  0.36751030569E+02  0.00000000000E+00 0. -1.
        -13    1    4    4    0    0 -0.28260031839E+02 -0.13669678049E+03  0.16374818438E+03  0.21516994930E+03  0.00000000000E+00 0. -1.
         13    1    4    4    0    0  0.55597858911E+02 -0.12242026194E+03  0.13041089208E+03  0.18730948513E+03  0.00000000000E+00 0.  1.
         21    1    1    2  502  501  0.53978536035E+02  0.77046695449E+02 -0.26419315542E+02  0.97713130468E+02  0.00000000000E+00 0.  1.
<scales pt_clust_5="13000.00000" pt_clust_6="13000.00000" pt_clust_7="13000.00000" pt_clust_8="13000.00000" pt_clust_9="94.07378"></scales>
<clustering>
<clus scale="   87.012">  7  8 -1 -1</clus>
<clus scale="   90.506">  5  6 -1 -1</clus>
<clus scale="   94.074">  2  9  1 -1</clus>
<clus scale="  255.787">  1  7  2 -1</clus>
<clus scale="  255.787">  1  5  2 -1</clus>
</clustering>
</event>
<event>
 9    1  0.1434065E-005  0.9509413E+02  0.7546771E-02  0.1291190E+00
          2   -1    0    0  502    0  0.00000000000E+00  0.00000000000E+00  0.68310558483E+03  0.68310558483E+03  0.00000000000E+00 0. -1.
         -2   -1    0    0    0  501 -0.00000000000E+00 -0.00000000000E+00 -0.21143327219E+03  0.21143327219E+03  0.00000000000E+00 0.  1.
         23    2    1    2    0    0 -0.45321488714E+01 -0.16450247360E+02  0.31320237810E+03  0.32679479548E+03  0.91694916387E+02 0.  0.
         23    2    1    2    0    0 -0.22249256261E+02  0.27259288989E+02  0.35534038984E+03  0.36876653714E+03  0.92107915085E+02 0.  0.
        -11    1    3    3    0    0 -0.35023893152E+02  0.20259203878E+02  0.19813688747E+03  0.20222594940E+03  0.00000000000E+00 0. -1.
         11    1    3    3    0    0  0.30491744281E+02 -0.36709451238E+02  0.11506549063E+03  0.12456884608E+03  0.00000000000E+00 0.  1.
        -13    1    4    4    0    0 -0.24720993644E+02  0.53545382295E+02  0.31554678882E+03  0.32101092104E+03  0.00000000000E+00 0. -1.
         13    1    4    4    0    0  0.24717373834E+01 -0.26286093306E+02  0.39793601026E+02  0.47755616106E+02  0.00000000000E+00 0.  1.
         21    1    1    2  502  501  0.26781405132E+02 -0.10809041629E+02 -0.19687045531E+03  0.19897752440E+03  0.00000000000E+00 0.  1.
<scales pt_clust_5="13000.00000" pt_clust_6="13000.00000" pt_clust_7="13000.00000" pt_clust_8="13000.00000" pt_clust_9="28.88043"></scales>
<clustering>
<clus scale="   28.880">  2  9  1 -1</clus>
<clus scale="   91.695">  5  6 -1 -1</clus>
<clus scale="   92.108">  7  8 -1 -1</clus>
<clus scale="   94.694">  2  5  1 -1</clus>
<clus scale="   95.094">  1  5  2 -1</clus>
</clustering>
</event>
<event>
 9    1  0.1434065E-005  0.1963720E+03  0.7546771E-02  0.1153146E+00
          1   -1    0    0  502    0  0.00000000000E+00  0.00000000000E+00  0.10336030283E+03  0.10336030283E+03  0.00000000000E+00 0. -1.
         -1   -1    0    0    0  501 -0.00000000000E+00 -0.00000000000E+00 -0.46479918080E+03  0.46479918080E+03  0.00000000000E+00 0.  1.
         23    2    1    2    0    0  0.16846194174E+03 -0.69904790823E+02 -0.13695300826E+03  0.24563559460E+03  0.91184501255E+02 0.  0.
         23    2    1    2    0    0 -0.14648902984E+03  0.70708657267E+02 -0.13773788990E+03  0.23303273271E+03  0.94200733141E+02 0.  0.
        -11    1    3    3    0    0  0.53515160460E+01 -0.33525883651E+02 -0.88980853249E+01  0.35097001596E+02  0.00000000000E+00 0. -1.
         11    1    3    3    0    0  0.16311042569E+03 -0.36378907172E+02 -0.12805492293E+03  0.21053859301E+03  0.00000000000E+00 0.  1.
        -13    1    4    4    0    0 -0.40568640887E+02  0.12162146116E+02  0.85143090308E+01  0.43199836572E+02  0.00000000000E+00 0. -1.
         13    1    4    4    0    0 -0.10592038896E+03  0.58546511151E+02 -0.14625219894E+03  0.18983289614E+03  0.00000000000E+00 0.  1.
         21    1    1    2  502  501 -0.21972911898E+02 -0.80386644387E+00 -0.86747979801E+02  0.89491156312E+02  0.00000000000E+00 0. -1.
<scales pt_clust_5="13000.00000" pt_clust_6="13000.00000" pt_clust_7="13000.00000" pt_clust_8="13000.00000" pt_clust_9="21.98761"></scales>
<clustering>
<clus scale="   21.988">  2  9  1 -1</clus>
<clus scale="   91.185">  5  6 -1 -1</clus>
<clus scale="   94.201">  7  8 -1 -1</clus>
<clus scale="  194.943">  2  5  1 -1</clus>
<clus scale="  196.372">  1  5  2 -1</clus>
</clustering>
</event>
<event>
 9    1  0.1434065E-005  0.1048054E+03  0.7546771E-02  0.1272199E+00
         -1   -1    0    0    0  501 -0.00000000000E+00  0.00000000000E+00  0.71536099831E+02  0.71536099831E+02  0.00000000000E+00 0.  1.
          1   -1    0    0  502    0  0.00000000000E+00 -0.00000000000E+00 -0.25132135722E+03  0.25132135722E+03  0.00000000000E+00 0. -1.
         23    2    1    2    0    0 -0.14541429116E+02  0.31658847277E+02 -0.40449836928E+02  0.10452120761E+03  0.89859655913E+02 0.  0.
         23    2    1    2    0    0  0.10157371531E+02 -0.52878236167E+02 -0.15686608440E+03  0.19046499896E+03  0.93651841073E+02 0.  0.
        -11    1    4    4    0    0  0.16158358197E+02  0.20229898415E+02 -0.80561965897E+02  0.84620161183E+02  0.00000000000E+00 0.  1.
         11    1    4    4    0    0 -0.60009866658E+01 -0.73108134581E+02 -0.76304118505E+02  0.10584483778E+03  0.00000000000E+00 0. -1.
        -13    1    3    3    0    0 -0.28529640999E+02 -0.76403390744E+01 -0.53245459942E+02  0.60888374926E+02  0.00000000000E+00 0. -1.
         13    1    3    3    0    0  0.13988211883E+02  0.39299186352E+02  0.12795623014E+02  0.43632832682E+02  0.00000000000E+00 0.  1.
         21    1    1    2  502  501  0.43840575854E+01  0.21219388890E+02  0.17530663936E+02  0.27871250488E+02  0.00000000000E+00 0.  1.
<scales pt_clust_5="13000.00000" pt_clust_6="13000.00000" pt_clust_7="13000.00000" pt_clust_8="13000.00000" pt_clust_9="21.66754"></scales>
<clustering>
<clus scale="   21.668">  1  9  2 -1</clus>
<clus scale="   89.860">  7  8 -1 -1</clus>
<clus scale="   93.652">  5  6 -1 -1</clus>
<clus scale="  101.431">  1  7  2 -1</clus>
<clus scale="  104.805">  2  5  1 -1</clus>
</clustering>
</event>
<event>
 9    1  0.1434065E-005  0.1905300E+03  0.7546771E-02  0.1158113E+00
          3   -1    0    0  502    0  0.00000000000E+00  0.00000000000E+00  0.24419563072E+03  0.24419563072E+03  0.00000000000E+00 0. -1.
         -3   -1    0    0    0  501 -0.00000000000E+00 -0.00000000000E+00 -0.38947367055E+03  0.38947367055E+03  0.00000000000E+00 0.  1.
         23    2    1    2    0    0 -0.12496096042E+03 -0.13515022092E+03 -0.25180406059E+03  0.32460304689E+03  0.89894545302E+02 0.  0.
         23    2    1    2    0    0  0.10217581314E+03  0.12943347902E+03  0.16222565346E+03  0.24861550452E+03  0.91102053576E+02 0.  0.
        -11    1    4    4    0    0  0.55290490136E+02  0.12934826778E+03  0.11114655162E+03  0.17928069783E+03  0.00000000000E+00 0. -1.
         11    1    4    4    0    0  0.46885323000E+02  0.85211238818E-01  0.51079101845E+02  0.69334806693E+02  0.00000000000E+00 0.  1.
        -11    1    3    3    0    0 -0.13542722579E+03 -0.10933000263E+03 -0.19529046599E+03  0.26159500964E+03  0.00000000000E+00 0.  1.
         11    1    3    3    0    0  0.10466265371E+02 -0.25820218292E+02 -0.56513594606E+02  0.63008037255E+02  0.00000000000E+00 0. -1.
         21    1    1    2  502  501  0.22785147283E+02  0.57167419034E+01 -0.55699632697E+02  0.60450749849E+02  0.00000000000E+00 0. -1.
<scales pt_clust_5="13000.00000" pt_clust_6="13000.00000" pt_clust_7="13000.00000" pt_clust_8="13000.00000" pt_clust_9="23.49136"></scales>
<clustering>
<clus scale="   23.491">  2  9  1 -1</clus>
<clus scale="   89.895">  7  8 -1 -1</clus>
<clus scale="   91.102">  5  6 -1 -1</clus>
<clus scale="  189.956">  2  7  1 -1</clus>
<clus scale="  190.530">  1  5  2 -1</clus>
</clustering>
</event>
<event>
 9    1  0.1434065E-005  0.1410296E+03  0.7546771E-02  0.1220149E+00
         -1   -1    0    0    0  501 -0.00000000000E+00  0.00000000000E+00  0.25839776666E+03  0.25839776666E+03  0.00000000000E+00 0.  1.
          1   -1    0    0  502    0  0.00000000000E+00 -0.00000000000E+00 -0.11098288611E+03  0.11098288611E+03  0.00000000000E+00 0. -1.
         23    2    1    2    0    0  0.28407150391E+02  0.12073418087E+03  0.24197858773E+02  0.15932940639E+03  0.97039243340E+02 0.  0.
         23    2    1    2    0    0 -0.11757724343E+01 -0.86369593408E+02  0.33742605580E+02  0.11041117426E+03  0.59924743343E+02 0.  0.
        -11    1    4    4    0    0 -0.23815225568E+02 -0.13521680851E+02  0.17243366028E+02  0.32362547704E+02  0.00000000000E+00 0.  1.
         11    1    4    4    0    0  0.22639453134E+02 -0.72847912557E+02  0.16499239552E+02  0.78048626560E+02  0.00000000000E+00 0. -1.
        -13    1    3    3    0    0 -0.21925674645E+02  0.80020882737E+02 -0.14028820744E+02  0.84147992811E+02  0.00000000000E+00 0. -1.
         13    1    3    3    0    0  0.50332825036E+02  0.40713298133E+02  0.38226679517E+02  0.75181413580E+02  0.00000000000E+00 0.  1.
         21    1    1    2  502  501 -0.27231377957E+02 -0.34364587462E+02  0.89474416193E+02  0.99640072110E+02  0.00000000000E+00 0. -1.
<scales pt_clust_5="13000.00000" pt_clust_6="13000.00000" pt_clust_7="13000.00000" pt_clust_8="13000.00000" pt_clust_9="43.84601"></scales>
<clustering>
<clus scale="   43.846">  1  9  2 -1</clus>
<clus scale="   59.925">  5  6 -1 -1</clus>
<clus scale="   97.039">  7  8 -1 -1</clus>
<clus scale="  118.591">  2  5  1 -1</clus>
<clus scale="  118.591">  2  5  1 -1</clus>
</clustering>
</event>
<event>
 9    1  0.1434065E-005  0.1079328E+03  0.7546771E-02  0.1268520E+00
         -1   -1    0    0    0  501 -0.00000000000E+00  0.00000000000E+00  0.22932885773E+02  0.22932885773E+02  0.00000000000E+00 0.  1.
          1   -1    0    0  502    0  0.00000000000E+00 -0.00000000000E+00 -0.65936566787E+03  0.65936566787E+03  0.00000000000E+00 0. -1.
         23    2    1    2    0    0 -0.54744067229E+02  0.23505341718E+02 -0.20663983437E+03  0.23296942730E+03  0.89584144359E+02 0.  0.
         23    2    1    2    0    0  0.33235406854E+02 -0.11534149615E+02 -0.37311131121E+03  0.38753317316E+03  0.98652323201E+02 0.  0.
        -11    1    3    3    0    0 -0.11007141932E+02  0.51371606728E+02 -0.75803584728E+02  0.92230052634E+02  0.00000000000E+00 0.  1.
         11    1    3    3    0    0 -0.43736925296E+02 -0.27866265010E+02 -0.13083624965E+03  0.14073937467E+03  0.00000000000E+00 0. -1.
        -11    1    4    4    0    0 -0.23359193473E+02 -0.12735705532E+02 -0.31360102783E+02  0.41125492844E+02  0.00000000000E+00 0.  1.
         11    1    4    4    0    0  0.56594600327E+02  0.12015559175E+01 -0.34175120842E+03  0.34640768032E+03  0.00000000000E+00 0. -1.
         21    1    1    2  502  501  0.21508660374E+02 -0.11971192103E+02 -0.56681636513E+02  0.61795953178E+02  0.00000000000E+00 0. -1.
<scales pt_clust_5="13000.00000" pt_clust_6="13000.00000" pt_clust_7="13000.00000" pt_clust_8="13000.00000" pt_clust_9="24.61568"></scales>
<clustering>
<clus scale="   24.616">  1  9  2 -1</clus>
<clus scale="   89.584">  5  6 -1 -1</clus>
<clus scale="   98.652">  7  8 -1 -1</clus>
<clus scale="   99.712">  1  5  2 -1</clus>
<clus scale="  107.933">  2  5  1 -1</clus>
</clustering>
</event>
<event>
 9    1  0.1434065E-005  0.1788011E+03  0.7546771E-02  0.1170035E+00
         -4   -1    0    0    0  501 -0.00000000000E+00  0.00000000000E+00  0.39803079066E+03  0.39803079066E+03  0.00000000000E+00 0.  1.
          4   -1    0    0  502    0  0.00000000000E+00 -0.00000000000E+00 -0.10719802748E+03  0.10719802748E+03  0.00000000000E+00 0. -1.
         23    2    1    2    0    0  0.34878734690E+02 -0.13536792943E+03  0.17112426145E+03  0.23884236620E+03  0.90670615874E+02 0.  0.
         23    2    1    2    0    0 -0.26985274577E+02  0.16016123360E+03  0.45111230424E+02  0.18738159429E+03  0.81835279533E+02 0.  0.
        -11    1    3    3    0    0  0.20688177176E+02 -0.90170171842E+02  0.16747573457E+03  0.19132898953E+03  0.00000000000E+00 0.  1.
         11    1    3    3    0    0  0.14190557514E+02 -0.45197757589E+02  0.36485268726E+01  0.47513376663E+02  0.00000000000E+00 0. -1.
        -11    1    4    4    0    0 -0.28702407776E+02  0.11770956083E+03 -0.55224299926E+01  0.12128423705E+03  0.00000000000E+00 0. -1.
         11    1    4    4    0    0  0.17171331984E+01  0.42451672768E+02  0.50633660416E+02  0.66097357242E+02  0.00000000000E+00 0.  1.
         21    1    1    2  502  501 -0.78934601127E+01 -0.24793304171E+02  0.74597271316E+02  0.79004857648E+02  0.00000000000E+00 0. -1.
<scales pt_clust_5="13000.00000" pt_clust_6="13000.00000" pt_clust_7="13000.00000" pt_clust_8="13000.00000" pt_clust_9="26.01951"></scales>
<clustering>
<clus scale="   26.020">  1  9  2 -1</clus>
<clus scale="   81.835">  7  8 -1 -1</clus>
<clus scale="   90.671">  5  6 -1 -1</clus>
<clus scale="  174.487">  2  7  1 -1</clus>
<clus scale="  174.487">  2  5  1 -1</clus>
</clustering>
</event>
<event>
 9    1  0.1434065E-005  0.1974577E+03  0.7546771E-02  0.1153024E+00
         -1   -1    0    0    0  501 -0.00000000000E+00  0.00000000000E+00  0.13961168625E+03  0.13961168625E+03  0.00000000000E+00 0.  1.
          1   -1    0    0  502    0  0.00000000000E+00 -0.00000000000E+00 -0.93456185644E+03  0.93456185644E+03  0.00000000000E+00 0. -1.
         23    2    1    2    0    0 -0.17615146483E+03  0.10557900744E+02  0.25610378539E+01  0.20342830949E+03  0.10117168752E+03 0.  0.
         23    2    1    2    0    0  0.15893103314E+03 -0.59118760255E+02 -0.79631745634E+03  0.81920762181E+03  0.90694736640E+02 0.  0.
        -11    1    4    4    0    0  0.97835527141E+02 -0.80774129836E+02 -0.55708421248E+03  0.57134846654E+03  0.00000000000E+00 0.  1.
         11    1    4    4    0    0  0.61095506001E+02  0.21655369581E+02 -0.23923324385E+03  0.24785915527E+03  0.00000000000E+00 0. -1.
        -13    1    3    3    0    0 -0.15309328779E+02  0.16621637136E+02  0.32626416515E+02  0.39688001000E+02  0.00000000000E+00 0. -1.
         13    1    3    3    0    0 -0.16084213605E+03 -0.60637363918E+01 -0.30065378662E+02  0.16374030849E+03  0.00000000000E+00 0.  1.
         21    1    1    2  502  501  0.17220431692E+02  0.48560859511E+02 -0.11937517064E+01  0.51537611385E+02  0.00000000000E+00 0.  1.
<scales pt_clust_5="13000.00000" pt_clust_6="13000.00000" pt_clust_7="13000.00000" pt_clust_8="13000.00000" pt_clust_9="51.52378"></scales>
<clustering>
<clus scale="   51.524">  1  9  2 -1</clus>
<clus scale="   90.695">  5  6 -1 -1</clus>
<clus scale="  101.172">  7  8 -1 -1</clus>
<clus scale="  192.300">  2  5  1 -1</clus>
<clus scale="  192.300">  2  5  1 -1</clus>
</clustering>
</event>
<event>
 9    1  0.1434065E-005  0.9559274E+02  0.7546771E-02  0.1290560E+00
         -2   -1    0    0    0  501 -0.00000000000E+00  0.00000000000E+00  0.40033499541E+02  0.40033499541E+02  0.00000000000E+00 0.  1.
          2   -1    0    0  502    0  0.00000000000E+00 -0.00000000000E+00 -0.38668978141E+03  0.38668978141E+03  0.00000000000E+00 0. -1.
         23    2    1    2    0    0  0.96053955547E+01 -0.26910283914E+02 -0.90483272555E+02  0.13221388112E+03  0.92069868813E+02 0.  0.
         23    2    1    2    0    0  0.14070313235E+02  0.23780905457E+02 -0.25326798023E+03  0.27045173182E+03  0.90752213508E+02 0.  0.
        -11    1    4    4    0    0  0.47109110682E+02  0.31889877774E+02 -0.19340109397E+03  0.20159418584E+03  0.00000000000E+00 0. -1.
         11    1    4    4    0    0 -0.33038797446E+02 -0.81089723165E+01 -0.59866886251E+02  0.68857545978E+02  0.00000000000E+00 0.  1.
        -11    1    3    3    0    0  0.30814616515E+02 -0.53893306668E+02 -0.58366337940E+02  0.85209497705E+02  0.00000000000E+00 0.  1.
         11    1    3    3    0    0 -0.21209220960E+02  0.26983022755E+02 -0.32116934615E+02  0.47004383411E+02  0.00000000000E+00 0. -1.
         21    1    1    2  502  501 -0.23675708790E+02  0.31293784565E+01 -0.29050290832E+01  0.24057668013E+02  0.00000000000E+00 0.  1.
<scales pt_clust_5="13000.00000" pt_clust_6="13000.00000" pt_clust_7="13000.00000" pt_clust_8="13000.00000" pt_clust_9="23.88163"></scales>
<clustering>
<clus scale="   23.882">  1  9  2 -1</clus>
<clus scale="   90.752">  5  6 -1 -1</clus>
<clus scale="   92.070">  7  8 -1 -1</clus>
<clus scale="   94.324">  2  5  1 -1</clus>
<clus scale="   94.324">  2  5  1 -1</clus>
</clustering>
</event>
<event>
 9    1  0.1434065E-005  0.1066552E+03  0.7546771E-02  0.1267442E+00
          2   -1    0    0  502    0  0.00000000000E+00  0.00000000000E+00  0.22481328316E+03  0.22481328316E+03  0.00000000000E+00 0. -1.
         -2   -1    0    0    0  501 -0.00000000000E+00 -0.00000000000E+00 -0.18148365806E+03  0.18148365806E+03  0.00000000000E+00 0.  1.
         23    2    1    2    0    0 -0.13192658878E+02  0.14205823899E+02 -0.35046147254E+02  0.98321913391E+02  0.89794846927E+02 0.  0.
         23    2    1    2    0    0  0.29305772321E+02 -0.57539057854E+02  0.17112325753E+03  0.20434348053E+03  0.91123637435E+02 0.  0.
        -11    1    3    3    0    0  0.69918209070E+01  0.45565044699E+02 -0.39573371848E+02  0.60754511087E+02  0.00000000000E+00 0. -1.
         11    1    3    3    0    0 -0.20184479785E+02 -0.31359220800E+02  0.45272245933E+01  0.37567402304E+02  0.00000000000E+00 0.  1.
        -13    1    4    4    0    0  0.51333838614E+02 -0.30632657108E+02  0.48784127633E+02  0.77158368161E+02  0.00000000000E+00 0.  1.
         13    1    4    4    0    0 -0.22028066293E+02 -0.26906400746E+02  0.12233912990E+03  0.12718511237E+03  0.00000000000E+00 0. -1.
         21    1    1    2  502  501 -0.16113113443E+02  0.43333233955E+02 -0.92747485174E+02  0.10363154730E+03  0.00000000000E+00 0.  1.
<scales pt_clust_5="13000.00000" pt_clust_6="13000.00000" pt_clust_7="13000.00000" pt_clust_8="13000.00000" pt_clust_9="46.23204"></scales>
<clustering>
<clus scale="   46.232">  2  9  1 -1</clus>
<clus scale="   89.795">  5  6 -1 -1</clus>
<clus scale="   91.124">  7  8 -1 -1</clus>
<clus scale="  105.522">  2  5  1 -1</clus>
<clus scale="  106.655">  1  5  2 -1</clus>
</clustering>
</event>
<event>
 9    1  0.1434065E-005  0.9915613E+02  0.7546771E-02  0.1283163E+00
         -1   -1    0    0    0  501 -0.00000000000E+00  0.00000000000E+00  0.41642488498E+02  0.41642488498E+02  0.00000000000E+00 0.  1.
          1   -1    0    0  502    0  0.00000000000E+00 -0.00000000000E+00 -0.32819809103E+03  0.32819809103E+03  0.00000000000E+00 0. -1.
         23    2    1    2    0    0  0.67168901825E+00  0.41283683884E+02 -0.97694269049E+02  0.13914776748E+03  0.90072955255E+02 0.  0.
         23    2    1    2    0    0  0.27962767608E+02 -0.25363519774E+02 -0.14482174752E+03  0.17580320590E+03  0.92239927044E+02 0.  0.
        -11    1    4    4    0    0  0.57551213874E+02 -0.25454976991E+02 -0.12570350661E+03  0.14057549447E+03  0.00000000000E+00 0. -1.
         11    1    4    4    0    0 -0.29588446266E+02  0.91457216578E-01 -0.19118240915E+02  0.35227711429E+02  0.00000000000E+00 0.  1.
        -13    1    3    3    0    0 -0.32527277865E+02  0.51089616069E+01 -0.37404301723E+01  0.33137835051E+02  0.00000000000E+00 0.  1.
         13    1    3    3    0    0  0.33198966883E+02  0.36174722278E+02 -0.93953838877E+02  0.10600993243E+03  0.00000000000E+00 0. -1.
         21    1    1    2  502  501 -0.28634456626E+02 -0.15920164110E+02 -0.44039585958E+02  0.54889606147E+02  0.00000000000E+00 0. -1.
<scales pt_clust_5="13000.00000" pt_clust_6="13000.00000" pt_clust_7="13000.00000" pt_clust_8="13000.00000" pt_clust_9="32.76254"></scales>
<clustering>
<clus scale="   32.763">  2  9  1 -1</clus>
<clus scale="   90.073">  7  8 -1 -1</clus>
<clus scale="   92.240">  5  6 -1 -1</clus>
<clus scale="   97.144">  1  7  2 -1</clus>
<clus scale="   32.763">  2  5  1 -1</clus>
</clustering>
</event>
<event>
 9    1  0.1434065E-005  0.1172402E+03  0.7546771E-02  0.1248451E+00
          3   -1    0    0  502    0  0.00000000000E+00  0.00000000000E+00  0.16571587265E+03  0.16571587265E+03  0.00000000000E+00 0. -1.
         -3   -1    0    0    0  501 -0.00000000000E+00 -0.00000000000E+00 -0.11650982096E+03  0.11650982096E+03  0.00000000000E+00 0.  1.
         23    2    1    2    0    0  0.75310460423E+02 -0.26593942523E+02  0.15892391091E+02  0.12417401573E+03  0.93742812317E+02 0.  0.
         23    2    1    2    0    0 -0.65914699830E+02 -0.11333303579E+01  0.50999937974E+02  0.12384807593E+03  0.91604149174E+02 0.  0.
        -11    1    3    3    0    0  0.68237571964E+02  0.58841368526E+01 -0.23703018738E+02  0.72476357464E+02  0.00000000000E+00 0.  1.
         11    1    3    3    0    0  0.70728884596E+01 -0.32478079375E+02  0.39595409829E+02  0.51697658270E+02  0.00000000000E+00 0. -1.
        -13    1    4    4    0    0 -0.14492939064E+01  0.32384012925E+02 -0.40803319512E+01  0.32672218394E+02  0.00000000000E+00 0.  1.
         13    1    4    4    0    0 -0.64465405924E+02 -0.33517343283E+02  0.55080269925E+02  0.91175857532E+02  0.00000000000E+00 0. -1.
         21    1    1    2  502  501 -0.93957605928E+01  0.27727272881E+02 -0.17686277380E+02  0.34203601946E+02  0.00000000000E+00 0. -1.
<scales pt_clust_5="13000.00000" pt_clust_6="13000.00000" pt_clust_7="13000.00000" pt_clust_8="13000.00000" pt_clust_9="29.27596"></scales>
<clustering>
<clus scale="   29.276">  2  9  1 -1</clus>
<clus scale="   91.604">  7  8 -1 -1</clus>
<clus scale="   93.743">  5  6 -1 -1</clus>
<clus scale="  115.537">  1  7  2 -1</clus>
<clus scale="  115.537">  1  5  2 -1</clus>
</clustering>
</event>
<event>
 9    1  0.1434065E-005  0.1601606E+03  0.7546771E-02  0.1189039E+00
         -2   -1    0    0    0  501 -0.00000000000E+00  0.00000000000E+00  0.95869631865E+02  0.95869631865E+02  0.00000000000E+00 0.  1.
          2   -1    0    0  502    0  0.00000000000E+00 -0.00000000000E+00 -0.39167754159E+03  0.39167754159E+03  0.00000000000E+00 0. -1.
         23    2    1    2    0    0 -0.92284318245E+01 -0.11617450403E+03 -0.11294830683E+03  0.18605752343E+03  0.90985727833E+02 0.  0.
         23    2    1    2    0    0 -0.50643284034E+01  0.14070702527E+03 -0.20468256766E+03  0.26567946454E+03  0.94162147354E+02 0.  0.
        -11    1    3    3    0    0 -0.35116969279E+02 -0.13787024951E+02 -0.51605371141E+02  0.63924939726E+02  0.00000000000E+00 0. -1.
         11    1    3    3    0    0  0.25888537454E+02 -0.10238747908E+03 -0.61342935689E+02  0.12213258371E+03  0.00000000000E+00 0.  1.
        -11    1    4    4    0    0  0.32539727354E+02  0.42775778352E+02 -0.29026210832E+02  0.61082910746E+02  0.00000000000E+00 0.  1.
         11    1    4    4    0    0 -0.37604055758E+02  0.97931246919E+02 -0.17565635682E+03  0.20459655380E+03  0.00000000000E+00 0. -1.
         21    1    1    2  502  501  0.14292760228E+02 -0.24532521239E+02  0.21822964760E+02  0.35810185481E+02  0.00000000000E+00 0.  1.
<scales pt_clust_5="13000.00000" pt_clust_6="13000.00000" pt_clust_7="13000.00000" pt_clust_8="13000.00000" pt_clust_9="28.39239"></scales>
<clustering>
<clus scale="   28.392">  1  9  2 -1</clus>
<clus scale="   90.986">  5  6 -1 -1</clus>
<clus scale="   94.162">  7  8 -1 -1</clus>
<clus scale="  158.314">  1  5  2 -1</clus>
<clus scale="  160.161">  2  5  1 -1</clus>
</clustering>
</event>
<event>
 9    1  0.1434065E-005  0.1053376E+03  0.7546771E-02  0.1271063E+00
          1   -1    0    0  502    0  0.00000000000E+00  0.00000000000E+00  0.56786837544E+03  0.56786837544E+03  0.00000000000E+00 0. -1.
         -1   -1    0    0    0  501 -0.00000000000E+00 -0.00000000000E+00 -0.33599915694E+02  0.33599915694E+02  0.00000000000E+00 0.  1.
         23    2    1    2    0    0  0.79717768194E+01 -0.54780171948E+02  0.17042908888E+03  0.20097158360E+03  0.90989486283E+02 0.  0.
         23    2    1    2    0    0 -0.25533411750E+02  0.35670336568E+02  0.35933269078E+03  0.37415459306E+03  0.94590426656E+02 0.  0.
        -13    1    4    4    0    0  0.24872730229E+02 -0.34600323508E+01  0.32087921129E+02  0.40746278545E+02  0.00000000000E+00 0.  1.
         13    1    4    4    0    0 -0.50406141979E+02  0.39130368919E+02  0.32724476965E+03  0.33340831451E+03  0.00000000000E+00 0. -1.
        -13    1    3    3    0    0  0.30941711583E+02 -0.54481139468E+02  0.16619473491E+03  0.17761270784E+03  0.00000000000E+00 0.  1.
         13    1    3    3    0    0 -0.22969934764E+02 -0.29903248095E+00  0.42343539722E+01  0.23358875765E+02  0.00000000000E+00 0. -1.
         21    1    1    2  502  501  0.17561634931E+02  0.19109835380E+02  0.45066800833E+01  0.26342114476E+02  0.00000000000E+00 0. -1.
<scales pt_clust_5="13000.00000" pt_clust_6="13000.00000" pt_clust_7="13000.00000" pt_clust_8="13000.00000" pt_clust_9="25.95374"></scales>
<clustering>
<clus scale="   25.954">  2  9  1 -1</clus>
<clus scale="   90.989">  7  8 -1 -1</clus>
<clus scale="   94.590">  5  6 -1 -1</clus>
<clus scale="  102.116">  2  7  1 -1</clus>
<clus scale="  105.338">  1  5  2 -1</clus>
</clustering>
</event>
<event>
 9    1  0.1434065E-005  0.1102367E+03  0.7546771E-02  0.1260377E+00
          1   -1    0    0  502    0  0.00000000000E+00  0.00000000000E+00  0.13193005637E+03  0.13193005637E+03  0.00000000000E+00 0. -1.
         -1   -1    0    0    0  501 -0.00000000000E+00 -0.00000000000E+00 -0.12046731225E+03  0.12046731225E+03  0.00000000000E+00 0.  1.
         23    2    1    2    0    0  0.18709921267E+02  0.50518063960E+02  0.78813333084E+01  0.11408762099E+03  0.10025833585E+03 0.  0.
         23    2    1    2    0    0 -0.16206186155E+01 -0.37790955286E+02  0.22258488374E+02  0.10997502005E+03  0.10083789975E+03 0.  0.
        -11    1    3    3    0    0 -0.40310214826E+02  0.22534949196E+02  0.14576689650E+02  0.48427443002E+02  0.00000000000E+00 0.  1.
         11    1    3    3    0    0  0.59020136093E+02  0.27983114763E+02 -0.66953563417E+01  0.65660177984E+02  0.00000000000E+00 0. -1.
        -13    1    4    4    0    0  0.22622749716E+02  0.28918409117E+02  0.70891833128E+01  0.37394113315E+02  0.00000000000E+00 0. -1.
         13    1    4    4    0    0 -0.24243368331E+02 -0.66709364403E+02  0.15169305061E+02  0.72580906739E+02  0.00000000000E+00 0.  1.
         21    1    1    2  502  501 -0.17089302652E+02 -0.12727108674E+02 -0.18677077562E+02  0.28334727572E+02  0.00000000000E+00 0.  1.
<scales pt_clust_5="13000.00000" pt_clust_6="13000.00000" pt_clust_7="13000.00000" pt_clust_8="13000.00000" pt_clust_9="21.30783"></scales>
<clustering>
<clus scale="   21.308">  2  9  1 -1</clus>
<clus scale="  100.258">  5  6 -1 -1</clus>
<clus scale="  100.838">  7  8 -1 -1</clus>
<clus scale="  109.707">  2  5  1 -1</clus>
<clus scale="  110.237">  1  5  2 -1</clus>
</clustering>
</event>
<event>
 9    1  0.1434065E-005  0.1236408E+03  0.7546771E-02  0.1249236E+00
          1   -1    0    0  502    0  0.00000000000E+00  0.00000000000E+00  0.31442919411E+03  0.31442919411E+03  0.00000000000E+00 0. -1.
         -1   -1    0    0    0  501 -0.00000000000E+00 -0.00000000000E+00 -0.56186138149E+02  0.56186138149E+02  0.00000000000E+00 0.  1.
         23    2    1    2    0    0  0.64287255339E+01  0.55588424494E+02  0.75622014373E+02  0.13018492577E+03  0.89989023723E+02 0.  0.
         23    2    1    2    0    0  0.10820315266E+01 -0.21117603515E+02  0.15185396206E+03  0.19361948733E+03  0.11824447601E+03 0.  0.
        -11    1    4    4    0    0  0.58902829724E+02 -0.18796628377E+02  0.86541634812E+02  0.10635934911E+03  0.00000000000E+00 0.  1.
         11    1    4    4    0    0 -0.57820798197E+02 -0.23209751380E+01  0.65312327253E+02  0.87260138213E+02  0.00000000000E+00 0. -1.
        -11    1    3    3    0    0  0.45946804646E+02  0.14227782537E+02  0.41836395884E+02  0.63748118981E+02  0.00000000000E+00 0.  1.
         11    1    3    3    0    0 -0.39518079112E+02  0.41360641957E+02  0.33785618489E+02  0.66436806790E+02  0.00000000000E+00 0. -1.
         21    1    1    2  502  501 -0.75107570605E+01 -0.34470820978E+02  0.30767079528E+02  0.46810919167E+02  0.00000000000E+00 0.  1.
<scales pt_clust_5="13000.00000" pt_clust_6="13000.00000" pt_clust_7="13000.00000" pt_clust_8="13000.00000" pt_clust_9="35.27958"></scales>
<clustering>
<clus scale="   35.280">  2  9  1 -1</clus>
<clus scale="   89.989">  7  8 -1 -1</clus>
<clus scale="   96.971">  2  7  1 -1</clus>
<clus scale="  118.244">  5  6 -1 -1</clus>
<clus scale="  123.641">  1  5  2 -1</clus>
</clustering>
</event>
<event>
 9    1  0.1434065E-005  0.1119264E+03  0.7546771E-02  0.1259672E+00
         -3   -1    0    0    0  501 -0.00000000000E+00  0.00000000000E+00  0.41624973048E+03  0.41624973048E+03  0.00000000000E+00 0.  1.
          3   -1    0    0  502    0  0.00000000000E+00 -0.00000000000E+00 -0.46143863011E+02  0.46143863011E+02  0.00000000000E+00 0. -1.
         23    2    1    2    0    0  0.35520525385E+02 -0.34859700814E+02  0.18760834472E+03  0.21175061841E+03  0.84643528534E+02 0.  0.
         23    2    1    2    0    0 -0.62502086075E+02  0.36701513463E+02  0.72803351095E+02  0.13766417979E+03  0.91638346846E+02 0.  0.
        -11    1    4    4    0    0 -0.83009843533E+02  0.30892377607E+02  0.75233768540E+02  0.11621141530E+03  0.00000000000E+00 0. -1.
         11    1    4    4    0    0  0.20507757457E+02  0.58091358556E+01 -0.24304174448E+01  0.21452764490E+02  0.00000000000E+00 0.  1.
        -11    1    3    3    0    0  0.66504182875E+01 -0.59593975930E+02  0.12147521997E+03  0.13546918136E+03  0.00000000000E+00 0.  1.
         11    1    3    3    0    0  0.28870107098E+02  0.24734275116E+02  0.66133124746E+02  0.76281437047E+02  0.00000000000E+00 0. -1.
         21    1    1    2  502  501  0.26981560690E+02 -0.18418126494E+01  0.10969417165E+03  0.11297879529E+03  0.00000000000E+00 0. -1.
<scales pt_clust_5="13000.00000" pt_clust_6="13000.00000" pt_clust_7="13000.00000" pt_clust_8="13000.00000" pt_clust_9="27.04435"></scales>
<clustering>
<clus scale="   27.044">  1  9  2 -1</clus>
<clus scale="   84.644">  7  8 -1 -1</clus>
<clus scale="   91.638">  5  6 -1 -1</clus>
<clus scale="  106.275">  1  7  2 -1</clus>
<clus scale="  111.926">  2  5  1 -1</clus>
</clustering>
</event>
<event>
 9    1  0.1598612E-005  0.1073382E+03  0.7546771E-02  0.1265620E+00
          1   -1    0    0  502    0  0.00000000000E+00  0.00000000000E+00  0.96895665893E+02  0.96895665893E+02  0.00000000000E+00 0. -1.
         -1   -1    0    0    0  501 -0.00000000000E+00 -0.00000000000E+00 -0.46776172564E+03  0.46776172564E+03  0.00000000000E+00 0.  1.
         23    2    1    2    0    0 -0.20129194287E+02  0.57044425389E+02 -0.37477347200E+03  0.39046492543E+03  0.91369862320E+02 0.  0.
         23    2    1    2    0    0 -0.16540681036E+02 -0.21579198482E+02  0.48105371253E+02  0.10669489833E+03  0.91271127146E+02 0.  0.
        -11    1    3    3    0    0 -0.25460464516E+02 -0.19980927279E+02 -0.11246322360E+03  0.11702755817E+03  0.00000000000E+00 0. -1.
         11    1    3    3    0    0  0.53312702286E+01  0.77025352668E+02 -0.26231024841E+03  0.27343736726E+03  0.00000000000E+00 0.  1.
        -13    1    4    4    0    0  0.29832328812E+02  0.16338514952E+02  0.90877934069E+01  0.35206574702E+02  0.00000000000E+00 0.  1.
         13    1    4    4    0    0 -0.46373009849E+02 -0.37917713434E+02  0.39017577846E+02  0.71488323630E+02  0.00000000000E+00 0. -1.
         21    1    1    2  502  501  0.36669875323E+02 -0.35465226907E+02 -0.44197958996E+02  0.67497567773E+02  0.00000000000E+00 0. -1.
<scales pt_clust_5="13000.00000" pt_clust_6="13000.00000" pt_clust_7="13000.00000" pt_clust_8="13000.00000" pt_clust_9="51.01433"></scales>
<clustering>
<clus scale="   51.014">  1  9  2 -1</clus>
<clus scale="   91.271">  7  8 -1 -1</clus>
<clus scale="   91.370">  5  6 -1 -1</clus>
<clus scale="  107.254">  1  7  2 -1</clus>
<clus scale="   51.014">  1  5  2 -1</clus>
</clustering>
</event>
<event>
 9    1  0.1434065E-005  0.9606993E+02  0.7546771E-02  0.1290711E+00
          1   -1    0    0  502    0  0.00000000000E+00  0.00000000000E+00  0.19867802449E+03  0.19867802449E+03  0.00000000000E+00 0. -1.
         -1   -1    0    0    0  501 -0.00000000000E+00 -0.00000000000E+00 -0.10460631126E+03  0.10460631126E+03  0.00000000000E+00 0.  1.
         23    2    1    2    0    0 -0.38902814698E+01 -0.27499280983E+02  0.24580099484E+02  0.97969861388E+02  0.90678375070E+02 0.  0.
         23    2    1    2    0    0  0.17526226969E+02  0.73878698446E+01  0.11734380698E+03  0.15164660441E+03  0.94156116840E+02 0.  0.
        -13    1    3    3    0    0  0.12264017343E+02 -0.58149455086E+02  0.21453273705E+02  0.63182340894E+02  0.00000000000E+00 0.  1.
         13    1    3    3    0    0 -0.16154298813E+02  0.30650174103E+02  0.31268257794E+01  0.34787520494E+02  0.00000000000E+00 0. -1.
        -13    1    4    4    0    0  0.14088208502E+02 -0.36253832255E+02  0.94665156889E+02  0.10234407604E+03  0.00000000000E+00 0.  1.
         13    1    4    4    0    0  0.34380184670E+01  0.43641702099E+02  0.22678650092E+02  0.49302528364E+02  0.00000000000E+00 0. -1.
         21    1    1    2  502  501 -0.13635945500E+02  0.20111411138E+02 -0.47852193238E+02  0.53667869954E+02  0.00000000000E+00 0. -1.
<scales pt_clust_5="13000.00000" pt_clust_6="13000.00000" pt_clust_7="13000.00000" pt_clust_8="13000.00000" pt_clust_9="24.29831"></scales>
<clustering>
<clus scale="   24.298">  2  9  1 -1</clus>
<clus scale="   90.678">  5  6 -1 -1</clus>
<clus scale="   92.664">  2  5  1 -1</clus>
<clus scale="   94.156">  7  8 -1 -1</clus>
<clus scale="   96.070">  1  5  2 -1</clus>
</clustering>
</event>
<event>
 9    1  0.1434065E-005  0.1324073E+03  0.7546771E-02  0.1231705E+00
         -1   -1    0    0    0  501 -0.00000000000E+00  0.00000000000E+00  0.36381952593E+02  0.36381952593E+02  0.00000000000E+00 0.  1.
          1   -1    0    0  502    0  0.00000000000E+00 -0.00000000000E+00 -0.59136300495E+03  0.59136300495E+03  0.00000000000E+00 0. -1.
         23    2    1    2    0    0  0.29936928475E+02 -0.36340860017E+02 -0.10681484982E+03  0.14973456775E+03  0.93777133899E+02 0.  0.
         23    2    1    2    0    0 -0.35872780597E+02  0.60846317162E+02 -0.41136318808E+03  0.43339857922E+03  0.11672842524E+03 0.  0.
        -11    1    4    4    0    0 -0.18170022789E+02  0.76407705106E+02 -0.39924352635E+03  0.40689517134E+03  0.00000000000E+00 0. -1.
         11    1    4    4    0    0 -0.17702757808E+02 -0.15561387944E+02 -0.12119661737E+02  0.26503407882E+02  0.00000000000E+00 0.  1.
        -13    1    3    3    0    0 -0.10784378636E+02 -0.49633010205E+02 -0.90728454742E+02  0.10397783910E+03  0.00000000000E+00 0.  1.
         13    1    3    3    0    0  0.40721307111E+02  0.13292150188E+02 -0.16086395079E+02  0.45756728643E+02  0.00000000000E+00 0. -1.
         21    1    1    2  502  501  0.59358521224E+01 -0.24505457145E+02 -0.36803014457E+02  0.44611810582E+02  0.00000000000E+00 0.  1.
<scales pt_clust_5="13000.00000" pt_clust_6="13000.00000" pt_clust_7="13000.00000" pt_clust_8="13000.00000" pt_clust_9="25.21412"></scales>
<clustering>
<clus scale="   25.214">  1  9  2 -1</clus>
<clus scale="   93.777">  7  8 -1 -1</clus>
<clus scale="  112.696">  1  7  2 -1</clus>
<clus scale="  116.728">  5  6 -1 -1</clus>
<clus scale="  132.407">  2  5  1 -1</clus>
</clustering>
</event>
<event>
 9    1  0.1434065E-005  0.9258276E+02  0.7546771E-02  0.1297827E+00
          1   -1    0    0  502    0  0.00000000000E+00  0.00000000000E+00  0.14047069120E+03  0.14047069120E+03  0.00000000000E+00 0. -1.
         -1   -1    0    0    0  501 -0.00000000000E+00 -0.00000000000E+00 -0.10846967668E+03  0.10846967668E+03  0.00000000000E+00 0.  1.
         23    2    1    2    0    0 -0.26384202776E+02  0.32032808449E+01  0.13474583725E+01  0.94039107350E+02  0.90195071389E+02 0.  0.
         23    2    1    2    0    0 -0.16618912461E+01 -0.62009289616E+01  0.63167344095E+02  0.11185807650E+03  0.92091815688E+02 0.  0.
        -11    1    3    3    0    0  0.27471627165E+02  0.21945710306E+02 -0.84930698485E+01  0.36172320016E+02  0.00000000000E+00 0.  1.
         11    1    3    3    0    0 -0.53855829941E+02 -0.18742429461E+02  0.98405282210E+01  0.57866787334E+02  0.00000000000E+00 0. -1.
        -13    1    4    4    0    0  0.33507919767E+02 -0.22574767226E+02  0.33230963275E+01  0.40539410104E+02  0.00000000000E+00 0.  1.
         13    1    4    4    0    0 -0.35169811013E+02  0.16373838264E+02  0.59844247768E+02  0.71318666400E+02  0.00000000000E+00 0. -1.
         21    1    1    2  502  501  0.28046094022E+02  0.29976481167E+01 -0.32513787949E+02  0.43043184024E+02  0.00000000000E+00 0.  1.
<scales pt_clust_5="13000.00000" pt_clust_6="13000.00000" pt_clust_7="13000.00000" pt_clust_8="13000.00000" pt_clust_9="28.20584"></scales>
<clustering>
<clus scale="   28.206">  2  9  1 -1</clus>
<clus scale="   90.195">  5  6 -1 -1</clus>
<clus scale="   90.696">  2  5  1 -1</clus>
<clus scale="   92.092">  7  8 -1 -1</clus>
<clus scale="   92.583">  1  5  2 -1</clus>
</clustering>
</event>
<event>
 9    1  0.1434065E-005  0.1151986E+03  0.7546771E-02  0.1252035E+00
         -1   -1    0    0    0  501 -0.00000000000E+00  0.00000000000E+00  0.11469361437E+03  0.11469361437E+03  0.00000000000E+00 0.  1.
          1   -1    0    0  502    0  0.00000000000E+00 -0.00000000000E+00 -0.22608778133E+03  0.22608778133E+03  0.00000000000E+00 0. -1.
         23    2    1    2    0    0 -0.29880684841E+02  0.10159239536E+03 -0.33467226146E+02  0.14410134533E+03  0.91821960219E+02 0.  0.
         23    2    1    2    0    0 -0.18622190489E+01 -0.55020883879E+02 -0.90776533304E+02  0.13887321984E+03  0.89524447317E+02 0.  0.
        -13    1    3    3    0    0  0.28355885311E+02  0.51150889008E+02  0.36168979258E+01  0.58596515500E+02  0.00000000000E+00 0.  1.
         13    1    3    3    0    0 -0.58236570152E+02  0.50441506354E+02 -0.37084124072E+02  0.85504829831E+02  0.00000000000E+00 0. -1.
        -13    1    4    4    0    0 -0.20807726347E+02 -0.74246118205E+02 -0.58431248285E+02  0.96745327124E+02  0.00000000000E+00 0. -1.
         13    1    4    4    0    0  0.18945507298E+02  0.19225234326E+02 -0.32345285019E+02  0.42127892716E+02  0.00000000000E+00 0.  1.
         21    1    1    2  502  501  0.31742903890E+02 -0.46571511483E+02  0.12849592483E+02  0.57806830531E+02  0.00000000000E+00 0.  1.
<scales pt_clust_5="13000.00000" pt_clust_6="13000.00000" pt_clust_7="13000.00000" pt_clust_8="13000.00000" pt_clust_9="56.36060"></scales>
<clustering>
<clus scale="   56.361">  1  9  2 -1</clus>
<clus scale="   89.524">  7  8 -1 -1</clus>
<clus scale="   91.822">  5  6 -1 -1</clus>
<clus scale="  113.376">  2  7  1 -1</clus>
<clus scale="  113.376">  2  5  1 -1</clus>
</clustering>
</event>
<event>
 9    1  0.1434065E-005  0.9741099E+02  0.7546771E-02  0.1286915E+00
          2   -1    0    0  502    0  0.00000000000E+00  0.00000000000E+00  0.42562840181E+03  0.42562840181E+03  0.00000000000E+00 0. -1.
         -2   -1    0    0    0  501 -0.00000000000E+00 -0.00000000000E+00 -0.48595970890E+02  0.48595970890E+02  0.00000000000E+00 0.  1.
         23    2    1    2    0    0 -0.19457029478E+02  0.69195387797E+01  0.16219597272E+03  0.18804314997E+03  0.92877535877E+02 0.  0.
         23    2    1    2    0    0  0.36845280644E+02  0.83138669396E+01  0.23547413521E+03  0.25519216595E+03  0.90820031496E+02 0.  0.
        -13    1    4    4    0    0  0.66387280743E+02  0.13615084436E+02  0.14990344757E+03  0.16451044089E+03  0.00000000000E+00 0.  1.
         13    1    4    4    0    0 -0.29542000099E+02 -0.53012174966E+01  0.85570687642E+02  0.90681725063E+02  0.00000000000E+00 0. -1.
        -13    1    3    3    0    0  0.22727855933E+02  0.12958289981E+02  0.13495032772E+03  0.13746295380E+03  0.00000000000E+00 0.  1.
         13    1    3    3    0    0 -0.42184885411E+02 -0.60387512016E+01  0.27245644994E+02  0.50580196167E+02  0.00000000000E+00 0. -1.
         21    1    1    2  502  501 -0.17388251166E+02 -0.15233405719E+02 -0.20637677002E+02  0.30989056786E+02  0.00000000000E+00 0.  1.
<scales pt_clust_5="13000.00000" pt_clust_6="13000.00000" pt_clust_7="13000.00000" pt_clust_8="13000.00000" pt_clust_9="23.11726"></scales>
<clustering>
<clus scale="   23.117">  2  9  1 -1</clus>
<clus scale="   90.820">  5  6 -1 -1</clus>
<clus scale="   92.878">  7  8 -1 -1</clus>
<clus scale="   95.451">  1  5  2 -1</clus>
<clus scale="   95.451">  1  5  2 -1</clus>
</clustering>
</event>
<event>
 9    1  0.1434065E-005  0.1008871E+03  0.7546771E-02  0.1281340E+00
          2   -1    0    0  502    0  0.00000000000E+00  0.00000000000E+00  0.25866722139E+03  0.25866722139E+03  0.00000000000E+00 0. -1.
         -2   -1    0    0    0  501 -0.00000000000E+00 -0.00000000000E+00 -0.12722262579E+03  0.12722262579E+03  0.00000000000E+00 0.  1.
         23    2    1    2    0    0  0.22503933205E+02  0.43107529529E+02 -0.59132794547E+02  0.11782354966E+03  0.89560121439E+02 0.  0.
         23    2    1    2    0    0 -0.26874244827E+01 -0.31387257963E+02  0.21328633773E+03  0.23572816085E+03  0.95311708311E+02 0.  0.
        -11    1    4    4    0    0  0.40872685831E+02 -0.21325270912E+02  0.15821350481E+03  0.16479337587E+03  0.00000000000E+00 0. -1.
         11    1    4    4    0    0 -0.43560110314E+02 -0.10061987051E+02  0.55072832925E+02  0.70934784981E+02  0.00000000000E+00 0.  1.
        -13    1    3    3    0    0  0.45129578201E+02  0.10029148051E+02  0.19176399248E+00  0.46230935667E+02  0.00000000000E+00 0. -1.
         13    1    3    3    0    0 -0.22625644996E+02  0.33078381478E+02 -0.59324558539E+02  0.71592613995E+02  0.00000000000E+00 0.  1.
         21    1    1    2  502  501 -0.19816508723E+02 -0.11720271566E+02 -0.22708947580E+02  0.32338136677E+02  0.00000000000E+00 0.  1.
<scales pt_clust_5="13000.00000" pt_clust_6="13000.00000" pt_clust_7="13000.00000" pt_clust_8="13000.00000" pt_clust_9="23.02301"></scales>
<clustering>
<clus scale="   23.023">  2  9  1 -1</clus>
<clus scale="   89.560">  7  8 -1 -1</clus>
<clus scale="   95.312">  5  6 -1 -1</clus>
<clus scale="   95.472">  2  7  1 -1</clus>
<clus scale="  100.887">  1  5  2 -1</clus>
</clustering>
</event>
<event>
 9    1  0.1434065E-005  0.1111747E+03  0.7546771E-02  0.1259604E+00
         -1   -1    0    0    0  501 -0.00000000000E+00  0.00000000000E+00  0.24156148812E+03  0.24156148812E+03  0.00000000000E+00 0.  1.
          1   -1    0    0  502    0  0.00000000000E+00 -0.00000000000E+00 -0.22324719632E+03  0.22324719632E+03  0.00000000000E+00 0. -1.
         23    2    1    2    0    0 -0.66963863702E+02 -0.17181581016E+02 -0.46807091172E+02  0.12451694123E+03  0.92380729059E+02 0.  0.
         23    2    1    2    0    0  0.49869205015E+02  0.31631668152E+02 -0.11597893061E+03  0.15781337202E+03  0.89254960666E+02 0.  0.
        -11    1    4    4    0    0  0.26133272523E+02  0.51811348862E+02 -0.11234603003E+03  0.12644759494E+03  0.00000000000E+00 0.  1.
         11    1    4    4    0    0  0.23735932492E+02 -0.20179680710E+02 -0.36329005789E+01  0.31365777073E+02  0.00000000000E+00 0. -1.
        -13    1    3    3    0    0 -0.62964572028E+01 -0.47161164307E+02 -0.16377214208E+02  0.50319319722E+02  0.00000000000E+00 0. -1.
         13    1    3    3    0    0 -0.60667406499E+02  0.29979583290E+02 -0.30429876965E+02  0.74197621509E+02  0.00000000000E+00 0.  1.
         21    1    1    2  502  501  0.17094658686E+02 -0.14450087136E+02  0.18110031358E+03  0.18247837119E+03  0.00000000000E+00 0. -1.
<scales pt_clust_5="13000.00000" pt_clust_6="13000.00000" pt_clust_7="13000.00000" pt_clust_8="13000.00000" pt_clust_9="22.38375"></scales>
<clustering>
<clus scale="   22.384">  1  9  2 -1</clus>
<clus scale="   89.255">  5  6 -1 -1</clus>
<clus scale="   92.381">  7  8 -1 -1</clus>
<clus scale="  108.591">  2  5  1 -1</clus>
<clus scale="  108.591">  2  5  1 -1</clus>
</clustering>
</event>
<event>
 9    1  0.1434065E-005  0.2659627E+03  0.7546771E-02  0.1103839E+00
         -1   -1    0    0    0  501 -0.00000000000E+00  0.00000000000E+00  0.28365588801E+03  0.28365588801E+03  0.00000000000E+00 0.  1.
          1   -1    0    0  502    0  0.00000000000E+00 -0.00000000000E+00 -0.35641062175E+03  0.35641062175E+03  0.00000000000E+00 0. -1.
         23    2    1    2    0    0 -0.10382108504E+03 -0.24020920813E+03  0.95216160365E+01  0.27696529063E+03  0.90221004603E+02 0.  0.
         23    2    1    2    0    0  0.11047990250E+03  0.21499981656E+03 -0.14345606268E+03  0.29659700463E+03  0.94654166633E+02 0.  0.
        -11    1    3    3    0    0 -0.26665779996E+02 -0.17115049436E+03  0.37117104244E+01  0.17325510768E+03  0.00000000000E+00 0.  1.
         11    1    3    3    0    0 -0.77155305044E+02 -0.69058713766E+02  0.58099056121E+01  0.10371018295E+03  0.00000000000E+00 0. -1.
        -13    1    4    4    0    0  0.12089591238E+03  0.15182543335E+03 -0.93726898559E+02  0.21552613613E+03  0.00000000000E+00 0.  1.
         13    1    4    4    0    0 -0.10416009877E+02  0.63174383210E+02 -0.49729164126E+02  0.81070868507E+02  0.00000000000E+00 0. -1.
         21    1    1    2  502  501 -0.66588174621E+01  0.25209391573E+02  0.61179712914E+02  0.66504214496E+02  0.00000000000E+00 0.  1.
<scales pt_clust_5="13000.00000" pt_clust_6="13000.00000" pt_clust_7="13000.00000" pt_clust_8="13000.00000" pt_clust_9="26.07400"></scales>
<clustering>
<clus scale="   26.074">  1  9  2 -1</clus>
<clus scale="   90.221">  5  6 -1 -1</clus>
<clus scale="   94.654">  7  8 -1 -1</clus>
<clus scale="  264.417">  1  5  2 -1</clus>
<clus scale="  265.963">  2  5  1 -1</clus>
</clustering>
</event>
<event>
 9    1  0.1434065E-005  0.1901071E+03  0.7546771E-02  0.1158809E+00
         -1   -1    0    0    0  501 -0.00000000000E+00  0.00000000000E+00  0.44277042627E+03  0.44277042627E+03  0.00000000000E+00 0.  1.
          1   -1    0    0  502    0  0.00000000000E+00 -0.00000000000E+00 -0.94923017361E+02  0.94923017361E+02  0.00000000000E+00 0. -1.
         23    2    1    2    0    0  0.27290042926E+02  0.17294036059E+03  0.17091401834E+03  0.26252387134E+03  0.95152859093E+02 0.  0.
         23    2    1    2    0    0 -0.31140398360E+01 -0.15612204175E+03  0.14547453165E+03  0.23207671003E+03  0.91175494587E+02 0.  0.
        -11    1    4    4    0    0  0.14765638463E+02 -0.11218812765E+03  0.14590560466E+03  0.18464193873E+03  0.00000000000E+00 0.  1.
         11    1    4    4    0    0 -0.17879678299E+02 -0.43933914098E+02 -0.43107301309E+00  0.47434771297E+02  0.00000000000E+00 0. -1.
        -13    1    3    3    0    0 -0.11918100047E+01  0.13783985263E+03  0.16787825017E+03  0.21721959457E+03  0.00000000000E+00 0. -1.
         13    1    3    3    0    0  0.28481852931E+02  0.35100507960E+02  0.30357681721E+01  0.45304276772E+02  0.00000000000E+00 0.  1.
         21    1    1    2  502  501 -0.24176003090E+02 -0.16818318839E+02  0.31458858914E+02  0.43092862264E+02  0.00000000000E+00 0.  1.
<scales pt_clust_5="13000.00000" pt_clust_6="13000.00000" pt_clust_7="13000.00000" pt_clust_8="13000.00000" pt_clust_9="29.45055"></scales>
<clustering>
<clus scale="   29.451">  1  9  2 -1</clus>
<clus scale="   91.175">  5  6 -1 -1</clus>
<clus scale="   95.153">  7  8 -1 -1</clus>
<clus scale="  188.148">  2  5  1 -1</clus>
<clus scale="  188.148">  2  5  1 -1</clus>
</clustering>
</event>
<event>
 9    1  0.1434065E-005  0.9484670E+02  0.7546771E-02  0.1291876E+00
          1   -1    0    0  502    0  0.00000000000E+00  0.00000000000E+00  0.41255153968E+03  0.41255153968E+03  0.00000000000E+00 0. -1.
         -1   -1    0    0    0  501 -0.00000000000E+00 -0.00000000000E+00 -0.56003201523E+02  0.56003201523E+02  0.00000000000E+00 0.  1.
         23    2    1    2    0    0  0.27067553618E+02  0.16963556331E+02  0.61951653374E+02  0.11493429861E+03  0.91386382680E+02 0.  0.
         23    2    1    2    0    0  0.25073210578E+02  0.34465756708E+02  0.24502037436E+03  0.26518151402E+03  0.92030958139E+02 0.  0.
        -11    1    3    3    0    0  0.66806258486E+01  0.51414687947E+02  0.16593702075E+02  0.54437595896E+02  0.00000000000E+00 0. -1.
         11    1    3    3    0    0  0.20386927770E+02 -0.34451131616E+02  0.45357951299E+02  0.60496702716E+02  0.00000000000E+00 0.  1.
        -11    1    4    4    0    0  0.42711883033E+02  0.57685867005E+02  0.16200145633E+03  0.17719039494E+03  0.00000000000E+00 0. -1.
         11    1    4    4    0    0 -0.17638672455E+02 -0.23220110297E+02  0.83018918021E+02  0.87991119083E+02  0.00000000000E+00 0.  1.
         21    1    1    2  502  501 -0.52140764196E+02 -0.51429313039E+02  0.49576310428E+02  0.88438928568E+02  0.00000000000E+00 0.  1.
<scales pt_clust_5="13000.00000" pt_clust_6="13000.00000" pt_clust_7="13000.00000" pt_clust_8="13000.00000" pt_clust_9="73.23683"></scales>
<clustering>
<clus scale="   73.237">  2  9  1 -1</clus>
<clus scale="   91.386">  5  6 -1 -1</clus>
<clus scale="   92.031">  7  8 -1 -1</clus>
<clus scale="   94.221">  2  5  1 -1</clus>
<clus scale="   94.847">  1  5  2 -1</clus>
</clustering>
</event>
<event>
 9    1  0.1434065E-005  0.1566400E+03  0.7546771E-02  0.1193777E+00
          1   -1    0    0  502    0  0.00000000000E+00  0.00000000000E+00  0.73255343890E+03  0.73255343890E+03  0.00000000000E+00 0. -1.
         -1   -1    0    0    0  501 -0.00000000000E+00 -0.00000000000E+00 -0.71989650594E+02  0.71989650594E+02  0.00000000000E+00 0.  1.
         23    2    1    2    0    0  0.31943864783E+02 -0.65903758662E+02  0.62032670547E+02  0.12765211461E+03  0.84162308937E+02 0.  0.
         23    2    1    2    0    0  0.18025987277E+02  0.15687751098E+03  0.50573439002E+03  0.53766295183E+03  0.91535167298E+02 0.  0.
        -11    1    3    3    0    0 -0.17954537924E+02 -0.50269949928E+02  0.10830143972E+02  0.54467653853E+02  0.00000000000E+00 0. -1.
         11    1    3    3    0    0  0.49898402708E+02 -0.15633808735E+02  0.51202526575E+02  0.73184460755E+02  0.00000000000E+00 0.  1.
        -13    1    4    4    0    0  0.12281664986E+02  0.88915696451E+02  0.14497353248E+03  0.17051148199E+03  0.00000000000E+00 0.  1.
         13    1    4    4    0    0  0.57443222911E+01  0.67961814527E+02  0.36076085754E+03  0.36715146984E+03  0.00000000000E+00 0. -1.
         21    1    1    2  502  501 -0.49969852060E+02 -0.90973752316E+02  0.92796727741E+02  0.13922802306E+03  0.00000000000E+00 0. -1.
<scales pt_clust_5="13000.00000" pt_clust_6="13000.00000" pt_clust_7="13000.00000" pt_clust_8="13000.00000" pt_clust_9="103.79407"></scales>
<clustering>
<clus scale="   84.162">  5  6 -1 -1</clus>
<clus scale="   91.535">  7  8 -1 -1</clus>
<clus scale="  103.794">  2  9  1 -1</clus>
<clus scale="  152.449">  2  5  1 -1</clus>
<clus scale="  156.640">  1  5  2 -1</clus>
</clustering>
</event>
<event>
 9    1  0.1434065E-005  0.2777919E+03  0.7546771E-02  0.1097036E+00
         -2   -1    0    0    0  501 -0.00000000000E+00  0.00000000000E+00  0.42554981736E+03  0.42554981736E+03  0.00000000000E+00 0.  1.
          2   -1    0    0  502    0  0.00000000000E+00 -0.00000000000E+00 -0.38330020069E+03  0.38330020069E+03  0.00000000000E+00 0. -1.
         23    2    1    2    0    0 -0.20037867302E+03 -0.17466171114E+03  0.30954328767E+03  0.41780697860E+03  0.89929408349E+02 0.  0.
         23    2    1    2    0    0  0.17682583159E+03  0.16304355271E+03 -0.23053877545E+03  0.34586959270E+03  0.92882040096E+02 0.  0.
        -11    1    4    4    0    0  0.17087018647E+02  0.17965900590E+02 -0.77375769156E+02  0.81251150409E+02  0.00000000000E+00 0.  1.
         11    1    4    4    0    0  0.15973881294E+03  0.14507765212E+03 -0.15316300629E+03  0.26461844229E+03  0.00000000000E+00 0. -1.
        -13    1    3    3    0    0 -0.76083910408E+02 -0.60426308619E+02  0.52925723551E+02  0.11064010308E+03  0.00000000000E+00 0. -1.
         13    1    3    3    0    0 -0.12429476261E+03 -0.11423540252E+03  0.25661756412E+03  0.30716687552E+03  0.00000000000E+00 0.  1.
         21    1    1    2  502  501  0.23552841433E+02  0.11618158429E+02 -0.36754895549E+02  0.45173446755E+02  0.00000000000E+00 0. -1.
<scales pt_clust_5="13000.00000" pt_clust_6="13000.00000" pt_clust_7="13000.00000" pt_clust_8="13000.00000" pt_clust_9="26.26248"></scales>
<clustering>
<clus scale="   26.262">  2  9  1 -1</clus>
<clus scale="   89.929">  7  8 -1 -1</clus>
<clus scale="   92.882">  5  6 -1 -1</clus>
<clus scale="  276.819">  1  7  2 -1</clus>
<clus scale="   26.262">  2  5  1 -1</clus>
</clustering>
</event>
<event>
 9    1  0.1434065E-005  0.1048293E+03  0.7546771E-02  0.1270620E+00
          1   -1    0    0  502    0  0.00000000000E+00  0.00000000000E+00  0.25818493218E+03  0.25818493218E+03  0.00000000000E+00 0. -1.
         -1   -1    0    0    0  501 -0.00000000000E+00 -0.00000000000E+00 -0.26975536219E+03  0.26975536219E+03  0.00000000000E+00 0.  1.
         23    2    1    2    0    0 -0.84480755887E+02 -0.57704868059E+00  0.64700420733E+02  0.14042825327E+03  0.91633065929E+02 0.  0.
         23    2    1    2    0    0  0.32560155389E+02  0.20003108013E+02  0.13573693337E+03  0.16837641858E+03  0.92009864717E+02 0.  0.
        -11    1    4    4    0    0 -0.26161129703E+02 -0.11226580454E+02  0.66664262797E+02  0.72488376656E+02  0.00000000000E+00 0.  1.
         11    1    4    4    0    0  0.58721285092E+02  0.31229688466E+02  0.69072670573E+02  0.95888041927E+02  0.00000000000E+00 0. -1.
        -13    1    3    3    0    0 -0.64142919423E+02 -0.38166655694E+02  0.62971337066E+02  0.97654477680E+02  0.00000000000E+00 0. -1.
         13    1    3    3    0    0 -0.20337836464E+02  0.37589607014E+02  0.17290836668E+01  0.42773775585E+02  0.00000000000E+00 0.  1.
         21    1    1    2  502  501  0.51920600499E+02 -0.19426059332E+02 -0.21200778411E+03  0.21913562252E+03  0.00000000000E+00 0.  1.
<scales pt_clust_5="13000.00000" pt_clust_6="13000.00000" pt_clust_7="13000.00000" pt_clust_8="13000.00000" pt_clust_9="55.43573"></scales>
<clustering>
<clus scale="   55.436">  2  9  1 -1</clus>
<clus scale="   91.633">  7  8 -1 -1</clus>
<clus scale="   92.010">  5  6 -1 -1</clus>
<clus scale="  104.499">  2  7  1 -1</clus>
<clus scale="  104.829">  1  5  2 -1</clus>
</clustering>
</event>
<event>
 9    1  0.1434065E-005  0.9522521E+02  0.7546771E-02  0.1290851E+00
          2   -1    0    0  502    0  0.00000000000E+00  0.00000000000E+00  0.15227495748E+03  0.15227495748E+03  0.00000000000E+00 0. -1.
         -2   -1    0    0    0  501 -0.00000000000E+00 -0.00000000000E+00 -0.75865560928E+02  0.75865560928E+02  0.00000000000E+00 0.  1.
         23    2    1    2    0    0  0.42920328989E+01  0.29662939456E+02  0.18254622402E+02  0.99529837368E+02  0.93137778392E+02 0.  0.
         23    2    1    2    0    0 -0.10558418985E+02 -0.10245268983E+02  0.51468670522E+02  0.10713936289E+03  0.92808260882E+02 0.  0.
        -11    1    3    3    0    0  0.14359306474E+02  0.57081458742E+02  0.32278171795E+02  0.67129449491E+02  0.00000000000E+00 0. -1.
         11    1    3    3    0    0 -0.10067273575E+02 -0.27418519286E+02 -0.14023549393E+02  0.32400387877E+02  0.00000000000E+00 0.  1.
        -11    1    4    4    0    0 -0.32015170285E+02  0.24331493701E+02 -0.16251577242E+01  0.40244674824E+02  0.00000000000E+00 0. -1.
         11    1    4    4    0    0  0.21456751300E+02 -0.34576762684E+02  0.53093828246E+02  0.66894688069E+02  0.00000000000E+00 0.  1.
         21    1    1    2  502  501  0.62663860865E+01 -0.19417670473E+02  0.66861036270E+01  0.21471318145E+02  0.00000000000E+00 0. -1.
<scales pt_clust_5="13000.00000" pt_clust_6="13000.00000" pt_clust_7="13000.00000" pt_clust_8="13000.00000" pt_clust_9="20.40376"></scales>
<clustering>
<clus scale="   20.404">  2  9  1 -1</clus>
<clus scale="   92.808">  7  8 -1 -1</clus>
<clus scale="   93.138">  5  6 -1 -1</clus>
<clus scale="   94.903">  1  7  2 -1</clus>
<clus scale="   94.903">  1  5  2 -1</clus>
</clustering>
</event>
<event>
 9    1  0.1434065E-005  0.9738028E+02  0.7546771E-02  0.1287984E+00
         -1   -1    0    0    0  501 -0.00000000000E+00  0.00000000000E+00  0.43398722875E+02  0.43398722875E+02  0.00000000000E+00 0.  1.
          1   -1    0    0  502    0  0.00000000000E+00 -0.00000000000E+00 -0.29214152134E+03  0.29214152134E+03  0.00000000000E+00 0. -1.
         23    2    1    2    0    0  0.77883918024E+01 -0.14289349948E+02 -0.94493023998E+02  0.13573319348E+03  0.96071450802E+02 0.  0.
         23    2    1    2    0    0 -0.21821462771E+02 -0.10122447974E+02 -0.13653398499E+03  0.16653976717E+03  0.92278517561E+02 0.  0.
        -11    1    3    3    0    0 -0.38399187086E+02  0.15459640405E+02 -0.30653365236E+02  0.51508512410E+02  0.00000000000E+00 0. -1.
         11    1    3    3    0    0  0.46187578889E+02 -0.29748990354E+02 -0.63839658761E+02  0.84224681071E+02  0.00000000000E+00 0.  1.
        -13    1    4    4    0    0 -0.19758662979E+02  0.39615317320E+02 -0.50631859973E+02  0.67255954186E+02  0.00000000000E+00 0. -1.
         13    1    4    4    0    0 -0.20627997917E+01 -0.49737765294E+02 -0.85902125014E+02  0.99283812987E+02  0.00000000000E+00 0.  1.
         21    1    1    2  502  501  0.14033070968E+02  0.24411797922E+02 -0.17715789481E+02  0.33267283561E+02  0.00000000000E+00 0. -1.
<scales pt_clust_5="13000.00000" pt_clust_6="13000.00000" pt_clust_7="13000.00000" pt_clust_8="13000.00000" pt_clust_9="28.15782"></scales>
<clustering>
<clus scale="   28.158">  1  9  2 -1</clus>
<clus scale="   92.279">  7  8 -1 -1</clus>
<clus scale="   93.640">  2  7  1 -1</clus>
<clus scale="   96.071">  5  6 -1 -1</clus>
<clus scale="   93.640">  2  5  1 -1</clus>
</clustering>
</event>
<event>
 9    1  0.1434065E-005  0.9855678E+02  0.7546771E-02  0.1286544E+00
          2   -1    0    0  502    0  0.00000000000E+00  0.00000000000E+00  0.26381079920E+03  0.26381079920E+03  0.00000000000E+00 0. -1.
         -2   -1    0    0    0  501 -0.00000000000E+00 -0.00000000000E+00 -0.49611650740E+02  0.49611650740E+02  0.00000000000E+00 0.  1.
         23    2    1    2    0    0  0.41170367760E+02  0.15706447750E+02  0.10849143758E+03  0.14965625848E+03  0.93192875216E+02 0.  0.
         23    2    1    2    0    0 -0.15013772650E+02 -0.19077592443E+02  0.10331083573E+03  0.13728455452E+03  0.87089334752E+02 0.  0.
        -11    1    3    3    0    0  0.90054827090E+01 -0.38771313211E+02  0.40562935084E+02  0.56830142966E+02  0.00000000000E+00 0.  1.
         11    1    3    3    0    0  0.32164885051E+02  0.54477760961E+02  0.67928502499E+02  0.92826115514E+02  0.00000000000E+00 0. -1.
        -13    1    4    4    0    0 -0.34336721676E+02 -0.29646808505E+02  0.17386275250E+02  0.48582160070E+02  0.00000000000E+00 0.  1.
         13    1    4    4    0    0  0.19322949026E+02  0.10569216062E+02  0.85924560481E+02  0.88702394450E+02  0.00000000000E+00 0. -1.
         21    1    1    2  502  501 -0.26156595111E+02  0.33711446928E+01  0.23968751418E+01  0.26481636935E+02  0.00000000000E+00 0. -1.
<scales pt_clust_5="13000.00000" pt_clust_6="13000.00000" pt_clust_7="13000.00000" pt_clust_8="13000.00000" pt_clust_9="26.37294"></scales>
<clustering>
<clus scale="   26.373">  2  9  1 -1</clus>
<clus scale="   87.089">  7  8 -1 -1</clus>
<clus scale="   92.807">  1  7  2 -1</clus>
<clus scale="   93.193">  5  6 -1 -1</clus>
<clus scale="   92.807">  1  5  2 -1</clus>
</clustering>
</event>
<event>
 9    1  0.1434065E-005  0.9793393E+02  0.7546771E-02  0.1288191E+00
          1   -1    0    0  502    0  0.00000000000E+00  0.00000000000E+00  0.46822745807E+03  0.46822745807E+03  0.00000000000E+00 0. -1.
         -1   -1    0    0    0  501 -0.00000000000E+00 -0.00000000000E+00 -0.85726346312E+02  0.85726346312E+02  0.00000000000E+00 0.  1.
         23    2    1    2    0    0 -0.19241698341E+02 -0.24344883170E+02 -0.47580298575E+02  0.10290711771E+03  0.85808354909E+02 0.  0.
         23    2    1    2    0    0  0.44417940215E+02  0.29374111905E+02  0.38103958957E+03  0.39569114060E+03  0.92436562397E+02 0.  0.
        -11    1    3    3    0    0 -0.24799766906E+02 -0.54873006951E+02 -0.31397199215E+02  0.67910672571E+02  0.00000000000E+00 0.  1.
         11    1    3    3    0    0  0.55580685656E+01  0.30528123781E+02 -0.16183099360E+02  0.34996445143E+02  0.00000000000E+00 0. -1.
        -11    1    4    4    0    0  0.72264173372E+02  0.11726442400E+02  0.24430242751E+03  0.25503587256E+03  0.00000000000E+00 0.  1.
         11    1    4    4    0    0 -0.27846233157E+02  0.17647669505E+02  0.13673716206E+03  0.14065526804E+03  0.00000000000E+00 0. -1.
         21    1    1    2  502  501 -0.25176241874E+02 -0.50292287350E+01  0.49041820768E+02  0.55355546071E+02  0.00000000000E+00 0. -1.
<scales pt_clust_5="13000.00000" pt_clust_6="13000.00000" pt_clust_7="13000.00000" pt_clust_8="13000.00000" pt_clust_9="25.67365"></scales>
<clustering>
<clus scale="   25.674">  1  9  2 -1</clus>
<clus scale="   85.808">  5  6 -1 -1</clus>
<clus scale="   91.704">  2  5  1 -1</clus>
<clus scale="   92.437">  7  8 -1 -1</clus>
<clus scale="   25.674">  1  5  2 -1</clus>
</clustering>
</event>
<event>
 9    1  0.1434065E-005  0.9801774E+02  0.7546771E-02  0.1286893E+00
          2   -1    0    0  502    0  0.00000000000E+00  0.00000000000E+00  0.40632299190E+03  0.40632299190E+03  0.00000000000E+00 0. -1.
         -2   -1    0    0    0  501 -0.00000000000E+00 -0.00000000000E+00 -0.35842152007E+02  0.35842152007E+02  0.00000000000E+00 0.  1.
         23    2    1    2    0    0  0.23158933650E+02  0.33462729028E+02  0.97296200830E+02  0.13999125326E+03  0.92059273581E+02 0.  0.
         23    2    1    2    0    0  0.24461767569E+00 -0.32914067275E+02  0.25764784323E+03  0.27407728464E+03  0.87478861276E+02 0.  0.
        -11    1    4    4    0    0  0.40367035503E+02 -0.20248570587E+02  0.18196762975E+03  0.18748792079E+03  0.00000000000E+00 0.  1.
         11    1    4    4    0    0 -0.40122417827E+02 -0.12665496688E+02  0.75680213488E+02  0.86589363852E+02  0.00000000000E+00 0. -1.
        -13    1    3    3    0    0  0.51105172170E+01  0.64524666302E+02  0.62917905733E+02  0.90267451551E+02  0.00000000000E+00 0.  1.
         13    1    3    3    0    0  0.18048416433E+02 -0.31061937274E+02  0.34378295097E+02  0.49723801712E+02  0.00000000000E+00 0. -1.
         21    1    1    2  502  501 -0.23403551326E+02 -0.54866175343E+00  0.15536795831E+02  0.28096606006E+02  0.00000000000E+00 0.  1.
<scales pt_clust_5="13000.00000" pt_clust_6="13000.00000" pt_clust_7="13000.00000" pt_clust_8="13000.00000" pt_clust_9="23.40998"></scales>
<clustering>
<clus scale="   23.410">  2  9  1 -1</clus>
<clus scale="   87.479">  5  6 -1 -1</clus>
<clus scale="   92.059">  7  8 -1 -1</clus>
<clus scale="   93.729">  1  5  2 -1</clus>
<clus scale="   93.729">  1  5  2 -1</clus>
</clustering>
</event>
<event>
 9    1  0.1434065E-005  0.1194438E+03  0.7546771E-02  0.1248207E+00
          2   -1    0    0  502    0  0.00000000000E+00  0.00000000000E+00  0.36981421581E+03  0.36981421581E+03  0.00000000000E+00 0. -1.
         -2   -1    0    0    0  501 -0.00000000000E+00 -0.00000000000E+00 -0.49693804305E+02  0.49693804305E+02  0.00000000000E+00 0.  1.
         23    2    1    2    0    0  0.71851217816E+02 -0.14732718778E+02  0.74810266694E+02  0.14005831234E+03  0.92952161614E+02 0.  0.
         23    2    1    2    0    0 -0.71940249325E+02  0.35227171411E+02  0.20599105336E+03  0.23510986713E+03  0.80174699762E+02 0.  0.
        -11    1    3    3    0    0  0.75364138604E+02  0.23946542198E+02  0.44081923749E+02  0.90534006164E+02  0.00000000000E+00 0.  1.
         11    1    3    3    0    0 -0.35129207881E+01 -0.38679260976E+02  0.30728342945E+02  0.49524306176E+02  0.00000000000E+00 0. -1.
        -13    1    4    4    0    0  0.62088248570E+01  0.34614220249E+02  0.65689449266E+02  0.74510385144E+02  0.00000000000E+00 0.  1.
         13    1    4    4    0    0 -0.78149074182E+02  0.61295116209E+00  0.14030160409E+03  0.16059948199E+03  0.00000000000E+00 0. -1.
         21    1    1    2  502  501  0.89031509156E-01 -0.20494452632E+02  0.39319091456E+02  0.44339840643E+02  0.00000000000E+00 0. -1.
<scales pt_clust_5="13000.00000" pt_clust_6="13000.00000" pt_clust_7="13000.00000" pt_clust_8="13000.00000" pt_clust_9="20.49465"></scales>
<clustering>
<clus scale="   20.495">  1  9  2 -1</clus>
<clus scale="   80.175">  7  8 -1 -1</clus>
<clus scale="   92.952">  5  6 -1 -1</clus>
<clus scale="  109.794">  1  7  2 -1</clus>
<clus scale="   20.495">  1  5  2 -1</clus>
</clustering>
</event>
<event>
 9    1  0.1434065E-005  0.1064899E+03  0.7546771E-02  0.1267396E+00
         -1   -1    0    0    0  501 -0.00000000000E+00  0.00000000000E+00  0.41827515931E+03  0.41827515931E+03  0.00000000000E+00 0.  1.
          1   -1    0    0  502    0  0.00000000000E+00 -0.00000000000E+00 -0.57813738122E+02  0.57813738122E+02  0.00000000000E+00 0. -1.
         23    2    1    2    0    0  0.22704953208E+02 -0.31112516260E+02  0.13162610249E+03  0.16362317216E+03  0.89239049983E+02 0.  0.
         23    2    1    2    0    0 -0.55328576321E+02  0.41621095486E+02  0.38379009139E+02  0.11894999756E+03  0.88783932273E+02 0.  0.
        -11    1    3    3    0    0 -0.12686457770E+02  0.22042143267E+02  0.71594664548E+02  0.75977616983E+02  0.00000000000E+00 0. -1.
         11    1    3    3    0    0  0.35391410979E+02 -0.53154659527E+02  0.60031437940E+02  0.87645555173E+02  0.00000000000E+00 0.  1.
        -11    1    4    4    0    0 -0.67363312876E+02  0.60181290813E+02  0.33138120979E+02  0.96217143730E+02  0.00000000000E+00 0. -1.
         11    1    4    4    0    0  0.12034736555E+02 -0.18560195327E+02  0.52408881598E+01  0.22732853830E+02  0.00000000000E+00 0.  1.
         21    1    1    2  502  501  0.32623623112E+02 -0.10508579226E+02  0.19045630956E+03  0.19351572772E+03  0.00000000000E+00 0. -1.
<scales pt_clust_5="13000.00000" pt_clust_6="13000.00000" pt_clust_7="13000.00000" pt_clust_8="13000.00000" pt_clust_9="34.27435"></scales>
<clustering>
<clus scale="   34.274">  1  9  2 -1</clus>
<clus scale="   88.784">  7  8 -1 -1</clus>
<clus scale="   89.239">  5  6 -1 -1</clus>
<clus scale="  106.109">  2  7  1 -1</clus>
<clus scale="  106.109">  2  5  1 -1</clus>
</clustering>
</event>
<event>
 9    1  0.1434065E-005  0.1083232E+03  0.7546771E-02  0.1265316E+00
         -1   -1    0    0    0  501 -0.00000000000E+00  0.00000000000E+00  0.10150418155E+03  0.10150418155E+03  0.00000000000E+00 0.  1.
          1   -1    0    0  502    0  0.00000000000E+00 -0.00000000000E+00 -0.14096127337E+03  0.14096127337E+03  0.00000000000E+00 0. -1.
         23    2    1    2    0    0 -0.54012943961E+02  0.32838340597E+02 -0.13121800666E+02  0.11169443433E+03  0.91146641625E+02 0.  0.
         23    2    1    2    0    0  0.39376001841E+02 -0.18528048449E+02 -0.32460339766E+02  0.10940420622E+03  0.94983412132E+02 0.  0.
        -11    1    3    3    0    0 -0.27384064275E+02  0.39664242140E+01 -0.50430257038E+02  0.57522433208E+02  0.00000000000E+00 0. -1.
         11    1    3    3    0    0 -0.26628879686E+02  0.28871916383E+02  0.37308456372E+02  0.54172001124E+02  0.00000000000E+00 0.  1.
        -13    1    4    4    0    0 -0.19058558957E+02 -0.35183024989E+02 -0.27267554935E+02  0.48421002354E+02  0.00000000000E+00 0.  1.
         13    1    4    4    0    0  0.58434560798E+02  0.16654976540E+02 -0.51927848312E+01  0.60983203864E+02  0.00000000000E+00 0. -1.
         21    1    1    2  502  501  0.14636942120E+02 -0.14310292149E+02  0.61250486071E+01  0.21366814373E+02  0.00000000000E+00 0. -1.
<scales pt_clust_5="13000.00000" pt_clust_6="13000.00000" pt_clust_7="13000.00000" pt_clust_8="13000.00000" pt_clust_9="20.47009"></scales>
<clustering>
<clus scale="   20.470">  1  9  2 -1</clus>
<clus scale="   91.147">  5  6 -1 -1</clus>
<clus scale="   94.983">  7  8 -1 -1</clus>
<clus scale="  104.975">  1  5  2 -1</clus>
<clus scale="  108.323">  2  5  1 -1</clus>
</clustering>
</event>
<event>
 9    1  0.1434065E-005  0.2209855E+03  0.7546771E-02  0.1133154E+00
          1   -1    0    0  502    0  0.00000000000E+00  0.00000000000E+00  0.96166850422E+03  0.96166850422E+03  0.00000000000E+00 0. -1.
         -1   -1    0    0    0  501 -0.00000000000E+00 -0.00000000000E+00 -0.19250520971E+03  0.19250520971E+03  0.00000000000E+00 0.  1.
         23    2    1    2    0    0  0.21768027443E+03  0.14439220682E+03  0.84939081748E+02  0.28900139710E+03  0.89851814962E+02 0.  0.
         23    2    1    2    0    0 -0.16635244583E+03 -0.98330867351E+02  0.74399605794E+03  0.77390969328E+03  0.89799684929E+02 0.  0.
        -11    1    4    4    0    0 -0.22859115511E+02  0.14238201513E+02  0.55821453016E+02  0.61978223281E+02  0.00000000000E+00 0.  1.
         11    1    4    4    0    0 -0.14349333032E+03 -0.11256906886E+03  0.68817460493E+03  0.71193147000E+03  0.00000000000E+00 0. -1.
        -13    1    3    3    0    0  0.46534023438E+02  0.64330669453E+02  0.57593632664E+02  0.98086068802E+02  0.00000000000E+00 0. -1.
         13    1    3    3    0    0  0.17114625099E+03  0.80061537367E+02  0.27345449085E+02  0.19091532830E+03  0.00000000000E+00 0.  1.
         21    1    1    2  502  501 -0.51327828596E+02 -0.46061339468E+02 -0.59771845175E+02  0.91262623552E+02  0.00000000000E+00 0.  1.
<scales pt_clust_5="13000.00000" pt_clust_6="13000.00000" pt_clust_7="13000.00000" pt_clust_8="13000.00000" pt_clust_9="68.96516"></scales>
<clustering>
<clus scale="   68.965">  2  9  1 -1</clus>
<clus scale="   89.800">  5  6 -1 -1</clus>
<clus scale="   89.852">  7  8 -1 -1</clus>
<clus scale="  220.964">  1  5  2 -1</clus>
<clus scale="  220.964">  1  5  2 -1</clus>
</clustering>
</event>
<event>
 9    1  0.1434065E-005  0.4258613E+03  0.7546771E-02  0.1035294E+00
         -1   -1    0    0    0  501 -0.00000000000E+00  0.00000000000E+00  0.15912745042E+03  0.15912745042E+03  0.00000000000E+00 0.  1.
          1   -1    0    0  502    0  0.00000000000E+00 -0.00000000000E+00 -0.13574757695E+04  0.13574757695E+04  0.00000000000E+00 0. -1.
         23    2    1    2    0    0 -0.33671742676E+03  0.24934212087E+03 -0.51981198331E+03  0.67378646064E+03  0.90739064492E+02 0.  0.
         23    2    1    2    0    0  0.31707053093E+03 -0.26218416410E+03 -0.69544788848E+03  0.81388720332E+03  0.97418461601E+02 0.  0.
        -11    1    4    4    0    0  0.20861450893E+03 -0.15992963052E+03 -0.52725765949E+03  0.58915035394E+03  0.00000000000E+00 0. -1.
         11    1    4    4    0    0  0.10845602200E+03 -0.10225453358E+03 -0.16819022899E+03  0.22473684939E+03  0.00000000000E+00 0.  1.
        -13    1    3    3    0    0 -0.25099209135E+03  0.17142832059E+03 -0.43297563142E+03  0.52901096059E+03  0.00000000000E+00 0.  1.
         13    1    3    3    0    0 -0.85725335405E+02  0.77913800283E+02 -0.86836351893E+02  0.14477550005E+03  0.00000000000E+00 0. -1.
         21    1    1    2  502  501  0.19646895829E+02  0.12842043231E+02  0.16911552738E+02  0.28929555926E+02  0.00000000000E+00 0.  1.
<scales pt_clust_5="13000.00000" pt_clust_6="13000.00000" pt_clust_7="13000.00000" pt_clust_8="13000.00000" pt_clust_9="23.47166"></scales>
<clustering>
<clus scale="   23.472">  1  9  2 -1</clus>
<clus scale="   90.739">  7  8 -1 -1</clus>
<clus scale="   97.418">  5  6 -1 -1</clus>
<clus scale="  424.383">  1  7  2 -1</clus>
<clus scale="  425.861">  2  5  1 -1</clus>
</clustering>
</event>
<event>
 9    1  0.1434065E-005  0.1394649E+03  0.7546771E-02  0.1214150E+00
          2   -1    0    0  502    0  0.00000000000E+00  0.00000000000E+00  0.37372693923E+03  0.37372693923E+03  0.00000000000E+00 0. -1.
         -2   -1    0    0    0  501 -0.00000000000E+00 -0.00000000000E+00 -0.73126115751E+02  0.73126115751E+02  0.00000000000E+00 0.  1.
         23    2    1    2    0    0 -0.72761492873E+01 -0.92683227279E+02  0.49113661472E+02  0.14012497314E+03  0.92626850251E+02 0.  0.
         23    2    1    2    0    0  0.26396829384E+02  0.10628426540E+03  0.24250508787E+03  0.28160306839E+03  0.92186944894E+02 0.  0.
        -11    1    3    3    0    0 -0.44310151766E+02 -0.50110319823E+02  0.50288413627E+02  0.83686069614E+02  0.00000000000E+00 0. -1.
         11    1    3    3    0    0  0.37034002478E+02 -0.42572907456E+02 -0.11747521549E+01  0.56438903528E+02  0.00000000000E+00 0.  1.
        -11    1    4    4    0    0  0.19972936972E+02  0.21195054788E+02  0.16095930269E+03  0.16357275348E+03  0.00000000000E+00 0.  1.
         11    1    4    4    0    0  0.64238924119E+01  0.85089210614E+02  0.81545785183E+02  0.11803031491E+03  0.00000000000E+00 0. -1.
         21    1    1    2  502  501 -0.19120680096E+02 -0.13601038123E+02  0.89820741439E+01  0.25125013458E+02  0.00000000000E+00 0. -1.
<scales pt_clust_5="13000.00000" pt_clust_6="13000.00000" pt_clust_7="13000.00000" pt_clust_8="13000.00000" pt_clust_9="23.46463"></scales>
<clustering>
<clus scale="   23.465">  2  9  1 -1</clus>
<clus scale="   92.187">  7  8 -1 -1</clus>
<clus scale="   92.627">  5  6 -1 -1</clus>
<clus scale="  139.173">  1  7  2 -1</clus>
<clus scale="  139.173">  1  5  2 -1</clus>
</clustering>
</event>
<event>
 9    1  0.1434065E-005  0.1027179E+03  0.7546771E-02  0.1278234E+00
         -1   -1    0    0    0  501 -0.00000000000E+00  0.00000000000E+00  0.11237052816E+03  0.11237052816E+03  0.00000000000E+00 0.  1.
          1   -1    0    0  502    0  0.00000000000E+00 -0.00000000000E+00 -0.16792621800E+03  0.16792621800E+03  0.00000000000E+00 0. -1.
         23    2    1    2    0    0  0.24674996018E+02  0.68262744740E+01  0.34416892023E+02  0.10137945080E+03  0.91857591614E+02 0.  0.
         23    2    1    2    0    0  0.68658790437E+00 -0.34121250359E+02 -0.95012433991E+02  0.14131908055E+03  0.98888769762E+02 0.  0.
        -13    1    3    3    0    0  0.21006010438E+01 -0.35524050977E+02 -0.89527496352E+01  0.36694992146E+02  0.00000000000E+00 0.  1.
         13    1    3    3    0    0  0.22574394974E+02  0.42350325451E+02  0.43369641658E+02  0.64684458657E+02  0.00000000000E+00 0. -1.
        -13    1    4    4    0    0 -0.16209156130E+02  0.13229939416E+02  0.11255729544E+02  0.23758356151E+02  0.00000000000E+00 0.  1.
         13    1    4    4    0    0  0.16895744035E+02 -0.47351189775E+02 -0.10626816354E+03  0.11756072440E+03  0.00000000000E+00 0. -1.
         21    1    1    2  502  501 -0.25361583922E+02  0.27294975885E+02  0.50398521250E+01  0.37598214812E+02  0.00000000000E+00 0.  1.
<scales pt_clust_5="13000.00000" pt_clust_6="13000.00000" pt_clust_7="13000.00000" pt_clust_8="13000.00000" pt_clust_9="37.25890"></scales>
<clustering>
<clus scale="   37.259">  1  9  2 -1</clus>
<clus scale="   91.858">  5  6 -1 -1</clus>
<clus scale="   95.968">  1  5  2 -1</clus>
<clus scale="   98.889">  7  8 -1 -1</clus>
<clus scale="  102.718">  2  5  1 -1</clus>
</clustering>
</event>
<event>
 9    1  0.1434065E-005  0.9282787E+02  0.7546771E-02  0.1296198E+00
         -2   -1    0    0    0  501 -0.00000000000E+00  0.00000000000E+00  0.55593758625E+02  0.55593758625E+02  0.00000000000E+00 0.  1.
          2   -1    0    0  502    0  0.00000000000E+00 -0.00000000000E+00 -0.26159793915E+03  0.26159793915E+03  0.00000000000E+00 0. -1.
         23    2    1    2    0    0 -0.23358923966E+02  0.24336499463E+02 -0.67413328697E+02  0.11864591085E+03  0.91620907774E+02 0.  0.
         23    2    1    2    0    0 -0.12592210871E+02 -0.83780299824E+01 -0.12729709025E+03  0.15762261629E+03  0.91714692487E+02 0.  0.
        -11    1    3    3    0    0 -0.44517755790E+02  0.39150732727E+02 -0.16471242231E+02  0.61529767384E+02  0.00000000000E+00 0. -1.
         11    1    3    3    0    0  0.21158831824E+02 -0.14814233265E+02 -0.50942086466E+02  0.57116143470E+02  0.00000000000E+00 0.  1.
        -13    1    4    4    0    0  0.39646490933E+02 -0.80615177235E+01 -0.61401061770E+02  0.73531780189E+02  0.00000000000E+00 0.  1.
         13    1    4    4    0    0 -0.52238701804E+02 -0.31651225892E+00 -0.65896028482E+02  0.84090836099E+02  0.00000000000E+00 0. -1.
         21    1    1    2  502  501  0.35951134836E+02 -0.15958469480E+02 -0.11293761575E+02  0.40923170633E+02  0.00000000000E+00 0.  1.
<scales pt_clust_5="13000.00000" pt_clust_6="13000.00000" pt_clust_7="13000.00000" pt_clust_8="13000.00000" pt_clust_9="39.33391"></scales>
<clustering>
<clus scale="   39.334">  1  9  2 -1</clus>
<clus scale="   91.621">  5  6 -1 -1</clus>
<clus scale="   91.715">  7  8 -1 -1</clus>
<clus scale="   92.735">  1  5  2 -1</clus>
<clus scale="   92.828">  2  5  1 -1</clus>
</clustering>
</event>
<event>
 9    1  0.1434065E-005  0.9667245E+02  0.7546771E-02  0.1288404E+00
          1   -1    0    0  502    0  0.00000000000E+00  0.00000000000E+00  0.14468152498E+02  0.14468152498E+02  0.00000000000E+00 0. -1.
         -1   -1    0    0    0  501 -0.00000000000E+00 -0.00000000000E+00 -0.10387402529E+04  0.10387402529E+04  0.00000000000E+00 0.  1.
         23    2    1    2    0    0 -0.52080806673E+02 -0.86498173700E+01 -0.53569814472E+03  0.54590080363E+03  0.90818254736E+02 0.  0.
         23    2    1    2    0    0  0.14414022402E+02  0.32452400151E+00 -0.28210883272E+03  0.29726964293E+03  0.92606575117E+02 0.  0.
        -11    1    4    4    0    0  0.50489083373E+02  0.17932465214E+02 -0.16096707245E+03  0.16964999045E+03  0.00000000000E+00 0.  1.
         11    1    4    4    0    0 -0.36075060971E+02 -0.17607941213E+02 -0.12114176027E+03  0.12761965248E+03  0.00000000000E+00 0. -1.
        -13    1    3    3    0    0  0.13166413763E+02 -0.32647345810E+02 -0.20091931064E+03  0.20397983485E+03  0.00000000000E+00 0.  1.
         13    1    3    3    0    0 -0.65247220436E+02  0.23997528440E+02 -0.33477883408E+03  0.34192096878E+03  0.00000000000E+00 0. -1.
         21    1    1    2  502  501  0.37666784270E+02  0.83252933685E+01 -0.20646512300E+03  0.21003795886E+03  0.00000000000E+00 0.  1.
<scales pt_clust_5="13000.00000" pt_clust_6="13000.00000" pt_clust_7="13000.00000" pt_clust_8="13000.00000" pt_clust_9="38.57586"></scales>
<clustering>
<clus scale="   38.576">  2  9  1 -1</clus>
<clus scale="   90.818">  7  8 -1 -1</clus>
<clus scale="   92.607">  5  6 -1 -1</clus>
<clus scale="   94.961">  2  7  1 -1</clus>
<clus scale="   96.672">  1  5  2 -1</clus>
</clustering>
</event>
<event>
 9    1  0.1434065E-005  0.9836502E+02  0.7546771E-02  0.1284558E+00
         -2   -1    0    0    0  501 -0.00000000000E+00  0.00000000000E+00  0.56338516244E+03  0.56338516244E+03  0.00000000000E+00 0.  1.
          2   -1    0    0  502    0  0.00000000000E+00 -0.00000000000E+00 -0.28747108633E+02  0.28747108633E+02  0.00000000000E+00 0. -1.
         23    2    1    2    0    0  0.19884088629E+02 -0.10167045491E+01  0.23807805593E+03  0.25497799698E+03  0.89085394758E+02 0.  0.
         23    2    1    2    0    0 -0.42145851368E+02  0.27101051275E+02  0.12567698412E+03  0.16286433287E+03  0.90660613352E+02 0.  0.
        -11    1    4    4    0    0  0.17784336120E+02  0.38477092605E+02  0.46625351063E+02  0.63013432126E+02  0.00000000000E+00 0. -1.
         11    1    4    4    0    0 -0.59930187488E+02 -0.11376041330E+02  0.79051633062E+02  0.99850900739E+02  0.00000000000E+00 0.  1.
        -13    1    3    3    0    0 -0.29650364901E+02 -0.51171226610E+01  0.15715536439E+03  0.16000980483E+03  0.00000000000E+00 0.  1.
         13    1    3    3    0    0  0.49534453529E+02  0.41004181120E+01  0.80922691541E+02  0.94968192156E+02  0.00000000000E+00 0. -1.
         21    1    1    2  502  501  0.22261762739E+02 -0.26084346726E+02  0.17088301375E+03  0.17428994123E+03  0.00000000000E+00 0.  1.
<scales pt_clust_5="13000.00000" pt_clust_6="13000.00000" pt_clust_7="13000.00000" pt_clust_8="13000.00000" pt_clust_9="34.29255"></scales>
<clustering>
<clus scale="   34.293">  1  9  2 -1</clus>
<clus scale="   89.085">  7  8 -1 -1</clus>
<clus scale="   90.661">  5  6 -1 -1</clus>
<clus scale="   96.915">  1  7  2 -1</clus>
<clus scale="   98.365">  2  5  1 -1</clus>
</clustering>
</event>
<event>
 9    1  0.1434065E-005  0.1179765E+03  0.7546771E-02  0.1250100E+00
          1   -1    0    0  502    0  0.00000000000E+00  0.00000000000E+00  0.34963824348E+03  0.34963824348E+03  0.00000000000E+00 0. -1.
         -1   -1    0    0    0  501 -0.00000000000E+00 -0.00000000000E+00 -0.90904202460E+02  0.90904202460E+02  0.00000000000E+00 0.  1.
         23    2    1    2    0    0  0.74301227579E+02  0.69772538603E+02  0.20669371010E+02  0.13214810606E+03  0.81529255336E+02 0.  0.
         23    2    1    2    0    0 -0.49882661088E+02 -0.44733096402E+02  0.24718615809E+03  0.27224960859E+03  0.92355415845E+02 0.  0.
        -11    1    4    4    0    0 -0.22427820507E+02  0.25643822947E+02  0.45211539766E+02  0.56610035471E+02  0.00000000000E+00 0.  1.
         11    1    4    4    0    0 -0.27454840581E+02 -0.70376919349E+02  0.20197461832E+03  0.21563957312E+03  0.00000000000E+00 0. -1.
        -13    1    3    3    0    0  0.38018782218E+02  0.75259373301E+02 -0.92209522245E+01  0.84819968351E+02  0.00000000000E+00 0.  1.
         13    1    3    3    0    0  0.36282445361E+02 -0.54868346985E+01  0.29890323235E+02  0.47328137714E+02  0.00000000000E+00 0. -1.
         21    1    1    2  502  501 -0.24418566491E+02 -0.25039442201E+02 -0.91214880752E+01  0.36144731288E+02  0.00000000000E+00 0.  1.
<scales pt_clust_5="13000.00000" pt_clust_6="13000.00000" pt_clust_7="13000.00000" pt_clust_8="13000.00000" pt_clust_9="34.97485"></scales>
<clustering>
<clus scale="   34.975">  2  9  1 -1</clus>
<clus scale="   81.529">  7  8 -1 -1</clus>
<clus scale="   92.355">  5  6 -1 -1</clus>
<clus scale="  109.708">  2  7  1 -1</clus>
<clus scale="  117.976">  1  5  2 -1</clus>
</clustering>
</event>
<event>
 9    1  0.1434065E-005  0.9277658E+02  0.7546771E-02  0.1298336E+00
          4   -1    0    0  502    0  0.00000000000E+00  0.00000000000E+00  0.27607998493E+03  0.27607998493E+03  0.00000000000E+00 0. -1.
         -4   -1    0    0    0  501 -0.00000000000E+00 -0.00000000000E+00 -0.21990496267E+03  0.21990496267E+03  0.00000000000E+00 0.  1.
         23    2    1    2    0    0 -0.27415225969E+02  0.38272137598E+02 -0.12514935507E+03  0.15983106400E+03  0.87562873489E+02 0.  0.
         23    2    1    2    0    0  0.16849886070E+02  0.26737970320E+01  0.24373310834E+03  0.26076790561E+03  0.91120824417E+02 0.  0.
        -11    1    4    4    0    0  0.42380361061E+02 -0.16296141093E+02  0.20813526886E+03  0.21303039539E+03  0.00000000000E+00 0. -1.
         11    1    4    4    0    0 -0.25530474991E+02  0.18969938125E+02  0.35597839482E+02  0.47737510215E+02  0.00000000000E+00 0.  1.
        -11    1    3    3    0    0  0.18608175166E+02  0.32160610751E+02 -0.10074910320E+03  0.10738226512E+03  0.00000000000E+00 0. -1.
         11    1    3    3    0    0 -0.46023401136E+02  0.61115268471E+01 -0.24400251869E+02  0.52448798878E+02  0.00000000000E+00 0.  1.
         21    1    1    2  502  501  0.10565339899E+02 -0.40945934630E+02 -0.62408731019E+02  0.75385977988E+02  0.00000000000E+00 0. -1.
<scales pt_clust_5="13000.00000" pt_clust_6="13000.00000" pt_clust_7="13000.00000" pt_clust_8="13000.00000" pt_clust_9="42.28707"></scales>
<clustering>
<clus scale="   42.287">  2  9  1 -1</clus>
<clus scale="   87.563">  7  8 -1 -1</clus>
<clus scale="   89.285">  2  7  1 -1</clus>
<clus scale="   91.121">  5  6 -1 -1</clus>
<clus scale="   92.777">  1  5  2 -1</clus>
</clustering>
</event>
<event>
 9    1  0.1434065E-005  0.1314027E+03  0.7546771E-02  0.1225740E+00
         -1   -1    0    0    0  501 -0.00000000000E+00  0.00000000000E+00  0.36753855118E+03  0.36753855118E+03  0.00000000000E+00 0.  1.
          1   -1    0    0  502    0  0.00000000000E+00 -0.00000000000E+00 -0.65112004728E+02  0.65112004728E+02  0.00000000000E+00 0. -1.
         23    2    1    2    0    0  0.71578470065E+02 -0.40040407609E+02  0.13978811746E+03  0.18597177492E+03  0.91203463010E+02 0.  0.
         23    2    1    2    0    0 -0.76789321777E+02  0.72036837207E+02  0.84678405286E+02  0.16224721237E+03  0.89821042900E+02 0.  0.
        -11    1    3    3    0    0  0.89715001739E+02 -0.49202836376E+02  0.11773497951E+03  0.15598469811E+03  0.00000000000E+00 0.  1.
         11    1    3    3    0    0 -0.18136531673E+02  0.91624287668E+01  0.22053137946E+02  0.29987076805E+02  0.00000000000E+00 0. -1.
        -13    1    4    4    0    0 -0.51179939303E+02  0.91471408435E+02  0.54433196903E+02  0.11810748356E+03  0.00000000000E+00 0. -1.
         13    1    4    4    0    0 -0.25609382475E+02 -0.19434571228E+02  0.30245208383E+02  0.44139728813E+02  0.00000000000E+00 0.  1.
         21    1    1    2  502  501  0.52108517119E+01 -0.31996429598E+02  0.77960023704E+02  0.84431568613E+02  0.00000000000E+00 0.  1.
<scales pt_clust_5="13000.00000" pt_clust_6="13000.00000" pt_clust_7="13000.00000" pt_clust_8="13000.00000" pt_clust_9="32.41797"></scales>
<clustering>
<clus scale="   32.418">  1  9  2 -1</clus>
<clus scale="   89.821">  7  8 -1 -1</clus>
<clus scale="   91.203">  5  6 -1 -1</clus>
<clus scale="  130.447">  2  7  1 -1</clus>
<clus scale="  130.447">  2  5  1 -1</clus>
</clustering>
</event>
<event>
 9    1  0.1582198E-005  0.2817753E+03  0.7546771E-02  0.1094770E+00
          2   -1    0    0  502    0  0.00000000000E+00  0.00000000000E+00  0.95935951736E+03  0.95935951736E+03  0.00000000000E+00 0. -1.
         -2   -1    0    0    0  501 -0.00000000000E+00 -0.00000000000E+00 -0.13313886042E+03  0.13313886042E+03  0.00000000000E+00 0.  1.
         23    2    1    2    0    0  0.15572470406E+03  0.23487488939E+03  0.11704359917E+03  0.31841485678E+03  0.90952843782E+02 0.  0.
         23    2    1    2    0    0 -0.14108795774E+03 -0.22105274178E+03  0.69746048245E+03  0.75079051251E+03  0.92006209699E+02 0.  0.
        -13    1    3    3    0    0  0.17356724854E+02  0.10475158530E+03  0.42482290877E+02  0.11436299908E+03  0.00000000000E+00 0. -1.
         13    1    3    3    0    0  0.13836797921E+03  0.13012330409E+03  0.74561308296E+02  0.20405185770E+03  0.00000000000E+00 0.  1.
        -13    1    4    4    0    0 -0.78893832980E+02 -0.45635665374E+02  0.25402681497E+03  0.26988233280E+03  0.00000000000E+00 0.  1.
         13    1    4    4    0    0 -0.62194124763E+02 -0.17541707641E+03  0.44343366748E+03  0.48090817970E+03  0.00000000000E+00 0. -1.
         21    1    1    2  502  501 -0.14636746318E+02 -0.13822147608E+02  0.11716575325E+02  0.23293008493E+02  0.00000000000E+00 0. -1.
<scales pt_clust_5="13000.00000" pt_clust_6="13000.00000" pt_clust_7="13000.00000" pt_clust_8="13000.00000" pt_clust_9="20.13172"></scales>
<clustering>
<clus scale="   20.132">  2  9  1 -1</clus>
<clus scale="   90.953">  5  6 -1 -1</clus>
<clus scale="   92.006">  7  8 -1 -1</clus>
<clus scale="  281.433">  2  5  1 -1</clus>
<clus scale="  281.775">  1  5  2 -1</clus>
</clustering>
</event>
<event>
 9    1  0.1434065E-005  0.9872614E+02  0.7546771E-02  0.1285976E+00
         -1   -1    0    0    0  501 -0.00000000000E+00  0.00000000000E+00  0.20949790360E+03  0.20949790360E+03  0.00000000000E+00 0.  1.
          1   -1    0    0  502    0  0.00000000000E+00 -0.00000000000E+00 -0.20739718481E+03  0.20739718481E+03  0.00000000000E+00 0. -1.
         23    2    1    2    0    0  0.56074329361E+01  0.34064762743E+01  0.11638697320E+03  0.14612229743E+03  0.88106474729E+02 0.  0.
         23    2    1    2    0    0 -0.24385553043E+02  0.23226497430E+02 -0.17526994791E+03  0.20162842061E+03  0.93810127255E+02 0.  0.
        -13    1    4    4    0    0 -0.33959129879E+02  0.55017056222E+02 -0.13296961322E+03  0.14785471591E+03  0.00000000000E+00 0. -1.
         13    1    4    4    0    0  0.95735768356E+01 -0.31790558792E+02 -0.42300334694E+02  0.53773704698E+02  0.00000000000E+00 0.  1.
        -13    1    3    3    0    0  0.24757614303E+02  0.28610021575E+02  0.10640615070E+03  0.11293246525E+03  0.00000000000E+00 0.  1.
         13    1    3    3    0    0 -0.19150181367E+02 -0.25203545300E+02  0.99808225027E+01  0.33189832177E+02  0.00000000000E+00 0. -1.
         21    1    1    2  502  501  0.18778120107E+02 -0.26632973705E+02  0.60983693492E+02  0.69144370379E+02  0.00000000000E+00 0.  1.
<scales pt_clust_5="13000.00000" pt_clust_6="13000.00000" pt_clust_7="13000.00000" pt_clust_8="13000.00000" pt_clust_9="32.58731"></scales>
<clustering>
<clus scale="   32.587">  1  9  2 -1</clus>
<clus scale="   88.106">  7  8 -1 -1</clus>
<clus scale="   93.323">  1  7  2 -1</clus>
<clus scale="   93.810">  5  6 -1 -1</clus>
<clus scale="   98.726">  2  5  1 -1</clus>
</clustering>
</event>
<event>
 9    1  0.1434065E-005  0.1077337E+03  0.7546771E-02  0.1265478E+00
         -1   -1    0    0    0  501 -0.00000000000E+00  0.00000000000E+00  0.78669841728E+02  0.78669841728E+02  0.00000000000E+00 0.  1.
          1   -1    0    0  502    0  0.00000000000E+00 -0.00000000000E+00 -0.31445861846E+03  0.31445861846E+03  0.00000000000E+00 0. -1.
         23    2    1    2    0    0  0.48216479150E+02  0.52640653823E+02 -0.80010717142E+02  0.14048542998E+03  0.90766590126E+02 0.  0.
         23    2    1    2    0    0  0.20999153747E+01 -0.53823304968E+02 -0.16956480497E+03  0.20045862094E+03  0.92358420426E+02 0.  0.
        -11    1    3    3    0    0  0.25445095300E+02  0.54698504159E+02 -0.32752968311E+01  0.60416113757E+02  0.00000000000E+00 0. -1.
         11    1    3    3    0    0  0.22771383850E+02 -0.20578503368E+01 -0.76735420311E+02  0.80069316225E+02  0.00000000000E+00 0.  1.
        -11    1    4    4    0    0 -0.19807466023E+02 -0.52378152134E+02 -0.39436468535E+02  0.68491178861E+02  0.00000000000E+00 0.  1.
         11    1    4    4    0    0  0.21907381398E+02 -0.14451528342E+01 -0.13012833644E+03  0.13196744208E+03  0.00000000000E+00 0. -1.
         21    1    1    2  502  501 -0.50316394525E+02  0.11826511455E+01  0.13786745382E+02  0.52184409261E+02  0.00000000000E+00 0. -1.
<scales pt_clust_5="13000.00000" pt_clust_6="13000.00000" pt_clust_7="13000.00000" pt_clust_8="13000.00000" pt_clust_9="50.33029"></scales>
<clustering>
<clus scale="   50.330">  1  9  2 -1</clus>
<clus scale="   90.767">  5  6 -1 -1</clus>
<clus scale="   92.358">  7  8 -1 -1</clus>
<clus scale="  106.372">  1  5  2 -1</clus>
<clus scale="  107.734">  2  5  1 -1</clus>
</clustering>
</event>
<event>
 9    1  0.1434065E-005  0.2267521E+03  0.7546771E-02  0.1129092E+00
         -1   -1    0    0    0  501 -0.00000000000E+00  0.00000000000E+00  0.43712289705E+02  0.43712289705E+02  0.00000000000E+00 0.  1.
          1   -1    0    0  502    0  0.00000000000E+00 -0.00000000000E+00 -0.15335838471E+04  0.15335838471E+04  0.00000000000E+00 0. -1.
         23    2    1    2    0    0  0.12661209647E+03  0.19664546083E+03 -0.61501783757E+03  0.66407298695E+03  0.89699114960E+02 0.  0.
         23    2    1    2    0    0 -0.11165018806E+03 -0.15645999447E+03 -0.78925452763E+03  0.81748417078E+03  0.91717859357E+02 0.  0.
        -11    1    3    3    0    0 -0.71440076857E+01  0.48673453923E+02 -0.15644595049E+03  0.16399840666E+03  0.00000000000E+00 0. -1.
         11    1    3    3    0    0  0.13375610416E+03  0.14797200691E+03 -0.45857188708E+03  0.50007458029E+03  0.00000000000E+00 0.  1.
        -11    1    4    4    0    0 -0.25773063397E+02 -0.10743197688E+03 -0.49053401319E+03  0.50282153748E+03  0.00000000000E+00 0. -1.
         11    1    4    4    0    0 -0.85877124665E+02 -0.49028017587E+02 -0.29872051444E+03  0.31466263330E+03  0.00000000000E+00 0.  1.
         21    1    1    2  502  501 -0.14961908412E+02 -0.40185466363E+02 -0.85599192164E+02  0.95738979049E+02  0.00000000000E+00 0.  1.
<scales pt_clust_5="13000.00000" pt_clust_6="13000.00000" pt_clust_7="13000.00000" pt_clust_8="13000.00000" pt_clust_9="42.88042"></scales>
<clustering>
<clus scale="   42.880">  1  9  2 -1</clus>
<clus scale="   89.699">  5  6 -1 -1</clus>
<clus scale="   91.718">  7  8 -1 -1</clus>
<clus scale="  225.943">  1  5  2 -1</clus>
<clus scale="  226.752">  2  5  1 -1</clus>
</clustering>
</event>
<event>
 9    1  0.1434065E-005  0.1354169E+03  0.7546771E-02  0.1221605E+00
         -3   -1    0    0    0  501 -0.00000000000E+00  0.00000000000E+00  0.12291140581E+03  0.12291140581E+03  0.00000000000E+00 0.  1.
          3   -1    0    0  502    0  0.00000000000E+00 -0.00000000000E+00 -0.27496528929E+03  0.27496528929E+03  0.00000000000E+00 0. -1.
         23    2    1    2    0    0  0.64050561792E+02  0.68109627309E+02  0.10016227970E+01  0.12865692212E+03  0.88375361735E+02 0.  0.
         23    2    1    2    0    0 -0.92218539615E+02 -0.34730226447E+02 -0.17304902066E+03  0.22118478579E+03  0.96261613515E+02 0.  0.
        -13    1    3    3    0    0  0.79471868749E+02  0.30374410422E+02  0.13221830914E+02  0.86099939278E+02  0.00000000000E+00 0.  1.
         13    1    3    3    0    0 -0.15421306957E+02  0.37735216887E+02 -0.12220208117E+02  0.42556982837E+02  0.00000000000E+00 0. -1.
        -13    1    4    4    0    0 -0.68200658941E+02  0.18659995646E+01 -0.35644792109E+02  0.76976379746E+02  0.00000000000E+00 0.  1.
         13    1    4    4    0    0 -0.24017880674E+02 -0.36596226011E+02 -0.13740422855E+03  0.14420840605E+03  0.00000000000E+00 0. -1.
         21    1    1    2  502  501  0.28167977823E+02 -0.33379400863E+02  0.19993514392E+02  0.48034987190E+02  0.00000000000E+00 0.  1.
<scales pt_clust_5="13000.00000" pt_clust_6="13000.00000" pt_clust_7="13000.00000" pt_clust_8="13000.00000" pt_clust_9="43.67630"></scales>
<clustering>
<clus scale="   43.676">  1  9  2 -1</clus>
<clus scale="   88.375">  5  6 -1 -1</clus>
<clus scale="   96.262">  7  8 -1 -1</clus>
<clus scale="  129.929">  1  5  2 -1</clus>
<clus scale="  135.417">  2  5  1 -1</clus>
</clustering>
</event>
<event>
 9    1  0.1434065E-005  0.9988500E+02  0.7546771E-02  0.1280688E+00
         -2   -1    0    0    0  501 -0.00000000000E+00  0.00000000000E+00  0.11985491208E+03  0.11985491208E+03  0.00000000000E+00 0.  1.
          2   -1    0    0  502    0  0.00000000000E+00 -0.00000000000E+00 -0.42744289746E+03  0.42744289746E+03  0.00000000000E+00 0. -1.
         23    2    1    2    0    0  0.14926124562E+02  0.36121044359E+02  0.82457589690E+02  0.12991476115E+03  0.92472006715E+02 0.  0.
         23    2    1    2    0    0 -0.42484454345E+02 -0.25781807449E+01 -0.31168449185E+03  0.32780043511E+03  0.92164672832E+02 0.  0.
        -13    1    4    4    0    0 -0.69308808696E+02  0.12406269475E+02 -0.22960334132E+03  0.24015686714E+03  0.00000000000E+00 0.  1.
         13    1    4    4    0    0  0.26824354351E+02 -0.14984450220E+02 -0.82081150526E+02  0.87643567969E+02  0.00000000000E+00 0. -1.
        -13    1    3    3    0    0  0.17711391205E+02  0.66533133467E+02  0.65269467078E+02  0.94870725517E+02  0.00000000000E+00 0.  1.
         13    1    3    3    0    0 -0.27852666433E+01 -0.30412089108E+02  0.17188122612E+02  0.35044035629E+02  0.00000000000E+00 0. -1.
         21    1    1    2  502  501  0.27558329783E+02 -0.33542863614E+02 -0.78361083224E+02  0.89582613290E+02  0.00000000000E+00 0.  1.
<scales pt_clust_5="13000.00000" pt_clust_6="13000.00000" pt_clust_7="13000.00000" pt_clust_8="13000.00000" pt_clust_9="43.41181"></scales>
<clustering>
<clus scale="   43.412">  2  9  1 -1</clus>
<clus scale="   92.165">  5  6 -1 -1</clus>
<clus scale="   92.472">  7  8 -1 -1</clus>
<clus scale="   99.601">  2  5  1 -1</clus>
<clus scale="   43.412">  2  5  1 -1</clus>
</clustering>
</event>
<event>
 9    1  0.1434065E-005  0.1220115E+03  0.7546771E-02  0.1240624E+00
          1   -1    0    0  502    0  0.00000000000E+00  0.00000000000E+00  0.30979262227E+03  0.30979262227E+03  0.00000000000E+00 0. -1.
         -1   -1    0    0    0  501 -0.00000000000E+00 -0.00000000000E+00 -0.53793131504E+03  0.53793131504E+03  0.00000000000E+00 0.  1.
         23    2    1    2    0    0  0.19844737902E+02 -0.40517628728E+02 -0.23432214350E+03  0.25580480750E+03  0.92161492730E+02 0.  0.
         23    2    1    2    0    0 -0.61902611294E+02  0.48710737522E+02  0.28465300740E+03  0.31017228292E+03  0.94735638667E+02 0.  0.
        -11    1    3    3    0    0 -0.32681019556E+02 -0.32129160307E+02 -0.75594041794E+02  0.88401307321E+02  0.00000000000E+00 0. -1.
         11    1    3    3    0    0  0.52525757458E+02 -0.83884684210E+01 -0.15872810171E+03  0.16740350018E+03  0.00000000000E+00 0.  1.
        -13    1    4    4    0    0 -0.86745549813E+02  0.45498429360E+02  0.21925345251E+03  0.24013948847E+03  0.00000000000E+00 0. -1.
         13    1    4    4    0    0  0.24842938518E+02  0.32123081619E+01  0.65399554894E+02  0.70032794448E+02  0.00000000000E+00 0.  1.
         21    1    1    2  502  501  0.42057873393E+02 -0.81931087938E+01 -0.27846955667E+03  0.28174684690E+03  0.00000000000E+00 0.  1.
<scales pt_clust_5="13000.00000" pt_clust_6="13000.00000" pt_clust_7="13000.00000" pt_clust_8="13000.00000" pt_clust_9="42.84847"></scales>
<clustering>
<clus scale="   42.848">  2  9  1 -1</clus>
<clus scale="   92.161">  5  6 -1 -1</clus>
<clus scale="   94.736">  7  8 -1 -1</clus>
<clus scale="  120.024">  2  5  1 -1</clus>
<clus scale="  122.012">  1  5  2 -1</clus>
</clustering>
</event>
<event>
 9    1  0.1434065E-005  0.1592747E+03  0.7546771E-02  0.1189872E+00
          1   -1    0    0  502    0  0.00000000000E+00  0.00000000000E+00  0.99097781084E+02  0.99097781084E+02  0.00000000000E+00 0. -1.
         -1   -1    0    0    0  501 -0.00000000000E+00 -0.00000000000E+00 -0.35224190231E+03  0.35224190231E+03  0.00000000000E+00 0.  1.
         23    2    1    2    0    0  0.12764483066E+03  0.64325548733E+02 -0.17104228169E+03  0.24122042101E+03  0.92200056262E+02 0.  0.
         23    2    1    2    0    0 -0.95885283106E+02 -0.79300278048E+02 -0.47362434421E+02  0.16072556191E+03  0.90038794090E+02 0.  0.
        -11    1    3    3    0    0 -0.83497227497E+00  0.25600888085E+02 -0.66035967979E+02  0.70829737514E+02  0.00000000000E+00 0.  1.
         11    1    3    3    0    0  0.12847980293E+03  0.38724660648E+02 -0.10500631371E+03  0.17039068350E+03  0.00000000000E+00 0. -1.
        -11    1    4    4    0    0  0.95853105465E+01 -0.25022370954E+02 -0.31014777105E+02  0.40986749387E+02  0.00000000000E+00 0. -1.
         11    1    4    4    0    0 -0.10547059365E+03 -0.54277907094E+02 -0.16347657316E+02  0.11973881252E+03  0.00000000000E+00 0.  1.
         21    1    1    2  502  501 -0.31759547552E+02  0.14974729315E+02 -0.34739405122E+02  0.49393700479E+02  0.00000000000E+00 0.  1.
<scales pt_clust_5="13000.00000" pt_clust_6="13000.00000" pt_clust_7="13000.00000" pt_clust_8="13000.00000" pt_clust_9="35.11284"></scales>
<clustering>
<clus scale="   35.113">  2  9  1 -1</clus>
<clus scale="   90.039">  7  8 -1 -1</clus>
<clus scale="   92.200">  5  6 -1 -1</clus>
<clus scale="  158.033">  1  7  2 -1</clus>
<clus scale="  158.033">  1  5  2 -1</clus>
</clustering>
</event>
<event>
 9    1  0.1434065E-005  0.1087617E+03  0.7546771E-02  0.1263399E+00
          1   -1    0    0  502    0  0.00000000000E+00  0.00000000000E+00  0.11885162192E+03  0.11885162192E+03  0.00000000000E+00 0. -1.
         -1   -1    0    0    0  501 -0.00000000000E+00 -0.00000000000E+00 -0.25013687840E+03  0.25013687840E+03  0.00000000000E+00 0.  1.
         23    2    1    2    0    0  0.70365504161E+02 -0.49908010417E+02 -0.74999328031E+01  0.12544887912E+03  0.90769260220E+02 0.  0.
         23    2    1    2    0    0 -0.44195466909E+02 -0.86441755075E+01  0.18201969344E+01  0.10250779454E+03  0.92068310282E+02 0.  0.
        -11    1    3    3    0    0  0.48096677302E+02 -0.28049637696E+02  0.40041778556E+02  0.68581459391E+02  0.00000000000E+00 0. -1.
         11    1    3    3    0    0  0.22268826859E+02 -0.21858372720E+02 -0.47541711359E+02  0.56867419729E+02  0.00000000000E+00 0.  1.
        -13    1    4    4    0    0  0.13930178817E+02  0.29699700235E+02  0.21312958194E+01  0.32873461908E+02  0.00000000000E+00 0.  1.
         13    1    4    4    0    0 -0.58125645726E+02 -0.38343875743E+02 -0.31109888494E+00  0.69634332628E+02  0.00000000000E+00 0. -1.
         21    1    1    2  502  501 -0.26170037252E+02  0.58552185924E+02 -0.12560552060E+03  0.14103182666E+03  0.00000000000E+00 0.  1.
<scales pt_clust_5="13000.00000" pt_clust_6="13000.00000" pt_clust_7="13000.00000" pt_clust_8="13000.00000" pt_clust_9="64.13446"></scales>
<clustering>
<clus scale="   64.134">  2  9  1 -1</clus>
<clus scale="   90.769">  5  6 -1 -1</clus>
<clus scale="   92.068">  7  8 -1 -1</clus>
<clus scale="  107.664">  2  5  1 -1</clus>
<clus scale="  108.762">  1  5  2 -1</clus>
</clustering>
</event>
<event>
 9    1  0.1434065E-005  0.2230280E+03  0.7546771E-02  0.1131814E+00
          1   -1    0    0  502    0  0.00000000000E+00  0.00000000000E+00  0.13005398310E+04  0.13005398310E+04  0.00000000000E+00 0. -1.
         -1   -1    0    0    0  501 -0.00000000000E+00 -0.00000000000E+00 -0.63068307314E+02  0.63068307314E+02  0.00000000000E+00 0.  1.
         23    2    1    2    0    0  0.78863327926E+01 -0.21268352858E+03  0.32271189852E+03  0.39568532358E+03  0.84424097743E+02 0.  0.
         23    2    1    2    0    0  0.14777369086E+02  0.20257604345E+03  0.91678932187E+03  0.94302453557E+03  0.86816991331E+02 0.  0.
        -13    1    3    3    0    0 -0.36733414302E+02 -0.64721402635E+02  0.10485920407E+03  0.12858326627E+03  0.00000000000E+00 0.  1.
         13    1    3    3    0    0  0.44619747094E+02 -0.14796212595E+03  0.21785269445E+03  0.26710205732E+03  0.00000000000E+00 0. -1.
        -13    1    4    4    0    0 -0.29186762876E+02  0.26697480246E+02  0.15702082982E+03  0.16192641407E+03  0.00000000000E+00 0.  1.
         13    1    4    4    0    0  0.43964131963E+02  0.17587856321E+03  0.75976849205E+03  0.78109812150E+03  0.00000000000E+00 0. -1.
         21    1    1    2  502  501 -0.22663701879E+02  0.10107485129E+02 -0.20296966593E+01  0.24898279198E+02  0.00000000000E+00 0.  1.
<scales pt_clust_5="13000.00000" pt_clust_6="13000.00000" pt_clust_7="13000.00000" pt_clust_8="13000.00000" pt_clust_9="24.81541"></scales>
<clustering>
<clus scale="   24.815">  2  9  1 -1</clus>
<clus scale="   84.424">  5  6 -1 -1</clus>
<clus scale="   86.817">  7  8 -1 -1</clus>
<clus scale="  222.107">  2  5  1 -1</clus>
<clus scale="  223.028">  1  5  2 -1</clus>
</clustering>
</event>
<event>
 9    1  0.1434065E-005  0.9187846E+02  0.7546771E-02  0.1300132E+00
          2   -1    0    0  502    0  0.00000000000E+00  0.00000000000E+00  0.19427736536E+03  0.19427736536E+03  0.00000000000E+00 0. -1.
         -2   -1    0    0    0  501 -0.00000000000E+00 -0.00000000000E+00 -0.16056281775E+03  0.16056281775E+03  0.00000000000E+00 0.  1.
         23    2    1    2    0    0  0.49970454976E+02  0.16332018764E+02 -0.10196257563E+03  0.14629378486E+03  0.90783938283E+02 0.  0.
         23    2    1    2    0    0 -0.10402439874E+02  0.24245387470E+01  0.13886681578E+03  0.16464183804E+03  0.87800074971E+02 0.  0.
        -11    1    3    3    0    0  0.44429619250E+02 -0.32295842718E+02 -0.64104968873E+02  0.84418360312E+02  0.00000000000E+00 0.  1.
         11    1    3    3    0    0  0.55408357265E+01  0.48627861482E+02 -0.37857606760E+02  0.61875424544E+02  0.00000000000E+00 0. -1.
        -11    1    4    4    0    0 -0.30972786468E+02 -0.23851543156E+02  0.12021783404E+03  0.12641414966E+03  0.00000000000E+00 0. -1.
         11    1    4    4    0    0  0.20570346594E+02  0.26276081903E+02  0.18648981742E+02  0.38227688384E+02  0.00000000000E+00 0.  1.
         21    1    1    2  502  501 -0.39568015103E+02 -0.18756557511E+02 -0.31896925462E+01  0.43904560212E+02  0.00000000000E+00 0. -1.
<scales pt_clust_5="13000.00000" pt_clust_6="13000.00000" pt_clust_7="13000.00000" pt_clust_8="13000.00000" pt_clust_9="43.78854"></scales>
<clustering>
<clus scale="   43.789">  2  9  1 -1</clus>
<clus scale="   87.800">  7  8 -1 -1</clus>
<clus scale="   88.931">  1  7  2 -1</clus>
<clus scale="   90.784">  5  6 -1 -1</clus>
<clus scale="   88.931">  1  5  2 -1</clus>
</clustering>
</event>
<event>
 9    1  0.1434065E-005  0.1448898E+03  0.7546771E-02  0.1209403E+00
         -1   -1    0    0    0  501 -0.00000000000E+00  0.00000000000E+00  0.58026956810E+03  0.58026956810E+03  0.00000000000E+00 0.  1.
          1   -1    0    0  502    0  0.00000000000E+00 -0.00000000000E+00 -0.13131292693E+03  0.13131292693E+03  0.00000000000E+00 0. -1.
         23    2    1    2    0    0 -0.11790377549E+03 -0.28510058894E+02  0.44409404799E+03  0.47159263925E+03  0.10230332449E+03 0.  0.
         23    2    1    2    0    0  0.10027623870E+03  0.12324522571E+02 -0.75818933063E+02  0.15583398660E+03  0.91260631518E+02 0.  0.
        -13    1    3    3    0    0 -0.17617803591E+02  0.32272984274E+02  0.63892251493E+02  0.73716703115E+02  0.00000000000E+00 0. -1.
         13    1    3    3    0    0 -0.10028597190E+03 -0.60783043167E+02  0.38020179650E+03  0.39787593614E+03  0.00000000000E+00 0.  1.
        -13    1    4    4    0    0  0.14538853709E+02 -0.28179221887E+02 -0.47059363184E+02  0.56745312376E+02  0.00000000000E+00 0.  1.
         13    1    4    4    0    0  0.85737384993E+02  0.40503744458E+02 -0.28759569878E+02  0.99088674227E+02  0.00000000000E+00 0. -1.
         21    1    1    2  502  501  0.17627536787E+02  0.16185536322E+02  0.80681526245E+02  0.84155869174E+02  0.00000000000E+00 0. -1.
<scales pt_clust_5="13000.00000" pt_clust_6="13000.00000" pt_clust_7="13000.00000" pt_clust_8="13000.00000" pt_clust_9="23.93119"></scales>
<clustering>
<clus scale="   23.931">  1  9  2 -1</clus>
<clus scale="   91.261">  7  8 -1 -1</clus>
<clus scale="  102.303">  5  6 -1 -1</clus>
<clus scale="  137.316">  2  7  1 -1</clus>
<clus scale="  137.316">  2  5  1 -1</clus>
</clustering>
</event>
<event>
 9    1  0.1434065E-005  0.9349604E+02  0.7546771E-02  0.1296785E+00
         -1   -1    0    0    0  501 -0.00000000000E+00  0.00000000000E+00  0.48145143126E+03  0.48145143126E+03  0.00000000000E+00 0.  1.
          1   -1    0    0  502    0  0.00000000000E+00 -0.00000000000E+00 -0.27335165632E+02  0.27335165632E+02  0.00000000000E+00 0. -1.
         23    2    1    2    0    0  0.22880743767E-01 -0.94101275953E+01  0.23162553825E+03  0.24757952576E+03  0.86929169924E+02 0.  0.
         23    2    1    2    0    0 -0.19023502011E+02  0.23526882380E+02  0.10794208065E+03  0.14423827682E+03  0.90762216268E+02 0.  0.
        -11    1    3    3    0    0  0.37878548626E+02 -0.25281844078E+02  0.10452937511E+03  0.11401906134E+03  0.00000000000E+00 0.  1.
         11    1    3    3    0    0 -0.37855667882E+02  0.15871716483E+02  0.12709616313E+03  0.13356046443E+03  0.00000000000E+00 0. -1.
        -11    1    4    4    0    0  0.28016857734E+02  0.22719911929E+02  0.13114755234E+02  0.38381447604E+02  0.00000000000E+00 0.  1.
         11    1    4    4    0    0 -0.47040359745E+02  0.80697045156E+00  0.94827325417E+02  0.10585682922E+03  0.00000000000E+00 0. -1.
         21    1    1    2  502  501  0.19000621267E+02 -0.14116754785E+02  0.11454864673E+03  0.11696879431E+03  0.00000000000E+00 0.  1.
<scales pt_clust_5="13000.00000" pt_clust_6="13000.00000" pt_clust_7="13000.00000" pt_clust_8="13000.00000" pt_clust_9="23.67079"></scales>
<clustering>
<clus scale="   23.671">  1  9  2 -1</clus>
<clus scale="   86.929">  5  6 -1 -1</clus>
<clus scale="   89.780">  1  5  2 -1</clus>
<clus scale="   90.762">  7  8 -1 -1</clus>
<clus scale="   93.496">  2  5  1 -1</clus>
</clustering>
</event>
<event>
 9    1  0.1434065E-005  0.1011924E+03  0.7546771E-02  0.1277885E+00
          3   -1    0    0  502    0  0.00000000000E+00  0.00000000000E+00  0.25750741716E+03  0.25750741716E+03  0.00000000000E+00 0. -1.
         -3   -1    0    0    0  501 -0.00000000000E+00 -0.00000000000E+00 -0.62409728986E+02  0.62409728986E+02  0.00000000000E+00 0.  1.
         23    2    1    2    0    0  0.54090971465E+01  0.57536773624E+02  0.10756102038E+03  0.15286923303E+03  0.91977663860E+02 0.  0.
         23    2    1    2    0    0 -0.20411226252E+02 -0.22465896002E+02  0.84724601039E+02  0.12879953990E+03  0.92139724421E+02 0.  0.
        -11    1    4    4    0    0 -0.31673105549E+02  0.20000812745E+02  0.50284588281E+01  0.37795548994E+02  0.00000000000E+00 0.  1.
         11    1    4    4    0    0  0.11261879297E+02 -0.42466708747E+02  0.79696142211E+02  0.91003990904E+02  0.00000000000E+00 0. -1.
        -11    1    3    3    0    0  0.13372319348E+02  0.76715433766E+02  0.52220079758E+02  0.93760404396E+02  0.00000000000E+00 0.  1.
         11    1    3    3    0    0 -0.79632222013E+01 -0.19178660142E+02  0.55340940626E+02  0.59108828631E+02  0.00000000000E+00 0. -1.
         21    1    1    2  502  501  0.15002129105E+02 -0.35070877621E+02  0.28120667522E+01  0.38248373224E+02  0.00000000000E+00 0. -1.
<scales pt_clust_5="13000.00000" pt_clust_6="13000.00000" pt_clust_7="13000.00000" pt_clust_8="13000.00000" pt_clust_9="38.14486"></scales>
<clustering>
<clus scale="   38.145">  2  9  1 -1</clus>
<clus scale="   91.978">  7  8 -1 -1</clus>
<clus scale="   92.140">  5  6 -1 -1</clus>
<clus scale="  101.045">  2  7  1 -1</clus>
<clus scale="  101.192">  1  5  2 -1</clus>
</clustering>
</event>
<event>
 9    1  0.1434065E-005  0.9621354E+02  0.7546771E-02  0.1289859E+00
         -1   -1    0    0    0  501 -0.00000000000E+00  0.00000000000E+00  0.59890559058E+02  0.59890559058E+02  0.00000000000E+00 0.  1.
          1   -1    0    0  502    0  0.00000000000E+00 -0.00000000000E+00 -0.31665971059E+03  0.31665971059E+03  0.00000000000E+00 0. -1.
         23    2    1    2    0    0  0.26104008730E+01  0.25017607859E+02 -0.12211964580E+03  0.15467830895E+03  0.91539480416E+02 0.  0.
         23    2    1    2    0    0 -0.20643075263E+02 -0.82317431808E+01 -0.15973761667E+03  0.18671010766E+03  0.94077946266E+02 0.  0.
        -11    1    3    3    0    0 -0.21269502728E+02 -0.27857898021E+02 -0.61379605793E+02  0.70681753202E+02  0.00000000000E+00 0.  1.
         11    1    3    3    0    0  0.23879903601E+02  0.52875505880E+02 -0.60740040008E+02  0.83996555752E+02  0.00000000000E+00 0. -1.
        -11    1    4    4    0    0 -0.50713091440E+02  0.19182785000E+01 -0.45546592948E+02  0.68190831972E+02  0.00000000000E+00 0.  1.
         11    1    4    4    0    0  0.30070016177E+02 -0.10150021681E+02 -0.11419102372E+03  0.11851927569E+03  0.00000000000E+00 0. -1.
         21    1    1    2  502  501  0.18032674390E+02 -0.16785864678E+02  0.25088110931E+02  0.35161853033E+02  0.00000000000E+00 0.  1.
<scales pt_clust_5="13000.00000" pt_clust_6="13000.00000" pt_clust_7="13000.00000" pt_clust_8="13000.00000" pt_clust_9="24.63621"></scales>
<clustering>
<clus scale="   24.636">  1  9  2 -1</clus>
<clus scale="   91.539">  5  6 -1 -1</clus>
<clus scale="   93.733">  1  5  2 -1</clus>
<clus scale="   94.078">  7  8 -1 -1</clus>
<clus scale="   96.214">  2  5  1 -1</clus>
</clustering>
</event>
<event>
 9    1  0.1434065E-005  0.9859419E+02  0.7546771E-02  0.1286921E+00
          3   -1    0    0  502    0  0.00000000000E+00  0.00000000000E+00  0.22900017924E+03  0.22900017924E+03  0.00000000000E+00 0. -1.
         -3   -1    0    0    0  501 -0.00000000000E+00 -0.00000000000E+00 -0.63820197441E+02  0.63820197441E+02  0.00000000000E+00 0.  1.
         23    2    1    2    0    0 -0.31723355302E+02 -0.52977089849E+01  0.20622665485E+02  0.98655438335E+02  0.90956935905E+02 0.  0.
         23    2    1    2    0    0  0.31059674364E+02  0.27555881894E+02  0.14421812613E+03  0.17189428987E+03  0.83813775631E+02 0.  0.
        -13    1    3    3    0    0 -0.54883904699E+02 -0.26690996102E+02  0.90004787227E-01  0.61029995648E+02  0.00000000000E+00 0.  1.
         13    1    3    3    0    0  0.23160549397E+02  0.21393287117E+02  0.20532660698E+02  0.37625442687E+02  0.00000000000E+00 0. -1.
        -13    1    4    4    0    0 -0.22791687248E+02 -0.12891623652E+02  0.40564402437E+02  0.48281732705E+02  0.00000000000E+00 0.  1.
         13    1    4    4    0    0  0.53851361612E+02  0.40447505545E+02  0.10365372369E+03  0.12361255716E+03  0.00000000000E+00 0. -1.
         21    1    1    2  502  501  0.66368093865E+00 -0.22258172909E+02  0.33919018040E+00  0.22270648477E+02  0.00000000000E+00 0.  1.
<scales pt_clust_5="13000.00000" pt_clust_6="13000.00000" pt_clust_7="13000.00000" pt_clust_8="13000.00000" pt_clust_9="22.26807"></scales>
<clustering>
<clus scale="   22.268">  2  9  1 -1</clus>
<clus scale="   83.814">  7  8 -1 -1</clus>
<clus scale="   90.957">  5  6 -1 -1</clus>
<clus scale="   92.046">  1  7  2 -1</clus>
<clus scale="   92.046">  1  5  2 -1</clus>
</clustering>
</event>
<event>
 9    1  0.1434065E-005  0.9259923E+02  0.7546771E-02  0.1297613E+00
         -1   -1    0    0    0  501 -0.00000000000E+00  0.00000000000E+00  0.28371385407E+02  0.28371385407E+02  0.00000000000E+00 0.  1.
          1   -1    0    0  502    0  0.00000000000E+00 -0.00000000000E+00 -0.42073443031E+03  0.42073443031E+03  0.00000000000E+00 0. -1.
         23    2    1    2    0    0 -0.47776049952E+01  0.18716285123E+02 -0.16974665722E+03  0.19366412602E+03  0.91207133669E+02 0.  0.
         23    2    1    2    0    0  0.18465813128E+02 -0.32418417241E+01 -0.21455790514E+03  0.23326592406E+03  0.89590182937E+02 0.  0.
        -13    1    3    3    0    0 -0.42191588572E+02  0.31342434167E+02 -0.81392305268E+02  0.96887489815E+02  0.00000000000E+00 0.  1.
         13    1    3    3    0    0  0.37413983576E+02 -0.12626149043E+02 -0.88354351955E+02  0.96776636210E+02  0.00000000000E+00 0. -1.
        -13    1    4    4    0    0  0.16985779610E+02  0.41171270691E+02 -0.80024577425E+02  0.91583422251E+02  0.00000000000E+00 0.  1.
         13    1    4    4    0    0  0.14800335179E+01 -0.44413112415E+02 -0.13453332771E+03  0.14168250181E+03  0.00000000000E+00 0. -1.
         21    1    1    2  502  501 -0.13688208132E+02 -0.15474443399E+02 -0.80584825408E+01  0.22175765629E+02  0.00000000000E+00 0. -1.
<scales pt_clust_5="13000.00000" pt_clust_6="13000.00000" pt_clust_7="13000.00000" pt_clust_8="13000.00000" pt_clust_9="20.65975"></scales>
<clustering>
<clus scale="   20.660">  1  9  2 -1</clus>
<clus scale="   89.590">  7  8 -1 -1</clus>
<clus scale="   91.007">  2  7  1 -1</clus>
<clus scale="   91.207">  5  6 -1 -1</clus>
<clus scale="   91.007">  2  5  1 -1</clus>
</clustering>
</event>
<event>
 9    1  0.1434065E-005  0.1001587E+03  0.7546771E-02  0.1280382E+00
         -1   -1    0    0    0  501 -0.00000000000E+00  0.00000000000E+00  0.35377184085E+02  0.35377184085E+02  0.00000000000E+00 0.  1.
          1   -1    0    0  502    0  0.00000000000E+00 -0.00000000000E+00 -0.62244884369E+03  0.62244884369E+03  0.00000000000E+00 0. -1.
         23    2    1    2    0    0 -0.24590526925E+01 -0.63037704083E+02 -0.29620535366E+03  0.31618107913E+03  0.90846376844E+02 0.  0.
         23    2    1    2    0    0 -0.75136077402E+01  0.22467125109E+02 -0.28390400110E+03  0.29929049761E+03  0.91717468932E+02 0.  0.
        -11    1    3    3    0    0 -0.33827547500E+02 -0.18601275476E+02 -0.45627715246E+02  0.59767874462E+02  0.00000000000E+00 0.  1.
         11    1    3    3    0    0  0.31368494808E+02 -0.44436428607E+02 -0.25057763842E+03  0.25641320467E+03  0.00000000000E+00 0. -1.
        -11    1    4    4    0    0 -0.17396447642E+02 -0.30979605363E+02 -0.16149131250E+03  0.16535361004E+03  0.00000000000E+00 0. -1.
         11    1    4    4    0    0  0.98828399014E+01  0.53446730473E+02 -0.12241268860E+03  0.13393688757E+03  0.00000000000E+00 0.  1.
         21    1    1    2  502  501  0.99726604327E+01  0.40570578973E+02 -0.69623048518E+01  0.42354451044E+02  0.00000000000E+00 0.  1.
<scales pt_clust_5="13000.00000" pt_clust_6="13000.00000" pt_clust_7="13000.00000" pt_clust_8="13000.00000" pt_clust_9="41.77829"></scales>
<clustering>
<clus scale="   41.778">  1  9  2 -1</clus>
<clus scale="   90.846">  5  6 -1 -1</clus>
<clus scale="   91.717">  7  8 -1 -1</clus>
<clus scale="   99.362">  1  5  2 -1</clus>
<clus scale="  100.159">  2  5  1 -1</clus>
</clustering>
</event>
<event>
 9    1  0.1434065E-005  0.1897033E+03  0.7546771E-02  0.1163060E+00
          2   -1    0    0  502    0  0.00000000000E+00  0.00000000000E+00  0.97941148686E+03  0.97941148686E+03  0.00000000000E+00 0. -1.
         -2   -1    0    0    0  501 -0.00000000000E+00 -0.00000000000E+00 -0.26244022036E+03  0.26244022036E+03  0.00000000000E+00 0.  1.
         23    2    1    2    0    0 -0.42142986652E+02 -0.16094371977E+03  0.44351802073E+03  0.48220848490E+03  0.90210176502E+02 0.  0.
         23    2    1    2    0    0  0.45670482245E+02  0.12172894805E+03  0.49950057902E+03  0.53019249032E+03  0.12124157130E+03 0.  0.
        -13    1    3    3    0    0  0.45110315548E+01 -0.13597709858E+03  0.33095168322E+03  0.35782556836E+03  0.00000000000E+00 0.  1.
         13    1    3    3    0    0 -0.46654018207E+02 -0.24966621191E+02  0.11256633750E+03  0.12438291654E+03  0.00000000000E+00 0. -1.
        -13    1    4    4    0    0 -0.18709005452E+02  0.66081464502E+02  0.97353544386E+02  0.11914067081E+03  0.00000000000E+00 0.  1.
         13    1    4    4    0    0  0.64379487697E+02  0.55647483543E+02  0.40214703463E+03  0.41105181951E+03  0.00000000000E+00 0. -1.
         21    1    1    2  502  501 -0.35274955932E+01  0.39214771726E+02 -0.22604733324E+03  0.22945073199E+03  0.00000000000E+00 0.  1.
<scales pt_clust_5="13000.00000" pt_clust_6="13000.00000" pt_clust_7="13000.00000" pt_clust_8="13000.00000" pt_clust_9="39.37311"></scales>
<clustering>
<clus scale="   39.373">  2  9  1 -1</clus>
<clus scale="   90.210">  5  6 -1 -1</clus>
<clus scale="  121.242">  7  8 -1 -1</clus>
<clus scale="  171.539">  2  5  1 -1</clus>
<clus scale="  189.703">  1  5  2 -1</clus>
</clustering>
</event>
<event>
 9    1  0.1434065E-005  0.1021964E+03  0.7546771E-02  0.1276039E+00
          1   -1    0    0  502    0  0.00000000000E+00  0.00000000000E+00  0.10854633680E+03  0.10854633680E+03  0.00000000000E+00 0. -1.
         -1   -1    0    0    0  501 -0.00000000000E+00 -0.00000000000E+00 -0.13577339272E+03  0.13577339272E+03  0.00000000000E+00 0.  1.
         23    2    1    2    0    0 -0.33555480225E+02  0.40422734543E+02 -0.30793076857E+02  0.10971340467E+03  0.91262532629E+02 0.  0.
         23    2    1    2    0    0  0.46606022415E+01 -0.42754000290E+02  0.16607345560E+02  0.10281914312E+03  0.91904007048E+02 0.  0.
        -11    1    3    3    0    0 -0.59106305254E+01  0.21218245991E+02 -0.60770527399E+02  0.64639047924E+02  0.00000000000E+00 0.  1.
         11    1    3    3    0    0 -0.27644849700E+02  0.19204488552E+02  0.29977450542E+02  0.45074356750E+02  0.00000000000E+00 0. -1.
        -11    1    4    4    0    0 -0.38199834652E+02 -0.44065082606E+02  0.58535716878E+01  0.58610776944E+02  0.00000000000E+00 0.  1.
         11    1    4    4    0    0  0.42860436893E+02  0.13110823164E+01  0.10753773872E+02  0.44208366176E+02  0.00000000000E+00 0. -1.
         21    1    1    2  502  501  0.28894877983E+02  0.23312657467E+01 -0.13041324628E+02  0.31787181720E+02  0.00000000000E+00 0. -1.
<scales pt_clust_5="13000.00000" pt_clust_6="13000.00000" pt_clust_7="13000.00000" pt_clust_8="13000.00000" pt_clust_9="28.98877"></scales>
<clustering>
<clus scale="   28.989">  2  9  1 -1</clus>
<clus scale="   91.263">  5  6 -1 -1</clus>
<clus scale="   91.904">  7  8 -1 -1</clus>
<clus scale="  101.620">  2  5  1 -1</clus>
<clus scale="  102.196">  1  5  2 -1</clus>
</clustering>
</event>
<event>
 9    1  0.1434065E-005  0.1402904E+03  0.7546771E-02  0.1212975E+00
         -1   -1    0    0    0  501 -0.00000000000E+00  0.00000000000E+00  0.39895367156E+02  0.39895367156E+02  0.00000000000E+00 0.  1.
          1   -1    0    0  502    0  0.00000000000E+00 -0.00000000000E+00 -0.98832105990E+03  0.98832105990E+03  0.00000000000E+00 0. -1.
         23    2    1    2    0    0 -0.10829423547E+03 -0.18565947101E+02 -0.34238035898E+03  0.37082123936E+03  0.90618681941E+02 0.  0.
         23    2    1    2    0    0  0.10637929216E+03 -0.58661753177E+01 -0.61547016567E+03  0.63113832060E+03  0.90449373030E+02 0.  0.
        -11    1    3    3    0    0 -0.31956039057E+02  0.25122389363E+02 -0.44700129508E+02  0.60418742601E+02  0.00000000000E+00 0.  1.
         11    1    3    3    0    0 -0.76338196408E+02 -0.43688336464E+02 -0.29768022947E+03  0.31040249676E+03  0.00000000000E+00 0. -1.
        -13    1    4    4    0    0  0.85900471589E+02  0.35756121622E+02 -0.43049380855E+03  0.44043422943E+03  0.00000000000E+00 0.  1.
         13    1    4    4    0    0  0.20478820572E+02 -0.41622296940E+02 -0.18497635712E+03  0.19070409117E+03  0.00000000000E+00 0. -1.
         21    1    1    2  502  501  0.19149433044E+01  0.24432122419E+02  0.94248319036E+01  0.26256867105E+02  0.00000000000E+00 0.  1.
<scales pt_clust_5="13000.00000" pt_clust_6="13000.00000" pt_clust_7="13000.00000" pt_clust_8="13000.00000" pt_clust_9="24.50705"></scales>
<clustering>
<clus scale="   24.507">  1  9  2 -1</clus>
<clus scale="   90.449">  7  8 -1 -1</clus>
<clus scale="   90.619">  5  6 -1 -1</clus>
<clus scale="  140.181">  2  7  1 -1</clus>
<clus scale="  140.181">  2  5  1 -1</clus>
</clustering>
</event>
<event>
 9    1  0.1434065E-005  0.9739008E+02  0.7546771E-02  0.1287232E+00
         -2   -1    0    0    0  501 -0.00000000000E+00  0.00000000000E+00  0.56998597677E+02  0.56998597677E+02  0.00000000000E+00 0.  1.
          2   -1    0    0  502    0  0.00000000000E+00 -0.00000000000E+00 -0.38619647654E+03  0.38619647654E+03  0.00000000000E+00 0. -1.
         23    2    1    2    0    0  0.11540849625E+02  0.59124283869E+02 -0.14873701486E+03  0.18484487881E+03  0.91739072802E+02 0.  0.
         23    2    1    2    0    0 -0.83252407997E+01 -0.15591875688E+02 -0.19266817930E+03  0.21302438324E+03  0.89140026461E+02 0.  0.
        -13    1    4    4    0    0  0.24351814913E+02  0.26428311882E+02 -0.58168278353E+02  0.68374082554E+02  0.00000000000E+00 0. -1.
         13    1    4    4    0    0 -0.32677055713E+02 -0.42020187570E+02 -0.13449990095E+03  0.14465030068E+03  0.00000000000E+00 0.  1.
        -13    1    3    3    0    0 -0.33946584761E+02  0.38625788085E+02 -0.39799583104E+02  0.65025602169E+02  0.00000000000E+00 0.  1.
         13    1    3    3    0    0  0.45487434386E+02  0.20498495784E+02 -0.10893743176E+03  0.11981927664E+03  0.00000000000E+00 0. -1.
         21    1    1    2  502  501 -0.32156088257E+01 -0.43532408182E+02  0.12207315298E+02  0.45325812171E+02  0.00000000000E+00 0.  1.
<scales pt_clust_5="13000.00000" pt_clust_6="13000.00000" pt_clust_7="13000.00000" pt_clust_8="13000.00000" pt_clust_9="43.65101"></scales>
<clustering>
<clus scale="   43.651">  1  9  2 -1</clus>
<clus scale="   89.140">  5  6 -1 -1</clus>
<clus scale="   91.739">  7  8 -1 -1</clus>
<clus scale="   94.946">  2  5  1 -1</clus>
<clus scale="   94.946">  2  5  1 -1</clus>
</clustering>
</event>
<event>
 9    1  0.1434065E-005  0.9527210E+02  0.7546771E-02  0.1291494E+00
         -2   -1    0    0    0  501 -0.00000000000E+00  0.00000000000E+00  0.19127018013E+02  0.19127018013E+02  0.00000000000E+00 0.  1.
          2   -1    0    0  502    0  0.00000000000E+00 -0.00000000000E+00 -0.74974707385E+03  0.74974707385E+03  0.00000000000E+00 0. -1.
         23    2    1    2    0    0 -0.17380639636E+01 -0.23010865426E+02 -0.17340470974E+03  0.19716296912E+03  0.90947909469E+02 0.  0.
         23    2    1    2    0    0  0.27847708948E+02  0.18137893164E+02 -0.49482607300E+03  0.50390344753E+03  0.89226475086E+02 0.  0.
        -11    1    3    3    0    0 -0.39716878991E+02  0.43384715897E+01 -0.43396732302E+02  0.58987534166E+02  0.00000000000E+00 0. -1.
         11    1    3    3    0    0  0.37978815027E+02 -0.27349337016E+02 -0.13000797744E+03  0.13817543495E+03  0.00000000000E+00 0.  1.
        -13    1    4    4    0    0  0.20670888558E+02  0.54427286599E+02 -0.30418813139E+03  0.30970959694E+03  0.00000000000E+00 0. -1.
         13    1    4    4    0    0  0.71768203905E+01 -0.36289393435E+02 -0.19063794161E+03  0.19419385059E+03  0.00000000000E+00 0.  1.
         21    1    1    2  502  501 -0.26109644985E+02  0.48729722620E+01 -0.62389273095E+02  0.67807675208E+02  0.00000000000E+00 0.  1.
<scales pt_clust_5="13000.00000" pt_clust_6="13000.00000" pt_clust_7="13000.00000" pt_clust_8="13000.00000" pt_clust_9="26.56049"></scales>
<clustering>
<clus scale="   26.560">  1  9  2 -1</clus>
<clus scale="   89.226">  7  8 -1 -1</clus>
<clus scale="   90.948">  5  6 -1 -1</clus>
<clus scale="   93.630">  2  7  1 -1</clus>
<clus scale="   93.630">  2  5  1 -1</clus>
</clustering>
</event>
<event>
 9    1  0.1434065E-005  0.1058133E+03  0.7546771E-02  0.1274052E+00
          1   -1    0    0  502    0  0.00000000000E+00  0.00000000000E+00  0.49239491977E+02  0.49239491977E+02  0.00000000000E+00 0. -1.
         -1   -1    0    0    0  501 -0.00000000000E+00 -0.00000000000E+00 -0.76129732621E+03  0.76129732621E+03  0.00000000000E+00 0.  1.
         23    2    1    2    0    0  0.44749614798E+02 -0.17432255481E+02 -0.52919653653E+03  0.53914229282E+03  0.91208695178E+02 0.  0.
         23    2    1    2    0    0 -0.18084781740E+02  0.16917326335E+02 -0.20998713670E+02  0.10734948709E+03  0.10232160643E+03 0.  0.
        -11    1    4    4    0    0 -0.17825572892E+02  0.54966936656E+02 -0.34112338498E+02  0.67102658756E+02  0.00000000000E+00 0. -1.
         11    1    4    4    0    0 -0.25920884770E+00 -0.38049610321E+02  0.13113624828E+02  0.40246828334E+02  0.00000000000E+00 0.  1.
        -11    1    3    3    0    0  0.56888343496E+02  0.22526377872E+02 -0.32779309884E+03  0.33345470003E+03  0.00000000000E+00 0. -1.
         11    1    3    3    0    0 -0.12138728699E+02 -0.39958633353E+02 -0.20140343769E+03  0.20568759279E+03  0.00000000000E+00 0.  1.
         21    1    1    2  502  501 -0.26664833057E+02  0.51492914672E+00 -0.16186258403E+03  0.16404503828E+03  0.00000000000E+00 0.  1.
<scales pt_clust_5="13000.00000" pt_clust_6="13000.00000" pt_clust_7="13000.00000" pt_clust_8="13000.00000" pt_clust_9="26.66980"></scales>
<clustering>
<clus scale="   26.670">  2  9  1 -1</clus>
<clus scale="   91.209">  7  8 -1 -1</clus>
<clus scale="   95.109">  2  7  1 -1</clus>
<clus scale="  102.322">  5  6 -1 -1</clus>
<clus scale="  105.813">  1  5  2 -1</clus>
</clustering>
</event>
<event>
 9    1  0.1434065E-005  0.1550494E+03  0.7546771E-02  0.1197587E+00
         -4   -1    0    0    0  501 -0.00000000000E+00  0.00000000000E+00  0.24741144643E+03  0.24741144643E+03  0.00000000000E+00 0.  1.
          4   -1    0    0  502    0  0.00000000000E+00 -0.00000000000E+00 -0.24992637379E+03  0.24992637379E+03  0.00000000000E+00 0. -1.
         23    2    1    2    0    0  0.11339381452E+03  0.74620434389E+00  0.17650119991E+03  0.23379550503E+03  0.10319375277E+03 0.  0.
         23    2    1    2    0    0 -0.12791283811E+03  0.20399099106E+02 -0.11247402669E+03  0.19222768096E+03  0.86736712241E+02 0.  0.
        -13    1    3    3    0    0 -0.61311083969E+00  0.32674286908E+02  0.56177779923E+02  0.64991752453E+02  0.00000000000E+00 0. -1.
         13    1    3    3    0    0  0.11400692536E+03 -0.31928082565E+02  0.12032341999E+03  0.16880375258E+03  0.00000000000E+00 0.  1.
        -13    1    4    4    0    0 -0.80507900614E+01 -0.22493285235E+02 -0.25406190423E+01  0.24025358403E+02  0.00000000000E+00 0.  1.
         13    1    4    4    0    0 -0.11986204805E+03  0.42892384341E+02 -0.10993340765E+03  0.16820232256E+03  0.00000000000E+00 0. -1.
         21    1    1    2  502  501  0.14519023591E+02 -0.21145303450E+02 -0.66542100581E+02  0.71314634219E+02  0.00000000000E+00 0. -1.
<scales pt_clust_5="13000.00000" pt_clust_6="13000.00000" pt_clust_7="13000.00000" pt_clust_8="13000.00000" pt_clust_9="25.65007"></scales>
<clustering>
<clus scale="   25.650">  2  9  1 -1</clus>
<clus scale="   86.737">  7  8 -1 -1</clus>
<clus scale="  103.194">  5  6 -1 -1</clus>
<clus scale="  144.619">  2  7  1 -1</clus>
<clus scale="   25.650">  2  5  1 -1</clus>
</clustering>
</event>
<event>
 9    1  0.1434065E-005  0.1070039E+03  0.7546771E-02  0.1266792E+00
          1   -1    0    0  502    0  0.00000000000E+00  0.00000000000E+00  0.18048235002E+03  0.18048235002E+03  0.00000000000E+00 0. -1.
         -1   -1    0    0    0  501 -0.00000000000E+00 -0.00000000000E+00 -0.10523188874E+03  0.10523188874E+03  0.00000000000E+00 0.  1.
         23    2    1    2    0    0  0.37869989302E+02  0.56052612057E+02 -0.14438834074E+02  0.11513343564E+03  0.92039103999E+02 0.  0.
         23    2    1    2    0    0 -0.45852471948E+02 -0.24054689933E+02  0.89629391253E+02  0.13760216401E+03  0.90663391022E+02 0.  0.
        -11    1    3    3    0    0  0.53822317928E+02  0.54112995925E+01  0.12612979866E+02  0.55544678697E+02  0.00000000000E+00 0.  1.
         11    1    3    3    0    0 -0.15952328626E+02  0.50641312465E+02 -0.27051813941E+02  0.59588756945E+02  0.00000000000E+00 0. -1.
        -13    1    4    4    0    0  0.11736495695E+02 -0.20179247704E+02 -0.75837599698E+01  0.24545076581E+02  0.00000000000E+00 0.  1.
         13    1    4    4    0    0 -0.57588967643E+02 -0.38754422289E+01  0.97213151223E+02  0.11305708743E+03  0.00000000000E+00 0. -1.
         21    1    1    2  502  501  0.79824826462E+01 -0.31997922125E+02  0.59904103710E-01  0.32978639117E+02  0.00000000000E+00 0.  1.
<scales pt_clust_5="13000.00000" pt_clust_6="13000.00000" pt_clust_7="13000.00000" pt_clust_8="13000.00000" pt_clust_9="32.97858"></scales>
<clustering>
<clus scale="   32.979">  2  9  1 -1</clus>
<clus scale="   90.663">  7  8 -1 -1</clus>
<clus scale="   92.039">  5  6 -1 -1</clus>
<clus scale="  105.823">  1  7  2 -1</clus>
<clus scale="  105.823">  1  5  2 -1</clus>
</clustering>
</event>
<event>
 9    1  0.1434065E-005  0.2108072E+03  0.7546771E-02  0.1140983E+00
         -1   -1    0    0    0  501 -0.00000000000E+00  0.00000000000E+00  0.44155933787E+03  0.44155933787E+03  0.00000000000E+00 0.  1.
          1   -1    0    0  502    0  0.00000000000E+00 -0.00000000000E+00 -0.17236055479E+03  0.17236055479E+03  0.00000000000E+00 0. -1.
         23    2    1    2    0    0 -0.28830813938E+02  0.16024556079E+03  0.20907080757E+03  0.28047694348E+03  0.91906787896E+02 0.  0.
         23    2    1    2    0    0 -0.28074885018E+02 -0.20084626092E+03 -0.23837185066E+02  0.22418717763E+03  0.92543284626E+02 0.  0.
        -11    1    4    4    0    0 -0.62209597907E+02 -0.12169557759E+03 -0.12433804579E+02  0.13723865043E+03  0.00000000000E+00 0.  1.
         11    1    4    4    0    0  0.34134712889E+02 -0.79150683330E+02 -0.11403380487E+02  0.86948527200E+02  0.00000000000E+00 0. -1.
        -11    1    3    3    0    0  0.86489353375E+01  0.13691649525E+03  0.12536247600E+03  0.18584047229E+03  0.00000000000E+00 0.  1.
         11    1    3    3    0    0 -0.37479749276E+02  0.23329065544E+02  0.83708331567E+02  0.94636471186E+02  0.00000000000E+00 0. -1.
         21    1    1    2  502  501  0.56905698956E+02  0.40600700124E+02  0.83965160587E+02  0.10925577155E+03  0.00000000000E+00 0.  1.
<scales pt_clust_5="13000.00000" pt_clust_6="13000.00000" pt_clust_7="13000.00000" pt_clust_8="13000.00000" pt_clust_9="69.90476"></scales>
<clustering>
<clus scale="   69.905">  1  9  2 -1</clus>
<clus scale="   91.907">  7  8 -1 -1</clus>
<clus scale="   92.543">  5  6 -1 -1</clus>
<clus scale="  210.529">  1  7  2 -1</clus>
<clus scale="  210.807">  2  5  1 -1</clus>
</clustering>
</event>
<event>
 9    1  0.1434065E-005  0.1006218E+03  0.7546771E-02  0.1303502E+00
         -1   -1    0    0    0  501 -0.00000000000E+00  0.00000000000E+00  0.22192028805E+03  0.22192028805E+03  0.00000000000E+00 0.  1.
          1   -1    0    0  502    0  0.00000000000E+00 -0.00000000000E+00 -0.53604931035E+02  0.53604931035E+02  0.00000000000E+00 0. -1.
         23    2    1    2    0    0  0.15544691299E+02 -0.33989957496E+01  0.64925477941E+02  0.88796813749E+02  0.58449686452E+02 0.  0.
         23    2    1    2    0    0 -0.48054113907E+02 -0.25889509045E+02  0.71875114446E+02  0.13280383338E+03  0.97423619011E+02 0.  0.
        -11    1    3    3    0    0  0.20044321835E+02  0.22848377755E+02  0.19410604983E+02  0.36063760060E+02  0.00000000000E+00 0. -1.
         11    1    3    3    0    0 -0.44996305363E+01 -0.26247373505E+02  0.45514872959E+02  0.52733053689E+02  0.00000000000E+00 0.  1.
        -13    1    4    4    0    0 -0.58598459855E+02  0.12646458948E+02  0.12497627619E+02  0.61236452522E+02  0.00000000000E+00 0. -1.
         13    1    4    4    0    0  0.10544345948E+02 -0.38535967993E+02  0.59377486827E+02  0.71567380856E+02  0.00000000000E+00 0.  1.
         21    1    1    2  502  501  0.32509422609E+02  0.29288504795E+02  0.31514764628E+02  0.53924571960E+02  0.00000000000E+00 0.  1.
<scales pt_clust_5="13000.00000" pt_clust_6="13000.00000" pt_clust_7="13000.00000" pt_clust_8="13000.00000" pt_clust_9="43.75705"></scales>
<clustering>
<clus scale="   43.757">  2  9  1 -1</clus>
<clus scale="   58.450">  5  6 -1 -1</clus>
<clus scale="   63.638">  1  5  2 -1</clus>
<clus scale="   97.424">  7  8 -1 -1</clus>
<clus scale="   43.757">  2  5  1 -1</clus>
</clustering>
</event>
<event>
 9    1  0.1434065E-005  0.9713814E+02  0.7546771E-02  0.1287957E+00
          2   -1    0    0  502    0  0.00000000000E+00  0.00000000000E+00  0.25463603677E+03  0.25463603677E+03  0.00000000000E+00 0. -1.
         -2   -1    0    0    0  501 -0.00000000000E+00 -0.00000000000E+00 -0.10578857411E+03  0.10578857411E+03  0.00000000000E+00 0.  1.
         23    2    1    2    0    0 -0.41558274346E+02 -0.61697606302E+02  0.25254951903E+02  0.11945272478E+03  0.89985865959E+02 0.  0.
         23    2    1    2    0    0  0.17541710794E+02  0.34578279771E+01  0.14613251351E+03  0.17406359940E+03  0.92864185449E+02 0.  0.
        -13    1    3    3    0    0 -0.54621948183E+02 -0.10371462562E+02 -0.90799371954E+01  0.56334445222E+02  0.00000000000E+00 0.  1.
         13    1    3    3    0    0  0.13063673837E+02 -0.51326143740E+02  0.34334889098E+02  0.63118279561E+02  0.00000000000E+00 0. -1.
        -13    1    4    4    0    0  0.28844125783E+02 -0.30568729491E+02  0.12625700274E+03  0.13306863476E+03  0.00000000000E+00 0. -1.
         13    1    4    4    0    0 -0.11302414989E+02  0.34026557468E+02  0.19875510770E+02  0.40994964643E+02  0.00000000000E+00 0.  1.
         21    1    1    2  502  501  0.24016563552E+02  0.58239778325E+02 -0.22540002751E+02  0.66908286693E+02  0.00000000000E+00 0. -1.
<scales pt_clust_5="13000.00000" pt_clust_6="13000.00000" pt_clust_7="13000.00000" pt_clust_8="13000.00000" pt_clust_9="62.99736"></scales>
<clustering>
<clus scale="   62.997">  2  9  1 -1</clus>
<clus scale="   89.986">  5  6 -1 -1</clus>
<clus scale="   92.864">  7  8 -1 -1</clus>
<clus scale="   94.390">  2  5  1 -1</clus>
<clus scale="   97.138">  1  5  2 -1</clus>
</clustering>
</event>
<event>
 9    1  0.1434065E-005  0.1066629E+03  0.7546771E-02  0.1267559E+00
          2   -1    0    0  502    0  0.00000000000E+00  0.00000000000E+00  0.25786523778E+03  0.25786523778E+03  0.00000000000E+00 0. -1.
         -2   -1    0    0    0  501 -0.00000000000E+00 -0.00000000000E+00 -0.10339355879E+03  0.10339355879E+03  0.00000000000E+00 0.  1.
         23    2    1    2    0    0 -0.14788762478E+02  0.40361999965E+02  0.39606012613E+02  0.10765788599E+03  0.90408990949E+02 0.  0.
         23    2    1    2    0    0  0.22226815414E+02 -0.59057219306E+02  0.16606781346E+03  0.19858731478E+03  0.88750303921E+02 0.  0.
        -11    1    4    4    0    0  0.42210953380E+02 -0.60315090486E+02  0.74056514093E+02  0.10442242099E+03  0.00000000000E+00 0. -1.
         11    1    4    4    0    0 -0.19984137966E+02  0.12578711809E+01  0.92011299371E+02  0.94164893788E+02  0.00000000000E+00 0.  1.
        -13    1    3    3    0    0 -0.29367614848E+02 -0.21527317825E+02  0.11984863639E+02  0.38334308015E+02  0.00000000000E+00 0. -1.
         13    1    3    3    0    0  0.14578852369E+02  0.61889317790E+02  0.27621148974E+02  0.69323577977E+02  0.00000000000E+00 0.  1.
         21    1    1    2  502  501 -0.74380529355E+01  0.18695219340E+02 -0.51202147082E+02  0.55013595805E+02  0.00000000000E+00 0.  1.
<scales pt_clust_5="13000.00000" pt_clust_6="13000.00000" pt_clust_7="13000.00000" pt_clust_8="13000.00000" pt_clust_9="20.12053"></scales>
<clustering>
<clus scale="   20.121">  2  9  1 -1</clus>
<clus scale="   88.750">  5  6 -1 -1</clus>
<clus scale="   90.409">  7  8 -1 -1</clus>
<clus scale="  105.261">  1  5  2 -1</clus>
<clus scale="  105.261">  1  5  2 -1</clus>
</clustering>
</event>
<event>
 9    1  0.1434065E-005  0.1178177E+03  0.7546771E-02  0.1247485E+00
          2   -1    0    0  502    0  0.00000000000E+00  0.00000000000E+00  0.72925235434E+03  0.72925235434E+03  0.00000000000E+00 0. -1.
         -2   -1    0    0    0  501 -0.00000000000E+00 -0.00000000000E+00 -0.10188565592E+03  0.10188565592E+03  0.00000000000E+00 0.  1.
         23    2    1    2    0    0 -0.56423981921E+02 -0.29542512123E+02 -0.28956922373E+02  0.11514940632E+03  0.91457403545E+02 0.  0.
         23    2    1    2    0    0  0.71234710889E+02  0.11996978569E+02  0.67568134660E+03  0.68595653794E+03  0.93663110484E+02 0.  0.
        -13    1    3    3    0    0 -0.32980485313E+02  0.72461838188E+00  0.30173918684E+02  0.44706854642E+02  0.00000000000E+00 0. -1.
         13    1    3    3    0    0 -0.23443496608E+02 -0.30267130505E+02 -0.59130841057E+02  0.70442551674E+02  0.00000000000E+00 0.  1.
        -13    1    4    4    0    0  0.12718919500E+02  0.47939238278E+02  0.28846211981E+03  0.29269495391E+03  0.00000000000E+00 0.  1.
         13    1    4    4    0    0  0.58515791388E+02 -0.35942259709E+02  0.38721922679E+03  0.39326158403E+03  0.00000000000E+00 0. -1.
         21    1    1    2  502  501 -0.14810728967E+02  0.17545533554E+02 -0.19357725807E+02  0.30032066007E+02  0.00000000000E+00 0.  1.
<scales pt_clust_5="13000.00000" pt_clust_6="13000.00000" pt_clust_7="13000.00000" pt_clust_8="13000.00000" pt_clust_9="22.96091"></scales>
<clustering>
<clus scale="   22.961">  2  9  1 -1</clus>
<clus scale="   91.457">  5  6 -1 -1</clus>
<clus scale="   93.663">  7  8 -1 -1</clus>
<clus scale="  116.072">  2  5  1 -1</clus>
<clus scale="  117.818">  1  5  2 -1</clus>
</clustering>
</event>
<event>
 9    1  0.1434065E-005  0.1351693E+03  0.7546771E-02  0.1220085E+00
          3   -1    0    0  502    0  0.00000000000E+00  0.00000000000E+00  0.22556881093E+03  0.22556881093E+03  0.00000000000E+00 0. -1.
         -3   -1    0    0    0  501 -0.00000000000E+00 -0.00000000000E+00 -0.17954574472E+03  0.17954574472E+03  0.00000000000E+00 0.  1.
         23    2    1    2    0    0  0.23459542430E+02 -0.90793011725E+02 -0.94229304393E+02  0.16224338095E+03  0.93005546865E+02 0.  0.
         23    2    1    2    0    0  0.52925623945E+01  0.99521642243E+02  0.15759336058E+03  0.20817848879E+03  0.92574550508E+02 0.  0.
        -13    1    3    3    0    0  0.88225119410E+01 -0.29960846461E+02 -0.94653796373E+02  0.99673618402E+02  0.00000000000E+00 0.  1.
         13    1    3    3    0    0  0.14637030489E+02 -0.60832165264E+02  0.42449198008E+00  0.62569762551E+02  0.00000000000E+00 0. -1.
        -13    1    4    4    0    0 -0.40118351141E+02  0.71628747809E+02  0.10520550251E+03  0.13344795753E+03  0.00000000000E+00 0. -1.
         13    1    4    4    0    0  0.45410913536E+02  0.27892894434E+02  0.52387858076E+02  0.74730531256E+02  0.00000000000E+00 0.  1.
         21    1    1    2  502  501 -0.28752104825E+02 -0.87286305178E+01 -0.17340989983E+02  0.34692685917E+02  0.00000000000E+00 0.  1.
<scales pt_clust_5="13000.00000" pt_clust_6="13000.00000" pt_clust_7="13000.00000" pt_clust_8="13000.00000" pt_clust_9="30.04784"></scales>
<clustering>
<clus scale="   30.048">  2  9  1 -1</clus>
<clus scale="   92.575">  7  8 -1 -1</clus>
<clus scale="   93.006">  5  6 -1 -1</clus>
<clus scale="  134.873">  1  7  2 -1</clus>
<clus scale="  134.873">  1  5  2 -1</clus>
</clustering>
</event>
<event>
 9    1  0.1434065E-005  0.1983598E+03  0.7546771E-02  0.1152123E+00
          2   -1    0    0  502    0  0.00000000000E+00  0.00000000000E+00  0.86014165683E+03  0.86014165683E+03  0.00000000000E+00 0. -1.
         -2   -1    0    0    0  501 -0.00000000000E+00 -0.00000000000E+00 -0.62799703319E+02  0.62799703319E+02  0.00000000000E+00 0.  1.
         23    2    1    2    0    0 -0.14532665616E+03 -0.58200049412E+02  0.18402236809E+03  0.25718555829E+03  0.88165167120E+02 0.  0.
         23    2    1    2    0    0  0.17251377239E+03  0.51961518278E+02  0.60145855276E+03  0.63544503388E+03  0.97862144644E+02 0.  0.
        -13    1    4    4    0    0  0.10241726991E+03  0.57299330433E+02  0.23931309642E+03  0.26653943153E+03  0.00000000000E+00 0.  1.
         13    1    4    4    0    0  0.70096502478E+02 -0.53378121552E+01  0.36214545634E+03  0.36890560235E+03  0.00000000000E+00 0. -1.
        -13    1    3    3    0    0 -0.10383531879E+03 -0.81344576784E+02  0.12915189159E+03  0.18460477973E+03  0.00000000000E+00 0.  1.
         13    1    3    3    0    0 -0.41491337372E+02  0.23144527372E+02  0.54870476503E+02  0.72580778557E+02  0.00000000000E+00 0. -1.
         21    1    1    2  502  501 -0.27187116225E+02  0.62385311337E+01  0.11861032661E+02  0.30310767973E+02  0.00000000000E+00 0. -1.
<scales pt_clust_5="13000.00000" pt_clust_6="13000.00000" pt_clust_7="13000.00000" pt_clust_8="13000.00000" pt_clust_9="27.89370"></scales>
<clustering>
<clus scale="   27.894">  2  9  1 -1</clus>
<clus scale="   88.165">  7  8 -1 -1</clus>
<clus scale="   97.862">  5  6 -1 -1</clus>
<clus scale="  193.759">  2  7  1 -1</clus>
<clus scale="  198.360">  1  5  2 -1</clus>
</clustering>
</event>
<event>
 9    1  0.1434065E-005  0.1973541E+03  0.7546771E-02  0.1152273E+00
          1   -1    0    0  502    0  0.00000000000E+00  0.00000000000E+00  0.11144507554E+03  0.11144507554E+03  0.00000000000E+00 0. -1.
         -1   -1    0    0    0  501 -0.00000000000E+00 -0.00000000000E+00 -0.73132104347E+03  0.73132104347E+03  0.00000000000E+00 0.  1.
         23    2    1    2    0    0  0.15719210426E+02  0.15265570283E+03 -0.37856110784E+03  0.41897016239E+03  0.93148416095E+02 0.  0.
         23    2    1    2    0    0  0.35837838894E+02 -0.17812012136E+03 -0.30387689243E+02  0.20517107847E+03  0.90336213398E+02 0.  0.
        -11    1    3    3    0    0 -0.33989256250E+02  0.78776592170E+02 -0.13843856835E+03  0.16286883748E+03  0.00000000000E+00 0. -1.
         11    1    3    3    0    0  0.49708466676E+02  0.73879110663E+02 -0.24012253949E+03  0.25610132491E+03  0.00000000000E+00 0.  1.
        -13    1    4    4    0    0 -0.24265682162E+02 -0.25788098021E+02 -0.20940822750E+02  0.41138393111E+02  0.00000000000E+00 0.  1.
         13    1    4    4    0    0  0.60103521056E+02 -0.15233202334E+03 -0.94468664927E+01  0.16403268535E+03  0.00000000000E+00 0. -1.
         21    1    1    2  502  501 -0.51557049320E+02  0.25464418528E+02 -0.21092717084E+03  0.21862487815E+03  0.00000000000E+00 0. -1.
<scales pt_clust_5="13000.00000" pt_clust_6="13000.00000" pt_clust_7="13000.00000" pt_clust_8="13000.00000" pt_clust_9="57.50275"></scales>
<clustering>
<clus scale="   57.503">  2  9  1 -1</clus>
<clus scale="   90.336">  7  8 -1 -1</clus>
<clus scale="   93.148">  5  6 -1 -1</clus>
<clus scale="  196.042">  1  7  2 -1</clus>
<clus scale="  196.042">  1  5  2 -1</clus>
</clustering>
</event>
<event>
 9    1  0.1434065E-005  0.1222327E+03  0.7546771E-02  0.1240767E+00
         -1   -1    0    0    0  501 -0.00000000000E+00  0.00000000000E+00  0.13079156206E+03  0.13079156206E+03  0.00000000000E+00 0.  1.
          1   -1    0    0  502    0  0.00000000000E+00 -0.00000000000E+00 -0.50489852479E+03  0.50489852479E+03  0.00000000000E+00 0. -1.
         23    2    1    2    0    0 -0.54245701436E+01  0.62197454376E+02  0.63192278436E+02  0.12426943134E+03  0.86900392518E+02 0.  0.
         23    2    1    2    0    0 -0.46969691943E+01 -0.82890457579E+02 -0.46168105079E+03  0.47787786820E+03  0.91241299756E+02 0.  0.
        -13    1    4    4    0    0  0.31788273541E+02 -0.63784194554E+02 -0.37742656625E+03  0.38409599154E+03  0.00000000000E+00 0. -1.
         13    1    4    4    0    0 -0.36485242735E+02 -0.19106263025E+02 -0.84254484543E+02  0.93781876660E+02  0.00000000000E+00 0.  1.
        -13    1    3    3    0    0 -0.35704336033E+02 -0.20288624590E+01  0.17327740024E+02  0.39738727569E+02  0.00000000000E+00 0. -1.
         13    1    3    3    0    0  0.30279765889E+02  0.64226316834E+02  0.45864538412E+02  0.84530703772E+02  0.00000000000E+00 0.  1.
         21    1    1    2  502  501  0.10121539338E+02  0.20693003204E+02  0.24381809623E+02  0.33542787311E+02  0.00000000000E+00 0. -1.
<scales pt_clust_5="13000.00000" pt_clust_6="13000.00000" pt_clust_7="13000.00000" pt_clust_8="13000.00000" pt_clust_9="23.03575"></scales>
<clustering>
<clus scale="   23.036">  1  9  2 -1</clus>
<clus scale="   86.900">  7  8 -1 -1</clus>
<clus scale="   91.241">  5  6 -1 -1</clus>
<clus scale="  119.027">  1  7  2 -1</clus>
<clus scale="  122.233">  2  5  1 -1</clus>
</clustering>
</event>
<event>
 9    1  0.1434065E-005  0.9691013E+02  0.7546771E-02  0.1287928E+00
          1   -1    0    0  502    0  0.00000000000E+00  0.00000000000E+00  0.38541825380E+03  0.38541825380E+03  0.00000000000E+00 0. -1.
         -1   -1    0    0    0  501 -0.00000000000E+00 -0.00000000000E+00 -0.81352758283E+02  0.81352758283E+02  0.00000000000E+00 0.  1.
         23    2    1    2    0    0  0.30149960402E+02  0.19548729670E+02  0.59460671815E+02  0.11304877605E+03  0.89181171391E+02 0.  0.
         23    2    1    2    0    0  0.41885834688E+02 -0.34463468497E+02  0.25912505743E+03  0.27873928865E+03  0.87221796836E+02 0.  0.
        -11    1    3    3    0    0 -0.15637507819E+02  0.25887235145E+02 -0.79880505130E+01  0.31280817528E+02  0.00000000000E+00 0.  1.
         11    1    3    3    0    0  0.45787468221E+02 -0.63385054747E+01  0.67448722328E+02  0.81767958526E+02  0.00000000000E+00 0. -1.
        -13    1    4    4    0    0 -0.22519449134E+02  0.79599118146E+01  0.41894102313E+02  0.48224491641E+02  0.00000000000E+00 0.  1.
         13    1    4    4    0    0  0.64405283823E+02 -0.42423380312E+02  0.21723095512E+03  0.23051479701E+03  0.00000000000E+00 0. -1.
         21    1    1    2  502  501 -0.72035795090E+02  0.14914738827E+02 -0.14520233732E+02  0.74982947369E+02  0.00000000000E+00 0.  1.
<scales pt_clust_5="13000.00000" pt_clust_6="13000.00000" pt_clust_7="13000.00000" pt_clust_8="13000.00000" pt_clust_9="73.56361"></scales>
<clustering>
<clus scale="   73.564">  2  9  1 -1</clus>
<clus scale="   87.222">  7  8 -1 -1</clus>
<clus scale="   89.181">  5  6 -1 -1</clus>
<clus scale="   95.110">  1  7  2 -1</clus>
<clus scale="   95.110">  1  5  2 -1</clus>
</clustering>
</event>
<event>
 9    1  0.1434065E-005  0.1353447E+03  0.7546771E-02  0.1237650E+00
         -2   -1    0    0    0  501 -0.00000000000E+00  0.00000000000E+00  0.28250149390E+03  0.28250149390E+03  0.00000000000E+00 0.  1.
          2   -1    0    0  502    0  0.00000000000E+00 -0.00000000000E+00 -0.12857349473E+03  0.12857349473E+03  0.00000000000E+00 0. -1.
         23    2    1    2    0    0  0.13963835704E+02 -0.10793852845E+02  0.63688672835E+02  0.11305969622E+03  0.91731956779E+02 0.  0.
         23    2    1    2    0    0  0.54702199665E+02  0.84581193507E+02 -0.32291762724E+02  0.13935381681E+03  0.90721658810E+02 0.  0.
        -11    1    3    3    0    0  0.24905533954E+01 -0.50505698092E+02  0.24862418565E+02  0.56348631331E+02  0.00000000000E+00 0.  1.
         11    1    3    3    0    0  0.11473282309E+02  0.39711845248E+02  0.38826254270E+02  0.56711064886E+02  0.00000000000E+00 0. -1.
        -13    1    4    4    0    0  0.14272007237E+02  0.67258480871E+02  0.19439158515E+02  0.71451202393E+02  0.00000000000E+00 0.  1.
         13    1    4    4    0    0  0.40430192428E+02  0.17322712636E+02 -0.51730921239E+02  0.67902614420E+02  0.00000000000E+00 0. -1.
         21    1    1    2  502  501 -0.68666035369E+02 -0.73787340662E+02  0.12253108905E+03  0.15866147560E+03  0.00000000000E+00 0.  1.
<scales pt_clust_5="13000.00000" pt_clust_6="13000.00000" pt_clust_7="13000.00000" pt_clust_8="13000.00000" pt_clust_9="100.43786"></scales>
<clustering>
<clus scale="   90.722">  7  8 -1 -1</clus>
<clus scale="   91.732">  5  6 -1 -1</clus>
<clus scale="   93.414">  1  5  2 -1</clus>
<clus scale="  100.438">  1  9  2 -1</clus>
<clus scale="  135.345">  2  5  1 -1</clus>
</clustering>
</event>
<event>
 9    1  0.1434065E-005  0.1592113E+03  0.7546771E-02  0.1189978E+00
         -2   -1    0    0    0  501 -0.00000000000E+00  0.00000000000E+00  0.10472384592E+03  0.10472384592E+03  0.00000000000E+00 0.  1.
          2   -1    0    0  502    0  0.00000000000E+00 -0.00000000000E+00 -0.70479332218E+03  0.70479332218E+03  0.00000000000E+00 0. -1.
         23    2    1    2    0    0  0.94443780726E+02  0.60997664081E+02 -0.19971391981E+03  0.24650869498E+03  0.90777443197E+02 0.  0.
         23    2    1    2    0    0 -0.10767644197E+03 -0.89544662168E+02 -0.46316785514E+03  0.49275593374E+03  0.93120811411E+02 0.  0.
        -11    1    3    3    0    0  0.33888392894E+02  0.75000376643E+02 -0.11691326008E+03  0.14297618701E+03  0.00000000000E+00 0. -1.
         11    1    3    3    0    0  0.60555387832E+02 -0.14002712562E+02 -0.82800659721E+02  0.10353250796E+03  0.00000000000E+00 0.  1.
        -11    1    4    4    0    0 -0.55212622330E+02 -0.80542870792E+01 -0.28022911091E+03  0.28573004709E+03  0.00000000000E+00 0. -1.
         11    1    4    4    0    0 -0.52463819641E+02 -0.81490375089E+02 -0.18293874423E+03  0.20702588665E+03  0.00000000000E+00 0.  1.
         21    1    1    2  502  501  0.13232661245E+02  0.28546998086E+02  0.62812298690E+02  0.70252539385E+02  0.00000000000E+00 0.  1.
<scales pt_clust_5="13000.00000" pt_clust_6="13000.00000" pt_clust_7="13000.00000" pt_clust_8="13000.00000" pt_clust_9="31.46481"></scales>
<clustering>
<clus scale="   31.465">  1  9  2 -1</clus>
<clus scale="   90.777">  5  6 -1 -1</clus>
<clus scale="   93.121">  7  8 -1 -1</clus>
<clus scale="  157.852">  1  5  2 -1</clus>
<clus scale="  159.211">  2  5  1 -1</clus>
</clustering>
</event>
<event>
 9    1  0.1434065E-005  0.1770835E+03  0.7546771E-02  0.1196529E+00
          1   -1    0    0  502    0  0.00000000000E+00  0.00000000000E+00  0.31315605958E+03  0.31315605958E+03  0.00000000000E+00 0. -1.
         -1   -1    0    0    0  501 -0.00000000000E+00 -0.00000000000E+00 -0.32110328528E+03  0.32110328528E+03  0.00000000000E+00 0.  1.
         23    2    1    2    0    0  0.12609105849E+03  0.11557522970E+03 -0.16743929286E+03  0.25600991985E+03  0.90821657756E+02 0.  0.
         23    2    1    2    0    0 -0.21185941551E+02 -0.33886643838E+02  0.21292226894E+03  0.23495638581E+03  0.90947577619E+02 0.  0.
        -11    1    4    4    0    0 -0.12633815508E+02  0.28239664661E+02  0.11149453076E+03  0.11570705399E+03  0.00000000000E+00 0.  1.
         11    1    4    4    0    0 -0.85521260437E+01 -0.62126308499E+02  0.10142773818E+03  0.11924933182E+03  0.00000000000E+00 0. -1.
        -11    1    3    3    0    0  0.51093629077E+02  0.10645408782E+03 -0.99838290555E+02  0.15463090249E+03  0.00000000000E+00 0.  1.
         11    1    3    3    0    0  0.74997429410E+02  0.91211418828E+01 -0.67601002304E+02  0.10137901736E+03  0.00000000000E+00 0. -1.
         21    1    1    2  502  501 -0.10490511694E+03 -0.81688585862E+02 -0.53430201777E+02  0.14329303919E+03  0.00000000000E+00 0. -1.
<scales pt_clust_5="13000.00000" pt_clust_6="13000.00000" pt_clust_7="13000.00000" pt_clust_8="13000.00000" pt_clust_9="152.01976"></scales>
<clustering>
<clus scale="   90.822">  7  8 -1 -1</clus>
<clus scale="   90.948">  5  6 -1 -1</clus>
<clus scale="   99.341">  1  5  2 -1</clus>
<clus scale="  152.020">  1  9  2 -1</clus>
<clus scale="   99.341">  1  5  2 -1</clus>
</clustering>
</event>
<event>
 9    1  0.1434065E-005  0.9679583E+02  0.7546771E-02  0.1287244E+00
          1   -1    0    0  502    0  0.00000000000E+00  0.00000000000E+00  0.28834272384E+03  0.28834272384E+03  0.00000000000E+00 0. -1.
         -1   -1    0    0    0  501 -0.00000000000E+00 -0.00000000000E+00 -0.11742442535E+03  0.11742442535E+03  0.00000000000E+00 0.  1.
         23    2    1    2    0    0 -0.76919911620E+02 -0.24748937720E+01 -0.48190088461E+02  0.12900538697E+03  0.91636823049E+02 0.  0.
         23    2    1    2    0    0  0.25239266877E+02 -0.27148084354E+00  0.20019073428E+03  0.22165904725E+03  0.91756791805E+02 0.  0.
        -11    1    3    3    0    0 -0.45027772699E+02  0.23457293365E+02 -0.66783156828E+02  0.83891209087E+02  0.00000000000E+00 0.  1.
         11    1    3    3    0    0 -0.31892138921E+02 -0.25932187137E+02  0.18593068367E+02  0.45114177882E+02  0.00000000000E+00 0. -1.
        -13    1    4    4    0    0 -0.51834024055E+00  0.41089096600E+02  0.56007695540E+02  0.69465419424E+02  0.00000000000E+00 0.  1.
         13    1    4    4    0    0  0.25757607118E+02 -0.41360577444E+02  0.14418303874E+03  0.15219362783E+03  0.00000000000E+00 0. -1.
         21    1    1    2  502  501  0.51680644743E+02  0.27463746156E+01  0.18917652665E+02  0.55102714969E+02  0.00000000000E+00 0.  1.
<scales pt_clust_5="13000.00000" pt_clust_6="13000.00000" pt_clust_7="13000.00000" pt_clust_8="13000.00000" pt_clust_9="51.75357"></scales>
<clustering>
<clus scale="   51.754">  2  9  1 -1</clus>
<clus scale="   91.637">  5  6 -1 -1</clus>
<clus scale="   91.757">  7  8 -1 -1</clus>
<clus scale="   96.682">  2  5  1 -1</clus>
<clus scale="   96.796">  1  5  2 -1</clus>
</clustering>
</event>
<event>
 9    1  0.1434065E-005  0.1744148E+03  0.7546771E-02  0.1173384E+00
         -2   -1    0    0    0  501 -0.00000000000E+00  0.00000000000E+00  0.22494936898E+03  0.22494936898E+03  0.00000000000E+00 0.  1.
          2   -1    0    0  502    0  0.00000000000E+00 -0.00000000000E+00 -0.41917519117E+03  0.41917519117E+03  0.00000000000E+00 0. -1.
         23    2    1    2    0    0 -0.13589682944E+03 -0.46895743999E+02  0.87493581508E+02  0.19156886215E+03  0.91522363832E+02 0.  0.
         23    2    1    2    0    0  0.13232162267E+03  0.68593228671E+02 -0.34426378497E+03  0.38625816733E+03  0.91998779038E+02 0.  0.
        -11    1    3    3    0    0 -0.99083606963E+02 -0.64874896628E+02  0.92527253170E+02  0.15029173617E+03  0.00000000000E+00 0.  1.
         11    1    3    3    0    0 -0.36813222482E+02  0.17979152629E+02 -0.50336716622E+01  0.41277125980E+02  0.00000000000E+00 0. -1.
        -11    1    4    4    0    0  0.17428266808E+02  0.40874524523E+02 -0.39778287610E+02  0.59638774334E+02  0.00000000000E+00 0.  1.
         11    1    4    4    0    0  0.11489335586E+03  0.27718704148E+02 -0.30448549736E+03  0.32661939299E+03  0.00000000000E+00 0. -1.
         21    1    1    2  502  501  0.35752067792E+01 -0.21697484672E+02  0.62544381265E+02  0.66297530667E+02  0.00000000000E+00 0.  1.
<scales pt_clust_5="13000.00000" pt_clust_6="13000.00000" pt_clust_7="13000.00000" pt_clust_8="13000.00000" pt_clust_9="21.99006"></scales>
<clustering>
<clus scale="   21.990">  1  9  2 -1</clus>
<clus scale="   91.522">  5  6 -1 -1</clus>
<clus scale="   91.999">  7  8 -1 -1</clus>
<clus scale="  174.164">  1  5  2 -1</clus>
<clus scale="  174.415">  2  5  1 -1</clus>
</clustering>
</event>
<event>
 9    1  0.1434065E-005  0.9743831E+02  0.7546771E-02  0.1286875E+00
         -2   -1    0    0    0  501 -0.00000000000E+00  0.00000000000E+00  0.29138188545E+02  0.29138188545E+02  0.00000000000E+00 0.  1.
          2   -1    0    0  502    0  0.00000000000E+00 -0.00000000000E+00 -0.69422403088E+03  0.69422403088E+03  0.00000000000E+00 0. -1.
         23    2    1    2    0    0 -0.12139233460E+01  0.11444611271E+02 -0.11555783639E+03  0.14811660355E+03  0.91937271866E+02 0.  0.
         23    2    1    2    0    0  0.30155953235E+02  0.34304684026E+02 -0.45758950457E+03  0.46855293970E+03  0.89819317237E+02 0.  0.
        -11    1    4    4    0    0 -0.23336304905E+02  0.37528661789E+02 -0.15174907992E+03  0.15805305071E+03  0.00000000000E+00 0.  1.
         11    1    4    4    0    0  0.53492258140E+02 -0.32239777635E+01 -0.30584042465E+03  0.31049988899E+03  0.00000000000E+00 0. -1.
        -11    1    3    3    0    0 -0.35499485317E+02 -0.23765425682E+02 -0.63430692714E+02  0.76475235821E+02  0.00000000000E+00 0.  1.
         11    1    3    3    0    0  0.34285561971E+02  0.35210036953E+02 -0.52127143677E+02  0.71641367727E+02  0.00000000000E+00 0. -1.
         21    1    1    2  502  501 -0.28942029889E+02 -0.45749295297E+02 -0.91938501369E+02  0.10669267617E+03  0.00000000000E+00 0.  1.
<scales pt_clust_5="13000.00000" pt_clust_6="13000.00000" pt_clust_7="13000.00000" pt_clust_8="13000.00000" pt_clust_9="54.13538"></scales>
<clustering>
<clus scale="   54.135">  1  9  2 -1</clus>
<clus scale="   89.819">  5  6 -1 -1</clus>
<clus scale="   91.937">  7  8 -1 -1</clus>
<clus scale="   95.443">  2  5  1 -1</clus>
<clus scale="   95.443">  2  5  1 -1</clus>
</clustering>
</event>
<event>
 9    1  0.1434065E-005  0.1095881E+03  0.7546771E-02  0.1261438E+00
         -1   -1    0    0    0  501 -0.00000000000E+00  0.00000000000E+00  0.19215323835E+03  0.19215323835E+03  0.00000000000E+00 0.  1.
          1   -1    0    0  502    0  0.00000000000E+00 -0.00000000000E+00 -0.29392243385E+03  0.29392243385E+03  0.00000000000E+00 0. -1.
         23    2    1    2    0    0 -0.11240295465E+02 -0.70116207657E+02 -0.89751008126E+02  0.14629070263E+03  0.91121344366E+02 0.  0.
         23    2    1    2    0    0  0.38496714480E+02  0.44225215977E+02 -0.15665073418E+03  0.19034658955E+03  0.90854305777E+02 0.  0.
        -11    1    3    3    0    0 -0.34335929779E+02  0.25263408556E+01 -0.97348637162E+01  0.35778569612E+02  0.00000000000E+00 0.  1.
         11    1    3    3    0    0  0.23095634314E+02 -0.72642548513E+02 -0.80016144410E+02  0.11051213302E+03  0.00000000000E+00 0. -1.
        -13    1    4    4    0    0 -0.25712018944E+02  0.14971991223E+02 -0.83811803703E+02  0.88936420433E+02  0.00000000000E+00 0.  1.
         13    1    4    4    0    0  0.64208733424E+02  0.29253224754E+02 -0.72838930480E+02  0.10141016911E+03  0.00000000000E+00 0. -1.
         21    1    1    2  502  501 -0.27256419015E+02  0.25890991680E+02  0.14463254681E+03  0.14943838002E+03  0.00000000000E+00 0.  1.
<scales pt_clust_5="13000.00000" pt_clust_6="13000.00000" pt_clust_7="13000.00000" pt_clust_8="13000.00000" pt_clust_9="37.59329"></scales>
<clustering>
<clus scale="   37.593">  1  9  2 -1</clus>
<clus scale="   90.854">  7  8 -1 -1</clus>
<clus scale="   91.121">  5  6 -1 -1</clus>
<clus scale="  109.366">  2  7  1 -1</clus>
<clus scale="  109.366">  2  5  1 -1</clus>
</clustering>
</event>
<event>
 9    1  0.1434065E-005  0.9816768E+02  0.7546771E-02  0.1284546E+00
          2   -1    0    0  502    0  0.00000000000E+00  0.00000000000E+00  0.18696946874E+03  0.18696946874E+03  0.00000000000E+00 0. -1.
         -2   -1    0    0    0  501 -0.00000000000E+00 -0.00000000000E+00 -0.77472037282E+02  0.77472037282E+02  0.00000000000E+00 0.  1.
         23    2    1    2    0    0 -0.14565719786E+02  0.10259965694E+02 -0.22753246017E+00  0.93798865666E+02  0.92090978604E+02 0.  0.
         23    2    1    2    0    0  0.39674029741E+02 -0.11438758200E+02  0.10474241108E+03  0.14501760156E+03  0.91401631592E+02 0.  0.
        -13    1    4    4    0    0  0.69506513133E+02 -0.65205632898E+01  0.77671462292E+02  0.10443432945E+03  0.00000000000E+00 0. -1.
         13    1    4    4    0    0 -0.29832483392E+02 -0.49181949105E+01  0.27070948785E+02  0.40583272104E+02  0.00000000000E+00 0.  1.
        -13    1    3    3    0    0  0.19622447927E+02 -0.28671672012E+02 -0.17864383987E+02  0.39067140334E+02  0.00000000000E+00 0. -1.
         13    1    3    3    0    0 -0.34188167713E+02  0.38931637706E+02  0.17636851526E+02  0.54731725332E+02  0.00000000000E+00 0.  1.
         21    1    1    2  502  501 -0.25108309955E+02  0.11787925064E+01  0.49825528392E+01  0.25625038797E+02  0.00000000000E+00 0. -1.
<scales pt_clust_5="13000.00000" pt_clust_6="13000.00000" pt_clust_7="13000.00000" pt_clust_8="13000.00000" pt_clust_9="25.13597"></scales>
<clustering>
<clus scale="   25.136">  2  9  1 -1</clus>
<clus scale="   91.402">  5  6 -1 -1</clus>
<clus scale="   92.091">  7  8 -1 -1</clus>
<clus scale="   97.521">  1  5  2 -1</clus>
<clus scale="   97.521">  1  5  2 -1</clus>
</clustering>
</event>
<event>
 9    1  0.1434065E-005  0.1523602E+03  0.7546771E-02  0.1197893E+00
          1   -1    0    0  502    0  0.00000000000E+00  0.00000000000E+00  0.11409588568E+03  0.11409588568E+03  0.00000000000E+00 0. -1.
         -1   -1    0    0    0  501 -0.00000000000E+00 -0.00000000000E+00 -0.33324381974E+03  0.33324381974E+03  0.00000000000E+00 0.  1.
         23    2    1    2    0    0 -0.99157164741E+02  0.25024981293E+02 -0.64025151765E+02  0.15090640328E+03  0.90637351486E+02 0.  0.
         23    2    1    2    0    0  0.11105161860E+03 -0.10053421737E+03 -0.11409385761E+03  0.20967792521E+03  0.92237915862E+02 0.  0.
        -13    1    3    3    0    0 -0.36802435450E+02  0.18997475779E+02 -0.76536480359E+02  0.87023882738E+02  0.00000000000E+00 0.  1.
         13    1    3    3    0    0 -0.62354729291E+02  0.60275055140E+01  0.12511328594E+02  0.63882520543E+02  0.00000000000E+00 0. -1.
        -13    1    4    4    0    0  0.17645399417E+02 -0.47499818764E+02  0.30257562058E+01  0.50761679482E+02  0.00000000000E+00 0. -1.
         13    1    4    4    0    0  0.93406219180E+02 -0.53034398603E+02 -0.11711961382E+03  0.15891624573E+03  0.00000000000E+00 0.  1.
         21    1    1    2  502  501 -0.11894453855E+02  0.75509236075E+02 -0.41028924686E+02  0.86755376929E+02  0.00000000000E+00 0.  1.
<scales pt_clust_5="13000.00000" pt_clust_6="13000.00000" pt_clust_7="13000.00000" pt_clust_8="13000.00000" pt_clust_9="76.44032"></scales>
<clustering>
<clus scale="   76.440">  1  9  2 -1</clus>
<clus scale="   90.637">  5  6 -1 -1</clus>
<clus scale="   92.238">  7  8 -1 -1</clus>
<clus scale="  151.397">  2  5  1 -1</clus>
<clus scale="   76.440">  1  5  2 -1</clus>
</clustering>
</event>
<event>
 9    1  0.1434065E-005  0.9146506E+02  0.7546771E-02  0.1299522E+00
          1   -1    0    0  502    0  0.00000000000E+00  0.00000000000E+00  0.16559633079E+03  0.16559633079E+03  0.00000000000E+00 0. -1.
         -1   -1    0    0    0  501 -0.00000000000E+00 -0.00000000000E+00 -0.11338959472E+03  0.11338959472E+03  0.00000000000E+00 0.  1.
         23    2    1    2    0    0 -0.42002033461E+01  0.18493791971E+02 -0.43032474840E+02  0.10174630811E+03  0.90226688260E+02 0.  0.
         23    2    1    2    0    0  0.11840285934E+02  0.14110515349E+02  0.10734784185E+03  0.14163019924E+03  0.90533171673E+02 0.  0.
        -11    1    4    4    0    0  0.18831115700E+02  0.37129973870E+02  0.12047741584E+02  0.43340442491E+02  0.00000000000E+00 0.  1.
         11    1    4    4    0    0 -0.69908297656E+01 -0.23019458521E+02  0.95300100268E+02  0.98289756752E+02  0.00000000000E+00 0. -1.
        -11    1    3    3    0    0  0.23958844313E+02 -0.27222271644E+02 -0.65988953304E+01  0.36859513207E+02  0.00000000000E+00 0.  1.
         11    1    3    3    0    0 -0.28159047659E+02  0.45716063615E+02 -0.36433579510E+02  0.64886794908E+02  0.00000000000E+00 0. -1.
         21    1    1    2  502  501 -0.76400825879E+01 -0.32604307321E+02 -0.12108630939E+02  0.35609418151E+02  0.00000000000E+00 0.  1.
<scales pt_clust_5="13000.00000" pt_clust_6="13000.00000" pt_clust_7="13000.00000" pt_clust_8="13000.00000" pt_clust_9="33.48749"></scales>
<clustering>
<clus scale="   33.487">  2  9  1 -1</clus>
<clus scale="   90.227">  7  8 -1 -1</clus>
<clus scale="   90.533">  5  6 -1 -1</clus>
<clus scale="   91.162">  2  7  1 -1</clus>
<clus scale="   91.465">  1  5  2 -1</clus>
</clustering>
</event>
<event>
 9    1  0.1434065E-005  0.1296207E+03  0.7546771E-02  0.1228043E+00
         -2   -1    0    0    0  501 -0.00000000000E+00  0.00000000000E+00  0.10500137524E+03  0.10500137524E+03  0.00000000000E+00 0.  1.
          2   -1    0    0  502    0  0.00000000000E+00 -0.00000000000E+00 -0.35127400400E+03  0.35127400400E+03  0.00000000000E+00 0. -1.
         23    2    1    2    0    0  0.68293976426E+02  0.13443169319E+02 -0.61495946401E+02  0.13081670289E+03  0.92122051176E+02 0.  0.
         23    2    1    2    0    0 -0.10302069671E+03 -0.81449849105E+01 -0.22986264155E+03  0.26830310291E+03  0.92033234856E+02 0.  0.
        -11    1    4    4    0    0 -0.85052021226E+01 -0.36466217850E+02 -0.86620330396E+02  0.94367394503E+02  0.00000000000E+00 0.  1.
         11    1    4    4    0    0 -0.94515494589E+02  0.28321232939E+02 -0.14324231115E+03  0.17393570840E+03  0.00000000000E+00 0. -1.
        -13    1    3    3    0    0  0.42025070967E+02  0.52874761830E+02 -0.29875089607E+02  0.73853693254E+02  0.00000000000E+00 0.  1.
         13    1    3    3    0    0  0.26268905459E+02 -0.39431592510E+02 -0.31620856795E+02  0.56963009632E+02  0.00000000000E+00 0. -1.
         21    1    1    2  502  501  0.34726720285E+02 -0.52981844090E+01  0.45085959191E+02  0.57155573446E+02  0.00000000000E+00 0. -1.
<scales pt_clust_5="13000.00000" pt_clust_6="13000.00000" pt_clust_7="13000.00000" pt_clust_8="13000.00000" pt_clust_9="35.12856"></scales>
<clustering>
<clus scale="   35.129">  1  9  2 -1</clus>
<clus scale="   92.033">  5  6 -1 -1</clus>
<clus scale="   92.122">  7  8 -1 -1</clus>
<clus scale="  129.558">  2  5  1 -1</clus>
<clus scale="  129.558">  2  5  1 -1</clus>
</clustering>
</event>
<event>
 9    1  0.1434065E-005  0.1116367E+03  0.7546771E-02  0.1258185E+00
         -1   -1    0    0    0  501 -0.00000000000E+00  0.00000000000E+00  0.15223379408E+03  0.15223379408E+03  0.00000000000E+00 0.  1.
          1   -1    0    0  502    0  0.00000000000E+00 -0.00000000000E+00 -0.21762620486E+03  0.21762620486E+03  0.00000000000E+00 0. -1.
         23    2    1    2    0    0  0.47798922070E+02  0.28006403444E+02  0.94174108183E+02  0.14285686536E+03  0.92033829346E+02 0.  0.
         23    2    1    2    0    0 -0.60741474460E+02 -0.12039247392E+02 -0.17017622740E+03  0.20387251213E+03  0.93646049747E+02 0.  0.
        -11    1    4    4    0    0  0.16448366600E+02  0.15126787333E+02 -0.75477859289E+02  0.78716425869E+02  0.00000000000E+00 0.  1.
         11    1    4    4    0    0 -0.77189841060E+02 -0.27166034725E+02 -0.94698368113E+02  0.12515608626E+03  0.00000000000E+00 0. -1.
        -13    1    3    3    0    0  0.79430935496E+01 -0.32111775823E+02  0.43756517359E+02  0.54853365375E+02  0.00000000000E+00 0. -1.
         13    1    3    3    0    0  0.39855828520E+02  0.60118179267E+02  0.50417590824E+02  0.88003499987E+02  0.00000000000E+00 0.  1.
         21    1    1    2  502  501  0.12942552391E+02 -0.15967156053E+02  0.10609708440E+02  0.23130621435E+02  0.00000000000E+00 0. -1.
<scales pt_clust_5="13000.00000" pt_clust_6="13000.00000" pt_clust_7="13000.00000" pt_clust_8="13000.00000" pt_clust_9="20.55383"></scales>
<clustering>
<clus scale="   20.554">  1  9  2 -1</clus>
<clus scale="   92.034">  7  8 -1 -1</clus>
<clus scale="   93.646">  5  6 -1 -1</clus>
<clus scale="  110.288">  1  7  2 -1</clus>
<clus scale="  111.637">  2  5  1 -1</clus>
</clustering>
</event>
<event>
 9    1  0.1434065E-005  0.1451113E+03  0.7546771E-02  0.1207017E+00
          1   -1    0    0  502    0  0.00000000000E+00  0.00000000000E+00  0.32385875032E+03  0.32385875032E+03  0.00000000000E+00 0. -1.
         -1   -1    0    0    0  501 -0.00000000000E+00 -0.00000000000E+00 -0.10752385986E+03  0.10752385986E+03  0.00000000000E+00 0.  1.
         23    2    1    2    0    0 -0.58163271471E+02  0.57133526315E+02  0.55460541833E+02  0.13400866091E+03  0.90748242523E+02 0.  0.
         23    2    1    2    0    0  0.11881760834E+03 -0.73857081156E+02  0.16361877173E+03  0.23439651104E+03  0.92726099025E+02 0.  0.
        -11    1    4    4    0    0  0.66764107070E+02 -0.50856725264E+02  0.15578099952E+03  0.17695076239E+03  0.00000000000E+00 0. -1.
         11    1    4    4    0    0  0.52053501268E+02 -0.23000355892E+02  0.78377722023E+01  0.57445748655E+02  0.00000000000E+00 0.  1.
        -13    1    3    3    0    0  0.19099536620E+02 -0.59365579212E+01  0.19648737695E+02  0.28037616019E+02  0.00000000000E+00 0. -1.
         13    1    3    3    0    0 -0.77262808090E+02  0.63070084237E+02  0.35811804138E+02  0.10597104489E+03  0.00000000000E+00 0.  1.
         21    1    1    2  502  501 -0.60654336868E+02  0.16723554841E+02 -0.27444230952E+01  0.62977438226E+02  0.00000000000E+00 0. -1.
<scales pt_clust_5="13000.00000" pt_clust_6="13000.00000" pt_clust_7="13000.00000" pt_clust_8="13000.00000" pt_clust_9="62.91761"></scales>
<clustering>
<clus scale="   62.918">  2  9  1 -1</clus>
<clus scale="   90.748">  7  8 -1 -1</clus>
<clus scale="   92.726">  5  6 -1 -1</clus>
<clus scale="  143.856">  2  7  1 -1</clus>
<clus scale="  145.111">  1  5  2 -1</clus>
</clustering>
</event>
<event>
 9    1  0.1434065E-005  0.1464010E+03  0.7546771E-02  0.1208447E+00
         -2   -1    0    0    0  501 -0.00000000000E+00  0.00000000000E+00  0.27756634978E+03  0.27756634978E+03  0.00000000000E+00 0.  1.
          2   -1    0    0  502    0  0.00000000000E+00 -0.00000000000E+00 -0.25418321636E+03  0.25418321636E+03  0.00000000000E+00 0. -1.
         23    2    1    2    0    0 -0.34177178920E+02  0.47823376512E+02  0.98384890401E+02  0.15620116140E+03  0.10613228192E+03 0.  0.
         23    2    1    2    0    0  0.28789117557E+02 -0.10519756519E+03 -0.19568105508E+03  0.24181612845E+03  0.91041878543E+02 0.  0.
        -11    1    4    4    0    0  0.22003336015E+02  0.10968591452E+02 -0.23565228973E+02  0.34055496044E+02  0.00000000000E+00 0.  1.
         11    1    4    4    0    0  0.67857815416E+01 -0.11616615664E+03 -0.17211582610E+03  0.20776063240E+03  0.00000000000E+00 0. -1.
        -13    1    3    3    0    0  0.38598579263E+02  0.19109693507E+02  0.33675487025E+02  0.54672379986E+02  0.00000000000E+00 0. -1.
         13    1    3    3    0    0 -0.72775758182E+02  0.28713683005E+02  0.64709403376E+02  0.10152878142E+03  0.00000000000E+00 0.  1.
         21    1    1    2  502  501  0.53880613626E+01  0.57374188681E+02  0.12067929810E+03  0.13373227629E+03  0.00000000000E+00 0.  1.
<scales pt_clust_5="13000.00000" pt_clust_6="13000.00000" pt_clust_7="13000.00000" pt_clust_8="13000.00000" pt_clust_9="57.62663"></scales>
<clustering>
<clus scale="   57.627">  1  9  2 -1</clus>
<clus scale="   91.042">  5  6 -1 -1</clus>
<clus scale="  106.132">  7  8 -1 -1</clus>
<clus scale="  135.860">  2  5  1 -1</clus>
<clus scale="  135.860">  2  5  1 -1</clus>
</clustering>
</event>
<event>
 9    1  0.1434065E-005  0.1131720E+03  0.7546771E-02  0.1255759E+00
         -1   -1    0    0    0  501 -0.00000000000E+00  0.00000000000E+00  0.66838506915E+03  0.66838506915E+03  0.00000000000E+00 0.  1.
          1   -1    0    0  502    0  0.00000000000E+00 -0.00000000000E+00 -0.53412725681E+02  0.53412725681E+02  0.00000000000E+00 0. -1.
         23    2    1    2    0    0 -0.19551355167E+02  0.88004346723E+00  0.24959496547E+03  0.26664406079E+03  0.91751721511E+02 0.  0.
         23    2    1    2    0    0  0.74345440874E+02  0.37653261965E+02  0.48551896899E+02  0.13132416015E+03  0.89127636738E+02 0.  0.
        -13    1    4    4    0    0  0.23350851540E+01  0.27030490109E+02  0.51785964550E+02  0.58462690176E+02  0.00000000000E+00 0.  1.
         13    1    4    4    0    0  0.72010355720E+02  0.10622771856E+02 -0.32340676509E+01  0.72861469971E+02  0.00000000000E+00 0. -1.
        -13    1    3    3    0    0  0.30411917419E+01 -0.34001523902E+02  0.38319436133E+02  0.51319895367E+02  0.00000000000E+00 0. -1.
         13    1    3    3    0    0 -0.22592546909E+02  0.34881567369E+02  0.21127552933E+03  0.21532416542E+03  0.00000000000E+00 0.  1.
         21    1    1    2  502  501 -0.54794085706E+02 -0.38533305432E+02  0.31682548110E+03  0.32382957390E+03  0.00000000000E+00 0.  1.
<scales pt_clust_5="13000.00000" pt_clust_6="13000.00000" pt_clust_7="13000.00000" pt_clust_8="13000.00000" pt_clust_9="66.98662"></scales>
<clustering>
<clus scale="   66.987">  1  9  2 -1</clus>
<clus scale="   89.128">  5  6 -1 -1</clus>
<clus scale="   91.752">  7  8 -1 -1</clus>
<clus scale="  111.055">  2  5  1 -1</clus>
<clus scale="  111.055">  2  5  1 -1</clus>
</clustering>
</event>
<event>
 9    1  0.1434065E-005  0.9892211E+02  0.7546771E-02  0.1282749E+00
         -1   -1    0    0    0  501 -0.00000000000E+00  0.00000000000E+00  0.38871063381E+02  0.38871063381E+02  0.00000000000E+00 0.  1.
          1   -1    0    0  502    0  0.00000000000E+00 -0.00000000000E+00 -0.40348642976E+03  0.40348642976E+03  0.00000000000E+00 0. -1.
         23    2    1    2    0    0  0.37527601223E+02 -0.19583305309E+02 -0.90042105280E+02  0.13598751686E+03  0.92699500090E+02 0.  0.
         23    2    1    2    0    0 -0.15536045034E+02  0.28035455322E+02 -0.26155307204E+03  0.27945171656E+03  0.93037072960E+02 0.  0.
        -13    1    3    3    0    0 -0.27148631244E+02 -0.14452300578E+02 -0.53002626971E+02  0.61279651078E+02  0.00000000000E+00 0. -1.
         13    1    3    3    0    0  0.64676232467E+02 -0.51310047316E+01 -0.37039478309E+02  0.74707865777E+02  0.00000000000E+00 0.  1.
        -13    1    4    4    0    0 -0.28817805728E+02  0.52273008968E+02 -0.22946683196E+03  0.23710326941E+03  0.00000000000E+00 0. -1.
         13    1    4    4    0    0  0.13281760694E+02 -0.24237553647E+02 -0.32086240080E+02  0.42348447154E+02  0.00000000000E+00 0.  1.
         21    1    1    2  502  501 -0.21991556189E+02 -0.84521500121E+01 -0.13020189059E+02  0.26918259724E+02  0.00000000000E+00 0.  1.
<scales pt_clust_5="13000.00000" pt_clust_6="13000.00000" pt_clust_7="13000.00000" pt_clust_8="13000.00000" pt_clust_9="23.55987"></scales>
<clustering>
<clus scale="   23.560">  1  9  2 -1</clus>
<clus scale="   92.700">  5  6 -1 -1</clus>
<clus scale="   93.037">  7  8 -1 -1</clus>
<clus scale="   98.605">  1  5  2 -1</clus>
<clus scale="   98.922">  2  5  1 -1</clus>
</clustering>
</event>
<event>
 9    1  0.1434065E-005  0.2019049E+03  0.7546771E-02  0.1149413E+00
         -1   -1    0    0    0  501 -0.00000000000E+00  0.00000000000E+00  0.53164663571E+02  0.53164663571E+02  0.00000000000E+00 0.  1.
          1   -1    0    0  502    0  0.00000000000E+00 -0.00000000000E+00 -0.12819411934E+04  0.12819411934E+04  0.00000000000E+00 0. -1.
         23    2    1    2    0    0  0.18825158771E+03 -0.13960996722E+01 -0.24013029406E+03  0.31840539633E+03  0.90988070189E+02 0.  0.
         23    2    1    2    0    0 -0.16840398061E+03 -0.22298482738E+02 -0.92263770724E+03  0.94381365401E+03  0.10327996730E+03 0.  0.
        -13    1    3    3    0    0  0.46315272979E+02  0.10682585228E+02 -0.12979099962E+03  0.13822056909E+03  0.00000000000E+00 0. -1.
         13    1    3    3    0    0  0.14193631473E+03 -0.12078684900E+02 -0.11033929444E+03  0.18018482724E+03  0.00000000000E+00 0.  1.
        -13    1    4    4    0    0 -0.16036747405E+03  0.14566262111E+02 -0.73922650698E+03  0.75656178290E+03  0.00000000000E+00 0. -1.
         13    1    4    4    0    0 -0.80365065594E+01 -0.36864744849E+02 -0.18341120026E+03  0.18725187111E+03  0.00000000000E+00 0.  1.
         21    1    1    2  502  501 -0.19847607098E+02  0.23694582410E+02 -0.66008528531E+02  0.72886806638E+02  0.00000000000E+00 0. -1.
<scales pt_clust_5="13000.00000" pt_clust_6="13000.00000" pt_clust_7="13000.00000" pt_clust_8="13000.00000" pt_clust_9="30.90891"></scales>
<clustering>
<clus scale="   30.909">  1  9  2 -1</clus>
<clus scale="   90.988">  5  6 -1 -1</clus>
<clus scale="  103.280">  7  8 -1 -1</clus>
<clus scale="  195.902">  1  5  2 -1</clus>
<clus scale="  201.905">  2  5  1 -1</clus>
</clustering>
</event>
<event>
 9    1  0.1434065E-005  0.1806424E+03  0.7546771E-02  0.1167316E+00
         -2   -1    0    0    0  501 -0.00000000000E+00  0.00000000000E+00  0.71865658940E+02  0.71865658940E+02  0.00000000000E+00 0.  1.
          2   -1    0    0  502    0  0.00000000000E+00 -0.00000000000E+00 -0.90883513768E+03  0.90883513768E+03  0.00000000000E+00 0. -1.
         23    2    1    2    0    0 -0.15051075026E+03  0.15076677943E+02 -0.83407192881E+02  0.19502081361E+03  0.90529364052E+02 0.  0.
         23    2    1    2    0    0  0.15651042991E+03  0.12155598382E+02 -0.71709634554E+03  0.73977401572E+03  0.91625063711E+02 0.  0.
        -13    1    3    3    0    0 -0.37925007086E+02 -0.35558880845E+02 -0.16143827881E+02  0.54436783043E+02  0.00000000000E+00 0. -1.
         13    1    3    3    0    0 -0.11258574317E+03  0.50635558788E+02 -0.67263365000E+02  0.14058403056E+03  0.00000000000E+00 0.  1.
        -13    1    4    4    0    0  0.27342851063E+02  0.37055093257E+02 -0.12426866933E+03  0.13252702976E+03  0.00000000000E+00 0.  1.
         13    1    4    4    0    0  0.12916757885E+03 -0.24899494875E+02 -0.59282767621E+03  0.60724698595E+03  0.00000000000E+00 0. -1.
         21    1    1    2  502  501 -0.59996796581E+01 -0.27232276325E+02 -0.36465940315E+02  0.45905967291E+02  0.00000000000E+00 0. -1.
<scales pt_clust_5="13000.00000" pt_clust_6="13000.00000" pt_clust_7="13000.00000" pt_clust_8="13000.00000" pt_clust_9="27.88536"></scales>
<clustering>
<clus scale="   27.885">  1  9  2 -1</clus>
<clus scale="   90.529">  5  6 -1 -1</clus>
<clus scale="   91.625">  7  8 -1 -1</clus>
<clus scale="  180.089">  1  5  2 -1</clus>
<clus scale="  180.642">  2  5  1 -1</clus>
</clustering>
</event>
<event>
 9    1  0.1434065E-005  0.1936453E+03  0.7546771E-02  0.1155239E+00
         -2   -1    0    0    0  501 -0.00000000000E+00  0.00000000000E+00  0.35052918089E+02  0.35052918089E+02  0.00000000000E+00 0.  1.
          2   -1    0    0  502    0  0.00000000000E+00 -0.00000000000E+00 -0.15957268159E+04  0.15957268159E+04  0.00000000000E+00 0. -1.
         23    2    1    2    0    0  0.18772637217E+03  0.47051364496E+02 -0.59871622278E+03  0.63580330774E+03  0.91267239539E+02 0.  0.
         23    2    1    2    0    0 -0.15622149342E+03 -0.33553509110E+02 -0.93035767359E+03  0.94835765773E+03  0.91026662035E+02 0.  0.
        -11    1    4    4    0    0 -0.78195092221E+01  0.23544065670E+02 -0.13528040427E+03  0.13753637894E+03  0.00000000000E+00 0.  1.
         11    1    4    4    0    0 -0.14840198420E+03 -0.57097574780E+02 -0.79507726932E+03  0.81082127879E+03  0.00000000000E+00 0. -1.
        -13    1    3    3    0    0  0.62531520558E+02 -0.15133657179E+02 -0.28787052907E+03  0.29497230403E+03  0.00000000000E+00 0. -1.
         13    1    3    3    0    0  0.12519485161E+03  0.62185021675E+02 -0.31084569371E+03  0.34083100371E+03  0.00000000000E+00 0.  1.
         21    1    1    2  502  501 -0.31504878750E+02 -0.13497855386E+02 -0.31600001419E+02  0.46618768482E+02  0.00000000000E+00 0.  1.
<scales pt_clust_5="13000.00000" pt_clust_6="13000.00000" pt_clust_7="13000.00000" pt_clust_8="13000.00000" pt_clust_9="34.27462"></scales>
<clustering>
<clus scale="   34.275">  1  9  2 -1</clus>
<clus scale="   91.027">  5  6 -1 -1</clus>
<clus scale="   91.267">  7  8 -1 -1</clus>
<clus scale="  193.532">  2  5  1 -1</clus>
<clus scale="  193.532">  2  5  1 -1</clus>
</clustering>
</event>
<event>
 9    1  0.1434065E-005  0.2475980E+03  0.7546771E-02  0.1115642E+00
          3   -1    0    0  502    0  0.00000000000E+00  0.00000000000E+00  0.48245926117E+03  0.48245926117E+03  0.00000000000E+00 0. -1.
         -3   -1    0    0    0  501 -0.00000000000E+00 -0.00000000000E+00 -0.20915898835E+03  0.20915898835E+03  0.00000000000E+00 0.  1.
         23    2    1    2    0    0 -0.19999814428E+03 -0.12152389903E+03  0.14592433593E+03  0.29076328450E+03  0.92098100097E+02 0.  0.
         23    2    1    2    0    0  0.17689984428E+03  0.12628761694E+03  0.20697689680E+03  0.31783365879E+03  0.10457859127E+03 0.  0.
        -11    1    4    4    0    0  0.11372825986E+03  0.44179949008E+02  0.16693260209E+03  0.20676672514E+03  0.00000000000E+00 0. -1.
         11    1    4    4    0    0  0.63171584415E+02  0.82107667930E+02  0.40044294707E+02  0.11106693364E+03  0.00000000000E+00 0.  1.
        -13    1    3    3    0    0 -0.16388386033E+03 -0.51998047378E+02  0.86744775082E+02  0.19257822465E+03  0.00000000000E+00 0.  1.
         13    1    3    3    0    0 -0.36114283956E+02 -0.69525851656E+02  0.59179560847E+02  0.98185059842E+02  0.00000000000E+00 0. -1.
         21    1    1    2  502  501  0.23098300003E+02 -0.47637179039E+01 -0.79600959902E+02  0.83021306233E+02  0.00000000000E+00 0.  1.
<scales pt_clust_5="13000.00000" pt_clust_6="13000.00000" pt_clust_7="13000.00000" pt_clust_8="13000.00000" pt_clust_9="23.58441"></scales>
<clustering>
<clus scale="   23.584">  2  9  1 -1</clus>
<clus scale="   92.098">  7  8 -1 -1</clus>
<clus scale="  104.579">  5  6 -1 -1</clus>
<clus scale="  242.590">  2  7  1 -1</clus>
<clus scale="  247.598">  1  5  2 -1</clus>
</clustering>
</event>
<event>
 9    1  0.1434065E-005  0.1317966E+03  0.7546771E-02  0.1227502E+00
         -1   -1    0    0    0  501 -0.00000000000E+00  0.00000000000E+00  0.34049904301E+02  0.34049904301E+02  0.00000000000E+00 0.  1.
          1   -1    0    0  502    0  0.00000000000E+00 -0.00000000000E+00 -0.77480792179E+03  0.77480792179E+03  0.00000000000E+00 0. -1.
         23    2    1    2    0    0  0.62165435240E+02 -0.20247117696E+01 -0.14681947331E+03  0.18108436731E+03  0.85830935830E+02 0.  0.
         23    2    1    2    0    0 -0.10552340272E+03 -0.31993189713E+02 -0.46834732322E+03  0.49062286364E+03  0.95931363223E+02 0.  0.
        -11    1    4    4    0    0 -0.51191984249E+02  0.32786149260E+02 -0.22188949678E+03  0.23006629396E+03  0.00000000000E+00 0.  1.
         11    1    4    4    0    0 -0.54331418467E+02 -0.64779338973E+02 -0.24645782645E+03  0.26055656969E+03  0.00000000000E+00 0. -1.
        -13    1    3    3    0    0  0.58280613157E+02 -0.27740049124E+02 -0.14005387644E+03  0.15421163543E+03  0.00000000000E+00 0. -1.
         13    1    3    3    0    0  0.38848220833E+01  0.25715337354E+02 -0.67655968678E+01  0.26872731883E+02  0.00000000000E+00 0.  1.
         21    1    1    2  502  501  0.43357967476E+02  0.34017901483E+02 -0.12559122096E+03  0.13715059514E+03  0.00000000000E+00 0. -1.
<scales pt_clust_5="13000.00000" pt_clust_6="13000.00000" pt_clust_7="13000.00000" pt_clust_8="13000.00000" pt_clust_9="55.11017"></scales>
<clustering>
<clus scale="   55.110">  1  9  2 -1</clus>
<clus scale="   85.831">  7  8 -1 -1</clus>
<clus scale="   95.931">  5  6 -1 -1</clus>
<clus scale="  124.637">  1  7  2 -1</clus>
<clus scale="  131.797">  2  5  1 -1</clus>
</clustering>
</event>
<event>
 9    1  0.1434065E-005  0.1040759E+03  0.7546771E-02  0.1272156E+00
          2   -1    0    0  502    0  0.00000000000E+00  0.00000000000E+00  0.72823771987E+03  0.72823771987E+03  0.00000000000E+00 0. -1.
         -2   -1    0    0    0  501 -0.00000000000E+00 -0.00000000000E+00 -0.22348649020E+02  0.22348649020E+02  0.00000000000E+00 0.  1.
         23    2    1    2    0    0 -0.23515495123E+01 -0.51876893104E+02  0.18502706141E+03  0.21306566017E+03  0.92006631641E+02 0.  0.
         23    2    1    2    0    0  0.26621117136E+02  0.35413065786E+02  0.42939189316E+03  0.44146420611E+03  0.92468796110E+02 0.  0.
        -11    1    4    4    0    0  0.15389690585E+02 -0.27436063253E+02  0.74404715474E+02  0.80781444824E+02  0.00000000000E+00 0.  1.
         11    1    4    4    0    0  0.11231426551E+02  0.62849129039E+02  0.35498717769E+03  0.36068276128E+03  0.00000000000E+00 0. -1.
        -13    1    3    3    0    0 -0.20921505048E+02 -0.65346063244E+02  0.17511148366E+03  0.18807405207E+03  0.00000000000E+00 0.  1.
         13    1    3    3    0    0  0.18569955536E+02  0.13469170140E+02  0.99155777484E+01  0.24991608091E+02  0.00000000000E+00 0. -1.
         21    1    1    2  502  501 -0.24269567624E+02  0.16463827318E+02  0.91470116278E+02  0.96056502614E+02  0.00000000000E+00 0. -1.
<scales pt_clust_5="13000.00000" pt_clust_6="13000.00000" pt_clust_7="13000.00000" pt_clust_8="13000.00000" pt_clust_9="29.32694"></scales>
<clustering>
<clus scale="   29.327">  1  9  2 -1</clus>
<clus scale="   92.007">  7  8 -1 -1</clus>
<clus scale="   92.469">  5  6 -1 -1</clus>
<clus scale="  103.665">  2  7  1 -1</clus>
<clus scale="   29.327">  1  5  2 -1</clus>
</clustering>
</event>
<event>
 9    1  0.1434065E-005  0.1616132E+03  0.7546771E-02  0.1188547E+00
         -2   -1    0    0    0  501 -0.00000000000E+00  0.00000000000E+00  0.46099787897E+02  0.46099787897E+02  0.00000000000E+00 0.  1.
          2   -1    0    0  502    0  0.00000000000E+00 -0.00000000000E+00 -0.95834160021E+03  0.95834160021E+03  0.00000000000E+00 0. -1.
         23    2    1    2    0    0  0.35450111876E+02 -0.14814150672E+03 -0.32928660880E+03  0.37751789296E+03  0.10434305113E+03 0.  0.
         23    2    1    2    0    0 -0.53279835586E+02  0.99495781332E+02 -0.53946340464E+03  0.55927852331E+03  0.95044990940E+02 0.  0.
        -11    1    4    4    0    0 -0.37708395867E+02 -0.44393364762E+01 -0.89800168695E+02  0.97497185215E+02  0.00000000000E+00 0.  1.
         11    1    4    4    0    0 -0.15571439720E+02  0.10393511781E+03 -0.44966323595E+03  0.46178133809E+03  0.00000000000E+00 0. -1.
        -13    1    3    3    0    0  0.59876508413E+02 -0.13265170411E+03 -0.21499917253E+03  0.25962726176E+03  0.00000000000E+00 0.  1.
         13    1    3    3    0    0 -0.24426396538E+02 -0.15489802613E+02 -0.11428743628E+03  0.11789063119E+03  0.00000000000E+00 0. -1.
         21    1    1    2  502  501  0.17829723711E+02  0.48645725391E+02 -0.43491798863E+02  0.67644971836E+02  0.00000000000E+00 0. -1.
<scales pt_clust_5="13000.00000" pt_clust_6="13000.00000" pt_clust_7="13000.00000" pt_clust_8="13000.00000" pt_clust_9="51.81029"></scales>
<clustering>
<clus scale="   51.810">  1  9  2 -1</clus>
<clus scale="   95.045">  5  6 -1 -1</clus>
<clus scale="  104.343">  7  8 -1 -1</clus>
<clus scale="  155.772">  2  5  1 -1</clus>
<clus scale="  155.772">  2  5  1 -1</clus>
</clustering>
</event>
<event>
 9    1  0.1434065E-005  0.1071898E+03  0.7546771E-02  0.1269432E+00
         -1   -1    0    0    0  501 -0.00000000000E+00  0.00000000000E+00  0.28975636555E+03  0.28975636555E+03  0.00000000000E+00 0.  1.
          1   -1    0    0  502    0  0.00000000000E+00 -0.00000000000E+00 -0.17644522031E+03  0.17644522031E+03  0.00000000000E+00 0. -1.
         23    2    1    2    0    0  0.10688130908E+02  0.39518701537E+01  0.22099486657E+03  0.23954402963E+03  0.91721086251E+02 0.  0.
         23    2    1    2    0    0 -0.33135338838E+02 -0.26074513069E+02 -0.14305577956E+03  0.17928170820E+03  0.99494441656E+02 0.  0.
        -13    1    4    4    0    0 -0.21615522274E+02 -0.62583077493E+02 -0.11146749949E+03  0.12964904872E+03  0.00000000000E+00 0. -1.
         13    1    4    4    0    0 -0.11519816564E+02  0.36508564424E+02 -0.31588280071E+02  0.49632659487E+02  0.00000000000E+00 0.  1.
        -13    1    3    3    0    0 -0.19770510780E+02 -0.25576993053E+02  0.30714158036E+02  0.44591649151E+02  0.00000000000E+00 0. -1.
         13    1    3    3    0    0  0.30458641689E+02  0.29528863207E+02  0.19028070853E+03  0.19495238048E+03  0.00000000000E+00 0.  1.
         21    1    1    2  502  501  0.22447207930E+02  0.22122642915E+02  0.35372058224E+02  0.47375848028E+02  0.00000000000E+00 0.  1.
<scales pt_clust_5="13000.00000" pt_clust_6="13000.00000" pt_clust_7="13000.00000" pt_clust_8="13000.00000" pt_clust_9="31.51648"></scales>
<clustering>
<clus scale="   31.516">  1  9  2 -1</clus>
<clus scale="   91.721">  7  8 -1 -1</clus>
<clus scale="   99.494">  5  6 -1 -1</clus>
<clus scale="  100.016">  1  7  2 -1</clus>
<clus scale="  107.190">  2  5  1 -1</clus>
</clustering>
</event>
<event>
 9    1  0.1434065E-005  0.9240617E+02  0.7546771E-02  0.1299314E+00
         -1   -1    0    0    0  501 -0.00000000000E+00  0.00000000000E+00  0.21589021735E+03  0.21589021735E+03  0.00000000000E+00 0.  1.
          1   -1    0    0  502    0  0.00000000000E+00 -0.00000000000E+00 -0.11383642381E+03  0.11383642381E+03  0.00000000000E+00 0. -1.
         23    2    1    2    0    0  0.80536023616E+01 -0.34484471716E+02  0.28747138677E+02  0.98445922005E+02  0.87241975428E+02 0.  0.
         23    2    1    2    0    0 -0.15700344194E+02 -0.18291385912E+01 -0.48257485523E+02  0.10417843286E+03  0.90964357906E+02 0.  0.
        -11    1    4    4    0    0  0.35314014462E+02 -0.32288043286E+01 -0.38275607121E+02  0.52177839120E+02  0.00000000000E+00 0. -1.
         11    1    4    4    0    0 -0.51014358656E+02  0.13996657375E+01 -0.99818784015E+01  0.52000593744E+02  0.00000000000E+00 0.  1.
        -13    1    3    3    0    0 -0.23712863279E+01  0.29357312560E+02  0.81825783517E+01  0.30568437776E+02  0.00000000000E+00 0.  1.
         13    1    3    3    0    0  0.10424888690E+02 -0.63841784276E+02  0.20564560326E+02  0.67877484228E+02  0.00000000000E+00 0. -1.
         21    1    1    2  502  501  0.76467418328E+01  0.36313610308E+02  0.12156414038E+03  0.12710228629E+03  0.00000000000E+00 0.  1.
<scales pt_clust_5="13000.00000" pt_clust_6="13000.00000" pt_clust_7="13000.00000" pt_clust_8="13000.00000" pt_clust_9="37.10998"></scales>
<clustering>
<clus scale="   37.110">  1  9  2 -1</clus>
<clus scale="   87.242">  7  8 -1 -1</clus>
<clus scale="   88.744">  1  7  2 -1</clus>
<clus scale="   90.964">  5  6 -1 -1</clus>
<clus scale="   92.406">  2  5  1 -1</clus>
</clustering>
</event>
<event>
 9    1  0.1434065E-005  0.3560005E+03  0.7546771E-02  0.1060243E+00
          1   -1    0    0  502    0  0.00000000000E+00  0.00000000000E+00  0.39618310590E+03  0.39618310590E+03  0.00000000000E+00 0. -1.
         -1   -1    0    0    0  501 -0.00000000000E+00 -0.00000000000E+00 -0.62922205395E+03  0.62922205395E+03  0.00000000000E+00 0.  1.
         23    2    1    2    0    0 -0.10394163270E+03 -0.31038642862E+03 -0.44915681543E+03  0.56318513057E+03  0.91060685061E+02 0.  0.
         23    2    1    2    0    0  0.13682791749E+03  0.31953899281E+03  0.22918475230E+03  0.42566841319E+03  0.88548858654E+02 0.  0.
        -11    1    3    3    0    0 -0.10367117795E+03 -0.28805780863E+03 -0.44550987224E+03  0.54055902593E+03  0.00000000000E+00 0.  1.
         11    1    3    3    0    0 -0.27045475440E+00 -0.22328619991E+02 -0.36469431902E+01  0.22626104638E+02  0.00000000000E+00 0. -1.
        -13    1    4    4    0    0  0.81888744302E+02  0.99424572983E+02  0.56976638901E+02  0.14084512607E+03  0.00000000000E+00 0. -1.
         13    1    4    4    0    0  0.54939173186E+02  0.22011441983E+03  0.17220811340E+03  0.28482328712E+03  0.00000000000E+00 0.  1.
         21    1    1    2  502  501 -0.32886284785E+02 -0.91525641923E+01 -0.13066884918E+02  0.36551616103E+02  0.00000000000E+00 0.  1.
<scales pt_clust_5="13000.00000" pt_clust_6="13000.00000" pt_clust_7="13000.00000" pt_clust_8="13000.00000" pt_clust_9="34.13616"></scales>
<clustering>
<clus scale="   34.136">  2  9  1 -1</clus>
<clus scale="   88.549">  7  8 -1 -1</clus>
<clus scale="   91.061">  5  6 -1 -1</clus>
<clus scale="  355.366">  1  7  2 -1</clus>
<clus scale="  355.366">  1  5  2 -1</clus>
</clustering>
</event>
<event>
 9    1  0.1434065E-005  0.1315817E+03  0.7546771E-02  0.1225568E+00
          2   -1    0    0  502    0  0.00000000000E+00  0.00000000000E+00  0.63798317819E+03  0.63798317819E+03  0.00000000000E+00 0. -1.
         -2   -1    0    0    0  501 -0.00000000000E+00 -0.00000000000E+00 -0.10506440298E+03  0.10506440298E+03  0.00000000000E+00 0.  1.
         23    2    1    2    0    0 -0.50820451106E+02 -0.73971296819E+02  0.85647445027E+01  0.12930700239E+03  0.92695604075E+02 0.  0.
         23    2    1    2    0    0  0.69142036981E+02  0.63820588368E+02  0.55852735601E+03  0.57365899256E+03  0.90984303906E+02 0.  0.
        -11    1    4    4    0    0 -0.18088501300E+02  0.31123041929E+02  0.20077941933E+03  0.20398091295E+03  0.00000000000E+00 0.  1.
         11    1    4    4    0    0  0.87230538282E+02  0.32697546439E+02  0.35774793668E+03  0.36967807962E+03  0.00000000000E+00 0. -1.
        -13    1    3    3    0    0 -0.72611766153E+02 -0.54273854932E+02 -0.14697104840E+02  0.91837491275E+02  0.00000000000E+00 0.  1.
         13    1    3    3    0    0  0.21791315046E+02 -0.19697441887E+02  0.23261849342E+02  0.37469511115E+02  0.00000000000E+00 0. -1.
         21    1    1    2  502  501 -0.18321585875E+02  0.10150708452E+02 -0.34173325302E+02  0.40081586212E+02  0.00000000000E+00 0.  1.
<scales pt_clust_5="13000.00000" pt_clust_6="13000.00000" pt_clust_7="13000.00000" pt_clust_8="13000.00000" pt_clust_9="20.94558"></scales>
<clustering>
<clus scale="   20.946">  2  9  1 -1</clus>
<clus scale="   90.984">  5  6 -1 -1</clus>
<clus scale="   92.696">  7  8 -1 -1</clus>
<clus scale="  130.382">  1  5  2 -1</clus>
<clus scale="  130.382">  1  5  2 -1</clus>
</clustering>
</event>
<event>
 9    1  0.1434065E-005  0.1103469E+03  0.7546771E-02  0.1260336E+00
          1   -1    0    0  502    0  0.00000000000E+00  0.00000000000E+00  0.19787468278E+03  0.19787468278E+03  0.00000000000E+00 0. -1.
         -1   -1    0    0    0  501 -0.00000000000E+00 -0.00000000000E+00 -0.11935897074E+03  0.11935897074E+03  0.00000000000E+00 0.  1.
         23    2    1    2    0    0  0.64332937363E+02 -0.17148189304E+02 -0.53424065863E+02  0.12517227411E+03  0.91548785713E+02 0.  0.
         23    2    1    2    0    0 -0.45211564051E+02 -0.84114882337E+01  0.12184135161E+03  0.15858150117E+03  0.90487230561E+02 0.  0.
        -11    1    3    3    0    0 -0.18851035313E+02 -0.11005467523E+02 -0.32546409633E+02  0.39188654325E+02  0.00000000000E+00 0. -1.
         11    1    3    3    0    0  0.83183972676E+02 -0.61427217802E+01 -0.20877656230E+02  0.85983619782E+02  0.00000000000E+00 0.  1.
        -13    1    4    4    0    0 -0.17789450452E+02  0.15268345454E+02 -0.72208786569E+01  0.24530144901E+02  0.00000000000E+00 0.  1.
         13    1    4    4    0    0 -0.27422113599E+02 -0.23679833688E+02  0.12906223026E+03  0.13405135627E+03  0.00000000000E+00 0. -1.
         21    1    1    2  502  501 -0.19121373312E+02  0.25559677537E+02  0.10098426300E+02  0.33479878239E+02  0.00000000000E+00 0.  1.
<scales pt_clust_5="13000.00000" pt_clust_6="13000.00000" pt_clust_7="13000.00000" pt_clust_8="13000.00000" pt_clust_9="31.92059"></scales>
<clustering>
<clus scale="   31.921">  1  9  2 -1</clus>
<clus scale="   90.487">  7  8 -1 -1</clus>
<clus scale="   91.549">  5  6 -1 -1</clus>
<clus scale="  109.468">  1  7  2 -1</clus>
<clus scale="   31.921">  1  5  2 -1</clus>
</clustering>
</event>
<event>
 9    1  0.1434065E-005  0.1048568E+03  0.7546771E-02  0.1271776E+00
          3   -1    0    0  502    0  0.00000000000E+00  0.00000000000E+00  0.22068319674E+03  0.22068319674E+03  0.00000000000E+00 0. -1.
         -3   -1    0    0    0  501 -0.00000000000E+00 -0.00000000000E+00 -0.92061934585E+02  0.92061934585E+02  0.00000000000E+00 0.  1.
         23    2    1    2    0    0 -0.76114168468E+02  0.39397470463E+02  0.28113030870E+02  0.12725252641E+03  0.89762662912E+02 0.  0.
         23    2    1    2    0    0  0.30062999408E+02 -0.10196802141E+02  0.82043662248E+02  0.12792239116E+03  0.92872046050E+02 0.  0.
        -11    1    3    3    0    0 -0.46311795776E+02 -0.23414112777E+02 -0.94076436211E+00  0.51902679533E+02  0.00000000000E+00 0. -1.
         11    1    3    3    0    0 -0.29802372691E+02  0.62811583240E+02  0.29053795232E+02  0.75349846878E+02  0.00000000000E+00 0.  1.
        -13    1    4    4    0    0 -0.15865664112E+02  0.21714125751E+02 -0.20048688525E+01  0.26967425794E+02  0.00000000000E+00 0.  1.
         13    1    4    4    0    0  0.45928663520E+02 -0.31910927892E+02  0.84048531101E+02  0.10095496537E+03  0.00000000000E+00 0. -1.
         21    1    1    2  502  501  0.46051169060E+02 -0.29200668321E+02  0.18464569039E+02  0.57570213757E+02  0.00000000000E+00 0. -1.
<scales pt_clust_5="13000.00000" pt_clust_6="13000.00000" pt_clust_7="13000.00000" pt_clust_8="13000.00000" pt_clust_9="54.52879"></scales>
<clustering>
<clus scale="   54.529">  2  9  1 -1</clus>
<clus scale="   89.763">  5  6 -1 -1</clus>
<clus scale="   92.872">  7  8 -1 -1</clus>
<clus scale="  102.113">  2  5  1 -1</clus>
<clus scale="  104.857">  1  5  2 -1</clus>
</clustering>
</event>
<event>
 9    1  0.1434065E-005  0.1264794E+03  0.7546771E-02  0.1236161E+00
          2   -1    0    0  502    0  0.00000000000E+00  0.00000000000E+00  0.78287402080E+02  0.78287402080E+02  0.00000000000E+00 0. -1.
         -2   -1    0    0    0  501 -0.00000000000E+00 -0.00000000000E+00 -0.26274410138E+03  0.26274410138E+03  0.00000000000E+00 0.  1.
         23    2    1    2    0    0  0.68096481175E+02 -0.26676802072E+02 -0.12329344665E+03  0.16520172075E+03  0.82106954844E+02 0.  0.
         23    2    1    2    0    0 -0.89854647007E+02  0.17952185687E+02 -0.26270398473E+02  0.13379351285E+03  0.93885204824E+02 0.  0.
        -11    1    4    4    0    0 -0.69212022577E+02  0.12882400644E+02 -0.60949299933E+02  0.93118620468E+02  0.00000000000E+00 0.  1.
         11    1    4    4    0    0 -0.20642624430E+02  0.50697850431E+01  0.34678901460E+02  0.40674892381E+02  0.00000000000E+00 0. -1.
        -13    1    3    3    0    0  0.61076676503E+02 -0.47551312294E+02 -0.12019346330E+03  0.14296138056E+03  0.00000000000E+00 0.  1.
         13    1    3    3    0    0  0.70198046724E+01  0.20874510222E+02 -0.30999833527E+01  0.22240340183E+02  0.00000000000E+00 0. -1.
         21    1    1    2  502  501  0.21758165831E+02  0.87246163848E+01 -0.34892854177E+02  0.42036269863E+02  0.00000000000E+00 0.  1.
<scales pt_clust_5="13000.00000" pt_clust_6="13000.00000" pt_clust_7="13000.00000" pt_clust_8="13000.00000" pt_clust_9="23.44220"></scales>
<clustering>
<clus scale="   23.442">  2  9  1 -1</clus>
<clus scale="   82.107">  7  8 -1 -1</clus>
<clus scale="   93.885">  5  6 -1 -1</clus>
<clus scale="  118.001">  2  7  1 -1</clus>
<clus scale="  126.479">  1  5  2 -1</clus>
</clustering>
</event>
<event>
 9    1  0.1434065E-005  0.1047774E+03  0.7546771E-02  0.1271272E+00
          2   -1    0    0  502    0  0.00000000000E+00  0.00000000000E+00  0.40488368506E+02  0.40488368506E+02  0.00000000000E+00 0. -1.
         -2   -1    0    0    0  501 -0.00000000000E+00 -0.00000000000E+00 -0.41719605579E+03  0.41719605579E+03  0.00000000000E+00 0.  1.
         23    2    1    2    0    0 -0.54942677934E+02 -0.21757536936E+02 -0.22898380707E+03  0.25309631762E+03  0.90178011848E+02 0.  0.
         23    2    1    2    0    0  0.47923231158E+02  0.98916885208E+00 -0.73003328171E+02  0.12671796706E+03  0.91816897751E+02 0.  0.
        -11    1    3    3    0    0  0.20432658056E+02  0.82970684145E+01 -0.23785814212E+02  0.32436088192E+02  0.00000000000E+00 0. -1.
         11    1    3    3    0    0 -0.75375335990E+02 -0.30054605350E+02 -0.20519799286E+03  0.22066022943E+03  0.00000000000E+00 0.  1.
        -13    1    4    4    0    0  0.14391492470E+02  0.44724348253E+02 -0.23028868751E+02  0.52323141899E+02  0.00000000000E+00 0.  1.
         13    1    4    4    0    0  0.33531738689E+02 -0.43735179401E+02 -0.49974459420E+02  0.74394825163E+02  0.00000000000E+00 0. -1.
         21    1    1    2  502  501  0.70194467754E+01  0.20768368084E+02 -0.74720552046E+02  0.77870139617E+02  0.00000000000E+00 0. -1.
<scales pt_clust_5="13000.00000" pt_clust_6="13000.00000" pt_clust_7="13000.00000" pt_clust_8="13000.00000" pt_clust_9="21.92254"></scales>
<clustering>
<clus scale="   21.923">  2  9  1 -1</clus>
<clus scale="   90.178">  5  6 -1 -1</clus>
<clus scale="   91.817">  7  8 -1 -1</clus>
<clus scale="  103.344">  2  5  1 -1</clus>
<clus scale="  104.777">  1  5  2 -1</clus>
</clustering>
</event>
<event>
 9    1  0.1434065E-005  0.1003479E+03  0.7546771E-02  0.1280271E+00
         -1   -1    0    0    0  501 -0.00000000000E+00  0.00000000000E+00  0.27486513839E+03  0.27486513839E+03  0.00000000000E+00 0.  1.
          1   -1    0    0  502    0  0.00000000000E+00 -0.00000000000E+00 -0.58423662977E+02  0.58423662977E+02  0.00000000000E+00 0. -1.
         23    2    1    2    0    0  0.43101708481E+02 -0.10995632479E+02  0.16977899413E+03  0.19734918997E+03  0.90239319163E+02 0.  0.
         23    2    1    2    0    0 -0.22851189816E+02  0.30382989059E+02  0.40615003307E+02  0.10725991317E+03  0.91705003017E+02 0.  0.
        -11    1    4    4    0    0  0.18812465468E+02  0.12968431945E+02  0.55252011920E+02  0.59790249250E+02  0.00000000000E+00 0.  1.
         11    1    4    4    0    0 -0.41663655284E+02  0.17414557114E+02 -0.14637008613E+02  0.47469663915E+02  0.00000000000E+00 0. -1.
        -11    1    3    3    0    0  0.32276956615E+02 -0.47671809400E+02  0.70880573174E+02  0.91315162998E+02  0.00000000000E+00 0. -1.
         11    1    3    3    0    0  0.10824751865E+02  0.36676176921E+02  0.98898420960E+02  0.10603402697E+03  0.00000000000E+00 0.  1.
         21    1    1    2  502  501 -0.20250518665E+02 -0.19387356580E+02  0.60474779754E+01  0.28679698241E+02  0.00000000000E+00 0. -1.
<scales pt_clust_5="13000.00000" pt_clust_6="13000.00000" pt_clust_7="13000.00000" pt_clust_8="13000.00000" pt_clust_9="28.03486"></scales>
<clustering>
<clus scale="   28.035">  2  9  1 -1</clus>
<clus scale="   90.239">  7  8 -1 -1</clus>
<clus scale="   91.705">  5  6 -1 -1</clus>
<clus scale="   99.010">  1  7  2 -1</clus>
<clus scale="   28.035">  2  5  1 -1</clus>
</clustering>
</event>
<event>
 9    1  0.1434065E-005  0.3264071E+03  0.7546771E-02  0.1072753E+00
         -1   -1    0    0    0  501 -0.00000000000E+00  0.00000000000E+00  0.35398160280E+03  0.35398160280E+03  0.00000000000E+00 0.  1.
          1   -1    0    0  502    0  0.00000000000E+00 -0.00000000000E+00 -0.39249941511E+03  0.39249941511E+03  0.00000000000E+00 0. -1.
         23    2    1    2    0    0  0.12937969883E+03  0.24796006410E+03  0.10877788979E+03  0.31364088527E+03  0.91184843833E+02 0.  0.
         23    2    1    2    0    0 -0.15947349472E+03 -0.28981750228E+03 -0.16185051830E+03  0.37927219115E+03  0.90696331558E+02 0.  0.
        -11    1    3    3    0    0  0.71520428320E+02  0.49264952017E+02  0.39482136719E+02  0.95399404003E+02  0.00000000000E+00 0.  1.
         11    1    3    3    0    0  0.57859270509E+02  0.19869511208E+03  0.69295753075E+02  0.21824148126E+03  0.00000000000E+00 0. -1.
        -11    1    4    4    0    0 -0.63732254895E+02 -0.42520131295E+02 -0.23320176338E+02  0.80084908090E+02  0.00000000000E+00 0.  1.
         11    1    4    4    0    0 -0.95741239823E+02 -0.24729737098E+03 -0.13853034197E+03  0.29918728305E+03  0.00000000000E+00 0. -1.
         21    1    1    2  502  501  0.30093795888E+02  0.41857438177E+02  0.14554816202E+02  0.53567941498E+02  0.00000000000E+00 0.  1.
<scales pt_clust_5="13000.00000" pt_clust_6="13000.00000" pt_clust_7="13000.00000" pt_clust_8="13000.00000" pt_clust_9="51.55271"></scales>
<clustering>
<clus scale="   51.553">  1  9  2 -1</clus>
<clus scale="   90.696">  7  8 -1 -1</clus>
<clus scale="   91.185">  5  6 -1 -1</clus>
<clus scale="  326.271">  2  7  1 -1</clus>
<clus scale="  326.271">  2  5  1 -1</clus>
</clustering>
</event>
<event>
 9    1  0.1434065E-005  0.9360056E+02  0.7546771E-02  0.1294978E+00
          3   -1    0    0  502    0  0.00000000000E+00  0.00000000000E+00  0.43520675334E+02  0.43520675334E+02  0.00000000000E+00 0. -1.
         -3   -1    0    0    0  501 -0.00000000000E+00 -0.00000000000E+00 -0.35463774766E+03  0.35463774766E+03  0.00000000000E+00 0.  1.
         23    2    1    2    0    0  0.19238375599E+02 -0.24443856063E+02 -0.12604536534E+03  0.15871524613E+03  0.91298839167E+02 0.  0.
         23    2    1    2    0    0 -0.20150603382E+02 -0.52971444790E+01 -0.58704278026E+02  0.10961988784E+03  0.90201003294E+02 0.  0.
        -13    1    4    4    0    0  0.32050086261E+02  0.15849464524E+02 -0.28412318293E+02  0.45669173255E+02  0.00000000000E+00 0. -1.
         13    1    4    4    0    0 -0.52200689642E+02 -0.21146609003E+02 -0.30291959732E+02  0.63950714584E+02  0.00000000000E+00 0.  1.
        -13    1    3    3    0    0  0.40776119932E+02 -0.46702633758E+02 -0.62559112186E+02  0.88076503531E+02  0.00000000000E+00 0. -1.
         13    1    3    3    0    0 -0.21537744333E+02  0.22258777695E+02 -0.63486253158E+02  0.70638742596E+02  0.00000000000E+00 0.  1.
         21    1    1    2  502  501  0.91222778280E+00  0.29741000542E+02 -0.12636742895E+03  0.12982328902E+03  0.00000000000E+00 0.  1.
<scales pt_clust_5="13000.00000" pt_clust_6="13000.00000" pt_clust_7="13000.00000" pt_clust_8="13000.00000" pt_clust_9="29.75499"></scales>
<clustering>
<clus scale="   29.755">  2  9  1 -1</clus>
<clus scale="   90.201">  5  6 -1 -1</clus>
<clus scale="   91.299">  7  8 -1 -1</clus>
<clus scale="   92.530">  1  5  2 -1</clus>
<clus scale="   92.530">  1  5  2 -1</clus>
</clustering>
</event>
<event>
 9    1  0.1434065E-005  0.9385580E+02  0.7546771E-02  0.1294210E+00
          3   -1    0    0  502    0  0.00000000000E+00  0.00000000000E+00  0.10355606029E+03  0.10355606029E+03  0.00000000000E+00 0. -1.
         -3   -1    0    0    0  501 -0.00000000000E+00 -0.00000000000E+00 -0.34336378647E+03  0.34336378647E+03  0.00000000000E+00 0.  1.
         23    2    1    2    0    0  0.73178070487E+00  0.44404121970E+01 -0.17533482531E+03  0.19782712086E+03  0.91504185792E+02 0.  0.
         23    2    1    2    0    0 -0.20062320172E+02  0.12813262789E+02  0.66885632344E+02  0.11520313219E+03  0.90727049213E+02 0.  0.
        -13    1    3    3    0    0 -0.20172563885E+02 -0.26132870854E+02 -0.21035983161E+02  0.39145521587E+02  0.00000000000E+00 0. -1.
         13    1    3    3    0    0  0.20904344589E+02  0.30573283051E+02 -0.15429884215E+03  0.15868159927E+03  0.00000000000E+00 0.  1.
        -13    1    4    4    0    0  0.29695871442E+02  0.25235494620E+02  0.13672757579E+02  0.41299143686E+02  0.00000000000E+00 0.  1.
         13    1    4    4    0    0 -0.49758191614E+02 -0.12422231831E+02  0.53212874765E+02  0.73903988506E+02  0.00000000000E+00 0. -1.
         21    1    1    2  502  501  0.19330539467E+02 -0.17253674986E+02 -0.13135853321E+03  0.13388959371E+03  0.00000000000E+00 0.  1.
<scales pt_clust_5="13000.00000" pt_clust_6="13000.00000" pt_clust_7="13000.00000" pt_clust_8="13000.00000" pt_clust_9="25.91060"></scales>
<clustering>
<clus scale="   25.911">  2  9  1 -1</clus>
<clus scale="   90.727">  7  8 -1 -1</clus>
<clus scale="   91.504">  5  6 -1 -1</clus>
<clus scale="   93.098">  1  7  2 -1</clus>
<clus scale="   93.098">  1  5  2 -1</clus>
</clustering>
</event>
<event>
 9    1  0.1434065E-005  0.9740079E+02  0.7546771E-02  0.1286158E+00
          2   -1    0    0  502    0  0.00000000000E+00  0.00000000000E+00  0.30063372475E+03  0.30063372475E+03  0.00000000000E+00 0. -1.
         -2   -1    0    0    0  501 -0.00000000000E+00 -0.00000000000E+00 -0.57492255367E+02  0.57492255367E+02  0.00000000000E+00 0.  1.
         23    2    1    2    0    0  0.35130672754E+02 -0.15403461356E+02  0.98553012185E+02  0.13940406846E+03  0.90826027677E+02 0.  0.
         23    2    1    2    0    0 -0.32406502420E+02 -0.48113633850E+01  0.16398193448E+03  0.19057644657E+03  0.91411030711E+02 0.  0.
        -11    1    3    3    0    0  0.61574104612E+01 -0.44432091957E+02  0.16725482527E+02  0.47873440079E+02  0.00000000000E+00 0.  1.
         11    1    3    3    0    0  0.28973262293E+02  0.29028630601E+02  0.81827529658E+02  0.91530628384E+02  0.00000000000E+00 0. -1.
        -13    1    4    4    0    0  0.90552496425E+01 -0.19657900110E+02  0.90996882621E+00  0.21662378126E+02  0.00000000000E+00 0.  1.
         13    1    4    4    0    0 -0.41461752062E+02  0.14846536725E+02  0.16307196565E+03  0.16891406845E+03  0.00000000000E+00 0. -1.
         21    1    1    2  502  501 -0.27241703344E+01  0.20214824741E+02 -0.19393477284E+02  0.28145465078E+02  0.00000000000E+00 0. -1.
<scales pt_clust_5="13000.00000" pt_clust_6="13000.00000" pt_clust_7="13000.00000" pt_clust_8="13000.00000" pt_clust_9="20.39755"></scales>
<clustering>
<clus scale="   20.398">  2  9  1 -1</clus>
<clus scale="   90.826">  5  6 -1 -1</clus>
<clus scale="   91.411">  7  8 -1 -1</clus>
<clus scale="   96.852">  2  5  1 -1</clus>
<clus scale="   97.401">  1  5  2 -1</clus>
</clustering>
</event>
<event>
 9    1  0.1434065E-005  0.1061414E+03  0.7546771E-02  0.1268408E+00
          4   -1    0    0  502    0  0.00000000000E+00  0.00000000000E+00  0.80436869631E+02  0.80436869631E+02  0.00000000000E+00 0. -1.
         -4   -1    0    0    0  501 -0.00000000000E+00 -0.00000000000E+00 -0.30035943251E+03  0.30035943251E+03  0.00000000000E+00 0.  1.
         23    2    1    2    0    0  0.35724950297E+02  0.35481416775E+02 -0.13439016417E+03  0.17046428866E+03  0.91989969402E+02 0.  0.
         23    2    1    2    0    0 -0.59391421472E+02  0.35130348125E+02 -0.31367015693E+02  0.11824503332E+03  0.90755252888E+02 0.  0.
        -13    1    3    3    0    0 -0.15385728988E+02 -0.18932201993E+02 -0.12206361702E+02  0.27279006484E+02  0.00000000000E+00 0. -1.
         13    1    3    3    0    0  0.51110679285E+02  0.54413618767E+02 -0.12218380247E+03  0.14318528217E+03  0.00000000000E+00 0.  1.
        -13    1    4    4    0    0 -0.23605567495E+02 -0.22227315781E+02  0.15545085299E+02  0.35957281050E+02  0.00000000000E+00 0. -1.
         13    1    4    4    0    0 -0.35785853978E+02  0.57357663905E+02 -0.46912100992E+02  0.82287752267E+02  0.00000000000E+00 0.  1.
         21    1    1    2  502  501  0.23666471175E+02 -0.70611764899E+02 -0.54165383018E+02  0.92086980174E+02  0.00000000000E+00 0.  1.
<scales pt_clust_5="13000.00000" pt_clust_6="13000.00000" pt_clust_7="13000.00000" pt_clust_8="13000.00000" pt_clust_9="74.47230"></scales>
<clustering>
<clus scale="   74.472">  2  9  1 -1</clus>
<clus scale="   90.755">  7  8 -1 -1</clus>
<clus scale="   91.990">  5  6 -1 -1</clus>
<clus scale="  105.073">  1  7  2 -1</clus>
<clus scale="  105.073">  1  5  2 -1</clus>
</clustering>
</event>
<event>
 9    1  0.1434065E-005  0.1003561E+03  0.7546771E-02  0.1280489E+00
         -2   -1    0    0    0  501 -0.00000000000E+00  0.00000000000E+00  0.14542599671E+03  0.14542599671E+03  0.00000000000E+00 0.  1.
          2   -1    0    0  502    0  0.00000000000E+00 -0.00000000000E+00 -0.19815001743E+03  0.19815001743E+03  0.00000000000E+00 0. -1.
         23    2    1    2    0    0 -0.17551504691E+00  0.98032167330E+00 -0.40423751053E+02  0.10356022949E+03  0.95339654118E+02 0.  0.
         23    2    1    2    0    0  0.45147777349E+02  0.35196269017E+02 -0.90975340020E+02  0.14244008692E+03  0.93464253695E+02 0.  0.
        -11    1    4    4    0    0  0.31022014971E+02  0.66255435821E+02 -0.74975996727E+02  0.10475470526E+03  0.00000000000E+00 0.  1.
         11    1    4    4    0    0  0.14125762379E+02 -0.31059166805E+02 -0.15999343292E+02  0.37685381664E+02  0.00000000000E+00 0. -1.
        -11    1    3    3    0    0  0.44607003168E+02 -0.16055065113E+02 -0.18960533463E+02  0.51059295693E+02  0.00000000000E+00 0.  1.
         11    1    3    3    0    0 -0.44782518215E+02  0.17035386786E+02 -0.21463217590E+02  0.52500933801E+02  0.00000000000E+00 0. -1.
         21    1    1    2  502  501 -0.44972262302E+02 -0.36176590690E+02  0.78675070359E+02  0.97575697725E+02  0.00000000000E+00 0. -1.
<scales pt_clust_5="13000.00000" pt_clust_6="13000.00000" pt_clust_7="13000.00000" pt_clust_8="13000.00000" pt_clust_9="57.71698"></scales>
<clustering>
<clus scale="   57.717">  1  9  2 -1</clus>
<clus scale="   93.464">  5  6 -1 -1</clus>
<clus scale="   95.340">  7  8 -1 -1</clus>
<clus scale="   98.576">  2  5  1 -1</clus>
<clus scale="   98.576">  2  5  1 -1</clus>
</clustering>
</event>
<event>
 9    1  0.1434065E-005  0.1416391E+03  0.7546771E-02  0.1211438E+00
          1   -1    0    0  502    0  0.00000000000E+00  0.00000000000E+00  0.25045510252E+03  0.25045510252E+03  0.00000000000E+00 0. -1.
         -1   -1    0    0    0  501 -0.00000000000E+00 -0.00000000000E+00 -0.19131953125E+03  0.19131953125E+03  0.00000000000E+00 0.  1.
         23    2    1    2    0    0 -0.11245419665E+03 -0.50629412817E+02 -0.23264379171E+02  0.15432033983E+03  0.89801181278E+02 0.  0.
         23    2    1    2    0    0  0.10631694022E+03 -0.10716419274E+01  0.14795165458E+03  0.20374234202E+03  0.91196544025E+02 0.  0.
        -11    1    3    3    0    0 -0.97735631726E+02 -0.16508613732E+02 -0.47542721586E+02  0.10993224464E+03  0.00000000000E+00 0.  1.
         11    1    3    3    0    0 -0.14718564926E+02 -0.34120799084E+02  0.24278342415E+02  0.44388095184E+02  0.00000000000E+00 0. -1.
        -13    1    4    4    0    0  0.52063827256E+02 -0.24472331274E+02  0.16856046597E+02  0.59947171855E+02  0.00000000000E+00 0. -1.
         13    1    4    4    0    0  0.54253112963E+02  0.23400689346E+02  0.13109560799E+03  0.14379517016E+03  0.00000000000E+00 0.  1.
         21    1    1    2  502  501  0.61372564329E+01  0.51701054744E+02 -0.65551704145E+02  0.83711951921E+02  0.00000000000E+00 0. -1.
<scales pt_clust_5="13000.00000" pt_clust_6="13000.00000" pt_clust_7="13000.00000" pt_clust_8="13000.00000" pt_clust_9="52.06405"></scales>
<clustering>
<clus scale="   52.064">  2  9  1 -1</clus>
<clus scale="   89.801">  5  6 -1 -1</clus>
<clus scale="   91.197">  7  8 -1 -1</clus>
<clus scale="  140.745">  2  5  1 -1</clus>
<clus scale="  141.639">  1  5  2 -1</clus>
</clustering>
</event>
<event>
 9    1  0.1434065E-005  0.1179599E+03  0.7546771E-02  0.1252396E+00
          1   -1    0    0  502    0  0.00000000000E+00  0.00000000000E+00  0.28888999567E+02  0.28888999567E+02  0.00000000000E+00 0. -1.
         -1   -1    0    0    0  501 -0.00000000000E+00 -0.00000000000E+00 -0.63255114104E+03  0.63255114104E+03  0.00000000000E+00 0.  1.
         23    2    1    2    0    0  0.83244391462E+01  0.77253087481E+02 -0.37052566199E+03  0.39046833561E+03  0.95597694022E+02 0.  0.
         23    2    1    2    0    0  0.10595982572E+02 -0.65613422357E+02 -0.13242837334E+03  0.16784282360E+03  0.78845059004E+02 0.  0.
        -11    1    4    4    0    0 -0.18815858251E+02  0.10118839803E+02 -0.34769257889E+02  0.40808439505E+02  0.00000000000E+00 0.  1.
         11    1    4    4    0    0  0.29411840822E+02 -0.75732262160E+02 -0.97659115454E+02  0.12703438410E+03  0.00000000000E+00 0. -1.
        -13    1    3    3    0    0 -0.23556417404E+02  0.65984648570E+02 -0.33153720020E+03  0.33885954873E+03  0.00000000000E+00 0.  1.
         13    1    3    3    0    0  0.31880856551E+02  0.11268438910E+02 -0.38988461793E+02  0.51608786876E+02  0.00000000000E+00 0. -1.
         21    1    1    2  502  501 -0.18920421718E+02 -0.11639665124E+02 -0.10070810614E+03  0.10312898140E+03  0.00000000000E+00 0.  1.
<scales pt_clust_5="13000.00000" pt_clust_6="13000.00000" pt_clust_7="13000.00000" pt_clust_8="13000.00000" pt_clust_9="22.21405"></scales>
<clustering>
<clus scale="   22.214">  2  9  1 -1</clus>
<clus scale="   78.845">  5  6 -1 -1</clus>
<clus scale="   95.598">  7  8 -1 -1</clus>
<clus scale="  104.844">  1  5  2 -1</clus>
<clus scale="  104.844">  1  5  2 -1</clus>
</clustering>
</event>
<event>
 9    1  0.1434065E-005  0.2111631E+03  0.7546771E-02  0.1140799E+00
          1   -1    0    0  502    0  0.00000000000E+00  0.00000000000E+00  0.52936435268E+03  0.52936435268E+03  0.00000000000E+00 0. -1.
         -1   -1    0    0    0  501 -0.00000000000E+00 -0.00000000000E+00 -0.30357135277E+03  0.30357135277E+03  0.00000000000E+00 0.  1.
         23    2    1    2    0    0 -0.27624487870E+03  0.41373411566E+02  0.15100098905E+03  0.33053440478E+03  0.91807961842E+02 0.  0.
         23    2    1    2    0    0  0.14904631888E+03 -0.54187382894E+02  0.23429414445E+03  0.29798847793E+03  0.93553777158E+02 0.  0.
        -11    1    4    4    0    0  0.57402170838E+02  0.87502884759E+01  0.29890662012E+02  0.65307185216E+02  0.00000000000E+00 0.  1.
         11    1    4    4    0    0  0.91644148044E+02 -0.62937671370E+02  0.20440348244E+03  0.23268129272E+03  0.00000000000E+00 0. -1.
        -11    1    3    3    0    0 -0.16109407649E+03  0.37319713041E+02  0.39106982575E+02  0.16992180127E+03  0.00000000000E+00 0.  1.
         11    1    3    3    0    0 -0.11515080221E+03  0.40536985255E+01  0.11189400647E+03  0.16061260351E+03  0.00000000000E+00 0. -1.
         21    1    1    2  502  501  0.12719855982E+03  0.12813971328E+02 -0.15950213359E+03  0.20441282274E+03  0.00000000000E+00 0.  1.
<scales pt_clust_5="13000.00000" pt_clust_6="13000.00000" pt_clust_7="13000.00000" pt_clust_8="13000.00000" pt_clust_9="127.84237"></scales>
<clustering>
<clus scale="   91.808">  7  8 -1 -1</clus>
<clus scale="   93.554">  5  6 -1 -1</clus>
<clus scale="  127.842">  2  9  1 -1</clus>
<clus scale="  210.395">  2  7  1 -1</clus>
<clus scale="  211.163">  1  5  2 -1</clus>
</clustering>
</event>
<event>
 9    1  0.1434065E-005  0.1531865E+03  0.7546771E-02  0.1196853E+00
         -1   -1    0    0    0  501 -0.00000000000E+00  0.00000000000E+00  0.54054401225E+02  0.54054401225E+02  0.00000000000E+00 0.  1.
          1   -1    0    0  502    0  0.00000000000E+00 -0.00000000000E+00 -0.58090323404E+03  0.58090323404E+03  0.00000000000E+00 0. -1.
         23    2    1    2    0    0  0.10712689435E+03 -0.82788934499E+02 -0.19382651262E+03  0.25389692742E+03  0.92545953922E+02 0.  0.
         23    2    1    2    0    0 -0.93395289174E+02  0.64546686402E+02 -0.32505767214E+03  0.35687864394E+03  0.93866509004E+02 0.  0.
        -13    1    4    4    0    0  0.23352575415E+01  0.48069182896E+02 -0.81264098716E+02  0.94445505516E+02  0.00000000000E+00 0.  1.
         13    1    4    4    0    0 -0.95730546716E+02  0.16477503506E+02 -0.24379357343E+03  0.26243313842E+03  0.00000000000E+00 0. -1.
        -13    1    3    3    0    0  0.97146763804E+02 -0.23920909343E+02 -0.14793564794E+03  0.17859075999E+03  0.00000000000E+00 0.  1.
         13    1    3    3    0    0  0.99801305483E+01 -0.58868025156E+02 -0.45890864677E+02  0.75306167425E+02  0.00000000000E+00 0. -1.
         21    1    1    2  502  501 -0.13731605179E+02  0.18242248097E+02 -0.79646480461E+01  0.24182063909E+02  0.00000000000E+00 0. -1.
<scales pt_clust_5="13000.00000" pt_clust_6="13000.00000" pt_clust_7="13000.00000" pt_clust_8="13000.00000" pt_clust_9="22.83280"></scales>
<clustering>
<clus scale="   22.833">  1  9  2 -1</clus>
<clus scale="   92.546">  7  8 -1 -1</clus>
<clus scale="   93.867">  5  6 -1 -1</clus>
<clus scale="  152.381">  1  7  2 -1</clus>
<clus scale="  153.186">  2  5  1 -1</clus>
</clustering>
</event>
<event>
 9    1  0.1434065E-005  0.1130328E+03  0.7546771E-02  0.1256894E+00
          2   -1    0    0  502    0  0.00000000000E+00  0.00000000000E+00  0.21751865312E+03  0.21751865312E+03  0.00000000000E+00 0. -1.
         -2   -1    0    0    0  501 -0.00000000000E+00 -0.00000000000E+00 -0.84128315364E+02  0.84128315364E+02  0.00000000000E+00 0.  1.
         23    2    1    2    0    0 -0.75318379854E+02 -0.19339635869E+02  0.64422154266E+02  0.13659016311E+03  0.91977056046E+02 0.  0.
         23    2    1    2    0    0  0.57597397155E+02 -0.18408016109E+02  0.62133459079E+02  0.12280006727E+03  0.86965364186E+02 0.  0.
        -11    1    4    4    0    0  0.30452004961E+02  0.12890024829E+02 -0.14168988152E+02  0.35975513499E+02  0.00000000000E+00 0.  1.
         11    1    4    4    0    0  0.27145392194E+02 -0.31298040938E+02  0.76302447231E+02  0.86824553770E+02  0.00000000000E+00 0. -1.
        -11    1    3    3    0    0 -0.61963784627E+02 -0.54294261432E+02  0.50691627233E+02  0.96731683027E+02  0.00000000000E+00 0. -1.
         11    1    3    3    0    0 -0.13354595227E+02  0.34954625563E+02  0.13730527034E+02  0.39858480083E+02  0.00000000000E+00 0.  1.
         21    1    1    2  502  501  0.17720982699E+02  0.37747651978E+02  0.68347244127E+01  0.42256738108E+02  0.00000000000E+00 0. -1.
<scales pt_clust_5="13000.00000" pt_clust_6="13000.00000" pt_clust_7="13000.00000" pt_clust_8="13000.00000" pt_clust_9="41.70034"></scales>
<clustering>
<clus scale="   41.700">  2  9  1 -1</clus>
<clus scale="   86.965">  5  6 -1 -1</clus>
<clus scale="   91.977">  7  8 -1 -1</clus>
<clus scale="  108.994">  1  5  2 -1</clus>
<clus scale="  108.994">  1  5  2 -1</clus>
</clustering>
</event>
<event>
 9    1  0.1434065E-005  0.2771621E+03  0.7546771E-02  0.1097406E+00
         -1   -1    0    0    0  501 -0.00000000000E+00  0.00000000000E+00  0.32565125714E+03  0.32565125714E+03  0.00000000000E+00 0.  1.
          1   -1    0    0  502    0  0.00000000000E+00 -0.00000000000E+00 -0.86256076411E+03  0.86256076411E+03  0.00000000000E+00 0. -1.
         23    2    1    2    0    0 -0.55162160558E+01  0.27121538694E+03  0.21708205159E+03  0.35935097480E+03  0.91762144772E+02 0.  0.
         23    2    1    2    0    0  0.26685694418E+02 -0.25941227094E+03 -0.75596912366E+03  0.80454292306E+03  0.88278799971E+02 0.  0.
        -11    1    3    3    0    0  0.24205575311E+02  0.25958811076E+02  0.49159160375E+02  0.60633264777E+02  0.00000000000E+00 0. -1.
         11    1    3    3    0    0 -0.29721791367E+02  0.24525657587E+03  0.16792289121E+03  0.29871771002E+03  0.00000000000E+00 0.  1.
        -11    1    4    4    0    0  0.57943973289E+02 -0.16102906319E+03 -0.43850973799E+03  0.47072141819E+03  0.00000000000E+00 0. -1.
         11    1    4    4    0    0 -0.31258278871E+02 -0.98383207749E+02 -0.31745938568E+03  0.33382150488E+03  0.00000000000E+00 0.  1.
         21    1    1    2  502  501 -0.21169478362E+02 -0.11803116003E+02  0.19775650977E+01  0.24318123390E+02  0.00000000000E+00 0.  1.
<scales pt_clust_5="13000.00000" pt_clust_6="13000.00000" pt_clust_7="13000.00000" pt_clust_8="13000.00000" pt_clust_9="24.23758"></scales>
<clustering>
<clus scale="   24.238">  1  9  2 -1</clus>
<clus scale="   88.279">  7  8 -1 -1</clus>
<clus scale="   91.762">  5  6 -1 -1</clus>
<clus scale="  276.028">  2  7  1 -1</clus>
<clus scale="  276.028">  2  5  1 -1</clus>
</clustering>
</event>
<event>
 9    1  0.1434065E-005  0.1121226E+03  0.7546771E-02  0.1256790E+00
          2   -1    0    0  502    0  0.00000000000E+00  0.00000000000E+00  0.11703616894E+03  0.11703616894E+03  0.00000000000E+00 0. -1.
         -2   -1    0    0    0  501 -0.00000000000E+00 -0.00000000000E+00 -0.21211137558E+03  0.21211137558E+03  0.00000000000E+00 0.  1.
         23    2    1    2    0    0 -0.37701066109E+02 -0.80209556974E+02 -0.74943655622E+02  0.14837907644E+03  0.92438387004E+02 0.  0.
         23    2    1    2    0    0  0.72795204309E+01  0.55094602467E+02  0.34824419124E+02  0.11311944714E+03  0.92167578432E+02 0.  0.
        -11    1    3    3    0    0  0.25976874721E+02 -0.43491271148E+00 -0.15887372538E+02  0.30453173488E+02  0.00000000000E+00 0. -1.
         11    1    3    3    0    0 -0.63677940830E+02 -0.79774644262E+02 -0.59056283084E+02  0.11792590295E+03  0.00000000000E+00 0.  1.
        -13    1    4    4    0    0  0.15792952353E+02  0.79869134605E+02  0.25574833401E+02  0.85337964061E+02  0.00000000000E+00 0. -1.
         13    1    4    4    0    0 -0.85134319225E+01 -0.24774532138E+02  0.92495857228E+01  0.27781483074E+02  0.00000000000E+00 0.  1.
         21    1    1    2  502  501  0.30421545678E+02  0.25114954506E+02 -0.54955970138E+02  0.67649020947E+02  0.00000000000E+00 0. -1.
<scales pt_clust_5="13000.00000" pt_clust_6="13000.00000" pt_clust_7="13000.00000" pt_clust_8="13000.00000" pt_clust_9="39.44910"></scales>
<clustering>
<clus scale="   39.449">  2  9  1 -1</clus>
<clus scale="   92.168">  7  8 -1 -1</clus>
<clus scale="   92.438">  5  6 -1 -1</clus>
<clus scale="  111.899">  1  7  2 -1</clus>
<clus scale="  111.899">  1  5  2 -1</clus>
</clustering>
</event>
<event>
 9    1  0.1434065E-005  0.1378141E+03  0.7546771E-02  0.1219714E+00
         -1   -1    0    0    0  501 -0.00000000000E+00  0.00000000000E+00  0.10180537981E+03  0.10180537981E+03  0.00000000000E+00 0.  1.
          1   -1    0    0  502    0  0.00000000000E+00 -0.00000000000E+00 -0.47892550459E+03  0.47892550459E+03  0.00000000000E+00 0. -1.
         23    2    1    2    0    0 -0.48859818699E+01 -0.97986576879E+02 -0.21089878265E+02  0.13283893483E+03  0.87041125764E+02 0.  0.
         23    2    1    2    0    0 -0.81680415306E+02  0.62524953083E+02 -0.31388270966E+03  0.34528745286E+03  0.10059825880E+03 0.  0.
        -13    1    3    3    0    0  0.25533409666E+02 -0.70007138356E+02  0.17222734384E+02  0.76482527480E+02  0.00000000000E+00 0. -1.
         13    1    3    3    0    0 -0.30419391536E+02 -0.27979438523E+02 -0.38312612650E+02  0.56356407351E+02  0.00000000000E+00 0.  1.
        -13    1    4    4    0    0 -0.92618479997E+02  0.21152792245E+02 -0.16520489786E+03  0.19057355990E+03  0.00000000000E+00 0.  1.
         13    1    4    4    0    0  0.10938064691E+02  0.41372160838E+02 -0.14867781180E+03  0.15471389295E+03  0.00000000000E+00 0. -1.
         21    1    1    2  502  501  0.86566397175E+02  0.35461623796E+02 -0.42147536864E+02  0.10260449671E+03  0.00000000000E+00 0.  1.
<scales pt_clust_5="13000.00000" pt_clust_6="13000.00000" pt_clust_7="13000.00000" pt_clust_8="13000.00000" pt_clust_9="93.54821"></scales>
<clustering>
<clus scale="   87.041">  5  6 -1 -1</clus>
<clus scale="   93.548">  1  9  2 -1</clus>
<clus scale="  100.598">  7  8 -1 -1</clus>
<clus scale="  128.253">  1  5  2 -1</clus>
<clus scale="  137.814">  2  5  1 -1</clus>
</clustering>
</event>
<event>
 9    1  0.1434065E-005  0.1517566E+03  0.7546771E-02  0.1205317E+00
          2   -1    0    0  502    0  0.00000000000E+00  0.00000000000E+00  0.87258904246E+03  0.87258904246E+03  0.00000000000E+00 0. -1.
         -2   -1    0    0    0  501 -0.00000000000E+00 -0.00000000000E+00 -0.42190833834E+02  0.42190833834E+02  0.00000000000E+00 0.  1.
         23    2    1    2    0    0  0.70085122499E+02  0.90343969835E+02  0.18261855181E+03  0.23379757723E+03  0.90762406169E+02 0.  0.
         23    2    1    2    0    0 -0.48814931548E+02 -0.71878236421E+02  0.63132735631E+03  0.64836202124E+03  0.11937211291E+03 0.  0.
        -11    1    4    4    0    0 -0.86634719496E+02 -0.66744573101E+02  0.45656552302E+03  0.46948108532E+03  0.00000000000E+00 0. -1.
         11    1    4    4    0    0  0.37819787947E+02 -0.51336633204E+01  0.17476183329E+03  0.17888093592E+03  0.00000000000E+00 0.  1.
        -13    1    3    3    0    0  0.17289120081E+02  0.10995302484E+02  0.11531495681E+03  0.11712108953E+03  0.00000000000E+00 0. -1.
         13    1    3    3    0    0  0.52796002418E+02  0.79348667351E+02  0.67303595000E+02  0.11667648770E+03  0.00000000000E+00 0.  1.
         21    1    1    2  502  501 -0.21270190951E+02 -0.18465733414E+02  0.16452300512E+02  0.32620277830E+02  0.00000000000E+00 0. -1.
<scales pt_clust_5="13000.00000" pt_clust_6="13000.00000" pt_clust_7="13000.00000" pt_clust_8="13000.00000" pt_clust_9="28.16743"></scales>
<clustering>
<clus scale="   28.167">  2  9  1 -1</clus>
<clus scale="   90.762">  7  8 -1 -1</clus>
<clus scale="  119.372">  5  6 -1 -1</clus>
<clus scale="  130.454">  2  7  1 -1</clus>
<clus scale="  151.757">  1  5  2 -1</clus>
</clustering>
</event>
<event>
 9    1  0.1434065E-005  0.1087967E+03  0.7546771E-02  0.1263646E+00
         -1   -1    0    0    0  501 -0.00000000000E+00  0.00000000000E+00  0.13893467448E+03  0.13893467448E+03  0.00000000000E+00 0.  1.
          1   -1    0    0  502    0  0.00000000000E+00 -0.00000000000E+00 -0.14301653294E+03  0.14301653294E+03  0.00000000000E+00 0. -1.
         23    2    1    2    0    0  0.13210283188E+02 -0.43624404228E+02 -0.27674868304E+01  0.10233693940E+03  0.91583786535E+02 0.  0.
         23    2    1    2    0    0 -0.11732197562E+02  0.67429283602E+02 -0.51630075487E+02  0.12393189133E+03  0.89493554214E+02 0.  0.
        -11    1    4    4    0    0  0.77467325940E+01  0.47513533898E+02  0.16047386576E+02  0.50745111935E+02  0.00000000000E+00 0.  1.
         11    1    4    4    0    0 -0.19478930156E+02  0.19915749704E+02 -0.67677462063E+02  0.73186779391E+02  0.00000000000E+00 0. -1.
        -13    1    3    3    0    0  0.51781360254E+02 -0.16323913780E+02 -0.76521262775E+01  0.54830050770E+02  0.00000000000E+00 0.  1.
         13    1    3    3    0    0 -0.38571077066E+02 -0.27300490448E+02  0.48846394471E+01  0.47506888630E+02  0.00000000000E+00 0. -1.
         21    1    1    2  502  501 -0.14780856256E+01 -0.23804879374E+02  0.50315703862E+02  0.55682376693E+02  0.00000000000E+00 0.  1.
<scales pt_clust_5="13000.00000" pt_clust_6="13000.00000" pt_clust_7="13000.00000" pt_clust_8="13000.00000" pt_clust_9="23.85072"></scales>
<clustering>
<clus scale="   23.851">  1  9  2 -1</clus>
<clus scale="   89.494">  5  6 -1 -1</clus>
<clus scale="   91.584">  7  8 -1 -1</clus>
<clus scale="  107.043">  2  5  1 -1</clus>
<clus scale="  107.043">  2  5  1 -1</clus>
</clustering>
</event>
<event>
 9    1  0.1434065E-005  0.9730554E+02  0.7546771E-02  0.1287287E+00
         -1   -1    0    0    0  501 -0.00000000000E+00  0.00000000000E+00  0.89978219553E+02  0.89978219553E+02  0.00000000000E+00 0.  1.
          1   -1    0    0  502    0  0.00000000000E+00 -0.00000000000E+00 -0.47213591339E+03  0.47213591339E+03  0.00000000000E+00 0. -1.
         23    2    1    2    0    0  0.35641980359E+02 -0.82392198924E+02  0.51478706051E+01  0.12883002957E+03  0.92259691845E+02 0.  0.
         23    2    1    2    0    0 -0.22859234343E+02  0.13359654560E+02 -0.32878183858E+03  0.34188433715E+03  0.89924288386E+02 0.  0.
        -11    1    4    4    0    0 -0.40876954628E+02 -0.25529288990E+02 -0.21404551990E+03  0.21940408976E+03  0.00000000000E+00 0.  1.
         11    1    4    4    0    0  0.18017720286E+02  0.38888943550E+02 -0.11473631869E+03  0.12248024739E+03  0.00000000000E+00 0. -1.
        -11    1    3    3    0    0  0.31781218961E+02 -0.34920780179E+02  0.46119540321E+02  0.66003929931E+02  0.00000000000E+00 0.  1.
         11    1    3    3    0    0  0.38607613982E+01 -0.47471418745E+02 -0.40971669716E+02  0.62826099636E+02  0.00000000000E+00 0. -1.
         21    1    1    2  502  501 -0.12782746016E+02  0.69032544364E+02 -0.58523725853E+02  0.91399766218E+02  0.00000000000E+00 0. -1.
<scales pt_clust_5="13000.00000" pt_clust_6="13000.00000" pt_clust_7="13000.00000" pt_clust_8="13000.00000" pt_clust_9="70.20606"></scales>
<clustering>
<clus scale="   70.206">  1  9  2 -1</clus>
<clus scale="   89.924">  5  6 -1 -1</clus>
<clus scale="   92.260">  7  8 -1 -1</clus>
<clus scale="   95.094">  2  5  1 -1</clus>
<clus scale="   95.094">  2  5  1 -1</clus>
</clustering>
</event>
<event>
 9    1  0.1434065E-005  0.9436161E+02  0.7546771E-02  0.1292853E+00
          1   -1    0    0  502    0  0.00000000000E+00  0.00000000000E+00  0.49200376788E+02  0.49200376788E+02  0.00000000000E+00 0. -1.
         -1   -1    0    0    0  501 -0.00000000000E+00 -0.00000000000E+00 -0.32778619679E+03  0.32778619679E+03  0.00000000000E+00 0.  1.
         23    2    1    2    0    0  0.29395383613E+01 -0.69262850839E+01 -0.15230755878E+03  0.17822812653E+03  0.92255397203E+02 0.  0.
         23    2    1    2    0    0 -0.11437967392E+02 -0.28469634553E+02 -0.39351901930E+02  0.10451787000E+03  0.91837169894E+02 0.  0.
        -11    1    4    4    0    0 -0.34540146635E+02 -0.52875846517E+02 -0.27472073615E+02  0.68873737398E+02  0.00000000000E+00 0.  1.
         11    1    4    4    0    0  0.23102179242E+02  0.24406211964E+02 -0.11879828315E+02  0.35644132602E+02  0.00000000000E+00 0. -1.
        -13    1    3    3    0    0  0.19275640752E+02  0.39168487716E+02 -0.72576226941E+02  0.84693739280E+02  0.00000000000E+00 0. -1.
         13    1    3    3    0    0 -0.16336102391E+02 -0.46094772799E+02 -0.79731331838E+02  0.93534387246E+02  0.00000000000E+00 0.  1.
         21    1    1    2  502  501  0.84984290311E+01  0.35395919637E+02 -0.86926359291E+02  0.94240577049E+02  0.00000000000E+00 0. -1.
<scales pt_clust_5="13000.00000" pt_clust_6="13000.00000" pt_clust_7="13000.00000" pt_clust_8="13000.00000" pt_clust_9="36.40185"></scales>
<clustering>
<clus scale="   36.402">  2  9  1 -1</clus>
<clus scale="   91.837">  5  6 -1 -1</clus>
<clus scale="   92.255">  7  8 -1 -1</clus>
<clus scale="   93.953">  1  5  2 -1</clus>
<clus scale="   93.953">  1  5  2 -1</clus>
</clustering>
</event>
<event>
 9    1  0.1434065E-005  0.2132153E+03  0.7546771E-02  0.1139360E+00
          2   -1    0    0  502    0  0.00000000000E+00  0.00000000000E+00  0.33140148545E+03  0.33140148545E+03  0.00000000000E+00 0. -1.
         -2   -1    0    0    0  501 -0.00000000000E+00 -0.00000000000E+00 -0.18613174099E+03  0.18613174099E+03  0.00000000000E+00 0.  1.
         23    2    1    2    0    0 -0.17075486890E+03 -0.11495352009E+03  0.15439892426E+02  0.22555068379E+03  0.90902055242E+02 0.  0.
         23    2    1    2    0    0  0.14595762420E+03  0.11185430975E+03  0.15351572340E+03  0.25755103162E+03  0.94606775041E+02 0.  0.
        -13    1    3    3    0    0 -0.89148540849E+02 -0.57273284549E+02  0.53393590048E+02  0.11865313699E+03  0.00000000000E+00 0. -1.
         13    1    3    3    0    0 -0.81606328054E+02 -0.57680235537E+02 -0.37953697622E+02  0.10689754681E+03  0.00000000000E+00 0.  1.
        -13    1    4    4    0    0  0.10156891389E+03  0.10405533170E+03  0.15490610682E+03  0.21246095701E+03  0.00000000000E+00 0. -1.
         13    1    4    4    0    0  0.44388710312E+02  0.77989780445E+01 -0.13903834190E+01  0.45090074603E+02  0.00000000000E+00 0.  1.
         21    1    1    2  502  501  0.24797244705E+02  0.30992103380E+01 -0.23685871369E+02  0.34431511036E+02  0.00000000000E+00 0. -1.
<scales pt_clust_5="13000.00000" pt_clust_6="13000.00000" pt_clust_7="13000.00000" pt_clust_8="13000.00000" pt_clust_9="24.99017"></scales>
<clustering>
<clus scale="   24.990">  2  9  1 -1</clus>
<clus scale="   90.902">  5  6 -1 -1</clus>
<clus scale="   94.607">  7  8 -1 -1</clus>
<clus scale="  211.598">  2  5  1 -1</clus>
<clus scale="  213.215">  1  5  2 -1</clus>
</clustering>
</event>
<event>
 9    1  0.1434065E-005  0.9147862E+02  0.7546771E-02  0.1302320E+00
          1   -1    0    0  502    0  0.00000000000E+00  0.00000000000E+00  0.34357308173E+03  0.34357308173E+03  0.00000000000E+00 0. -1.
         -1   -1    0    0    0  501 -0.00000000000E+00 -0.00000000000E+00 -0.92761026765E+02  0.92761026765E+02  0.00000000000E+00 0.  1.
         23    2    1    2    0    0 -0.54484568707E+02 -0.41023140280E+02  0.10549575708E+03  0.15148136526E+03  0.84650947970E+02 0.  0.
         23    2    1    2    0    0 -0.48519321030E+01 -0.17000727125E+01  0.18206394015E+03  0.20302070508E+03  0.89686659531E+02 0.  0.
        -13    1    3    3    0    0 -0.52829566073E+02  0.13069712041E+02  0.57088927466E+02  0.78872847441E+02  0.00000000000E+00 0.  1.
         13    1    3    3    0    0 -0.16550026349E+01 -0.54092852321E+02  0.48406829616E+02  0.72608517816E+02  0.00000000000E+00 0. -1.
        -13    1    4    4    0    0 -0.12653145918E+01 -0.34032354453E+02  0.16030809366E+03  0.16388559138E+03  0.00000000000E+00 0. -1.
         13    1    4    4    0    0 -0.35866175113E+01  0.32332281741E+02  0.21755846487E+02  0.39135113697E+02  0.00000000000E+00 0.  1.
         21    1    1    2  502  501  0.59336500810E+02  0.42723212992E+02 -0.36747642264E+02  0.81832038156E+02  0.00000000000E+00 0.  1.
<scales pt_clust_5="13000.00000" pt_clust_6="13000.00000" pt_clust_7="13000.00000" pt_clust_8="13000.00000" pt_clust_9="73.11698"></scales>
<clustering>
<clus scale="   73.117">  2  9  1 -1</clus>
<clus scale="   84.651">  5  6 -1 -1</clus>
<clus scale="   86.547">  2  5  1 -1</clus>
<clus scale="   89.687">  7  8 -1 -1</clus>
<clus scale="   91.479">  1  5  2 -1</clus>
</clustering>
</event>
<event>
 9    1  0.1434065E-005  0.2575976E+03  0.7546771E-02  0.1138792E+00
         -1   -1    0    0    0  501 -0.00000000000E+00  0.00000000000E+00  0.79768264567E+03  0.79768264567E+03  0.00000000000E+00 0.  1.
          1   -1    0    0  502    0  0.00000000000E+00 -0.00000000000E+00 -0.28428256685E+03  0.28428256685E+03  0.00000000000E+00 0. -1.
         23    2    1    2    0    0  0.80573892844E+02 -0.42424291742E+01  0.55596019883E+03  0.56911293517E+03  0.91036475593E+02 0.  0.
         23    2    1    2    0    0  0.17846671955E+03 -0.80909354267E+02  0.55757510240E+02  0.22299158406E+03  0.90662302080E+02 0.  0.
        -11    1    3    3    0    0  0.11039898301E+02  0.33051934668E+02  0.89839011767E+02  0.96360561305E+02  0.00000000000E+00 0.  1.
         11    1    3    3    0    0  0.69533994543E+02 -0.37294363842E+02  0.46612118706E+03  0.47275237387E+03  0.00000000000E+00 0. -1.
        -13    1    4    4    0    0 -0.56943024801E+00 -0.23255344955E+02 -0.76709864679E+01  0.24494475972E+02  0.00000000000E+00 0.  1.
         13    1    4    4    0    0  0.17903614980E+03 -0.57654009313E+02  0.63428496708E+02  0.19849710809E+03  0.00000000000E+00 0. -1.
         21    1    1    2  502  501 -0.25904061240E+03  0.85151783441E+02 -0.98317630244E+02  0.28986069328E+03  0.00000000000E+00 0.  1.
<scales pt_clust_5="13000.00000" pt_clust_6="13000.00000" pt_clust_7="13000.00000" pt_clust_8="13000.00000" pt_clust_9="241.11589"></scales>
<clustering>
<clus scale="   90.662">  7  8 -1 -1</clus>
<clus scale="   91.036">  5  6 -1 -1</clus>
<clus scale="  121.646">  1  5  2 -1</clus>
<clus scale="  241.116">  2  9  1 -1</clus>
<clus scale="  241.116">  2  5  1 -1</clus>
</clustering>
</event>
<event>
 9    1  0.1434065E-005  0.1002025E+03  0.7546771E-02  0.1280356E+00
          1   -1    0    0  502    0  0.00000000000E+00  0.00000000000E+00  0.26163740572E+03  0.26163740572E+03  0.00000000000E+00 0. -1.
         -1   -1    0    0    0  501 -0.00000000000E+00 -0.00000000000E+00 -0.13867774924E+03  0.13867774924E+03  0.00000000000E+00 0.  1.
         23    2    1    2    0    0  0.73437149665E+01  0.33540659508E+02  0.76518552871E+02  0.12452054321E+03  0.92040049749E+02 0.  0.
         23    2    1    2    0    0  0.59429081392E+02 -0.22263498792E+02  0.12824792976E+03  0.16959603600E+03  0.91037381597E+02 0.  0.
        -13    1    4    4    0    0  0.30754783878E+02  0.29276075800E+02  0.89403162485E+02  0.98974091600E+02  0.00000000000E+00 0.  1.
         13    1    4    4    0    0  0.28674297514E+02 -0.51539574592E+02  0.38844767270E+02  0.70621944404E+02  0.00000000000E+00 0. -1.
        -13    1    3    3    0    0 -0.33905713415E+02 -0.10382194406E+02  0.42409484039E+02  0.55280662978E+02  0.00000000000E+00 0.  1.
         13    1    3    3    0    0  0.41249428381E+02  0.43922853914E+02  0.34109068832E+02  0.69239880231E+02  0.00000000000E+00 0. -1.
         21    1    1    2  502  501 -0.66772796359E+02 -0.11277160716E+02 -0.81806826142E+02  0.10619857575E+03  0.00000000000E+00 0.  1.
<scales pt_clust_5="13000.00000" pt_clust_6="13000.00000" pt_clust_7="13000.00000" pt_clust_8="13000.00000" pt_clust_9="67.71839"></scales>
<clustering>
<clus scale="   67.718">  2  9  1 -1</clus>
<clus scale="   91.037">  5  6 -1 -1</clus>
<clus scale="   92.040">  7  8 -1 -1</clus>
<clus scale="   99.282">  1  5  2 -1</clus>
<clus scale="   99.282">  1  5  2 -1</clus>
</clustering>
</event>
<event>
 9    1  0.1434065E-005  0.1184043E+03  0.7546771E-02  0.1246204E+00
          1   -1    0    0  502    0  0.00000000000E+00  0.00000000000E+00  0.35954640120E+03  0.35954640120E+03  0.00000000000E+00 0. -1.
         -1   -1    0    0    0  501 -0.00000000000E+00 -0.00000000000E+00 -0.63295473191E+02  0.63295473191E+02  0.00000000000E+00 0.  1.
         23    2    1    2    0    0 -0.17584885247E+02 -0.44117704161E+02  0.83651531505E+02  0.13197359045E+03  0.90354025050E+02 0.  0.
         23    2    1    2    0    0  0.53851207676E+02  0.85309684010E+02  0.18389219842E+03  0.22893179576E+03  0.91737297310E+02 0.  0.
        -11    1    3    3    0    0 -0.44744113702E+02 -0.27229975561E+02  0.12330582469E+02  0.53810320052E+02  0.00000000000E+00 0. -1.
         11    1    3    3    0    0  0.27159228455E+02 -0.16887728600E+02  0.71320949035E+02  0.78163270395E+02  0.00000000000E+00 0.  1.
        -13    1    4    4    0    0 -0.13409725839E+02  0.58520598425E+02  0.56710197191E+02  0.82586485896E+02  0.00000000000E+00 0. -1.
         13    1    4    4    0    0  0.67260933515E+02  0.26789085585E+02  0.12718200123E+03  0.14634530987E+03  0.00000000000E+00 0.  1.
         21    1    1    2  502  501 -0.36266322429E+02 -0.41191979849E+02  0.28707198088E+02  0.61936488183E+02  0.00000000000E+00 0.  1.
<scales pt_clust_5="13000.00000" pt_clust_6="13000.00000" pt_clust_7="13000.00000" pt_clust_8="13000.00000" pt_clust_9="54.88192"></scales>
<clustering>
<clus scale="   54.882">  2  9  1 -1</clus>
<clus scale="   90.354">  5  6 -1 -1</clus>
<clus scale="   91.737">  7  8 -1 -1</clus>
<clus scale="  117.336">  2  5  1 -1</clus>
<clus scale="  118.404">  1  5  2 -1</clus>
</clustering>
</event>
<event>
 9    1  0.1434065E-005  0.1011601E+03  0.7546771E-02  0.1279094E+00
          1   -1    0    0  502    0  0.00000000000E+00  0.00000000000E+00  0.36526302486E+03  0.36526302486E+03  0.00000000000E+00 0. -1.
         -1   -1    0    0    0  501 -0.00000000000E+00 -0.00000000000E+00 -0.42379008214E+02  0.42379008214E+02  0.00000000000E+00 0.  1.
         23    2    1    2    0    0  0.88304959280E+01 -0.27198655877E+02  0.91067433951E+02  0.13274803904E+03  0.92255188485E+02 0.  0.
         23    2    1    2    0    0 -0.30636188813E+02  0.56929114371E+02  0.18123717530E+03  0.21230274179E+03  0.89699723161E+02 0.  0.
        -13    1    3    3    0    0  0.10748138084E+01 -0.51146376837E+02  0.94385559495E+02  0.10735800356E+03  0.00000000000E+00 0.  1.
         13    1    3    3    0    0  0.77556821196E+01  0.23947720959E+02 -0.33181255437E+01  0.25390035475E+02  0.00000000000E+00 0. -1.
        -13    1    4    4    0    0  0.12850140225E+02 -0.15459893496E+02  0.12660846522E+02  0.23757766001E+02  0.00000000000E+00 0.  1.
         13    1    4    4    0    0 -0.43486329037E+02  0.72389007867E+02  0.16857632878E+03  0.18854497579E+03  0.00000000000E+00 0. -1.
         21    1    1    2  502  501  0.21805692885E+02 -0.29730458494E+02  0.50579407394E+02  0.62591252238E+02  0.00000000000E+00 0. -1.
<scales pt_clust_5="13000.00000" pt_clust_6="13000.00000" pt_clust_7="13000.00000" pt_clust_8="13000.00000" pt_clust_9="36.86988"></scales>
<clustering>
<clus scale="   36.870">  1  9  2 -1</clus>
<clus scale="   89.700">  7  8 -1 -1</clus>
<clus scale="   92.255">  5  6 -1 -1</clus>
<clus scale="   98.835">  1  7  2 -1</clus>
<clus scale="   36.870">  1  5  2 -1</clus>
</clustering>
</event>
<event>
 9    1  0.1434065E-005  0.1974243E+03  0.7546771E-02  0.1151944E+00
         -4   -1    0    0    0  501 -0.00000000000E+00  0.00000000000E+00  0.54023193967E+03  0.54023193967E+03  0.00000000000E+00 0.  1.
          4   -1    0    0  502    0  0.00000000000E+00 -0.00000000000E+00 -0.51546321986E+03  0.51546321986E+03  0.00000000000E+00 0. -1.
         23    2    1    2    0    0 -0.98899906198E+02 -0.15514403585E+03  0.67238619926E+02  0.21644987330E+03  0.92079597837E+02 0.  0.
         23    2    1    2    0    0  0.14972299811E+03  0.91781762343E+02 -0.41393353557E+03  0.45900457714E+03  0.92213675245E+02 0.  0.
        -11    1    4    4    0    0  0.45383688412E+01  0.28971980229E+02 -0.13674359007E+03  0.13985271487E+03  0.00000000000E+00 0.  1.
         11    1    4    4    0    0  0.14518462927E+03  0.62809782114E+02 -0.27718994550E+03  0.31915186227E+03  0.00000000000E+00 0. -1.
        -13    1    3    3    0    0 -0.40035122786E+02 -0.37690099305E+02 -0.20261601804E+02  0.58599378408E+02  0.00000000000E+00 0. -1.
         13    1    3    3    0    0 -0.58864783412E+02 -0.11745393655E+03  0.87500221730E+02  0.15785049490E+03  0.00000000000E+00 0.  1.
         21    1    1    2  502  501 -0.50823091913E+02  0.63362273508E+02  0.37146363546E+03  0.38024070908E+03  0.00000000000E+00 0.  1.
<scales pt_clust_5="13000.00000" pt_clust_6="13000.00000" pt_clust_7="13000.00000" pt_clust_8="13000.00000" pt_clust_9="81.22662"></scales>
<clustering>
<clus scale="   81.227">  1  9  2 -1</clus>
<clus scale="   92.080">  7  8 -1 -1</clus>
<clus scale="   92.214">  5  6 -1 -1</clus>
<clus scale="  197.362">  1  7  2 -1</clus>
<clus scale="  197.424">  2  5  1 -1</clus>
</clustering>
</event>
<event>
 9    1  0.2712941E-005  0.1009506E+03  0.7546771E-02  0.1279861E+00
         -1   -1    0    0    0  501 -0.00000000000E+00  0.00000000000E+00  0.13462836848E+03  0.13462836848E+03  0.00000000000E+00 0.  1.
          1   -1    0    0  502    0  0.00000000000E+00 -0.00000000000E+00 -0.34623569684E+03  0.34623569684E+03  0.00000000000E+00 0. -1.
         23    2    1    2    0    0  0.54208217398E+02 -0.43910419954E+02  0.78083180102E+02  0.14014332952E+03  0.93147807166E+02 0.  0.
         23    2    1    2    0    0 -0.26688689555E+02  0.25194509003E+02 -0.29162685376E+03  0.30738368182E+03  0.89952524048E+02 0.  0.
        -11    1    4    4    0    0  0.28936428797E+02 -0.10291538647E+02 -0.10704173655E+03  0.11136052282E+03  0.00000000000E+00 0.  1.
         11    1    4    4    0    0 -0.55625118353E+02  0.35486047649E+02 -0.18458511721E+03  0.19602315900E+03  0.00000000000E+00 0. -1.
        -13    1    3    3    0    0  0.59369276589E+02  0.11068644701E+02  0.48763266346E+02  0.77621401965E+02  0.00000000000E+00 0.  1.
         13    1    3    3    0    0 -0.51610591916E+01 -0.54979064655E+02  0.29319913755E+02  0.62521927553E+02  0.00000000000E+00 0. -1.
         21    1    1    2  502  501 -0.27519527842E+02  0.18715910951E+02  0.19363452996E+01  0.33337053987E+02  0.00000000000E+00 0. -1.
<scales pt_clust_5="13000.00000" pt_clust_6="13000.00000" pt_clust_7="13000.00000" pt_clust_8="13000.00000" pt_clust_9="33.28077"></scales>
<clustering>
<clus scale="   33.281">  1  9  2 -1</clus>
<clus scale="   89.953">  5  6 -1 -1</clus>
<clus scale="   93.148">  7  8 -1 -1</clus>
<clus scale="   98.010">  2  5  1 -1</clus>
<clus scale="   98.010">  2  5  1 -1</clus>
</clustering>
</event>
<event>
 9    1  0.1434065E-005  0.1554634E+03  0.7546771E-02  0.1194347E+00
          2   -1    0    0  502    0  0.00000000000E+00  0.00000000000E+00  0.57706711394E+03  0.57706711394E+03  0.00000000000E+00 0. -1.
         -2   -1    0    0    0  501 -0.00000000000E+00 -0.00000000000E+00 -0.69145140037E+02  0.69145140037E+02  0.00000000000E+00 0.  1.
         23    2    1    2    0    0  0.63769106560E+02 -0.11630745629E+03  0.10035647510E+03  0.19031648301E+03  0.92493341765E+02 0.  0.
         23    2    1    2    0    0 -0.24227580797E+02  0.12149671241E+03  0.37265986530E+03  0.40289705505E+03  0.90012415595E+02 0.  0.
        -11    1    3    3    0    0  0.31825211427E+02  0.83020051341E+01  0.24090100107E+02  0.40768864281E+02  0.00000000000E+00 0.  1.
         11    1    3    3    0    0  0.31943895133E+02 -0.12460946143E+03  0.76266374996E+02  0.14954761873E+03  0.00000000000E+00 0. -1.
        -13    1    4    4    0    0 -0.36035066411E+02  0.30319548816E+02  0.21753296581E+03  0.22257221809E+03  0.00000000000E+00 0. -1.
         13    1    4    4    0    0  0.11807485614E+02  0.91177163593E+02  0.15512689949E+03  0.18032483696E+03  0.00000000000E+00 0.  1.
         21    1    1    2  502  501 -0.39541525763E+02 -0.51892561150E+01  0.34905633494E+02  0.52998715912E+02  0.00000000000E+00 0. -1.
<scales pt_clust_5="13000.00000" pt_clust_6="13000.00000" pt_clust_7="13000.00000" pt_clust_8="13000.00000" pt_clust_9="39.88058"></scales>
<clustering>
<clus scale="   39.881">  2  9  1 -1</clus>
<clus scale="   90.012">  7  8 -1 -1</clus>
<clus scale="   92.493">  5  6 -1 -1</clus>
<clus scale="  154.000">  1  7  2 -1</clus>
<clus scale="  154.000">  1  5  2 -1</clus>
</clustering>
</event>
<event>
 9    1  0.1434065E-005  0.1741683E+03  0.7546771E-02  0.1173597E+00
          1   -1    0    0  502    0  0.00000000000E+00  0.00000000000E+00  0.30663011360E+03  0.30663011360E+03  0.00000000000E+00 0. -1.
         -1   -1    0    0    0  501 -0.00000000000E+00 -0.00000000000E+00 -0.26168955621E+03  0.26168955621E+03  0.00000000000E+00 0.  1.
         23    2    1    2    0    0  0.18022065428E+03 -0.35548913484E+02 -0.48802450148E+02  0.21093614807E+03  0.91483167530E+02 0.  0.
         23    2    1    2    0    0 -0.13799769486E+03  0.21230685769E+02  0.18907537275E+03  0.25214070818E+03  0.91276143303E+02 0.  0.
        -11    1    3    3    0    0  0.15016367532E+03 -0.26750030939E+02 -0.75125147108E+02  0.17002494308E+03  0.00000000000E+00 0.  1.
         11    1    3    3    0    0  0.30056978961E+02 -0.87988825451E+01  0.26322696960E+02  0.40911204988E+02  0.00000000000E+00 0. -1.
        -11    1    4    4    0    0 -0.41923678578E+02 -0.35389688945E+02  0.71008230649E+02  0.89734016566E+02  0.00000000000E+00 0. -1.
         11    1    4    4    0    0 -0.96074016283E+02  0.56620374714E+02  0.11806714210E+03  0.16240669162E+03  0.00000000000E+00 0.  1.
         21    1    1    2  502  501 -0.42222959422E+02  0.14318227716E+02 -0.95332365218E+02  0.10524281356E+03  0.00000000000E+00 0.  1.
<scales pt_clust_5="13000.00000" pt_clust_6="13000.00000" pt_clust_7="13000.00000" pt_clust_8="13000.00000" pt_clust_9="44.58464"></scales>
<clustering>
<clus scale="   44.585">  2  9  1 -1</clus>
<clus scale="   91.276">  7  8 -1 -1</clus>
<clus scale="   91.483">  5  6 -1 -1</clus>
<clus scale="  174.060">  1  7  2 -1</clus>
<clus scale="  174.060">  1  5  2 -1</clus>
</clustering>
</event>
<event>
 9    1  0.1434065E-005  0.1037163E+03  0.7546771E-02  0.1273019E+00
          1   -1    0    0  502    0  0.00000000000E+00  0.00000000000E+00  0.30302089846E+03  0.30302089846E+03  0.00000000000E+00 0. -1.
         -1   -1    0    0    0  501 -0.00000000000E+00 -0.00000000000E+00 -0.61384162454E+02  0.61384162454E+02  0.00000000000E+00 0.  1.
         23    2    1    2    0    0  0.25535364314E+02  0.13387007340E+02  0.15000850147E+02  0.98845086832E+02  0.93349123667E+02 0.  0.
         23    2    1    2    0    0 -0.45147244446E+02 -0.21192057688E+02  0.21930887531E+03  0.24321652455E+03  0.92577092402E+02 0.  0.
        -11    1    4    4    0    0  0.35932774609E+01  0.32460012690E+02  0.66393768818E+02  0.73991192751E+02  0.00000000000E+00 0.  1.
         11    1    4    4    0    0 -0.48740521907E+02 -0.53652070378E+02  0.15291510649E+03  0.16922533180E+03  0.00000000000E+00 0. -1.
        -13    1    3    3    0    0 -0.16010803161E+00  0.35510541910E+02 -0.27184768198E+02  0.44721760289E+02  0.00000000000E+00 0.  1.
         13    1    3    3    0    0  0.25695472345E+02 -0.22123534570E+02  0.42185618345E+02  0.54123326543E+02  0.00000000000E+00 0. -1.
         21    1    1    2  502  501  0.19611880133E+02  0.78050503477E+01  0.73270105525E+01  0.22343449530E+02  0.00000000000E+00 0. -1.
<scales pt_clust_5="13000.00000" pt_clust_6="13000.00000" pt_clust_7="13000.00000" pt_clust_8="13000.00000" pt_clust_9="21.10793"></scales>
<clustering>
<clus scale="   21.108">  2  9  1 -1</clus>
<clus scale="   92.577">  5  6 -1 -1</clus>
<clus scale="   93.349">  7  8 -1 -1</clus>
<clus scale="  103.022">  1  5  2 -1</clus>
<clus scale="  103.022">  1  5  2 -1</clus>
</clustering>
</event>
<event>
 9    1  0.2123864E-005  0.1042257E+03  0.7546771E-02  0.1272095E+00
         -3   -1    0    0    0  501 -0.00000000000E+00  0.00000000000E+00  0.84366094662E+02  0.84366094662E+02  0.00000000000E+00 0.  1.
          3   -1    0    0  502    0  0.00000000000E+00 -0.00000000000E+00 -0.36440411123E+03  0.36440411123E+03  0.00000000000E+00 0. -1.
         23    2    1    2    0    0  0.29687294970E+02  0.61282579672E+02  0.21133879592E+02  0.11469003421E+03  0.89834698345E+02 0.  0.
         23    2    1    2    0    0 -0.26090089156E+02 -0.41399119510E+02 -0.29563808016E+03  0.31312987342E+03  0.90850775111E+02 0.  0.
        -13    1    3    3    0    0  0.49316344920E+02  0.72531768367E+02  0.26133854037E+02  0.91520148741E+02  0.00000000000E+00 0.  1.
         13    1    3    3    0    0 -0.19629049950E+02 -0.11249188695E+02 -0.49999744450E+01  0.23169885470E+02  0.00000000000E+00 0. -1.
        -13    1    4    4    0    0 -0.57707430350E+02 -0.32471085776E+02 -0.23515584748E+03  0.24430061713E+03  0.00000000000E+00 0. -1.
         13    1    4    4    0    0  0.31617341193E+02 -0.89280337339E+01 -0.60482232679E+02  0.68829256282E+02  0.00000000000E+00 0.  1.
         21    1    1    2  502  501 -0.35972058138E+01 -0.19883460162E+02 -0.55338159982E+01  0.20950298260E+02  0.00000000000E+00 0.  1.
<scales pt_clust_5="13000.00000" pt_clust_6="13000.00000" pt_clust_7="13000.00000" pt_clust_8="13000.00000" pt_clust_9="20.20623"></scales>
<clustering>
<clus scale="   20.206">  1  9  2 -1</clus>
<clus scale="   89.835">  5  6 -1 -1</clus>
<clus scale="   90.851">  7  8 -1 -1</clus>
<clus scale="  103.341">  1  5  2 -1</clus>
<clus scale="  104.226">  2  5  1 -1</clus>
</clustering>
</event>
<event>
 9    1  0.1434065E-005  0.1242655E+03  0.7546771E-02  0.1236564E+00
         -3   -1    0    0    0  501 -0.00000000000E+00  0.00000000000E+00  0.11410231456E+03  0.11410231456E+03  0.00000000000E+00 0.  1.
          3   -1    0    0  502    0  0.00000000000E+00 -0.00000000000E+00 -0.18230918961E+03  0.18230918961E+03  0.00000000000E+00 0. -1.
         23    2    1    2    0    0 -0.59029891736E+02 -0.57175717824E+02 -0.16506885775E+01  0.12347595447E+03  0.92141172840E+02 0.  0.
         23    2    1    2    0    0  0.39310697022E+02  0.78483926337E+02 -0.37494085607E+02  0.13185645409E+03  0.90968458467E+02 0.  0.
        -11    1    3    3    0    0 -0.82349638523E+02 -0.52590053546E+02 -0.10150315327E+02  0.98235459982E+02  0.00000000000E+00 0.  1.
         11    1    3    3    0    0  0.23319746787E+02 -0.45856642788E+01  0.84996267495E+01  0.25240494487E+02  0.00000000000E+00 0. -1.
        -13    1    4    4    0    0  0.66552175069E+02  0.68668555631E+02 -0.37988283660E+02  0.10289641507E+03  0.00000000000E+00 0. -1.
         13    1    4    4    0    0 -0.27241478047E+02  0.98153707059E+01  0.49419805310E+00  0.28960039019E+02  0.00000000000E+00 0.  1.
         21    1    1    2  502  501  0.19719194714E+02 -0.21308208513E+02 -0.29062100864E+02  0.41079095619E+02  0.00000000000E+00 0. -1.
<scales pt_clust_5="13000.00000" pt_clust_6="13000.00000" pt_clust_7="13000.00000" pt_clust_8="13000.00000" pt_clust_9="29.03251"></scales>
<clustering>
<clus scale="   29.033">  2  9  1 -1</clus>
<clus scale="   90.968">  7  8 -1 -1</clus>
<clus scale="   92.141">  5  6 -1 -1</clus>
<clus scale="  123.398">  2  7  1 -1</clus>
<clus scale="   29.033">  2  5  1 -1</clus>
</clustering>
</event>
<event>
 9    1  0.1434065E-005  0.1029869E+03  0.7546771E-02  0.1274766E+00
          3   -1    0    0  502    0  0.00000000000E+00  0.00000000000E+00  0.46834807069E+02  0.46834807069E+02  0.00000000000E+00 0. -1.
         -3   -1    0    0    0  501 -0.00000000000E+00 -0.00000000000E+00 -0.79772686946E+03  0.79772686946E+03  0.00000000000E+00 0.  1.
         23    2    1    2    0    0 -0.10451739747E+02 -0.35667804448E+02 -0.52386106870E+03  0.53346365389E+03  0.93656924892E+02 0.  0.
         23    2    1    2    0    0  0.37292191033E+02  0.24303071061E+02 -0.23031083676E+02  0.10502635968E+03  0.92297121501E+02 0.  0.
        -11    1    3    3    0    0  0.34894123112E+02 -0.42119870010E+02 -0.30419068314E+03  0.30906901331E+03  0.00000000000E+00 0.  1.
         11    1    3    3    0    0 -0.45345862860E+02  0.64520655623E+01 -0.21967038556E+03  0.22439464058E+03  0.00000000000E+00 0. -1.
        -13    1    4    4    0    0  0.39873918013E+02  0.33475017838E+01  0.28640210713E+02  0.49207690207E+02  0.00000000000E+00 0. -1.
         13    1    4    4    0    0 -0.25817269791E+01  0.20955569277E+02 -0.51671294389E+02  0.55818669473E+02  0.00000000000E+00 0.  1.
         21    1    1    2  502  501 -0.26840451286E+02  0.11364733387E+02 -0.20399991001E+03  0.20607166296E+03  0.00000000000E+00 0. -1.
<scales pt_clust_5="13000.00000" pt_clust_6="13000.00000" pt_clust_7="13000.00000" pt_clust_8="13000.00000" pt_clust_9="29.14733"></scales>
<clustering>
<clus scale="   29.147">  2  9  1 -1</clus>
<clus scale="   92.297">  7  8 -1 -1</clus>
<clus scale="   93.657">  5  6 -1 -1</clus>
<clus scale="  101.752">  1  7  2 -1</clus>
<clus scale="  101.752">  1  5  2 -1</clus>
</clustering>
</event>
<event>
 9    1  0.1434065E-005  0.9901882E+02  0.7546771E-02  0.1286666E+00
         -2   -1    0    0    0  501 -0.00000000000E+00  0.00000000000E+00  0.20142287429E+03  0.20142287429E+03  0.00000000000E+00 0.  1.
          2   -1    0    0  502    0  0.00000000000E+00 -0.00000000000E+00 -0.15331387515E+03  0.15331387515E+03  0.00000000000E+00 0. -1.
         23    2    1    2    0    0 -0.43468358663E+02 -0.33785447356E+02  0.23538655341E+02  0.10996626793E+03  0.92236419756E+02 0.  0.
         23    2    1    2    0    0 -0.29673940557E+02 -0.38902032168E+02 -0.50497824935E+02  0.11722246869E+03  0.93793208647E+02 0.  0.
        -11    1    3    3    0    0 -0.44205816003E+02  0.22928265863E+02  0.39266030257E+01  0.49952755232E+02  0.00000000000E+00 0. -1.
         11    1    3    3    0    0  0.73745733978E+00 -0.56713713219E+02  0.19612052315E+02  0.60013512699E+02  0.00000000000E+00 0.  1.
        -13    1    4    4    0    0  0.10911965255E+02  0.22214303932E+02 -0.33951243959E+02  0.42014678997E+02  0.00000000000E+00 0. -1.
         13    1    4    4    0    0 -0.40585905813E+02 -0.61116336100E+02 -0.16546580976E+02  0.75207789695E+02  0.00000000000E+00 0.  1.
         21    1    1    2  502  501  0.73142299220E+02  0.72687479524E+02  0.75068168737E+02  0.12754801281E+03  0.00000000000E+00 0.  1.
<scales pt_clust_5="13000.00000" pt_clust_6="13000.00000" pt_clust_7="13000.00000" pt_clust_8="13000.00000" pt_clust_9="103.11773"></scales>
<clustering>
<clus scale="   92.236">  5  6 -1 -1</clus>
<clus scale="   93.793">  7  8 -1 -1</clus>
<clus scale="  103.118">  1  9  2 -1</clus>
<clus scale="  103.118">  1  5  2 -1</clus>
<clus scale="   95.083">  2  5  1 -1</clus>
</clustering>
</event>
<event>
 9    1  0.1434065E-005  0.1336605E+03  0.7546771E-02  0.1222742E+00
          1   -1    0    0  502    0  0.00000000000E+00  0.00000000000E+00  0.36291856058E+03  0.36291856058E+03  0.00000000000E+00 0. -1.
         -1   -1    0    0    0  501 -0.00000000000E+00 -0.00000000000E+00 -0.19089878721E+03  0.19089878721E+03  0.00000000000E+00 0.  1.
         23    2    1    2    0    0  0.17177879251E+01  0.12754110871E+03 -0.11829809572E+03  0.19691170616E+03  0.92250178137E+02 0.  0.
         23    2    1    2    0    0  0.17161131683E+02 -0.89873515791E+02  0.28561929822E+03  0.31451062152E+03  0.94693158441E+02 0.  0.
        -11    1    3    3    0    0 -0.20969130306E+02  0.11808749144E+03 -0.60981486378E+02  0.13454776751E+03  0.00000000000E+00 0.  1.
         11    1    3    3    0    0  0.22686918231E+02  0.94536172717E+01 -0.57316609339E+02  0.62363938654E+02  0.00000000000E+00 0. -1.
        -13    1    4    4    0    0 -0.56475708612E+01 -0.93436973220E+02  0.14906813275E+03  0.17602179190E+03  0.00000000000E+00 0.  1.
         13    1    4    4    0    0  0.22808702544E+02  0.35634574289E+01  0.13655116547E+03  0.13848882963E+03  0.00000000000E+00 0. -1.
         21    1    1    2  502  501 -0.18878919608E+02 -0.37667592919E+02  0.46985708654E+01  0.42395020109E+02  0.00000000000E+00 0. -1.
<scales pt_clust_5="13000.00000" pt_clust_6="13000.00000" pt_clust_7="13000.00000" pt_clust_8="13000.00000" pt_clust_9="42.13385"></scales>
<clustering>
<clus scale="   42.134">  2  9  1 -1</clus>
<clus scale="   92.250">  5  6 -1 -1</clus>
<clus scale="   94.693">  7  8 -1 -1</clus>
<clus scale="  131.941">  2  5  1 -1</clus>
<clus scale="  133.661">  1  5  2 -1</clus>
</clustering>
</event>
<event>
 9    1  0.1434065E-005  0.1100489E+03  0.7546771E-02  0.1260844E+00
         -4   -1    0    0    0  501 -0.00000000000E+00  0.00000000000E+00  0.50940852466E+03  0.50940852466E+03  0.00000000000E+00 0.  1.
          4   -1    0    0  502    0  0.00000000000E+00 -0.00000000000E+00 -0.33734284823E+02  0.33734284823E+02  0.00000000000E+00 0. -1.
         23    2    1    2    0    0  0.70575722040E+02  0.15645201566E+01  0.22602501414E+03  0.25361811846E+03  0.90837562321E+02 0.  0.
         23    2    1    2    0    0 -0.51974694327E+02  0.21570404772E+02  0.14407061098E+03  0.17985214720E+03  0.91781276370E+02 0.  0.
        -13    1    3    3    0    0  0.10781944254E+02 -0.29230069537E+02  0.14502946303E+03  0.14833810176E+03  0.00000000000E+00 0.  1.
         13    1    3    3    0    0  0.59793777786E+02  0.30794589694E+02  0.80995551110E+02  0.10528001670E+03  0.00000000000E+00 0. -1.
        -13    1    4    4    0    0 -0.63290864564E+02  0.47500270127E+02  0.11120873640E+03  0.13648953165E+03  0.00000000000E+00 0. -1.
         13    1    4    4    0    0  0.11316170237E+02 -0.25929865355E+02  0.32861874582E+02  0.43362615549E+02  0.00000000000E+00 0.  1.
         21    1    1    2  502  501 -0.18601027713E+02 -0.23134924929E+02  0.10557861471E+03  0.10967254382E+03  0.00000000000E+00 0.  1.
<scales pt_clust_5="13000.00000" pt_clust_6="13000.00000" pt_clust_7="13000.00000" pt_clust_8="13000.00000" pt_clust_9="29.68540"></scales>
<clustering>
<clus scale="   29.685">  1  9  2 -1</clus>
<clus scale="   90.838">  5  6 -1 -1</clus>
<clus scale="   91.781">  7  8 -1 -1</clus>
<clus scale="  109.263">  1  5  2 -1</clus>
<clus scale="  110.049">  2  5  1 -1</clus>
</clustering>
</event>
<event>
 9    1  0.1434065E-005  0.1863999E+03  0.7546771E-02  0.1162405E+00
         -1   -1    0    0    0  501 -0.00000000000E+00  0.00000000000E+00  0.81496647158E+02  0.81496647158E+02  0.00000000000E+00 0.  1.
          1   -1    0    0  502    0  0.00000000000E+00 -0.00000000000E+00 -0.72764708816E+03  0.72764708816E+03  0.00000000000E+00 0. -1.
         23    2    1    2    0    0 -0.14508151515E+03  0.86822334450E+02 -0.16543206524E+03  0.25519099034E+03  0.95749201266E+02 0.  0.
         23    2    1    2    0    0  0.14230031928E+03 -0.66107122082E+02 -0.49605320367E+03  0.52802955032E+03  0.90149279971E+02 0.  0.
        -11    1    4    4    0    0  0.78136259898E+02 -0.23320047429E+02 -0.38025834165E+03  0.38890295205E+03  0.00000000000E+00 0. -1.
         11    1    4    4    0    0  0.64164059383E+02 -0.42787074653E+02 -0.11579486203E+03  0.13912659827E+03  0.00000000000E+00 0.  1.
        -13    1    3    3    0    0 -0.14138309757E+03  0.39767047603E+02 -0.11969818915E+03  0.18946834786E+03  0.00000000000E+00 0. -1.
         13    1    3    3    0    0 -0.36984175827E+01  0.47055286848E+02 -0.45733876091E+02  0.65722642485E+02  0.00000000000E+00 0.  1.
         21    1    1    2  502  501  0.27811958703E+01 -0.20715212369E+02  0.15334827914E+02  0.25923194655E+02  0.00000000000E+00 0.  1.
<scales pt_clust_5="13000.00000" pt_clust_6="13000.00000" pt_clust_7="13000.00000" pt_clust_8="13000.00000" pt_clust_9="20.90108"></scales>
<clustering>
<clus scale="   20.901">  1  9  2 -1</clus>
<clus scale="   90.149">  5  6 -1 -1</clus>
<clus scale="   95.749">  7  8 -1 -1</clus>
<clus scale="  183.586">  2  5  1 -1</clus>
<clus scale="  183.586">  2  5  1 -1</clus>
</clustering>
</event>
<event>
 9    1  0.1434065E-005  0.1251146E+03  0.7546771E-02  0.1235086E+00
          1   -1    0    0  502    0  0.00000000000E+00  0.00000000000E+00  0.24930242411E+03  0.24930242411E+03  0.00000000000E+00 0. -1.
         -1   -1    0    0    0  501 -0.00000000000E+00 -0.00000000000E+00 -0.86835304552E+02  0.86835304552E+02  0.00000000000E+00 0.  1.
         23    2    1    2    0    0 -0.14830575036E+02 -0.72869215974E+02  0.11880560898E+02  0.11793920563E+03  0.90766953813E+02 0.  0.
         23    2    1    2    0    0  0.35425492357E+02  0.83781477201E+02  0.14530904497E+03  0.19430123835E+03  0.91454640358E+02 0.  0.
        -11    1    4    4    0    0  0.53570909467E+02  0.46590115556E+02  0.13360362432E+03  0.15129576875E+03  0.00000000000E+00 0. -1.
         11    1    4    4    0    0 -0.18145417110E+02  0.37191361645E+02  0.11705420646E+02  0.43005469601E+02  0.00000000000E+00 0.  1.
        -13    1    3    3    0    0 -0.43792381552E+02 -0.21291766651E+02 -0.17689283459E+02  0.51807555032E+02  0.00000000000E+00 0.  1.
         13    1    3    3    0    0  0.28961806515E+02 -0.51577449323E+02  0.29569844357E+02  0.66131650596E+02  0.00000000000E+00 0. -1.
         21    1    1    2  502  501 -0.20594917321E+02 -0.10912261227E+02  0.52775136904E+01  0.23897284684E+02  0.00000000000E+00 0.  1.
<scales pt_clust_5="13000.00000" pt_clust_6="13000.00000" pt_clust_7="13000.00000" pt_clust_8="13000.00000" pt_clust_9="23.30725"></scales>
<clustering>
<clus scale="   23.307">  2  9  1 -1</clus>
<clus scale="   90.767">  7  8 -1 -1</clus>
<clus scale="   91.455">  5  6 -1 -1</clus>
<clus scale="  124.613">  2  7  1 -1</clus>
<clus scale="  125.115">  1  5  2 -1</clus>
</clustering>
</event>
<event>
 9    1  0.1434065E-005  0.1224307E+03  0.7546771E-02  0.1239575E+00
          1   -1    0    0  502    0  0.00000000000E+00  0.00000000000E+00  0.93376770624E+02  0.93376770624E+02  0.00000000000E+00 0. -1.
         -1   -1    0    0    0  501 -0.00000000000E+00 -0.00000000000E+00 -0.23929082265E+03  0.23929082265E+03  0.00000000000E+00 0.  1.
         23    2    1    2    0    0  0.92965844190E+02  0.48870978230E+02 -0.69852233662E+02  0.15555193142E+03  0.91027732705E+02 0.  0.
         23    2    1    2    0    0 -0.46427180817E+02 -0.48406586660E+02 -0.42347812701E+02  0.11964656558E+03  0.89572778594E+02 0.  0.
        -11    1    4    4    0    0 -0.28178574376E+02 -0.71980897000E+02 -0.45453256929E+02  0.89673185247E+02  0.00000000000E+00 0. -1.
         11    1    4    4    0    0 -0.18248606440E+02  0.23574310340E+02  0.31054442285E+01  0.29973380338E+02  0.00000000000E+00 0.  1.
        -13    1    3    3    0    0  0.77518945784E+02  0.75341003172E+02 -0.50569351792E+02  0.11934283831E+03  0.00000000000E+00 0.  1.
         13    1    3    3    0    0  0.15446898406E+02 -0.26470024942E+02 -0.19282881870E+02  0.36209093113E+02  0.00000000000E+00 0. -1.
         21    1    1    2  502  501 -0.46538663374E+02 -0.46439157014E+00 -0.33714005660E+02  0.57469096267E+02  0.00000000000E+00 0.  1.
<scales pt_clust_5="13000.00000" pt_clust_6="13000.00000" pt_clust_7="13000.00000" pt_clust_8="13000.00000" pt_clust_9="46.54098"></scales>
<clustering>
<clus scale="   46.541">  2  9  1 -1</clus>
<clus scale="   89.573">  5  6 -1 -1</clus>
<clus scale="   91.028">  7  8 -1 -1</clus>
<clus scale="  121.353">  1  5  2 -1</clus>
<clus scale="  121.353">  1  5  2 -1</clus>
</clustering>
</event>
<event>
 9    1  0.1434065E-005  0.1118521E+03  0.7546771E-02  0.1261177E+00
          1   -1    0    0  502    0  0.00000000000E+00  0.00000000000E+00  0.20053841767E+03  0.20053841767E+03  0.00000000000E+00 0. -1.
         -1   -1    0    0    0  501 -0.00000000000E+00 -0.00000000000E+00 -0.81546047287E+02  0.81546047287E+02  0.00000000000E+00 0.  1.
         23    2    1    2    0    0  0.38452502727E+02  0.25378254798E+02  0.98149346588E+01  0.10093356456E+03  0.89267019277E+02 0.  0.
         23    2    1    2    0    0 -0.62946958625E+02 -0.22790621284E+02  0.95711876619E+02  0.15307964287E+03  0.98948884365E+02 0.  0.
        -11    1    3    3    0    0  0.50155899059E+01  0.53175313483E+02 -0.78786202988E+01  0.53989283788E+02  0.00000000000E+00 0. -1.
         11    1    3    3    0    0  0.33436912822E+02 -0.27797058685E+02  0.17693554958E+02  0.46944280776E+02  0.00000000000E+00 0.  1.
        -13    1    4    4    0    0 -0.30641565772E+02 -0.61198767653E+02  0.46167720070E+02  0.82556968765E+02  0.00000000000E+00 0.  1.
         13    1    4    4    0    0 -0.32305392853E+02  0.38408146369E+02  0.49544156549E+02  0.70522674106E+02  0.00000000000E+00 0. -1.
         21    1    1    2  502  501  0.24494455897E+02 -0.25876335140E+01  0.13465559107E+02  0.28071257524E+02  0.00000000000E+00 0.  1.
<scales pt_clust_5="13000.00000" pt_clust_6="13000.00000" pt_clust_7="13000.00000" pt_clust_8="13000.00000" pt_clust_9="24.63076"></scales>
<clustering>
<clus scale="   24.631">  1  9  2 -1</clus>
<clus scale="   89.267">  5  6 -1 -1</clus>
<clus scale="   98.949">  7  8 -1 -1</clus>
<clus scale="  103.386">  2  5  1 -1</clus>
<clus scale="   24.631">  1  5  2 -1</clus>
</clustering>
</event>
<event>
 9    1  0.1434065E-005  0.1158482E+03  0.7546771E-02  0.1250496E+00
          2   -1    0    0  502    0  0.00000000000E+00  0.00000000000E+00  0.25541102978E+03  0.25541102978E+03  0.00000000000E+00 0. -1.
         -2   -1    0    0    0  501 -0.00000000000E+00 -0.00000000000E+00 -0.21627612367E+03  0.21627612367E+03  0.00000000000E+00 0.  1.
         23    2    1    2    0    0  0.20014872600E+02 -0.62045509559E+02 -0.11792610943E+03  0.16240238346E+03  0.90651676685E+02 0.  0.
         23    2    1    2    0    0 -0.11688497854E+03  0.72285576096E+02  0.12330143345E+03  0.20619070727E+03  0.91782686576E+02 0.  0.
        -13    1    4    4    0    0 -0.12719762512E+03  0.51851324621E+02  0.12123334187E+03  0.18320840287E+03  0.00000000000E+00 0. -1.
         13    1    4    4    0    0  0.10312646577E+02  0.20434251476E+02  0.20680915712E+01  0.22982304400E+02  0.00000000000E+00 0.  1.
        -13    1    3    3    0    0  0.10224748818E+02 -0.84292532921E+02 -0.10445561377E+03  0.13461334200E+03  0.00000000000E+00 0.  1.
         13    1    3    3    0    0  0.97901237822E+01  0.22247023361E+02 -0.13470495655E+02  0.27789041461E+02  0.00000000000E+00 0. -1.
         21    1    1    2  502  501  0.96870105940E+02 -0.10240066537E+02  0.33759582091E+02  0.10309406273E+03  0.00000000000E+00 0.  1.
<scales pt_clust_5="13000.00000" pt_clust_6="13000.00000" pt_clust_7="13000.00000" pt_clust_8="13000.00000" pt_clust_9="97.40984"></scales>
<clustering>
<clus scale="   90.652">  7  8 -1 -1</clus>
<clus scale="   91.783">  5  6 -1 -1</clus>
<clus scale="   97.410">  1  9  2 -1</clus>
<clus scale="  114.954">  2  7  1 -1</clus>
<clus scale="   97.410">  1  5  2 -1</clus>
</clustering>
</event>
<event>
 9    1  0.1434065E-005  0.9618690E+02  0.7546771E-02  0.1290622E+00
          2   -1    0    0  502    0  0.00000000000E+00  0.00000000000E+00  0.20283807717E+03  0.20283807717E+03  0.00000000000E+00 0. -1.
         -2   -1    0    0    0  501 -0.00000000000E+00 -0.00000000000E+00 -0.83359304998E+02  0.83359304998E+02  0.00000000000E+00 0.  1.
         23    2    1    2    0    0 -0.36401500774E+02 -0.11592129554E+02  0.11577969308E+02  0.97581667921E+02  0.89043168265E+02 0.  0.
         23    2    1    2    0    0  0.17396863089E+02 -0.18824559172E+02  0.11704142356E+03  0.15160352500E+03  0.92886592624E+02 0.  0.
        -11    1    3    3    0    0 -0.75349497099E+01  0.31042669229E+02 -0.19515319091E+02  0.37433547243E+02  0.00000000000E+00 0.  1.
         11    1    3    3    0    0 -0.28866551064E+02 -0.42634798782E+02  0.31093288399E+02  0.60148120677E+02  0.00000000000E+00 0. -1.
        -13    1    4    4    0    0  0.42607587992E+02 -0.13991498034E+02  0.11766985574E+03  0.12592602401E+03  0.00000000000E+00 0. -1.
         13    1    4    4    0    0 -0.25210724902E+02 -0.48330611377E+01 -0.62843218389E+00  0.25677500989E+02  0.00000000000E+00 0.  1.
         21    1    1    2  502  501  0.19004637685E+02  0.30416688725E+02 -0.91406206934E+01  0.37012189252E+02  0.00000000000E+00 0.  1.
<scales pt_clust_5="13000.00000" pt_clust_6="13000.00000" pt_clust_7="13000.00000" pt_clust_8="13000.00000" pt_clust_9="35.86574"></scales>
<clustering>
<clus scale="   35.866">  2  9  1 -1</clus>
<clus scale="   89.043">  5  6 -1 -1</clus>
<clus scale="   92.481">  2  5  1 -1</clus>
<clus scale="   92.887">  7  8 -1 -1</clus>
<clus scale="   96.187">  1  5  2 -1</clus>
</clustering>
</event>
<event>
 9    1  0.1434065E-005  0.1445477E+03  0.7546771E-02  0.1207477E+00
          2   -1    0    0  502    0  0.00000000000E+00  0.00000000000E+00  0.53364381375E+03  0.53364381375E+03  0.00000000000E+00 0. -1.
         -2   -1    0    0    0  501 -0.00000000000E+00 -0.00000000000E+00 -0.52722944019E+02  0.52722944019E+02  0.00000000000E+00 0.  1.
         23    2    1    2    0    0 -0.52542283853E+02  0.11426630546E+03  0.16810937369E+03  0.22920500070E+03  0.91960266781E+02 0.  0.
         23    2    1    2    0    0  0.57803294368E+02 -0.87221412321E+02  0.28947171831E+03  0.32105289803E+03  0.91281389256E+02 0.  0.
        -11    1    4    4    0    0  0.74499725124E+02 -0.32046543892E+02  0.16284725698E+03  0.18192421259E+03  0.00000000000E+00 0. -1.
         11    1    4    4    0    0 -0.16696430756E+02 -0.55174868429E+02  0.12662446133E+03  0.13912868544E+03  0.00000000000E+00 0.  1.
        -13    1    3    3    0    0  0.60055007002E+01  0.41145667947E+02  0.11326924862E+03  0.12066049358E+03  0.00000000000E+00 0. -1.
         13    1    3    3    0    0 -0.58547784553E+02  0.73120637516E+02  0.54840125069E+02  0.10854450711E+03  0.00000000000E+00 0.  1.
         21    1    1    2  502  501 -0.52610105157E+01 -0.27044893143E+02  0.23339777736E+02  0.36108859045E+02  0.00000000000E+00 0. -1.
<scales pt_clust_5="13000.00000" pt_clust_6="13000.00000" pt_clust_7="13000.00000" pt_clust_8="13000.00000" pt_clust_9="27.55185"></scales>
<clustering>
<clus scale="   27.552">  2  9  1 -1</clus>
<clus scale="   91.281">  5  6 -1 -1</clus>
<clus scale="   91.960">  7  8 -1 -1</clus>
<clus scale="  144.117">  1  5  2 -1</clus>
<clus scale="  144.117">  1  5  2 -1</clus>
</clustering>
</event>
<event>
 9    1  0.1434065E-005  0.9265827E+02  0.7546771E-02  0.1299297E+00
          1   -1    0    0  502    0  0.00000000000E+00  0.00000000000E+00  0.19979361976E+03  0.19979361976E+03  0.00000000000E+00 0. -1.
         -1   -1    0    0    0  501 -0.00000000000E+00 -0.00000000000E+00 -0.10425099903E+03  0.10425099903E+03  0.00000000000E+00 0.  1.
         23    2    1    2    0    0 -0.18392260243E+02 -0.19789233155E+02 -0.60077703075E+02  0.11103571122E+03  0.89385176475E+02 0.  0.
         23    2    1    2    0    0 -0.19136310976E+01  0.12643471362E+02  0.14644766970E+03  0.16960957600E+03  0.84598870910E+02 0.  0.
        -11    1    3    3    0    0  0.71783559143E+01 -0.26701777790E+02 -0.75486758487E+02  0.80391320661E+02  0.00000000000E+00 0.  1.
         11    1    3    3    0    0 -0.25570616157E+02  0.69125446346E+01  0.15409055412E+02  0.30644390558E+02  0.00000000000E+00 0. -1.
        -13    1    4    4    0    0  0.20429719583E+02 -0.30084704266E+02  0.50542417784E+02  0.62265551218E+02  0.00000000000E+00 0.  1.
         13    1    4    4    0    0 -0.22343350681E+02  0.42728175627E+02  0.95905251911E+02  0.10734402478E+03  0.00000000000E+00 0. -1.
         21    1    1    2  502  501  0.20305891340E+02  0.71457617935E+01  0.91726541045E+01  0.23399331573E+02  0.00000000000E+00 0.  1.
<scales pt_clust_5="13000.00000" pt_clust_6="13000.00000" pt_clust_7="13000.00000" pt_clust_8="13000.00000" pt_clust_9="21.52652"></scales>
<clustering>
<clus scale="   21.527">  1  9  2 -1</clus>
<clus scale="   84.599">  7  8 -1 -1</clus>
<clus scale="   88.050">  1  7  2 -1</clus>
<clus scale="   89.385">  5  6 -1 -1</clus>
<clus scale="   21.527">  1  5  2 -1</clus>
</clustering>
</event>
<event>
 9    1  0.1434065E-005  0.9736211E+02  0.7546771E-02  0.1286769E+00
         -1   -1    0    0    0  501 -0.00000000000E+00  0.00000000000E+00  0.84288753728E+02  0.84288753728E+02  0.00000000000E+00 0.  1.
          1   -1    0    0  502    0  0.00000000000E+00 -0.00000000000E+00 -0.20802766207E+03  0.20802766207E+03  0.00000000000E+00 0. -1.
         23    2    1    2    0    0  0.41084793196E+01  0.15195465523E+02 -0.17464627369E+02  0.91178021287E+02  0.88094475319E+02 0.  0.
         23    2    1    2    0    0 -0.50548391671E+02 -0.17174582288E+02 -0.11336371251E+03  0.15411879858E+03  0.89728293106E+02 0.  0.
        -13    1    3    3    0    0  0.21430956385E+02  0.47791759878E+02 -0.72401072358E+01  0.52874921812E+02  0.00000000000E+00 0.  1.
         13    1    3    3    0    0 -0.17322477066E+02 -0.32596294355E+02 -0.10224520133E+02  0.38303099474E+02  0.00000000000E+00 0. -1.
        -13    1    4    4    0    0 -0.28202707701E+02  0.20658448365E+02 -0.27146777615E+01  0.35064707127E+02  0.00000000000E+00 0.  1.
         13    1    4    4    0    0 -0.22345683970E+02 -0.37833030653E+02 -0.11064903475E+03  0.11905409145E+03  0.00000000000E+00 0. -1.
         21    1    1    2  502  501  0.46439912352E+02  0.19791167651E+01  0.70894315348E+01  0.47019595935E+02  0.00000000000E+00 0.  1.
<scales pt_clust_5="13000.00000" pt_clust_6="13000.00000" pt_clust_7="13000.00000" pt_clust_8="13000.00000" pt_clust_9="46.48206"></scales>
<clustering>
<clus scale="   46.482">  1  9  2 -1</clus>
<clus scale="   88.094">  5  6 -1 -1</clus>
<clus scale="   89.728">  7  8 -1 -1</clus>
<clus scale="   95.858">  1  5  2 -1</clus>
<clus scale="   97.362">  2  5  1 -1</clus>
</clustering>
</event>
<event>
 9    1  0.1434065E-005  0.1729036E+03  0.7546771E-02  0.1175421E+00
          1   -1    0    0  502    0  0.00000000000E+00  0.00000000000E+00  0.61594751876E+02  0.61594751876E+02  0.00000000000E+00 0. -1.
         -1   -1    0    0    0  501 -0.00000000000E+00 -0.00000000000E+00 -0.62782786651E+03  0.62782786651E+03  0.00000000000E+00 0.  1.
         23    2    1    2    0    0  0.64590925169E+02 -0.14086489115E+03 -0.34928165279E+03  0.39290931528E+03  0.91461204283E+02 0.  0.
         23    2    1    2    0    0 -0.70151041840E+02  0.11990226323E+03 -0.14835701421E+03  0.22457204295E+03  0.95525271045E+02 0.  0.
        -11    1    3    3    0    0  0.81402026067E+02 -0.11604199296E+03 -0.32415767791E+03  0.35379405609E+03  0.00000000000E+00 0.  1.
         11    1    3    3    0    0 -0.16811100898E+02 -0.24822898189E+02 -0.25123974878E+02  0.39115259191E+02  0.00000000000E+00 0. -1.
        -13    1    4    4    0    0 -0.37148428446E+02  0.65200573836E+01 -0.79204896096E+02  0.87726463795E+02  0.00000000000E+00 0.  1.
         13    1    4    4    0    0 -0.33002613393E+02  0.11338220585E+03 -0.69152118115E+02  0.13684557915E+03  0.00000000000E+00 0. -1.
         21    1    1    2  502  501  0.55601166704E+01  0.20962627922E+02 -0.68594447631E+02  0.71941260154E+02  0.00000000000E+00 0.  1.
<scales pt_clust_5="13000.00000" pt_clust_6="13000.00000" pt_clust_7="13000.00000" pt_clust_8="13000.00000" pt_clust_9="21.68748"></scales>
<clustering>
<clus scale="   21.687">  2  9  1 -1</clus>
<clus scale="   91.461">  5  6 -1 -1</clus>
<clus scale="   95.525">  7  8 -1 -1</clus>
<clus scale="  170.692">  2  5  1 -1</clus>
<clus scale="  172.904">  1  5  2 -1</clus>
</clustering>
</event>
<event>
 9    1  0.1434065E-005  0.1021274E+03  0.7546771E-02  0.1276913E+00
         -3   -1    0    0    0  501 -0.00000000000E+00  0.00000000000E+00  0.52534598472E+03  0.52534598472E+03  0.00000000000E+00 0.  1.
          3   -1    0    0  502    0  0.00000000000E+00 -0.00000000000E+00 -0.60610845518E+02  0.60610845518E+02  0.00000000000E+00 0. -1.
         23    2    1    2    0    0 -0.24888136089E+02  0.30609676396E+02  0.37945923479E+03  0.39241602689E+03  0.91894807741E+02 0.  0.
         23    2    1    2    0    0  0.60491717176E+02 -0.55065688263E+02  0.33117193756E+02  0.12581900036E+03  0.89678283088E+02 0.  0.
        -11    1    3    3    0    0 -0.34163410436E+02  0.59979008166E+02  0.27298926660E+03  0.28158082270E+03  0.00000000000E+00 0.  1.
         11    1    3    3    0    0  0.92752743465E+01 -0.29369331770E+02  0.10646996819E+03  0.11083520420E+03  0.00000000000E+00 0. -1.
        -13    1    4    4    0    0  0.34891060755E+02 -0.36242291195E+02  0.64068965560E+02  0.81459941933E+02  0.00000000000E+00 0.  1.
         13    1    4    4    0    0  0.25600656421E+02 -0.18823397068E+02 -0.30951771805E+02  0.44359058423E+02  0.00000000000E+00 0. -1.
         21    1    1    2  502  501 -0.35603581087E+02  0.24456011867E+02  0.52158710661E+02  0.67721802992E+02  0.00000000000E+00 0.  1.
<scales pt_clust_5="13000.00000" pt_clust_6="13000.00000" pt_clust_7="13000.00000" pt_clust_8="13000.00000" pt_clust_9="43.19388"></scales>
<clustering>
<clus scale="   43.194">  2  9  1 -1</clus>
<clus scale="   89.678">  7  8 -1 -1</clus>
<clus scale="   91.895">  5  6 -1 -1</clus>
<clus scale="  100.138">  2  7  1 -1</clus>
<clus scale="   43.194">  2  5  1 -1</clus>
</clustering>
</event>
<event>
 9    1  0.1434065E-005  0.1070989E+03  0.7546771E-02  0.1266195E+00
         -1   -1    0    0    0  501 -0.00000000000E+00  0.00000000000E+00  0.13153431939E+03  0.13153431939E+03  0.00000000000E+00 0.  1.
          1   -1    0    0  502    0  0.00000000000E+00 -0.00000000000E+00 -0.36528313116E+03  0.36528313116E+03  0.00000000000E+00 0. -1.
         23    2    1    2    0    0 -0.50916416702E+02 -0.15793463536E+02 -0.87544844939E+01  0.10595150866E+03  0.91143656979E+02 0.  0.
         23    2    1    2    0    0  0.52416012877E+02 -0.26365964019E+02 -0.29205854475E+03  0.31163668351E+03  0.91523912074E+02 0.  0.
        -11    1    3    3    0    0 -0.35229486464E+02  0.36406672481E+02  0.50816207151E+00  0.50663801144E+02  0.00000000000E+00 0.  1.
         11    1    3    3    0    0 -0.15686930238E+02 -0.52200136018E+02 -0.92626465654E+01  0.55287707512E+02  0.00000000000E+00 0. -1.
        -13    1    4    4    0    0 -0.22087358019E+02 -0.22708274612E+02 -0.11987254442E+03  0.12398767691E+03  0.00000000000E+00 0.  1.
         13    1    4    4    0    0  0.74503370896E+02 -0.36576894067E+01 -0.17218600033E+03  0.18764900659E+03  0.00000000000E+00 0. -1.
         21    1    1    2  502  501 -0.14995961745E+01  0.42159427555E+02  0.67064217472E+02  0.79229258394E+02  0.00000000000E+00 0. -1.
<scales pt_clust_5="13000.00000" pt_clust_6="13000.00000" pt_clust_7="13000.00000" pt_clust_8="13000.00000" pt_clust_9="42.18609"></scales>
<clustering>
<clus scale="   42.186">  1  9  2 -1</clus>
<clus scale="   91.144">  5  6 -1 -1</clus>
<clus scale="   91.524">  7  8 -1 -1</clus>
<clus scale="  106.774">  1  5  2 -1</clus>
<clus scale="  107.099">  2  5  1 -1</clus>
</clustering>
</event>
<event>
 9    1  0.1434065E-005  0.2039256E+03  0.7546771E-02  0.1178384E+00
          1   -1    0    0  502    0  0.00000000000E+00  0.00000000000E+00  0.12111837185E+04  0.12111837185E+04  0.00000000000E+00 0. -1.
         -1   -1    0    0    0  501 -0.00000000000E+00 -0.00000000000E+00 -0.10427561278E+03  0.10427561278E+03  0.00000000000E+00 0.  1.
         23    2    1    2    0    0  0.35937238208E+02 -0.10452629097E+02 -0.14422197343E+02  0.98367428137E+02  0.89818754150E+02 0.  0.
         23    2    1    2    0    0 -0.16881796211E+03 -0.83350172260E+02  0.97830308738E+03  0.10004977279E+04  0.92043561336E+02 0.  0.
        -11    1    4    4    0    0 -0.14975670386E+03 -0.66145113979E+02  0.94146605339E+03  0.95559435752E+03  0.00000000000E+00 0. -1.
         11    1    4    4    0    0 -0.19061258251E+02 -0.17205058280E+02  0.36837033999E+02  0.44903370368E+02  0.00000000000E+00 0.  1.
        -11    1    3    3    0    0  0.29551714411E+02  0.14621522210E+02  0.31536927614E+02  0.45625327831E+02  0.00000000000E+00 0.  1.
         11    1    3    3    0    0  0.63855237971E+01 -0.25074151306E+02 -0.45959124957E+02  0.52742100306E+02  0.00000000000E+00 0. -1.
         21    1    1    2  502  501  0.13288072390E+03  0.93802801356E+02  0.14302721564E+03  0.21659417522E+03  0.00000000000E+00 0.  1.
<scales pt_clust_5="13000.00000" pt_clust_6="13000.00000" pt_clust_7="13000.00000" pt_clust_8="13000.00000" pt_clust_9="181.97149"></scales>
<clustering>
<clus scale="   89.819">  7  8 -1 -1</clus>
<clus scale="   92.044">  5  6 -1 -1</clus>
<clus scale="   97.304">  2  7  1 -1</clus>
<clus scale="  181.971">  2  9  1 -1</clus>
<clus scale="  203.926">  1  5  2 -1</clus>
</clustering>
</event>
<event>
 9    1  0.1434065E-005  0.1430369E+03  0.7546771E-02  0.1209712E+00
          2   -1    0    0  502    0  0.00000000000E+00  0.00000000000E+00  0.15284768506E+03  0.15284768506E+03  0.00000000000E+00 0. -1.
         -2   -1    0    0    0  501 -0.00000000000E+00 -0.00000000000E+00 -0.23635040439E+03  0.23635040439E+03  0.00000000000E+00 0.  1.
         23    2    1    2    0    0 -0.59545015634E+02 -0.54614305329E+02 -0.72105779174E+02  0.14208282184E+03  0.91978006276E+02 0.  0.
         23    2    1    2    0    0  0.33240501542E+02  0.12858774579E+03  0.17191035269E+02  0.16356127491E+03  0.93898986395E+02 0.  0.
        -11    1    4    4    0    0  0.79133045398E+01  0.12069875887E+03  0.41200280643E+02  0.12778213453E+03  0.00000000000E+00 0. -1.
         11    1    4    4    0    0  0.25327197003E+02  0.78889869249E+01 -0.24009245374E+02  0.35779140377E+02  0.00000000000E+00 0.  1.
        -13    1    3    3    0    0 -0.81863254447E+02 -0.25505077801E+02 -0.50141912633E+02  0.99329315032E+02  0.00000000000E+00 0.  1.
         13    1    3    3    0    0  0.22318238813E+02 -0.29109227529E+02 -0.21963866541E+02  0.42753506809E+02  0.00000000000E+00 0. -1.
         21    1    1    2  502  501  0.26304514092E+02 -0.73973440464E+02 -0.28587975425E+02  0.83553992690E+02  0.00000000000E+00 0. -1.
<scales pt_clust_5="13000.00000" pt_clust_6="13000.00000" pt_clust_7="13000.00000" pt_clust_8="13000.00000" pt_clust_9="78.51113"></scales>
<clustering>
<clus scale="   78.511">  2  9  1 -1</clus>
<clus scale="   91.978">  7  8 -1 -1</clus>
<clus scale="   93.899">  5  6 -1 -1</clus>
<clus scale="  141.783">  2  7  1 -1</clus>
<clus scale="  143.037">  1  5  2 -1</clus>
</clustering>
</event>
<event>
 9    1  0.1434065E-005  0.1579369E+03  0.7546771E-02  0.1191445E+00
         -2   -1    0    0    0  501 -0.00000000000E+00  0.00000000000E+00  0.39852732460E+02  0.39852732460E+02  0.00000000000E+00 0.  1.
          2   -1    0    0  502    0  0.00000000000E+00 -0.00000000000E+00 -0.13133386010E+04  0.13133386010E+04  0.00000000000E+00 0. -1.
         23    2    1    2    0    0  0.81522829634E+02  0.81911042480E+02 -0.45125304531E+03  0.47449693773E+03  0.90347342979E+02 0.  0.
         23    2    1    2    0    0 -0.64490781276E+02 -0.12334419893E+03 -0.81659262343E+03  0.83354343808E+03  0.92727009228E+02 0.  0.
        -11    1    4    4    0    0 -0.43642450286E+02 -0.10959817269E+02 -0.13161438762E+03  0.13909395418E+03  0.00000000000E+00 0.  1.
         11    1    4    4    0    0 -0.20848330990E+02 -0.11238438167E+03 -0.68497823581E+03  0.69444948390E+03  0.00000000000E+00 0. -1.
        -13    1    3    3    0    0 -0.12851836329E+02  0.33916401886E+02 -0.70306872444E+02  0.79110987396E+02  0.00000000000E+00 0.  1.
         13    1    3    3    0    0  0.94374665963E+02  0.47994640594E+02 -0.38094617287E+03  0.39538595034E+03  0.00000000000E+00 0. -1.
         21    1    1    2  502  501 -0.17032048358E+02  0.41433156454E+02 -0.56401998244E+01  0.45150957676E+02  0.00000000000E+00 0.  1.
<scales pt_clust_5="13000.00000" pt_clust_6="13000.00000" pt_clust_7="13000.00000" pt_clust_8="13000.00000" pt_clust_9="44.79729"></scales>
<clustering>
<clus scale="   44.797">  1  9  2 -1</clus>
<clus scale="   90.347">  7  8 -1 -1</clus>
<clus scale="   92.727">  5  6 -1 -1</clus>
<clus scale="  156.552">  1  7  2 -1</clus>
<clus scale="  157.937">  2  5  1 -1</clus>
</clustering>
</event>
<event>
 9    1  0.1434065E-005  0.1092370E+03  0.7546771E-02  0.1263460E+00
          2   -1    0    0  502    0  0.00000000000E+00  0.00000000000E+00  0.21926885267E+03  0.21926885267E+03  0.00000000000E+00 0. -1.
         -2   -1    0    0    0  501 -0.00000000000E+00 -0.00000000000E+00 -0.69700160303E+02  0.69700160303E+02  0.00000000000E+00 0.  1.
         23    2    1    2    0    0 -0.42701105069E+02  0.40544792357E+02  0.54677272917E+02  0.12221313891E+03  0.92082477086E+02 0.  0.
         23    2    1    2    0    0  0.23366558244E+02 -0.56197157937E+02  0.92657062448E+02  0.14177961333E+03  0.88385581014E+02 0.  0.
        -11    1    4    4    0    0 -0.56231574988E+01  0.22355355367E+02  0.26067811051E+02  0.34798169303E+02  0.00000000000E+00 0.  1.
         11    1    4    4    0    0  0.28989715743E+02 -0.78552513304E+02  0.66589251397E+02  0.10698144403E+03  0.00000000000E+00 0. -1.
        -13    1    3    3    0    0 -0.33509262972E+02  0.64471481105E+02  0.13791100758E+02  0.73956994536E+02  0.00000000000E+00 0.  1.
         13    1    3    3    0    0 -0.91918420974E+01 -0.23926688748E+02  0.40886172159E+02  0.48256144370E+02  0.00000000000E+00 0. -1.
         21    1    1    2  502  501  0.19334546825E+02  0.15652365581E+02  0.22343570059E+01  0.24976260738E+02  0.00000000000E+00 0.  1.
<scales pt_clust_5="13000.00000" pt_clust_6="13000.00000" pt_clust_7="13000.00000" pt_clust_8="13000.00000" pt_clust_9="24.87612"></scales>
<clustering>
<clus scale="   24.876">  2  9  1 -1</clus>
<clus scale="   88.386">  5  6 -1 -1</clus>
<clus scale="   92.082">  7  8 -1 -1</clus>
<clus scale="  106.139">  1  5  2 -1</clus>
<clus scale="  106.139">  1  5  2 -1</clus>
</clustering>
</event>
<event>
 9    1  0.1434065E-005  0.1078337E+03  0.7546771E-02  0.1268629E+00
         -2   -1    0    0    0  501 -0.00000000000E+00  0.00000000000E+00  0.49643790338E+03  0.49643790338E+03  0.00000000000E+00 0.  1.
          2   -1    0    0  502    0  0.00000000000E+00 -0.00000000000E+00 -0.85127534620E+02  0.85127534620E+02  0.00000000000E+00 0. -1.
         23    2    1    2    0    0 -0.33490218467E+02  0.32878601584E+02  0.21422979766E+03  0.23762508655E+03  0.91480480856E+02 0.  0.
         23    2    1    2    0    0  0.40938475260E+02  0.80904555428E+01 -0.30362872388E+02  0.11271652016E+03  0.10020826148E+03 0.  0.
        -11    1    4    4    0    0 -0.20741555008E+02 -0.30200732876E+01  0.22482728055E+02  0.30737696850E+02  0.00000000000E+00 0.  1.
         11    1    4    4    0    0  0.61680030268E+02  0.11110528830E+02 -0.52845600444E+02  0.81978823309E+02  0.00000000000E+00 0. -1.
        -11    1    3    3    0    0  0.12224912437E+02  0.36936059361E+02  0.34082910903E+02  0.51723938180E+02  0.00000000000E+00 0. -1.
         11    1    3    3    0    0 -0.45715130905E+02 -0.40574577765E+01  0.18014688676E+03  0.18590114837E+03  0.00000000000E+00 0.  1.
         21    1    1    2  502  501 -0.74482567926E+01 -0.40969057127E+02  0.22744344348E+03  0.23122383129E+03  0.00000000000E+00 0.  1.
<scales pt_clust_5="13000.00000" pt_clust_6="13000.00000" pt_clust_7="13000.00000" pt_clust_8="13000.00000" pt_clust_9="41.64061"></scales>
<clustering>
<clus scale="   41.641">  1  9  2 -1</clus>
<clus scale="   91.480">  7  8 -1 -1</clus>
<clus scale="   99.775">  1  7  2 -1</clus>
<clus scale="  100.208">  5  6 -1 -1</clus>
<clus scale="  107.834">  2  5  1 -1</clus>
</clustering>
</event>
<event>
 9    1  0.1434065E-005  0.1216414E+03  0.7546771E-02  0.1246183E+00
         -1   -1    0    0    0  501 -0.00000000000E+00  0.00000000000E+00  0.11639856023E+03  0.11639856023E+03  0.00000000000E+00 0.  1.
          1   -1    0    0  502    0  0.00000000000E+00 -0.00000000000E+00 -0.16065578001E+03  0.16065578001E+03  0.00000000000E+00 0. -1.
         23    2    1    2    0    0  0.11809528509E+02 -0.57135792287E+02 -0.17026962048E+02  0.12253445854E+03  0.10639930624E+03 0.  0.
         23    2    1    2    0    0  0.28173976544E+02  0.59048817312E+02 -0.23135033075E+02  0.11428170075E+03  0.90799458099E+02 0.  0.
        -13    1    3    3    0    0  0.52568629816E+02 -0.13810149851E+02  0.13022601312E+02  0.55890689964E+02  0.00000000000E+00 0.  1.
         13    1    3    3    0    0 -0.40759101307E+02 -0.43325642435E+02 -0.30049563360E+02  0.66643768575E+02  0.00000000000E+00 0. -1.
        -13    1    4    4    0    0 -0.21331761907E+02  0.43197762773E+02 -0.36694842498E+02  0.60560731837E+02  0.00000000000E+00 0.  1.
         13    1    4    4    0    0  0.49505738451E+02  0.15851054539E+02  0.13559809423E+02  0.53720968915E+02  0.00000000000E+00 0. -1.
         21    1    1    2  502  501 -0.39983505054E+02 -0.19130250259E+01 -0.40952246648E+01  0.40238180950E+02  0.00000000000E+00 0. -1.
<scales pt_clust_5="13000.00000" pt_clust_6="13000.00000" pt_clust_7="13000.00000" pt_clust_8="13000.00000" pt_clust_9="40.02924"></scales>
<clustering>
<clus scale="   40.029">  1  9  2 -1</clus>
<clus scale="   90.799">  7  8 -1 -1</clus>
<clus scale="  106.399">  5  6 -1 -1</clus>
<clus scale="  108.261">  2  7  1 -1</clus>
<clus scale="  108.261">  2  5  1 -1</clus>
</clustering>
</event>
<event>
 9    1  0.1434065E-005  0.9968072E+02  0.7546771E-02  0.1283794E+00
         -2   -1    0    0    0  501 -0.00000000000E+00  0.00000000000E+00  0.30194909458E+02  0.30194909458E+02  0.00000000000E+00 0.  1.
          2   -1    0    0  502    0  0.00000000000E+00 -0.00000000000E+00 -0.69640957456E+03  0.69640957456E+03  0.00000000000E+00 0. -1.
         23    2    1    2    0    0  0.36652670430E+02 -0.43779947729E+02 -0.25869084545E+03  0.27986977525E+03  0.90255390463E+02 0.  0.
         23    2    1    2    0    0 -0.39067246932E+02  0.49295708664E+01 -0.39499521109E+03  0.40584280254E+03  0.84478477374E+02 0.  0.
        -13    1    4    4    0    0 -0.11223263233E+02  0.40788642194E+02 -0.12268557910E+03  0.12977452095E+03  0.00000000000E+00 0. -1.
         13    1    4    4    0    0 -0.27843983699E+02 -0.35859071327E+02 -0.27230963199E+03  0.27606828159E+03  0.00000000000E+00 0.  1.
        -13    1    3    3    0    0 -0.34053372320E+01 -0.47671764813E+02 -0.57862720442E+02  0.75048570266E+02  0.00000000000E+00 0.  1.
         13    1    3    3    0    0  0.40058007662E+02  0.38918170836E+01 -0.20082812501E+03  0.20482120499E+03  0.00000000000E+00 0. -1.
         21    1    1    2  502  501  0.24145765020E+01  0.38850376863E+02 -0.12528608562E+02  0.40891906223E+02  0.00000000000E+00 0.  1.
<scales pt_clust_5="13000.00000" pt_clust_6="13000.00000" pt_clust_7="13000.00000" pt_clust_8="13000.00000" pt_clust_9="38.92534"></scales>
<clustering>
<clus scale="   38.925">  1  9  2 -1</clus>
<clus scale="   84.478">  5  6 -1 -1</clus>
<clus scale="   90.255">  7  8 -1 -1</clus>
<clus scale="   94.482">  2  5  1 -1</clus>
<clus scale="   94.482">  2  5  1 -1</clus>
</clustering>
</event>
<event>
 9    1  0.1434065E-005  0.1136175E+03  0.7546771E-02  0.1255299E+00
          1   -1    0    0  502    0  0.00000000000E+00  0.00000000000E+00  0.56762824033E+02  0.56762824033E+02  0.00000000000E+00 0. -1.
         -1   -1    0    0    0  501 -0.00000000000E+00 -0.00000000000E+00 -0.65329398330E+03  0.65329398330E+03  0.00000000000E+00 0.  1.
         23    2    1    2    0    0  0.16178113501E+02 -0.15129103575E+02 -0.18149818786E+03  0.20543080945E+03  0.93646164603E+02 0.  0.
         23    2    1    2    0    0  0.25926261873E+02  0.90062822726E+02 -0.67298226226E+02  0.14642592292E+03  0.90155513192E+02 0.  0.
        -11    1    3    3    0    0  0.51702897897E+02 -0.10456572477E+02 -0.14494447746E+03  0.15424471176E+03  0.00000000000E+00 0. -1.
         11    1    3    3    0    0 -0.35524784396E+02 -0.46725310981E+01 -0.36553710393E+02  0.51186097690E+02  0.00000000000E+00 0.  1.
        -13    1    4    4    0    0  0.58202491740E+02  0.70008944905E+02 -0.38983876367E+02  0.99037997900E+02  0.00000000000E+00 0. -1.
         13    1    4    4    0    0 -0.32276229867E+02  0.20053877821E+02 -0.28314349859E+02  0.47387925024E+02  0.00000000000E+00 0.  1.
         21    1    1    2  502  501 -0.42104375374E+02 -0.74933719151E+02 -0.34773474518E+03  0.35820007495E+03  0.00000000000E+00 0.  1.
<scales pt_clust_5="13000.00000" pt_clust_6="13000.00000" pt_clust_7="13000.00000" pt_clust_8="13000.00000" pt_clust_9="85.95255"></scales>
<clustering>
<clus scale="   85.953">  2  9  1 -1</clus>
<clus scale="   90.156">  7  8 -1 -1</clus>
<clus scale="   93.646">  5  6 -1 -1</clus>
<clus scale="  110.758">  1  7  2 -1</clus>
<clus scale="  110.758">  1  5  2 -1</clus>
</clustering>
</event>
<event>
 9    1  0.1434065E-005  0.1568268E+03  0.7546771E-02  0.1192381E+00
          1   -1    0    0  502    0  0.00000000000E+00  0.00000000000E+00  0.12273724520E+03  0.12273724520E+03  0.00000000000E+00 0. -1.
         -1   -1    0    0    0  501 -0.00000000000E+00 -0.00000000000E+00 -0.35030058913E+03  0.35030058913E+03  0.00000000000E+00 0.  1.
         23    2    1    2    0    0  0.66223600262E+02  0.14338314524E+03 -0.10209810127E+03  0.20926221067E+03  0.91773410966E+02 0.  0.
         23    2    1    2    0    0 -0.87487176028E+02 -0.71514353125E+02 -0.42220513640E+02  0.15176246442E+03  0.92092155815E+02 0.  0.
        -11    1    3    3    0    0  0.16408608004E+02  0.31218687565E+02  0.16191544871E+02  0.38807409025E+02  0.00000000000E+00 0. -1.
         11    1    3    3    0    0  0.49814992258E+02  0.11216445767E+03 -0.11828964614E+03  0.17045480164E+03  0.00000000000E+00 0.  1.
        -13    1    4    4    0    0 -0.58421554138E+02  0.98732782887E+01 -0.19930078208E+02  0.62512139856E+02  0.00000000000E+00 0.  1.
         13    1    4    4    0    0 -0.29065621890E+02 -0.81387631413E+02 -0.22290435432E+02  0.89250324564E+02  0.00000000000E+00 0. -1.
         21    1    1    2  502  501  0.21263575766E+02 -0.71868792114E+02 -0.83244729018E+02  0.11201315924E+03  0.00000000000E+00 0. -1.
<scales pt_clust_5="13000.00000" pt_clust_6="13000.00000" pt_clust_7="13000.00000" pt_clust_8="13000.00000" pt_clust_9="74.94840"></scales>
<clustering>
<clus scale="   74.948">  2  9  1 -1</clus>
<clus scale="   91.773">  5  6 -1 -1</clus>
<clus scale="   92.092">  7  8 -1 -1</clus>
<clus scale="  156.640">  2  5  1 -1</clus>
<clus scale="  156.827">  1  5  2 -1</clus>
</clustering>
</event>
<event>
 9    1  0.1434065E-005  0.1649365E+03  0.7546771E-02  0.1186821E+00
         -3   -1    0    0    0  501 -0.00000000000E+00  0.00000000000E+00  0.20898278546E+03  0.20898278546E+03  0.00000000000E+00 0.  1.
          3   -1    0    0  502    0  0.00000000000E+00 -0.00000000000E+00 -0.26357898864E+03  0.26357898864E+03  0.00000000000E+00 0. -1.
         23    2    1    2    0    0  0.28672931447E+02 -0.12636853511E+03  0.12842734186E+03  0.20369869479E+03  0.90600399881E+02 0.  0.
         23    2    1    2    0    0 -0.49431688758E+02  0.13027736387E+03 -0.19200749889E+03  0.24590842021E+03  0.64717757285E+02 0.  0.
        -11    1    4    4    0    0 -0.15412569761E+02  0.32519284011E+02 -0.11411894392E+02  0.37752913435E+02  0.00000000000E+00 0.  1.
         11    1    4    4    0    0 -0.34019118997E+02  0.97758079856E+02 -0.18059560450E+03  0.20815550677E+03  0.00000000000E+00 0. -1.
        -11    1    3    3    0    0  0.44912217682E+02 -0.54470052777E+02  0.10467330482E+03  0.12625606793E+03  0.00000000000E+00 0. -1.
         11    1    3    3    0    0 -0.16239286235E+02 -0.71898482337E+02  0.23754037034E+02  0.77442626861E+02  0.00000000000E+00 0.  1.
         21    1    1    2  502  501  0.20758757311E+02 -0.39088287525E+01  0.89839538680E+01  0.22954659101E+02  0.00000000000E+00 0.  1.
<scales pt_clust_5="13000.00000" pt_clust_6="13000.00000" pt_clust_7="13000.00000" pt_clust_8="13000.00000" pt_clust_9="21.12356"></scales>
<clustering>
<clus scale="   21.124">  1  9  2 -1</clus>
<clus scale="   64.718">  5  6 -1 -1</clus>
<clus scale="   90.600">  7  8 -1 -1</clus>
<clus scale="  152.263">  2  5  1 -1</clus>
<clus scale="  152.263">  2  5  1 -1</clus>
</clustering>
</event>
<event>
 9    1  0.1434065E-005  0.1925560E+03  0.7546771E-02  0.1156717E+00
          1   -1    0    0  502    0  0.00000000000E+00  0.00000000000E+00  0.11419499359E+03  0.11419499359E+03  0.00000000000E+00 0. -1.
         -1   -1    0    0    0  501 -0.00000000000E+00 -0.00000000000E+00 -0.53258265043E+03  0.53258265043E+03  0.00000000000E+00 0.  1.
         23    2    1    2    0    0 -0.79830670030E+02 -0.16555651650E+03 -0.36910806151E+03  0.42334120317E+03  0.95891173722E+02 0.  0.
         23    2    1    2    0    0  0.72989720450E+02  0.10536975695E+03 -0.31179464232E+02  0.16021572144E+03  0.90921028571E+02 0.  0.
        -11    1    3    3    0    0 -0.97870915523E+02 -0.11352947969E+03 -0.29628074083E+03  0.33203905832E+03  0.00000000000E+00 0.  1.
         11    1    3    3    0    0  0.18040245492E+02 -0.52027036814E+02 -0.72827320677E+02  0.91302144849E+02  0.00000000000E+00 0. -1.
        -13    1    4    4    0    0  0.19495132507E+02  0.16490966007E+02 -0.48721457690E+02  0.55007204899E+02  0.00000000000E+00 0.  1.
         13    1    4    4    0    0  0.53494587943E+02  0.88878790943E+02  0.17541993459E+02  0.10520851654E+03  0.00000000000E+00 0. -1.
         21    1    1    2  502  501  0.68409495798E+01  0.60186759553E+02 -0.18100131101E+02  0.63220719408E+02  0.00000000000E+00 0.  1.
<scales pt_clust_5="13000.00000" pt_clust_6="13000.00000" pt_clust_7="13000.00000" pt_clust_8="13000.00000" pt_clust_9="60.57429"></scales>
<clustering>
<clus scale="   60.574">  1  9  2 -1</clus>
<clus scale="   90.921">  7  8 -1 -1</clus>
<clus scale="   95.891">  5  6 -1 -1</clus>
<clus scale="  190.130">  1  7  2 -1</clus>
<clus scale="   60.574">  1  5  2 -1</clus>
</clustering>
</event>
<event>
 9    1  0.1434065E-005  0.1028854E+03  0.7546771E-02  0.1276616E+00
          1   -1    0    0  502    0  0.00000000000E+00  0.00000000000E+00  0.40605735258E+02  0.40605735258E+02  0.00000000000E+00 0. -1.
         -1   -1    0    0    0  501 -0.00000000000E+00 -0.00000000000E+00 -0.90467009580E+03  0.90467009580E+03  0.00000000000E+00 0.  1.
         23    2    1    2    0    0 -0.36097172077E+02  0.19072075295E+02 -0.28787629691E+03  0.30285592860E+03  0.84747868874E+02 0.  0.
         23    2    1    2    0    0  0.20180411775E+02  0.67515236542E+02 -0.82253934644E+02  0.14070122669E+03  0.89808514318E+02 0.  0.
        -11    1    3    3    0    0  0.24869861690E+02 -0.94886949651E+01 -0.74697476649E+02  0.79298539522E+02  0.00000000000E+00 0.  1.
         11    1    3    3    0    0 -0.60967033767E+02  0.28560770260E+02 -0.21317882026E+03  0.22355738908E+03  0.00000000000E+00 0. -1.
        -13    1    4    4    0    0 -0.25285042842E+02  0.61699632264E+02 -0.36852011284E+02  0.76185620354E+02  0.00000000000E+00 0. -1.
         13    1    4    4    0    0  0.45465454617E+02  0.58156042781E+01 -0.45401923360E+02  0.64515606340E+02  0.00000000000E+00 0.  1.
         21    1    1    2  502  501  0.15916760302E+02 -0.86587311837E+02 -0.49393412899E+03  0.50171867577E+03  0.00000000000E+00 0.  1.
<scales pt_clust_5="13000.00000" pt_clust_6="13000.00000" pt_clust_7="13000.00000" pt_clust_8="13000.00000" pt_clust_9="88.03809"></scales>
<clustering>
<clus scale="   84.748">  5  6 -1 -1</clus>
<clus scale="   88.038">  2  9  1 -1</clus>
<clus scale="   89.809">  7  8 -1 -1</clus>
<clus scale="   98.499">  2  5  1 -1</clus>
<clus scale="  102.885">  1  5  2 -1</clus>
</clustering>
</event>
<event>
 9    1  0.1434065E-005  0.1661802E+03  0.7546771E-02  0.1183207E+00
         -1   -1    0    0    0  501 -0.00000000000E+00  0.00000000000E+00  0.84589118627E+02  0.84589118627E+02  0.00000000000E+00 0.  1.
          1   -1    0    0  502    0  0.00000000000E+00 -0.00000000000E+00 -0.57992208703E+03  0.57992208703E+03  0.00000000000E+00 0. -1.
         23    2    1    2    0    0 -0.73883862432E+02  0.10480051901E+03 -0.13423072378E+03  0.20642355627E+03  0.90281911065E+02 0.  0.
         23    2    1    2    0    0  0.53532527893E+02 -0.12658544594E+03 -0.38457712934E+03  0.42014255654E+03  0.98643766836E+02 0.  0.
        -11    1    3    3    0    0 -0.21244198285E+01  0.20125194542E+02 -0.80696168491E+02  0.83195001197E+02  0.00000000000E+00 0.  1.
         11    1    3    3    0    0 -0.71759442604E+02  0.84675324466E+02 -0.53534555290E+02  0.12322855508E+03  0.00000000000E+00 0. -1.
        -13    1    4    4    0    0  0.52650559350E+02 -0.21144480515E+02 -0.19645682160E+03  0.20448582643E+03  0.00000000000E+00 0.  1.
         13    1    4    4    0    0  0.88196854316E+00 -0.10544096542E+03 -0.18812030774E+03  0.21565673011E+03  0.00000000000E+00 0. -1.
         21    1    1    2  502  501  0.20351334539E+02  0.21784926928E+02  0.23474884717E+02  0.37945092849E+02  0.00000000000E+00 0. -1.
<scales pt_clust_5="13000.00000" pt_clust_6="13000.00000" pt_clust_7="13000.00000" pt_clust_8="13000.00000" pt_clust_9="29.81208"></scales>
<clustering>
<clus scale="   29.812">  1  9  2 -1</clus>
<clus scale="   90.282">  5  6 -1 -1</clus>
<clus scale="   98.644">  7  8 -1 -1</clus>
<clus scale="  161.357">  1  5  2 -1</clus>
<clus scale="  166.180">  2  5  1 -1</clus>
</clustering>
</event>
<event>
 9    1  0.1434065E-005  0.1190861E+03  0.7546771E-02  0.1251369E+00
         -2   -1    0    0    0  501 -0.00000000000E+00  0.00000000000E+00  0.56746478922E+02  0.56746478922E+02  0.00000000000E+00 0.  1.
          2   -1    0    0  502    0  0.00000000000E+00 -0.00000000000E+00 -0.42728515671E+03  0.42728515671E+03  0.00000000000E+00 0. -1.
         23    2    1    2    0    0 -0.43053476302E+02  0.48057732711E+01 -0.11142297561E+03  0.15065667777E+03  0.91682374453E+02 0.  0.
         23    2    1    2    0    0  0.25748522249E+02 -0.60975966134E+02 -0.23999372059E+03  0.27156717371E+03  0.10849280654E+03 0.  0.
        -11    1    4    4    0    0 -0.29092088454E+02 -0.18851632619E+02 -0.18016881949E+02  0.39068423288E+02  0.00000000000E+00 0.  1.
         11    1    4    4    0    0  0.54840610703E+02 -0.42124333515E+02 -0.22197683864E+03  0.23249875043E+03  0.00000000000E+00 0. -1.
        -13    1    3    3    0    0 -0.11441120390E+02 -0.38512445235E+02 -0.20516284106E+02  0.45111257877E+02  0.00000000000E+00 0.  1.
         13    1    3    3    0    0 -0.31612355912E+02  0.43318218506E+02 -0.90906691501E+02  0.10554541989E+03  0.00000000000E+00 0. -1.
         21    1    1    2  502  501  0.17304954053E+02  0.56170192863E+02 -0.19121981589E+02  0.61807784145E+02  0.00000000000E+00 0. -1.
<scales pt_clust_5="13000.00000" pt_clust_6="13000.00000" pt_clust_7="13000.00000" pt_clust_8="13000.00000" pt_clust_9="58.77544"></scales>
<clustering>
<clus scale="   58.775">  1  9  2 -1</clus>
<clus scale="   91.682">  7  8 -1 -1</clus>
<clus scale="  104.002">  1  7  2 -1</clus>
<clus scale="  108.493">  5  6 -1 -1</clus>
<clus scale="  119.086">  2  5  1 -1</clus>
</clustering>
</event>
<event>
 9    1  0.1434065E-005  0.1205787E+03  0.7546771E-02  0.1242239E+00
          1   -1    0    0  502    0  0.00000000000E+00  0.00000000000E+00  0.22915278202E+03  0.22915278202E+03  0.00000000000E+00 0. -1.
         -1   -1    0    0    0  501 -0.00000000000E+00 -0.00000000000E+00 -0.25810565977E+03  0.25810565977E+03  0.00000000000E+00 0.  1.
         23    2    1    2    0    0 -0.35302458845E+02  0.59937629227E+01 -0.17874382415E+03  0.20307041678E+03  0.89476537188E+02 0.  0.
         23    2    1    2    0    0  0.62558459817E+02  0.60749925074E+02  0.16856579352E+03  0.20968900246E+03  0.89168025179E+02 0.  0.
        -11    1    4    4    0    0  0.28749058701E+02  0.75218504833E+02  0.14544790728E+03  0.16625109196E+03  0.00000000000E+00 0. -1.
         11    1    4    4    0    0  0.33809401116E+02 -0.14468579759E+02  0.23117886241E+02  0.43437910496E+02  0.00000000000E+00 0.  1.
        -13    1    3    3    0    0 -0.38095123117E+01  0.42055005630E+02 -0.48507375212E+02  0.64312528581E+02  0.00000000000E+00 0. -1.
         13    1    3    3    0    0 -0.31492946534E+02 -0.36061242707E+02 -0.13023644894E+03  0.13875788820E+03  0.00000000000E+00 0.  1.
         21    1    1    2  502  501 -0.27256000972E+02 -0.66743687997E+02 -0.18774847122E+02  0.74499022549E+02  0.00000000000E+00 0.  1.
<scales pt_clust_5="13000.00000" pt_clust_6="13000.00000" pt_clust_7="13000.00000" pt_clust_8="13000.00000" pt_clust_9="72.09445"></scales>
<clustering>
<clus scale="   72.094">  2  9  1 -1</clus>
<clus scale="   89.168">  5  6 -1 -1</clus>
<clus scale="   89.477">  7  8 -1 -1</clus>
<clus scale="  120.350">  1  5  2 -1</clus>
<clus scale="  120.350">  1  5  2 -1</clus>
</clustering>
</event>
<event>
 9    1  0.1434065E-005  0.1216595E+03  0.7546771E-02  0.1240469E+00
         -2   -1    0    0    0  501 -0.00000000000E+00  0.00000000000E+00  0.25488799331E+02  0.25488799331E+02  0.00000000000E+00 0.  1.
          2   -1    0    0  502    0  0.00000000000E+00 -0.00000000000E+00 -0.75773132032E+03  0.75773132032E+03  0.00000000000E+00 0. -1.
         23    2    1    2    0    0 -0.52640420903E+02  0.64740988604E+02 -0.27740493967E+03  0.30344733177E+03  0.90356920549E+02 0.  0.
         23    2    1    2    0    0  0.30247788340E+02 -0.75264925521E+02 -0.41845092903E+03  0.43577083671E+03  0.90638316449E+02 0.  0.
        -11    1    4    4    0    0 -0.21159549543E+02 -0.12687263432E+02 -0.29400735775E+02  0.38380938685E+02  0.00000000000E+00 0.  1.
         11    1    4    4    0    0  0.51407337884E+02 -0.62577662089E+02 -0.38905019326E+03  0.39738989803E+03  0.00000000000E+00 0. -1.
        -13    1    3    3    0    0 -0.17002021042E+01 -0.22176758905E+02 -0.49240765042E+02  0.54031030572E+02  0.00000000000E+00 0.  1.
         13    1    3    3    0    0 -0.50940218799E+02  0.86917747509E+02 -0.22816417462E+03  0.24941630120E+03  0.00000000000E+00 0. -1.
         21    1    1    2  502  501  0.22392632563E+02  0.10523936917E+02 -0.36386652294E+02  0.44001951167E+02  0.00000000000E+00 0.  1.
<scales pt_clust_5="13000.00000" pt_clust_6="13000.00000" pt_clust_7="13000.00000" pt_clust_8="13000.00000" pt_clust_9="24.74234"></scales>
<clustering>
<clus scale="   24.742">  1  9  2 -1</clus>
<clus scale="   90.357">  7  8 -1 -1</clus>
<clus scale="   90.638">  5  6 -1 -1</clus>
<clus scale="  121.450">  1  7  2 -1</clus>
<clus scale="  121.660">  2  5  1 -1</clus>
</clustering>
</event>
<event>
 9    1  0.2039950E-005  0.3363790E+03  0.7546771E-02  0.1068396E+00
         -1   -1    0    0    0  501 -0.00000000000E+00  0.00000000000E+00  0.75763498383E+03  0.75763498383E+03  0.00000000000E+00 0.  1.
          1   -1    0    0  502    0  0.00000000000E+00 -0.00000000000E+00 -0.35353211286E+03  0.35353211286E+03  0.00000000000E+00 0. -1.
         23    2    1    2    0    0 -0.28443711845E+03  0.17834977891E+03  0.57123480180E+03  0.66876015653E+03  0.90652248680E+02 0.  0.
         23    2    1    2    0    0  0.28258133597E+03 -0.15379125890E+03 -0.20845561646E+03  0.39430068457E+03  0.92278508115E+02 0.  0.
        -11    1    4    4    0    0  0.24128140827E+02 -0.31982088339E+01 -0.50435013596E+02  0.56000770672E+02  0.00000000000E+00 0. -1.
         11    1    4    4    0    0  0.25845319515E+03 -0.15059305007E+03 -0.15802060287E+03  0.33829991389E+03  0.00000000000E+00 0.  1.
        -11    1    3    3    0    0 -0.20205250594E+03  0.13373551428E+03  0.32559766789E+03  0.40586234646E+03  0.00000000000E+00 0. -1.
         11    1    3    3    0    0 -0.82384612502E+02  0.44614264628E+02  0.24563713391E+03  0.26289781007E+03  0.00000000000E+00 0.  1.
         21    1    1    2  502  501  0.18557824725E+01 -0.24558520004E+02  0.41323685630E+02  0.48106255595E+02  0.00000000000E+00 0.  1.
<scales pt_clust_5="13000.00000" pt_clust_6="13000.00000" pt_clust_7="13000.00000" pt_clust_8="13000.00000" pt_clust_9="24.62854"></scales>
<clustering>
<clus scale="   24.629">  1  9  2 -1</clus>
<clus scale="   90.652">  7  8 -1 -1</clus>
<clus scale="   92.279">  5  6 -1 -1</clus>
<clus scale="  335.937">  1  7  2 -1</clus>
<clus scale="  336.379">  2  5  1 -1</clus>
</clustering>
</event>
<event>
 9    1  0.1434065E-005  0.9670540E+02  0.7546771E-02  0.1287576E+00
         -1   -1    0    0    0  501 -0.00000000000E+00  0.00000000000E+00  0.58155264656E+03  0.58155264656E+03  0.00000000000E+00 0.  1.
          1   -1    0    0  502    0  0.00000000000E+00 -0.00000000000E+00 -0.26862392710E+02  0.26862392710E+02  0.00000000000E+00 0. -1.
         23    2    1    2    0    0 -0.87707488951E+01  0.57734842478E+01  0.27378817429E+03  0.28844822231E+03  0.90178453175E+02 0.  0.
         23    2    1    2    0    0  0.46703769671E+02 -0.63470056892E+01  0.13524198930E+03  0.16944736677E+03  0.90556545049E+02 0.  0.
        -11    1    3    3    0    0 -0.16230082892E+02 -0.39271288065E+02  0.97775811301E+02  0.10661031344E+03  0.00000000000E+00 0.  1.
         11    1    3    3    0    0  0.74593339967E+01  0.45044772313E+02  0.17601236298E+03  0.18183790886E+03  0.00000000000E+00 0. -1.
        -13    1    4    4    0    0  0.52534043146E+02  0.19744592607E+02  0.13081865815E+03  0.14234885299E+03  0.00000000000E+00 0. -1.
         13    1    4    4    0    0 -0.58302734755E+01 -0.26091598296E+02  0.44233311479E+01  0.27098513776E+02  0.00000000000E+00 0.  1.
         21    1    1    2  502  501 -0.37933020775E+02  0.57352144140E+00  0.14566009026E+03  0.15051945019E+03  0.00000000000E+00 0. -1.
<scales pt_clust_5="13000.00000" pt_clust_6="13000.00000" pt_clust_7="13000.00000" pt_clust_8="13000.00000" pt_clust_9="37.93736"></scales>
<clustering>
<clus scale="   37.937">  1  9  2 -1</clus>
<clus scale="   90.178">  5  6 -1 -1</clus>
<clus scale="   90.557">  7  8 -1 -1</clus>
<clus scale="   96.351">  1  5  2 -1</clus>
<clus scale="   96.705">  2  5  1 -1</clus>
</clustering>
</event>
<event>
 9    1  0.1434065E-005  0.9554556E+02  0.7546771E-02  0.1292412E+00
         -1   -1    0    0    0  501 -0.00000000000E+00  0.00000000000E+00  0.70315786245E+02  0.70315786245E+02  0.00000000000E+00 0.  1.
          1   -1    0    0  502    0  0.00000000000E+00 -0.00000000000E+00 -0.44417268245E+03  0.44417268245E+03  0.00000000000E+00 0. -1.
         23    2    1    2    0    0 -0.16061283861E+02 -0.31638208894E+02 -0.13338887787E+02  0.98141470801E+02  0.90525583469E+02 0.  0.
         23    2    1    2    0    0  0.27218640369E+02  0.14157592929E+02 -0.37821998426E+03  0.38908129623E+03  0.85980269608E+02 0.  0.
        -13    1    3    3    0    0 -0.23146554845E+02  0.16340033868E+02  0.23842744727E+02  0.37030206374E+02  0.00000000000E+00 0.  1.
         13    1    3    3    0    0  0.70852709846E+01 -0.47978242762E+02 -0.37181632514E+02  0.61111264427E+02  0.00000000000E+00 0. -1.
        -13    1    4    4    0    0  0.57001977972E+02  0.49727180680E+01 -0.19470269654E+03  0.20293618075E+03  0.00000000000E+00 0. -1.
         13    1    4    4    0    0 -0.29783337603E+02  0.91848748615E+01 -0.18351728772E+03  0.18614511548E+03  0.00000000000E+00 0.  1.
         21    1    1    2  502  501 -0.11157356509E+02  0.17480615965E+02  0.17701975839E+02  0.27265701667E+02  0.00000000000E+00 0.  1.
<scales pt_clust_5="13000.00000" pt_clust_6="13000.00000" pt_clust_7="13000.00000" pt_clust_8="13000.00000" pt_clust_9="20.73785"></scales>
<clustering>
<clus scale="   20.738">  1  9  2 -1</clus>
<clus scale="   85.980">  7  8 -1 -1</clus>
<clus scale="   90.526">  5  6 -1 -1</clus>
<clus scale="   91.251">  2  7  1 -1</clus>
<clus scale="   91.251">  2  5  1 -1</clus>
</clustering>
</event>
<event>
 9    1  0.1434065E-005  0.1134307E+03  0.7546771E-02  0.1263657E+00
         -3   -1    0    0    0  501 -0.00000000000E+00  0.00000000000E+00  0.47318836273E+03  0.47318836273E+03  0.00000000000E+00 0.  1.
          3   -1    0    0  502    0  0.00000000000E+00 -0.00000000000E+00 -0.92019881432E+02  0.92019881432E+02  0.00000000000E+00 0. -1.
         23    2    1    2    0    0  0.32905260412E+02 -0.86620216655E+02  0.13424592359E+03  0.18593629144E+03  0.89244150381E+02 0.  0.
         23    2    1    2    0    0 -0.50445705006E+01  0.10333972117E+02 -0.96264915115E+01  0.11017489996E+03  0.10914944147E+03 0.  0.
        -11    1    3    3    0    0  0.35124410600E+02  0.52233949634E+01  0.49706709539E+02  0.61088174372E+02  0.00000000000E+00 0.  1.
         11    1    3    3    0    0 -0.22191501879E+01 -0.91843611618E+02  0.84539214053E+02  0.12484811707E+03  0.00000000000E+00 0. -1.
        -13    1    4    4    0    0  0.34223318063E+02  0.22069449577E+02  0.31975796429E+02  0.51775937086E+02  0.00000000000E+00 0.  1.
         13    1    4    4    0    0 -0.39267888564E+02 -0.11735477461E+02 -0.41602287940E+02  0.58398962879E+02  0.00000000000E+00 0. -1.
         21    1    1    2  502  501 -0.27860689911E+02  0.76286244538E+02  0.25654904922E+03  0.26909705276E+03  0.00000000000E+00 0.  1.
<scales pt_clust_5="13000.00000" pt_clust_6="13000.00000" pt_clust_7="13000.00000" pt_clust_8="13000.00000" pt_clust_9="81.21459"></scales>
<clustering>
<clus scale="   81.215">  1  9  2 -1</clus>
<clus scale="   89.244">  5  6 -1 -1</clus>
<clus scale="   94.432">  1  5  2 -1</clus>
<clus scale="  109.149">  7  8 -1 -1</clus>
<clus scale="  113.431">  2  5  1 -1</clus>
</clustering>
</event>
<event>
 9    1  0.1434065E-005  0.1383878E+03  0.7546771E-02  0.1217090E+00
          2   -1    0    0  502    0  0.00000000000E+00  0.00000000000E+00  0.26774916302E+03  0.26774916302E+03  0.00000000000E+00 0. -1.
         -2   -1    0    0    0  501 -0.00000000000E+00 -0.00000000000E+00 -0.12513179254E+03  0.12513179254E+03  0.00000000000E+00 0.  1.
         23    2    1    2    0    0 -0.18259346291E+01 -0.13019653740E+03  0.10797921860E+03  0.19572813018E+03  0.98465815934E+02 0.  0.
         23    2    1    2    0    0 -0.75301749392E+01  0.70753332508E+02  0.61151918906E+02  0.13139561106E+03  0.91991911730E+02 0.  0.
        -13    1    4    4    0    0 -0.28961498801E+02 -0.95742243694E+01  0.29506999269E+02  0.42439335421E+02  0.00000000000E+00 0. -1.
         13    1    4    4    0    0  0.21431323862E+02  0.80327556877E+02  0.31644919637E+02  0.88956275637E+02  0.00000000000E+00 0.  1.
        -13    1    3    3    0    0  0.23724159933E+02 -0.12879487019E+02  0.61165486569E+02  0.66857562755E+02  0.00000000000E+00 0.  1.
         13    1    3    3    0    0 -0.25550094562E+02 -0.11731705038E+03  0.46813732027E+02  0.12887056743E+03  0.00000000000E+00 0. -1.
         21    1    1    2  502  501  0.93561095683E+01  0.59443204894E+02 -0.26513767023E+02  0.65757214327E+02  0.00000000000E+00 0.  1.
<scales pt_clust_5="13000.00000" pt_clust_6="13000.00000" pt_clust_7="13000.00000" pt_clust_8="13000.00000" pt_clust_9="60.17501"></scales>
<clustering>
<clus scale="   60.175">  2  9  1 -1</clus>
<clus scale="   91.992">  5  6 -1 -1</clus>
<clus scale="   98.466">  7  8 -1 -1</clus>
<clus scale="  133.859">  1  5  2 -1</clus>
<clus scale="  133.859">  1  5  2 -1</clus>
</clustering>
</event>
<event>
 9    1  0.1434065E-005  0.1137029E+03  0.7546771E-02  0.1254534E+00
          3   -1    0    0  502    0  0.00000000000E+00  0.00000000000E+00  0.21099913465E+03  0.21099913465E+03  0.00000000000E+00 0. -1.
         -3   -1    0    0    0  501 -0.00000000000E+00 -0.00000000000E+00 -0.19251011660E+03  0.19251011660E+03  0.00000000000E+00 0.  1.
         23    2    1    2    0    0  0.21571089542E+02  0.82700085124E+02  0.80712105524E+02  0.14786639206E+03  0.89696209174E+02 0.  0.
         23    2    1    2    0    0 -0.90872393546E+01 -0.50941987866E+02  0.65186863442E+02  0.12374244657E+03  0.91570747904E+02 0.  0.
        -11    1    4    4    0    0  0.14900395563E+02 -0.60382328387E+02  0.73847653708E+02  0.96548036373E+02  0.00000000000E+00 0.  1.
         11    1    4    4    0    0 -0.23987634918E+02  0.94403405202E+01 -0.86607902662E+01  0.27194410200E+02  0.00000000000E+00 0. -1.
        -13    1    3    3    0    0  0.38589829894E+02  0.52120006114E+02  0.90674814016E+02  0.11147910973E+03  0.00000000000E+00 0. -1.
         13    1    3    3    0    0 -0.17018740352E+02  0.30580079009E+02 -0.99627084918E+01  0.36387282337E+02  0.00000000000E+00 0.  1.
         21    1    1    2  502  501 -0.12483850188E+02 -0.31758097257E+02 -0.12740995091E+03  0.13190041261E+03  0.00000000000E+00 0.  1.
<scales pt_clust_5="13000.00000" pt_clust_6="13000.00000" pt_clust_7="13000.00000" pt_clust_8="13000.00000" pt_clust_9="34.12365"></scales>
<clustering>
<clus scale="   34.124">  2  9  1 -1</clus>
<clus scale="   89.696">  7  8 -1 -1</clus>
<clus scale="   91.571">  5  6 -1 -1</clus>
<clus scale="  112.199">  2  7  1 -1</clus>
<clus scale="  113.703">  1  5  2 -1</clus>
</clustering>
</event>
<event>
 9    1  0.1434065E-005  0.9513555E+02  0.7546771E-02  0.1302263E+00
          3   -1    0    0  502    0  0.00000000000E+00  0.00000000000E+00  0.18017437350E+03  0.18017437350E+03  0.00000000000E+00 0. -1.
         -3   -1    0    0    0  501 -0.00000000000E+00 -0.00000000000E+00 -0.78784700682E+02  0.78784700682E+02  0.00000000000E+00 0.  1.
         23    2    1    2    0    0  0.34079680469E+02 -0.28826447438E+02 -0.40331614584E+01  0.86380292880E+02  0.73843753385E+02 0.  0.
         23    2    1    2    0    0 -0.15241096691E+02 -0.22795113904E+01  0.97556830016E+02  0.13537196826E+03  0.92578331743E+02 0.  0.
        -11    1    4    4    0    0 -0.39440829340E+02  0.17117533728E+02  0.12406534337E+02  0.44749425407E+02  0.00000000000E+00 0.  1.
         11    1    4    4    0    0  0.24199732649E+02 -0.19397045119E+02  0.85150295679E+02  0.90622542857E+02  0.00000000000E+00 0. -1.
        -13    1    3    3    0    0  0.45735578065E+01 -0.44432763188E+02  0.16004973908E+02  0.47448362093E+02  0.00000000000E+00 0. -1.
         13    1    3    3    0    0  0.29506122662E+02  0.15606315750E+02 -0.20038135367E+02  0.38931930787E+02  0.00000000000E+00 0.  1.
         21    1    1    2  502  501 -0.18838583778E+02  0.31105958829E+02  0.78660042596E+01  0.37206813038E+02  0.00000000000E+00 0.  1.
<scales pt_clust_5="13000.00000" pt_clust_6="13000.00000" pt_clust_7="13000.00000" pt_clust_8="13000.00000" pt_clust_9="36.36582"></scales>
<clustering>
<clus scale="   36.366">  2  9  1 -1</clus>
<clus scale="   73.844">  7  8 -1 -1</clus>
<clus scale="   77.025">  2  7  1 -1</clus>
<clus scale="   92.578">  5  6 -1 -1</clus>
<clus scale="   95.136">  1  5  2 -1</clus>
</clustering>
</event>
<event>
 9    1  0.1434065E-005  0.1813837E+03  0.7546771E-02  0.1179758E+00
         -1   -1    0    0    0  501 -0.00000000000E+00  0.00000000000E+00  0.23803345591E+03  0.23803345591E+03  0.00000000000E+00 0.  1.
          1   -1    0    0  502    0  0.00000000000E+00 -0.00000000000E+00 -0.26044688475E+03  0.26044688475E+03  0.00000000000E+00 0. -1.
         23    2    1    2    0    0 -0.83390852274E+02  0.52147834690E+02  0.32551562239E+02  0.13795856143E+03  0.91101753888E+02 0.  0.
         23    2    1    2    0    0 -0.23251864706E+00 -0.17524618043E+03 -0.72241026983E+02  0.21070678564E+03  0.92017964096E+02 0.  0.
        -11    1    4    4    0    0  0.27752413374E+02 -0.15775733827E+03 -0.76361263572E+02  0.17745032206E+03  0.00000000000E+00 0.  1.
         11    1    4    4    0    0 -0.27984932021E+02 -0.17488842160E+02  0.41202365890E+01  0.33256463580E+02  0.00000000000E+00 0. -1.
        -11    1    3    3    0    0 -0.55912996189E+02  0.74225748928E+02  0.47227289193E+01  0.93048530967E+02  0.00000000000E+00 0. -1.
         11    1    3    3    0    0 -0.27477856085E+02 -0.22077914238E+02  0.27828833320E+02  0.44910030462E+02  0.00000000000E+00 0.  1.
         21    1    1    2  502  501  0.83623370921E+02  0.12309834574E+03  0.17276035901E+02  0.14981499359E+03  0.00000000000E+00 0.  1.
<scales pt_clust_5="13000.00000" pt_clust_6="13000.00000" pt_clust_7="13000.00000" pt_clust_8="13000.00000" pt_clust_9="156.30977"></scales>
<clustering>
<clus scale="   91.102">  7  8 -1 -1</clus>
<clus scale="   92.018">  5  6 -1 -1</clus>
<clus scale="  134.063">  1  7  2 -1</clus>
<clus scale="  156.310">  1  9  2 -1</clus>
<clus scale="  181.384">  2  5  1 -1</clus>
</clustering>
</event>
<event>
 9    1  0.1434065E-005  0.1080332E+03  0.7546771E-02  0.1267424E+00
          1   -1    0    0  502    0  0.00000000000E+00  0.00000000000E+00  0.63621830347E+03  0.63621830347E+03  0.00000000000E+00 0. -1.
         -1   -1    0    0    0  501 -0.00000000000E+00 -0.00000000000E+00 -0.39373510618E+02  0.39373510618E+02  0.00000000000E+00 0.  1.
         23    2    1    2    0    0 -0.20658988863E+02  0.30460933810E+02  0.11994491873E+03  0.16036753530E+03  0.99881432417E+02 0.  0.
         23    2    1    2    0    0  0.46758531787E+02  0.27869436765E+01  0.45667333722E+03  0.46836576522E+03  0.92853786949E+02 0.  0.
        -11    1    4    4    0    0  0.35419064428E+02 -0.42045709248E+02  0.30058319645E+03  0.30556932075E+03  0.00000000000E+00 0. -1.
         11    1    4    4    0    0  0.11339467359E+02  0.44832652924E+02  0.15609014077E+03  0.16279644447E+03  0.00000000000E+00 0.  1.
        -13    1    3    3    0    0 -0.54524768387E+02  0.24389118808E+02  0.10894716168E+03  0.12424678475E+03  0.00000000000E+00 0.  1.
         13    1    3    3    0    0  0.33865779523E+02  0.60718150019E+01  0.10997757046E+02  0.36120750549E+02  0.00000000000E+00 0. -1.
         21    1    1    2  502  501 -0.26099542924E+02 -0.33247877487E+02  0.20226536901E+02  0.46858513562E+02  0.00000000000E+00 0. -1.
<scales pt_clust_5="13000.00000" pt_clust_6="13000.00000" pt_clust_7="13000.00000" pt_clust_8="13000.00000" pt_clust_9="42.26828"></scales>
<clustering>
<clus scale="   42.268">  2  9  1 -1</clus>
<clus scale="   92.854">  5  6 -1 -1</clus>
<clus scale="   99.881">  7  8 -1 -1</clus>
<clus scale="  101.571">  1  5  2 -1</clus>
<clus scale="  101.571">  1  5  2 -1</clus>
</clustering>
</event>
<event>
 9    1  0.1434065E-005  0.1039218E+03  0.7546771E-02  0.1272395E+00
          2   -1    0    0  502    0  0.00000000000E+00  0.00000000000E+00  0.27922578503E+03  0.27922578503E+03  0.00000000000E+00 0. -1.
         -2   -1    0    0    0  501 -0.00000000000E+00 -0.00000000000E+00 -0.54685936195E+02  0.54685936195E+02  0.00000000000E+00 0.  1.
         23    2    1    2    0    0 -0.79911512747E+01  0.61771339493E+02  0.68346835974E+02  0.13043698620E+03  0.91994350368E+02 0.  0.
         23    2    1    2    0    0 -0.18003400711E+01 -0.29348874106E+02  0.12095031230E+03  0.15459593075E+03  0.91686019237E+02 0.  0.
        -13    1    4    4    0    0 -0.38038969281E+02 -0.25592733380E+02  0.25572739229E+02  0.52496820642E+02  0.00000000000E+00 0.  1.
         13    1    4    4    0    0  0.36238629210E+02 -0.37561407257E+01  0.95377573068E+02  0.10209911011E+03  0.00000000000E+00 0. -1.
        -13    1    3    3    0    0  0.99192941998E+00  0.30864623146E+02  0.87633374084E+02  0.92915107164E+02  0.00000000000E+00 0. -1.
         13    1    3    3    0    0 -0.89830806947E+01  0.30906716346E+02 -0.19286538110E+02  0.37521879035E+02  0.00000000000E+00 0.  1.
         21    1    1    2  502  501  0.97914913458E+01 -0.32422465387E+02  0.35242700565E+02  0.48878804278E+02  0.00000000000E+00 0. -1.
<scales pt_clust_5="13000.00000" pt_clust_6="13000.00000" pt_clust_7="13000.00000" pt_clust_8="13000.00000" pt_clust_9="33.86871"></scales>
<clustering>
<clus scale="   33.869">  1  9  2 -1</clus>
<clus scale="   91.686">  5  6 -1 -1</clus>
<clus scale="   91.994">  7  8 -1 -1</clus>
<clus scale="  103.649">  1  5  2 -1</clus>
<clus scale="   33.869">  1  5  2 -1</clus>
</clustering>
</event>
<event>
 9    1  0.1434065E-005  0.1091567E+03  0.7546771E-02  0.1262373E+00
         -1   -1    0    0    0  501 -0.00000000000E+00  0.00000000000E+00  0.24312928578E+03  0.24312928578E+03  0.00000000000E+00 0.  1.
          1   -1    0    0  502    0  0.00000000000E+00 -0.00000000000E+00 -0.10785659040E+03  0.10785659040E+03  0.00000000000E+00 0. -1.
         23    2    1    2    0    0 -0.57091244539E+02 -0.18379872898E+02  0.57475683464E+02  0.12347652969E+03  0.91355181928E+02 0.  0.
         23    2    1    2    0    0  0.51826317545E+02 -0.53276116716E+02 -0.55835146216E+01  0.11744294603E+03  0.90759892761E+02 0.  0.
        -11    1    3    3    0    0  0.28153422722E+01 -0.43316509602E+02  0.15023840312E+02  0.45934321960E+02  0.00000000000E+00 0. -1.
         11    1    3    3    0    0 -0.59906586811E+02  0.24936636704E+02  0.42451843152E+02  0.77542207735E+02  0.00000000000E+00 0.  1.
        -13    1    4    4    0    0  0.16960808380E+02  0.13030306561E+02  0.28092244697E+02  0.35307677948E+02  0.00000000000E+00 0.  1.
         13    1    4    4    0    0  0.34865509165E+02 -0.66306423278E+02 -0.33675759318E+02  0.82135268082E+02  0.00000000000E+00 0. -1.
         21    1    1    2  502  501  0.52649269945E+01  0.71655989614E+02  0.83380526538E+02  0.11006640046E+03  0.00000000000E+00 0.  1.
<scales pt_clust_5="13000.00000" pt_clust_6="13000.00000" pt_clust_7="13000.00000" pt_clust_8="13000.00000" pt_clust_9="71.84915"></scales>
<clustering>
<clus scale="   71.849">  1  9  2 -1</clus>
<clus scale="   90.760">  7  8 -1 -1</clus>
<clus scale="   91.355">  5  6 -1 -1</clus>
<clus scale="  108.659">  2  7  1 -1</clus>
<clus scale="  108.659">  2  5  1 -1</clus>
</clustering>
</event>
<event>
 9    1  0.1434065E-005  0.9212021E+02  0.7546771E-02  0.1297994E+00
          2   -1    0    0  502    0  0.00000000000E+00  0.00000000000E+00  0.33740472263E+03  0.33740472263E+03  0.00000000000E+00 0. -1.
         -2   -1    0    0    0  501 -0.00000000000E+00 -0.00000000000E+00 -0.12807095040E+03  0.12807095040E+03  0.00000000000E+00 0.  1.
         23    2    1    2    0    0  0.23558964928E+02  0.44376514361E+01 -0.72889283185E+02  0.11840646492E+03  0.90180517594E+02 0.  0.
         23    2    1    2    0    0 -0.12245099577E+02  0.12203824444E+02  0.30385600189E+03  0.31752387613E+03  0.90521081716E+02 0.  0.
        -13    1    3    3    0    0 -0.61704853253E+01 -0.19906917832E+02 -0.76991886825E+02  0.79762841622E+02  0.00000000000E+00 0.  1.
         13    1    3    3    0    0  0.29729450253E+02  0.24344569268E+02  0.41026036403E+01  0.38643623301E+02  0.00000000000E+00 0. -1.
        -13    1    4    4    0    0  0.33345889104E+02  0.18410717077E+02  0.75339720365E+02  0.84421420789E+02  0.00000000000E+00 0.  1.
         13    1    4    4    0    0 -0.45590988681E+02 -0.62068926333E+01  0.22851628152E+03  0.23310245534E+03  0.00000000000E+00 0. -1.
         21    1    1    2  502  501 -0.11313865350E+02 -0.16641475880E+02 -0.21632946470E+02  0.29545331976E+02  0.00000000000E+00 0.  1.
<scales pt_clust_5="13000.00000" pt_clust_6="13000.00000" pt_clust_7="13000.00000" pt_clust_8="13000.00000" pt_clust_9="20.12318"></scales>
<clustering>
<clus scale="   20.123">  2  9  1 -1</clus>
<clus scale="   90.181">  5  6 -1 -1</clus>
<clus scale="   90.521">  7  8 -1 -1</clus>
<clus scale="   91.786">  2  5  1 -1</clus>
<clus scale="   92.120">  1  5  2 -1</clus>
</clustering>
</event>
<event>
 9    1  0.1434065E-005  0.2013968E+03  0.7546771E-02  0.1148721E+00
          2   -1    0    0  502    0  0.00000000000E+00  0.00000000000E+00  0.43753145974E+03  0.43753145974E+03  0.00000000000E+00 0. -1.
         -2   -1    0    0    0  501 -0.00000000000E+00 -0.00000000000E+00 -0.14099571635E+03  0.14099571635E+03  0.00000000000E+00 0.  1.
         23    2    1    2    0    0  0.13374963297E+03  0.13653606351E+03  0.11863273151E+02  0.21203299962E+03  0.91028537952E+02 0.  0.
         23    2    1    2    0    0 -0.11036367299E+03 -0.13744329475E+03  0.27984634401E+03  0.34259820010E+03  0.89379812416E+02 0.  0.
        -11    1    3    3    0    0  0.10640811706E+03  0.12081761118E+03  0.44108817866E+02  0.16692863853E+03  0.00000000000E+00 0.  1.
         11    1    3    3    0    0  0.27341515906E+02  0.15718452331E+02 -0.32245544716E+02  0.45104361094E+02  0.00000000000E+00 0. -1.
        -13    1    4    4    0    0 -0.57439990112E+02 -0.94033115466E+02  0.95007637683E+02  0.14549237261E+03  0.00000000000E+00 0.  1.
         13    1    4    4    0    0 -0.52923682883E+02 -0.43410179282E+02  0.18483870633E+03  0.19710582750E+03  0.00000000000E+00 0. -1.
         21    1    1    2  502  501 -0.23385959971E+02  0.90723123793E+00  0.48261262300E+01  0.23895976370E+02  0.00000000000E+00 0.  1.
<scales pt_clust_5="13000.00000" pt_clust_6="13000.00000" pt_clust_7="13000.00000" pt_clust_8="13000.00000" pt_clust_9="23.40355"></scales>
<clustering>
<clus scale="   23.404">  2  9  1 -1</clus>
<clus scale="   89.380">  7  8 -1 -1</clus>
<clus scale="   91.029">  5  6 -1 -1</clus>
<clus scale="  200.657">  1  7  2 -1</clus>
<clus scale="  200.657">  1  5  2 -1</clus>
</clustering>
</event>
<event>
 9    1  0.1434065E-005  0.1974907E+03  0.7546771E-02  0.1151990E+00
         -2   -1    0    0    0  501 -0.00000000000E+00  0.00000000000E+00  0.68240413817E+02  0.68240413817E+02  0.00000000000E+00 0.  1.
          2   -1    0    0  502    0  0.00000000000E+00 -0.00000000000E+00 -0.12432508921E+04  0.12432508921E+04  0.00000000000E+00 0. -1.
         23    2    1    2    0    0  0.11042193752E+03 -0.15031718358E+03 -0.54503203299E+03  0.58349793699E+03  0.92852924123E+02 0.  0.
         23    2    1    2    0    0 -0.68065700938E+02  0.15285702023E+03 -0.65259043699E+03  0.67991214892E+03  0.91695384383E+02 0.  0.
        -11    1    4    4    0    0 -0.12083808159E+02  0.61875663690E+02 -0.10895183798E+03  0.12587739740E+03  0.00000000000E+00 0.  1.
         11    1    4    4    0    0 -0.55981892779E+02  0.90981356544E+02 -0.54363859901E+03  0.55403475152E+03  0.00000000000E+00 0. -1.
        -13    1    3    3    0    0 -0.92291606089E+01 -0.29847125143E+02 -0.40423101245E+02  0.51088701286E+02  0.00000000000E+00 0. -1.
         13    1    3    3    0    0  0.11965109813E+03 -0.12047005844E+03 -0.50460893174E+03  0.53240923570E+03  0.00000000000E+00 0.  1.
         21    1    1    2  502  501 -0.42356236585E+02 -0.25398366537E+01  0.22611991707E+02  0.48081220001E+02  0.00000000000E+00 0.  1.
<scales pt_clust_5="13000.00000" pt_clust_6="13000.00000" pt_clust_7="13000.00000" pt_clust_8="13000.00000" pt_clust_9="42.43232"></scales>
<clustering>
<clus scale="   42.432">  1  9  2 -1</clus>
<clus scale="   91.695">  5  6 -1 -1</clus>
<clus scale="   92.853">  7  8 -1 -1</clus>
<clus scale="  196.949">  2  5  1 -1</clus>
<clus scale="  196.949">  2  5  1 -1</clus>
</clustering>
</event>
<event>
 9    1  0.1434065E-005  0.9327106E+02  0.7546771E-02  0.1297091E+00
          1   -1    0    0  502    0  0.00000000000E+00  0.00000000000E+00  0.31262093907E+03  0.31262093907E+03  0.00000000000E+00 0. -1.
         -1   -1    0    0    0  501 -0.00000000000E+00 -0.00000000000E+00 -0.91204101005E+02  0.91204101005E+02  0.00000000000E+00 0.  1.
         23    2    1    2    0    0  0.61240646535E+01 -0.23419375364E+02  0.50755723655E+02  0.10750843316E+03  0.91629407974E+02 0.  0.
         23    2    1    2    0    0 -0.16998922951E+02  0.55405500507E+01  0.22271400678E+03  0.24021474828E+03  0.88215278709E+02 0.  0.
        -11    1    3    3    0    0 -0.30280023254E+02 -0.43627635504E+02  0.29791888318E+02  0.60891764611E+02  0.00000000000E+00 0.  1.
         11    1    3    3    0    0  0.36404087908E+02  0.20208260139E+02  0.20963835337E+02  0.46616668545E+02  0.00000000000E+00 0. -1.
        -13    1    4    4    0    0  0.24523270921E+02  0.27124332353E+02  0.14463429037E+03  0.14918511378E+03  0.00000000000E+00 0. -1.
         13    1    4    4    0    0 -0.41522193872E+02 -0.21583782302E+02  0.78079716413E+02  0.91029634502E+02  0.00000000000E+00 0.  1.
         21    1    1    2  502  501  0.10874858298E+02  0.17878825314E+02 -0.52052892376E+02  0.56101858635E+02  0.00000000000E+00 0. -1.
<scales pt_clust_5="13000.00000" pt_clust_6="13000.00000" pt_clust_7="13000.00000" pt_clust_8="13000.00000" pt_clust_9="20.92642"></scales>
<clustering>
<clus scale="   20.926">  2  9  1 -1</clus>
<clus scale="   88.215">  7  8 -1 -1</clus>
<clus scale="   89.919">  1  7  2 -1</clus>
<clus scale="   91.629">  5  6 -1 -1</clus>
<clus scale="   89.919">  1  5  2 -1</clus>
</clustering>
</event>
<event>
 9    1  0.1434065E-005  0.1088466E+03  0.7546771E-02  0.1264710E+00
         -1   -1    0    0    0  501 -0.00000000000E+00  0.00000000000E+00  0.67771482057E+02  0.67771482057E+02  0.00000000000E+00 0.  1.
          1   -1    0    0  502    0  0.00000000000E+00 -0.00000000000E+00 -0.61032943396E+03  0.61032943396E+03  0.00000000000E+00 0. -1.
         23    2    1    2    0    0  0.35902296972E+02 -0.27265441793E+02 -0.84238758396E+02  0.13463894303E+03  0.94863572140E+02 0.  0.
         23    2    1    2    0    0 -0.56052997685E+02  0.66708701883E+01 -0.48955721508E+03  0.50096490120E+03  0.90072894605E+02 0.  0.
        -11    1    4    4    0    0 -0.12623286363E+02  0.45686372267E+02 -0.19499599202E+03  0.20067393671E+03  0.00000000000E+00 0.  1.
         11    1    4    4    0    0 -0.43429711322E+02 -0.39015502079E+02 -0.29456122305E+03  0.30029096449E+03  0.00000000000E+00 0. -1.
        -13    1    3    3    0    0  0.13761993124E+02 -0.50849103785E+02 -0.99458099043E+01  0.53609168480E+02  0.00000000000E+00 0.  1.
         13    1    3    3    0    0  0.22140303849E+02  0.23583661992E+02 -0.74292948492E+02  0.81029774547E+02  0.00000000000E+00 0. -1.
         21    1    1    2  502  501  0.20150700712E+02  0.20594571604E+02  0.31238021572E+02  0.42497071788E+02  0.00000000000E+00 0. -1.
<scales pt_clust_5="13000.00000" pt_clust_6="13000.00000" pt_clust_7="13000.00000" pt_clust_8="13000.00000" pt_clust_9="28.81297"></scales>
<clustering>
<clus scale="   28.813">  1  9  2 -1</clus>
<clus scale="   90.073">  5  6 -1 -1</clus>
<clus scale="   94.864">  7  8 -1 -1</clus>
<clus scale="  104.698">  2  5  1 -1</clus>
<clus scale="  104.698">  2  5  1 -1</clus>
</clustering>
</event>
<event>
 9    1  0.1434065E-005  0.1325059E+03  0.7546771E-02  0.1223816E+00
          1   -1    0    0  502    0  0.00000000000E+00  0.00000000000E+00  0.74604568715E+03  0.74604568715E+03  0.00000000000E+00 0. -1.
         -1   -1    0    0    0  501 -0.00000000000E+00 -0.00000000000E+00 -0.60787711753E+02  0.60787711753E+02  0.00000000000E+00 0.  1.
         23    2    1    2    0    0 -0.76889302824E+02 -0.34087778006E+02  0.15319718609E+03  0.19775335174E+03  0.92536851039E+02 0.  0.
         23    2    1    2    0    0  0.82039351540E+02  0.55621294877E+02  0.55843644975E+03  0.57464328172E+03  0.92409140094E+02 0.  0.
        -11    1    4    4    0    0  0.63425220394E+02 -0.11483419616E+02  0.22723299910E+03  0.23619793265E+03  0.00000000000E+00 0.  1.
         11    1    4    4    0    0  0.18614131146E+02  0.67104714493E+02  0.33120345065E+03  0.33844534907E+03  0.00000000000E+00 0. -1.
        -13    1    3    3    0    0 -0.95503893036E+02 -0.17537211499E+02  0.10205474207E+03  0.14086773140E+03  0.00000000000E+00 0.  1.
         13    1    3    3    0    0  0.18614590212E+02 -0.16550566507E+02  0.51142444024E+02  0.56885620338E+02  0.00000000000E+00 0. -1.
         21    1    1    2  502  501 -0.51500487163E+01 -0.21533516871E+02 -0.26375660441E+02  0.34436765445E+02  0.00000000000E+00 0.  1.
<scales pt_clust_5="13000.00000" pt_clust_6="13000.00000" pt_clust_7="13000.00000" pt_clust_8="13000.00000" pt_clust_9="22.14081"></scales>
<clustering>
<clus scale="   22.141">  2  9  1 -1</clus>
<clus scale="   92.409">  5  6 -1 -1</clus>
<clus scale="   92.537">  7  8 -1 -1</clus>
<clus scale="  132.417">  1  5  2 -1</clus>
<clus scale="  132.417">  1  5  2 -1</clus>
</clustering>
</event>
<event>
 9    1  0.1434065E-005  0.3297992E+03  0.7546771E-02  0.1071482E+00
          3   -1    0    0  502    0  0.00000000000E+00  0.00000000000E+00  0.72938926063E+03  0.72938926063E+03  0.00000000000E+00 0. -1.
         -3   -1    0    0    0  501 -0.00000000000E+00 -0.00000000000E+00 -0.25779905978E+03  0.25779905978E+03  0.00000000000E+00 0.  1.
         23    2    1    2    0    0  0.11699067088E+03 -0.31853705875E+03 -0.29229798419E+02  0.35096656902E+03  0.84678666635E+02 0.  0.
         23    2    1    2    0    0 -0.14122425497E+03  0.27699692375E+03  0.48862028734E+03  0.58660640715E+03  0.93197133784E+02 0.  0.
        -11    1    3    3    0    0  0.47539706223E+02 -0.96731118243E+02  0.28486479678E+02  0.11148278983E+03  0.00000000000E+00 0. -1.
         11    1    3    3    0    0  0.69450964658E+02 -0.22180594051E+03 -0.57716278098E+02  0.23948377919E+03  0.00000000000E+00 0.  1.
        -11    1    4    4    0    0 -0.11458986136E+02  0.12090148483E+03  0.17419195642E+03  0.21234715698E+03  0.00000000000E+00 0.  1.
         11    1    4    4    0    0 -0.12976526883E+03  0.15609543892E+03  0.31442833092E+03  0.37425925016E+03  0.00000000000E+00 0. -1.
         21    1    1    2  502  501  0.24233584090E+02  0.41540134999E+02  0.12199711933E+02  0.49615344248E+02  0.00000000000E+00 0. -1.
<scales pt_clust_5="13000.00000" pt_clust_6="13000.00000" pt_clust_7="13000.00000" pt_clust_8="13000.00000" pt_clust_9="48.09209"></scales>
<clustering>
<clus scale="   48.092">  2  9  1 -1</clus>
<clus scale="   84.679">  5  6 -1 -1</clus>
<clus scale="   93.197">  7  8 -1 -1</clus>
<clus scale="  327.494">  2  5  1 -1</clus>
<clus scale="  329.799">  1  5  2 -1</clus>
</clustering>
</event>
<event>
 9    1  0.1434065E-005  0.1979890E+03  0.7546771E-02  0.1151570E+00
          1   -1    0    0  502    0  0.00000000000E+00  0.00000000000E+00  0.90316236595E+03  0.90316236595E+03  0.00000000000E+00 0. -1.
         -1   -1    0    0    0  501 -0.00000000000E+00 -0.00000000000E+00 -0.11064105855E+03  0.11064105855E+03  0.00000000000E+00 0.  1.
         23    2    1    2    0    0 -0.17427534757E+03 -0.15454835829E+02  0.15037214855E+03  0.24839575785E+03  0.92075625092E+02 0.  0.
         23    2    1    2    0    0  0.16646636419E+03 -0.68963235858E+02  0.64967979422E+03  0.68029537895E+03  0.90834956325E+02 0.  0.
        -13    1    3    3    0    0 -0.14689597602E+03 -0.77438427328E+01  0.16095353746E+03  0.21804686673E+03  0.00000000000E+00 0.  1.
         13    1    3    3    0    0 -0.27379371549E+02 -0.77109930961E+01 -0.10581388904E+02  0.30348891118E+02  0.00000000000E+00 0. -1.
        -13    1    4    4    0    0  0.96980024503E+02 -0.45694932963E+02  0.52364058597E+03  0.53450221265E+03  0.00000000000E+00 0. -1.
         13    1    4    4    0    0  0.69486339688E+02 -0.23268302895E+02  0.12603920825E+03  0.14579316630E+03  0.00000000000E+00 0.  1.
         21    1    1    2  502  501  0.78089833788E+01  0.84418071687E+02 -0.75306353696E+01  0.85112287702E+02  0.00000000000E+00 0.  1.
<scales pt_clust_5="13000.00000" pt_clust_6="13000.00000" pt_clust_7="13000.00000" pt_clust_8="13000.00000" pt_clust_9="84.77848"></scales>
<clustering>
<clus scale="   84.778">  2  9  1 -1</clus>
<clus scale="   90.835">  7  8 -1 -1</clus>
<clus scale="   92.076">  5  6 -1 -1</clus>
<clus scale="  197.415">  1  7  2 -1</clus>
<clus scale="  197.415">  1  5  2 -1</clus>
</clustering>
</event>
<event>
 9    1  0.2538343E-005  0.1027425E+03  0.7546771E-02  0.1275149E+00
         -1   -1    0    0    0  501 -0.00000000000E+00  0.00000000000E+00  0.81605501939E+02  0.81605501939E+02  0.00000000000E+00 0.  1.
          1   -1    0    0  502    0  0.00000000000E+00 -0.00000000000E+00 -0.37852401972E+03  0.37852401972E+03  0.00000000000E+00 0. -1.
         23    2    1    2    0    0 -0.66069726402E+02  0.22761905931E+01  0.15866885009E+02  0.11221099363E+03  0.89270147648E+02 0.  0.
         23    2    1    2    0    0  0.44752804263E+02  0.14168308248E+02 -0.30233299542E+03  0.31903798905E+03  0.90423690990E+02 0.  0.
        -11    1    4    4    0    0  0.71208619762E+02  0.49947853610E+01 -0.24571935027E+03  0.25587812432E+03  0.00000000000E+00 0.  1.
         11    1    4    4    0    0 -0.26455815499E+02  0.91735228869E+01 -0.56613645147E+02  0.63159864730E+02  0.00000000000E+00 0. -1.
        -13    1    3    3    0    0  0.11836454889E+02  0.26841802880E+02  0.25657538019E+01  0.29447701757E+02  0.00000000000E+00 0. -1.
         13    1    3    3    0    0 -0.77906181290E+02 -0.24565612287E+02  0.13301131207E+02  0.82763291873E+02  0.00000000000E+00 0.  1.
         21    1    1    2  502  501  0.21316922139E+02 -0.16444498841E+02 -0.10452407368E+02  0.28880538973E+02  0.00000000000E+00 0.  1.
<scales pt_clust_5="13000.00000" pt_clust_6="13000.00000" pt_clust_7="13000.00000" pt_clust_8="13000.00000" pt_clust_9="26.92272"></scales>
<clustering>
<clus scale="   26.923">  1  9  2 -1</clus>
<clus scale="   89.270">  7  8 -1 -1</clus>
<clus scale="   90.424">  5  6 -1 -1</clus>
<clus scale="  101.729">  1  7  2 -1</clus>
<clus scale="  102.743">  2  5  1 -1</clus>
</clustering>
</event>
<event>
 9    1  0.1434065E-005  0.1071987E+03  0.7546771E-02  0.1268957E+00
         -1   -1    0    0    0  501 -0.00000000000E+00  0.00000000000E+00  0.48462587681E+02  0.48462587681E+02  0.00000000000E+00 0.  1.
          1   -1    0    0  502    0  0.00000000000E+00 -0.00000000000E+00 -0.59620984495E+03  0.59620984495E+03  0.00000000000E+00 0. -1.
         23    2    1    2    0    0 -0.20004497280E+02  0.82969978604E+02 -0.24380536456E+03  0.27493017000E+03  0.94134719028E+02 0.  0.
         23    2    1    2    0    0 -0.28767995473E+02 -0.32407149666E+02 -0.27862906248E+03  0.29506900709E+03  0.86912275157E+02 0.  0.
        -13    1    3    3    0    0  0.19730140986E+02 -0.55136723701E+01 -0.95851183910E+02  0.98015960452E+02  0.00000000000E+00 0.  1.
         13    1    3    3    0    0 -0.39734638266E+02  0.88483650974E+02 -0.14795418065E+03  0.17691420955E+03  0.00000000000E+00 0. -1.
        -13    1    4    4    0    0  0.30455308180E+01  0.21138168806E+02 -0.20756001784E+02  0.29781018258E+02  0.00000000000E+00 0.  1.
         13    1    4    4    0    0 -0.31813526291E+02 -0.53545318471E+02 -0.25787306070E+03  0.26528798883E+03  0.00000000000E+00 0. -1.
         21    1    1    2  502  501  0.48772492754E+02 -0.50562828938E+02 -0.25312830234E+02  0.74673255548E+02  0.00000000000E+00 0.  1.
<scales pt_clust_5="13000.00000" pt_clust_6="13000.00000" pt_clust_7="13000.00000" pt_clust_8="13000.00000" pt_clust_9="70.25209"></scales>
<clustering>
<clus scale="   70.252">  1  9  2 -1</clus>
<clus scale="   86.912">  7  8 -1 -1</clus>
<clus scale="   94.135">  5  6 -1 -1</clus>
<clus scale="  100.916">  2  7  1 -1</clus>
<clus scale="  100.916">  2  5  1 -1</clus>
</clustering>
</event>
<event>
 9    1  0.1434065E-005  0.9800683E+02  0.7546771E-02  0.1287204E+00
          2   -1    0    0  502    0  0.00000000000E+00  0.00000000000E+00  0.35524009542E+03  0.35524009542E+03  0.00000000000E+00 0. -1.
         -2   -1    0    0    0  501 -0.00000000000E+00 -0.00000000000E+00 -0.58083528097E+02  0.58083528097E+02  0.00000000000E+00 0.  1.
         23    2    1    2    0    0  0.58925834236E+01  0.53768274685E+02  0.14182892573E+03  0.17741197948E+03  0.91835812124E+02 0.  0.
         23    2    1    2    0    0  0.17893813071E+01 -0.22406924551E+02  0.17606451940E+03  0.19753762985E+03  0.86701372897E+02 0.  0.
        -11    1    3    3    0    0  0.11491310212E+02 -0.23511897124E+02  0.55812347519E+02  0.61643147652E+02  0.00000000000E+00 0. -1.
         11    1    3    3    0    0 -0.55987267889E+01  0.77280171809E+02  0.86016578206E+02  0.11576883183E+03  0.00000000000E+00 0.  1.
        -13    1    4    4    0    0 -0.19786163480E+01 -0.55680969497E+02  0.10116225017E+03  0.11549063229E+03  0.00000000000E+00 0. -1.
         13    1    4    4    0    0  0.37679976552E+01  0.33274044946E+02  0.74902269222E+02  0.82046997556E+02  0.00000000000E+00 0.  1.
         21    1    1    2  502  501 -0.76819647307E+01 -0.31361350134E+02 -0.20736877798E+02  0.38374014191E+02  0.00000000000E+00 0.  1.
<scales pt_clust_5="13000.00000" pt_clust_6="13000.00000" pt_clust_7="13000.00000" pt_clust_8="13000.00000" pt_clust_9="32.28849"></scales>
<clustering>
<clus scale="   32.288">  2  9  1 -1</clus>
<clus scale="   86.701">  7  8 -1 -1</clus>
<clus scale="   91.836">  5  6 -1 -1</clus>
<clus scale="   93.213">  1  7  2 -1</clus>
<clus scale="   93.213">  1  5  2 -1</clus>
</clustering>
</event>
<event>
 9    1  0.1434065E-005  0.9250972E+02  0.7546771E-02  0.1298362E+00
          1   -1    0    0  502    0  0.00000000000E+00  0.00000000000E+00  0.13469271546E+03  0.13469271546E+03  0.00000000000E+00 0. -1.
         -1   -1    0    0    0  501 -0.00000000000E+00 -0.00000000000E+00 -0.28224306843E+03  0.28224306843E+03  0.00000000000E+00 0.  1.
         23    2    1    2    0    0 -0.22101137115E+02  0.21834307392E+02 -0.16440353099E+03  0.18983447104E+03  0.89685049778E+02 0.  0.
         23    2    1    2    0    0 -0.10691841622E+02  0.37179781950E+01  0.98558884664E+02  0.13542731843E+03  0.92187667246E+02 0.  0.
        -11    1    4    4    0    0 -0.65441476599E+00 -0.42989937735E+02  0.32466062785E+02  0.53875859509E+02  0.00000000000E+00 0. -1.
         11    1    4    4    0    0 -0.10037426856E+02  0.46707915930E+02  0.66092821880E+02  0.81551458923E+02  0.00000000000E+00 0.  1.
        -11    1    3    3    0    0 -0.51010671365E+02  0.33041157575E+02 -0.13009390802E+03  0.14359049965E+03  0.00000000000E+00 0.  1.
         11    1    3    3    0    0  0.28909534251E+02 -0.11206850183E+02 -0.34309622972E+02  0.46243971392E+02  0.00000000000E+00 0. -1.
         21    1    1    2  502  501  0.32792978736E+02 -0.25552285587E+02 -0.81705706651E+02  0.91673994418E+02  0.00000000000E+00 0. -1.
<scales pt_clust_5="13000.00000" pt_clust_6="13000.00000" pt_clust_7="13000.00000" pt_clust_8="13000.00000" pt_clust_9="41.57281"></scales>
<clustering>
<clus scale="   41.573">  2  9  1 -1</clus>
<clus scale="   89.685">  7  8 -1 -1</clus>
<clus scale="   90.016">  2  7  1 -1</clus>
<clus scale="   92.188">  5  6 -1 -1</clus>
<clus scale="   92.510">  1  5  2 -1</clus>
</clustering>
</event>
<event>
 9    1  0.1434065E-005  0.1168848E+03  0.7546771E-02  0.1248873E+00
          1   -1    0    0  502    0  0.00000000000E+00  0.00000000000E+00  0.29451772597E+03  0.29451772597E+03  0.00000000000E+00 0. -1.
         -1   -1    0    0    0  501 -0.00000000000E+00 -0.00000000000E+00 -0.99598665763E+02  0.99598665763E+02  0.00000000000E+00 0.  1.
         23    2    1    2    0    0  0.72325120104E+02  0.17778406283E+02  0.38180180092E+02  0.12377457174E+03  0.91188945214E+02 0.  0.
         23    2    1    2    0    0 -0.71436117050E+02  0.27373860276E+02  0.18335261853E+03  0.21792227617E+03  0.89551597886E+02 0.  0.
        -11    1    4    4    0    0 -0.41725533330E+02  0.37438923596E+02  0.17733004508E+03  0.18598020868E+03  0.00000000000E+00 0. -1.
         11    1    4    4    0    0 -0.29710583720E+02 -0.10065063320E+02  0.60225734464E+01  0.31942067490E+02  0.00000000000E+00 0.  1.
        -13    1    3    3    0    0  0.61529518304E+01  0.44156546057E+02  0.39981648850E+01  0.44762089968E+02  0.00000000000E+00 0. -1.
         13    1    3    3    0    0  0.66172168274E+02 -0.26378139774E+02  0.34182015207E+02  0.79012481771E+02  0.00000000000E+00 0.  1.
         21    1    1    2  502  501 -0.88900305389E+00 -0.45152266560E+02 -0.26613738417E+02  0.52419543821E+02  0.00000000000E+00 0.  1.
<scales pt_clust_5="13000.00000" pt_clust_6="13000.00000" pt_clust_7="13000.00000" pt_clust_8="13000.00000" pt_clust_9="45.16102"></scales>
<clustering>
<clus scale="   45.161">  2  9  1 -1</clus>
<clus scale="   89.552">  5  6 -1 -1</clus>
<clus scale="   91.189">  7  8 -1 -1</clus>
<clus scale="  115.612">  1  5  2 -1</clus>
<clus scale="  115.612">  1  5  2 -1</clus>
</clustering>
</event>
<event>
 9    1  0.1434065E-005  0.1121347E+03  0.7546771E-02  0.1256937E+00
          1   -1    0    0  502    0  0.00000000000E+00  0.00000000000E+00  0.20738772482E+03  0.20738772482E+03  0.00000000000E+00 0. -1.
         -1   -1    0    0    0  501 -0.00000000000E+00 -0.00000000000E+00 -0.16455732826E+03  0.16455732826E+03  0.00000000000E+00 0.  1.
         23    2    1    2    0    0 -0.22280890022E+02  0.33109553274E+01 -0.36845882292E+02  0.10039665551E+03  0.90633707358E+02 0.  0.
         23    2    1    2    0    0  0.71359872448E+02 -0.34037836130E+02  0.14201979870E+03  0.18646254571E+03  0.91366580577E+02 0.  0.
        -11    1    3    3    0    0 -0.27294705995E+02 -0.33547228134E+02 -0.44895536726E+02  0.62338003727E+02  0.00000000000E+00 0.  1.
         11    1    3    3    0    0  0.50138159727E+01  0.36858183461E+02  0.80496544334E+01  0.38058651778E+02  0.00000000000E+00 0. -1.
        -13    1    4    4    0    0  0.76955645017E+02 -0.70706405503E+00  0.12906421802E+03  0.15026724065E+03  0.00000000000E+00 0. -1.
         13    1    4    4    0    0 -0.55957725685E+01 -0.33330772075E+02  0.12955580681E+02  0.36195305062E+02  0.00000000000E+00 0.  1.
         21    1    1    2  502  501 -0.49078982426E+02  0.30726880803E+02 -0.62343519853E+02  0.85085851864E+02  0.00000000000E+00 0.  1.
<scales pt_clust_5="13000.00000" pt_clust_6="13000.00000" pt_clust_7="13000.00000" pt_clust_8="13000.00000" pt_clust_9="57.90413"></scales>
<clustering>
<clus scale="   57.904">  2  9  1 -1</clus>
<clus scale="   90.634">  5  6 -1 -1</clus>
<clus scale="   91.367">  7  8 -1 -1</clus>
<clus scale="  111.538">  2  5  1 -1</clus>
<clus scale="  112.135">  1  5  2 -1</clus>
</clustering>
</event>
<event>
 9    1  0.1434065E-005  0.1189333E+03  0.7546771E-02  0.1245544E+00
         -4   -1    0    0    0  501 -0.00000000000E+00  0.00000000000E+00  0.18092576189E+03  0.18092576189E+03  0.00000000000E+00 0.  1.
          4   -1    0    0  502    0  0.00000000000E+00 -0.00000000000E+00 -0.34271231877E+03  0.34271231877E+03  0.00000000000E+00 0. -1.
         23    2    1    2    0    0  0.16583540611E+01  0.79578383209E+02 -0.23901788001E+02  0.12335785020E+03  0.91161365301E+02 0.  0.
         23    2    1    2    0    0 -0.53798229054E+02 -0.58985036638E+02 -0.24877242074E+03  0.27602756923E+03  0.89050646594E+02 0.  0.
        -11    1    4    4    0    0 -0.32276429855E+02 -0.86628315361E+01 -0.19982959239E+03  0.20260473481E+03  0.00000000000E+00 0. -1.
         11    1    4    4    0    0 -0.21521799199E+02 -0.50322205102E+02 -0.48942828352E+02  0.73422834420E+02  0.00000000000E+00 0.  1.
        -11    1    3    3    0    0  0.45031806308E+02  0.54738818447E+02 -0.10929416150E+02  0.71719271899E+02  0.00000000000E+00 0.  1.
         11    1    3    3    0    0 -0.43373452247E+02  0.24839564762E+02 -0.12972371851E+02  0.51638578300E+02  0.00000000000E+00 0. -1.
         21    1    1    2  502  501  0.52139874993E+02 -0.20593346570E+02  0.11088765186E+03  0.12425266123E+03  0.00000000000E+00 0.  1.
<scales pt_clust_5="13000.00000" pt_clust_6="13000.00000" pt_clust_7="13000.00000" pt_clust_8="13000.00000" pt_clust_9="56.05937"></scales>
<clustering>
<clus scale="   56.059">  1  9  2 -1</clus>
<clus scale="   89.051">  5  6 -1 -1</clus>
<clus scale="   91.161">  7  8 -1 -1</clus>
<clus scale="  117.323">  2  5  1 -1</clus>
<clus scale="  117.323">  2  5  1 -1</clus>
</clustering>
</event>
<event>
 9    1  0.1434065E-005  0.1888670E+03  0.7546771E-02  0.1159510E+00
          2   -1    0    0  502    0  0.00000000000E+00  0.00000000000E+00  0.52555671707E+03  0.52555671707E+03  0.00000000000E+00 0. -1.
         -2   -1    0    0    0  501 -0.00000000000E+00 -0.00000000000E+00 -0.76903778624E+02  0.76903778624E+02  0.00000000000E+00 0.  1.
         23    2    1    2    0    0  0.15316925766E+03 -0.63061858682E+02  0.17727955609E+03  0.25890156015E+03  0.90356833315E+02 0.  0.
         23    2    1    2    0    0 -0.14491351010E+03  0.82143587596E+02  0.23883489976E+03  0.30494517381E+03  0.90564647031E+02 0.  0.
        -11    1    4    4    0    0 -0.30379497293E+02  0.32855626457E+02  0.13647159557E+03  0.14362068947E+03  0.00000000000E+00 0. -1.
         11    1    4    4    0    0 -0.11453401281E+03  0.49287961139E+02  0.10236330420E+03  0.16132448434E+03  0.00000000000E+00 0.  1.
        -11    1    3    3    0    0  0.12302613894E+03 -0.81242970569E+02  0.16581636781E+03  0.22188041591E+03  0.00000000000E+00 0.  1.
         11    1    3    3    0    0  0.30143118718E+02  0.18181111887E+02  0.11463188288E+02  0.37021144245E+02  0.00000000000E+00 0. -1.
         21    1    1    2  502  501 -0.82557475594E+01 -0.19081728914E+02  0.32538482588E+02  0.38613761734E+02  0.00000000000E+00 0. -1.
<scales pt_clust_5="13000.00000" pt_clust_6="13000.00000" pt_clust_7="13000.00000" pt_clust_8="13000.00000" pt_clust_9="20.79110"></scales>
<clustering>
<clus scale="   20.791">  1  9  2 -1</clus>
<clus scale="   90.357">  7  8 -1 -1</clus>
<clus scale="   90.565">  5  6 -1 -1</clus>
<clus scale="  188.767">  2  7  1 -1</clus>
<clus scale="   20.791">  1  5  2 -1</clus>
</clustering>
</event>
<event>
 9    1  0.1434065E-005  0.1000412E+03  0.7546771E-02  0.1280642E+00
          2   -1    0    0  502    0  0.00000000000E+00  0.00000000000E+00  0.28149506473E+03  0.28149506473E+03  0.00000000000E+00 0. -1.
         -2   -1    0    0    0  501 -0.00000000000E+00 -0.00000000000E+00 -0.14594474353E+03  0.14594474353E+03  0.00000000000E+00 0.  1.
         23    2    1    2    0    0 -0.50257272476E+02  0.17355612335E+02 -0.86135358628E+02  0.13602067293E+03  0.90858751592E+02 0.  0.
         23    2    1    2    0    0  0.14048425160E+02 -0.40146715047E+02  0.22743588132E+03  0.24824993563E+03  0.89954618822E+02 0.  0.
        -11    1    3    3    0    0  0.18056780918E+02  0.16978063632E+02  0.15864477340E+01  0.24835836974E+02  0.00000000000E+00 0. -1.
         11    1    3    3    0    0 -0.68314053394E+02  0.37754870320E+00 -0.87721806362E+02  0.11118483595E+03  0.00000000000E+00 0.  1.
        -11    1    4    4    0    0 -0.15026562762E+02 -0.59567273146E+02  0.11336302296E+03  0.12893887154E+03  0.00000000000E+00 0.  1.
         11    1    4    4    0    0  0.29074987923E+02  0.19420558098E+02  0.11407285836E+03  0.11931106409E+03  0.00000000000E+00 0. -1.
         21    1    1    2  502  501  0.36208847316E+02  0.22791102712E+02 -0.57502014967E+01  0.43169199715E+02  0.00000000000E+00 0. -1.
<scales pt_clust_5="13000.00000" pt_clust_6="13000.00000" pt_clust_7="13000.00000" pt_clust_8="13000.00000" pt_clust_9="42.78452"></scales>
<clustering>
<clus scale="   42.785">  2  9  1 -1</clus>
<clus scale="   89.955">  7  8 -1 -1</clus>
<clus scale="   90.859">  5  6 -1 -1</clus>
<clus scale="   99.221">  1  7  2 -1</clus>
<clus scale="   99.221">  1  5  2 -1</clus>
</clustering>
</event>
<event>
 9    1  0.1434065E-005  0.1766798E+03  0.7546771E-02  0.1171414E+00
         -1   -1    0    0    0  501 -0.00000000000E+00  0.00000000000E+00  0.75458974563E+02  0.75458974563E+02  0.00000000000E+00 0.  1.
          1   -1    0    0  502    0  0.00000000000E+00 -0.00000000000E+00 -0.70305576850E+03  0.70305576850E+03  0.00000000000E+00 0. -1.
         23    2    1    2    0    0 -0.16082211369E+03 -0.14601141518E+02 -0.15986045943E+03  0.24387441457E+03  0.88557427742E+02 0.  0.
         23    2    1    2    0    0  0.14372941641E+03 -0.44558033695E+02 -0.42404331174E+03  0.45913504025E+03  0.91371174075E+02 0.  0.
        -11    1    3    3    0    0 -0.64346335812E+02 -0.84088626108E+01 -0.10177678747E+02  0.65686718959E+02  0.00000000000E+00 0.  1.
         11    1    3    3    0    0 -0.96475777882E+02 -0.61922789073E+01 -0.14968278068E+03  0.17818769561E+03  0.00000000000E+00 0. -1.
        -13    1    4    4    0    0  0.12341618413E+03 -0.58961042599E+02 -0.40589870686E+03  0.42832431554E+03  0.00000000000E+00 0.  1.
         13    1    4    4    0    0  0.20313232290E+02  0.14403008904E+02 -0.18144604873E+02  0.30810724716E+02  0.00000000000E+00 0. -1.
         21    1    1    2  502  501  0.17092697279E+02  0.59159175213E+02 -0.43693022770E+02  0.75505288232E+02  0.00000000000E+00 0.  1.
<scales pt_clust_5="13000.00000" pt_clust_6="13000.00000" pt_clust_7="13000.00000" pt_clust_8="13000.00000" pt_clust_9="61.57896"></scales>
<clustering>
<clus scale="   61.579">  1  9  2 -1</clus>
<clus scale="   88.557">  5  6 -1 -1</clus>
<clus scale="   91.371">  7  8 -1 -1</clus>
<clus scale="  175.241">  1  5  2 -1</clus>
<clus scale="  176.680">  2  5  1 -1</clus>
</clustering>
</event>
<event>
 9    1  0.1434065E-005  0.1109602E+03  0.7546771E-02  0.1259363E+00
          2   -1    0    0  502    0  0.00000000000E+00  0.00000000000E+00  0.32321139493E+03  0.32321139493E+03  0.00000000000E+00 0. -1.
         -2   -1    0    0    0  501 -0.00000000000E+00 -0.00000000000E+00 -0.10084989316E+03  0.10084989316E+03  0.00000000000E+00 0.  1.
         23    2    1    2    0    0  0.28109794942E+02 -0.30756736664E+02  0.62249527846E+02  0.11847768293E+03  0.91792266632E+02 0.  0.
         23    2    1    2    0    0 -0.64011676580E+02  0.37467411140E+02  0.21203032357E+03  0.24210531526E+03  0.90315136765E+02 0.  0.
        -11    1    3    3    0    0 -0.67077486858E+01 -0.43572125076E+02  0.67892261367E+02  0.80949880356E+02  0.00000000000E+00 0. -1.
         11    1    3    3    0    0  0.34817543627E+02  0.12815388412E+02 -0.56427335217E+01  0.37527802574E+02  0.00000000000E+00 0.  1.
        -13    1    4    4    0    0  0.11118555887E+02  0.18083727191E+02  0.61680020985E+01  0.22106282456E+02  0.00000000000E+00 0.  1.
         13    1    4    4    0    0 -0.75130232467E+02  0.19383683948E+02  0.20586232147E+03  0.21999903281E+03  0.00000000000E+00 0. -1.
         21    1    1    2  502  501  0.35901881638E+02 -0.67106744762E+01 -0.51918349657E+02  0.63478289896E+02  0.00000000000E+00 0.  1.
<scales pt_clust_5="13000.00000" pt_clust_6="13000.00000" pt_clust_7="13000.00000" pt_clust_8="13000.00000" pt_clust_9="36.52367"></scales>
<clustering>
<clus scale="   36.524">  2  9  1 -1</clus>
<clus scale="   90.315">  7  8 -1 -1</clus>
<clus scale="   91.792">  5  6 -1 -1</clus>
<clus scale="  109.741">  1  7  2 -1</clus>
<clus scale="  109.741">  1  5  2 -1</clus>
</clustering>
</event>
<event>
 9    1  0.1434065E-005  0.1353962E+03  0.7546771E-02  0.1219991E+00
          1   -1    0    0  502    0  0.00000000000E+00  0.00000000000E+00  0.30344730429E+03  0.30344730429E+03  0.00000000000E+00 0. -1.
         -1   -1    0    0    0  501 -0.00000000000E+00 -0.00000000000E+00 -0.91705345800E+02  0.91705345800E+02  0.00000000000E+00 0.  1.
         23    2    1    2    0    0  0.14146367299E+02 -0.82315212786E+02  0.33885807174E+02  0.12772663197E+03  0.90498235463E+02 0.  0.
         23    2    1    2    0    0 -0.40231274213E+02  0.10249780822E+03  0.18567285064E+03  0.23353117611E+03  0.89095716142E+02 0.  0.
        -11    1    4    4    0    0 -0.45246419306E+02  0.15586634349E+02  0.34188178421E+02  0.58813375809E+02  0.00000000000E+00 0.  1.
         11    1    4    4    0    0  0.50151450924E+01  0.86911173869E+02  0.15148467222E+03  0.17471780030E+03  0.00000000000E+00 0. -1.
        -13    1    3    3    0    0  0.41635891793E+02 -0.84653434821E+02  0.33578158054E+02  0.10013612840E+03  0.00000000000E+00 0.  1.
         13    1    3    3    0    0 -0.27489524493E+02  0.23382220348E+01  0.30764911978E+00  0.27590503568E+02  0.00000000000E+00 0. -1.
         21    1    1    2  502  501  0.26084906914E+02 -0.20182595432E+02 -0.78166993243E+01  0.33894842018E+02  0.00000000000E+00 0.  1.
<scales pt_clust_5="13000.00000" pt_clust_6="13000.00000" pt_clust_7="13000.00000" pt_clust_8="13000.00000" pt_clust_9="32.98120"></scales>
<clustering>
<clus scale="   32.981">  2  9  1 -1</clus>
<clus scale="   89.096">  5  6 -1 -1</clus>
<clus scale="   90.498">  7  8 -1 -1</clus>
<clus scale="  134.463">  1  5  2 -1</clus>
<clus scale="  134.463">  1  5  2 -1</clus>
</clustering>
</event>
<event>
 9    1  0.1434065E-005  0.1983899E+03  0.7546771E-02  0.1151126E+00
          1   -1    0    0  502    0  0.00000000000E+00  0.00000000000E+00  0.25505200602E+03  0.25505200602E+03  0.00000000000E+00 0. -1.
         -1   -1    0    0    0  501 -0.00000000000E+00 -0.00000000000E+00 -0.21372364556E+03  0.21372364556E+03  0.00000000000E+00 0.  1.
         23    2    1    2    0    0  0.18288373769E+03  0.40660529786E+02  0.24279856142E+02  0.21004415141E+03  0.91811186309E+02 0.  0.
         23    2    1    2    0    0 -0.16898580330E+03  0.20979599359E+01  0.54951387119E+02  0.19992614711E+03  0.91598068758E+02 0.  0.
        -11    1    4    4    0    0 -0.10552482211E+03 -0.42639947176E+02  0.23865381419E+02  0.11628933574E+03  0.00000000000E+00 0.  1.
         11    1    4    4    0    0 -0.63460981189E+02  0.44737907112E+02  0.31086005700E+02  0.83636811373E+02  0.00000000000E+00 0. -1.
        -13    1    3    3    0    0  0.90484173466E+02  0.29821245416E+02  0.57475502962E+02  0.11126601353E+03  0.00000000000E+00 0. -1.
         13    1    3    3    0    0  0.92399564224E+02  0.10839284369E+02 -0.33195646820E+02  0.98778137876E+02  0.00000000000E+00 0.  1.
         21    1    1    2  502  501 -0.13897934395E+02 -0.42758489722E+02 -0.37902882807E+02  0.58805353062E+02  0.00000000000E+00 0. -1.
<scales pt_clust_5="13000.00000" pt_clust_6="13000.00000" pt_clust_7="13000.00000" pt_clust_8="13000.00000" pt_clust_9="44.96044"></scales>
<clustering>
<clus scale="   44.960">  2  9  1 -1</clus>
<clus scale="   91.598">  5  6 -1 -1</clus>
<clus scale="   91.811">  7  8 -1 -1</clus>
<clus scale="  198.291">  1  5  2 -1</clus>
<clus scale="  198.291">  1  5  2 -1</clus>
</clustering>
</event>
<event>
 9    1  0.1434065E-005  0.1066669E+03  0.7546771E-02  0.1271704E+00
         -3   -1    0    0    0  501 -0.00000000000E+00  0.00000000000E+00  0.64695922890E+02  0.64695922890E+02  0.00000000000E+00 0.  1.
          3   -1    0    0  502    0  0.00000000000E+00 -0.00000000000E+00 -0.21862919425E+03  0.21862919425E+03  0.00000000000E+00 0. -1.
         23    2    1    2    0    0 -0.15217135854E+02  0.99338219743E+01 -0.63016217268E+02  0.12179741111E+03  0.10263198172E+03 0.  0.
         23    2    1    2    0    0  0.95925161061E+01 -0.40532063005E+02 -0.76748585546E+02  0.12734241384E+03  0.92687002768E+02 0.  0.
        -11    1    3    3    0    0  0.16839427981E+02  0.48833595729E+02 -0.19526700053E+02  0.55222988162E+02  0.00000000000E+00 0.  1.
         11    1    3    3    0    0 -0.32056563835E+02 -0.38899773755E+02 -0.43489517215E+02  0.66574422947E+02  0.00000000000E+00 0. -1.
        -13    1    4    4    0    0 -0.43153085338E+01  0.25324482186E+02 -0.58125246994E+00  0.25696091924E+02  0.00000000000E+00 0.  1.
         13    1    4    4    0    0  0.13907824640E+02 -0.65856545191E+02 -0.76167333076E+02  0.10164632191E+03  0.00000000000E+00 0. -1.
         21    1    1    2  502  501  0.56246197484E+01  0.30598241030E+02 -0.14168468548E+02  0.34185292195E+02  0.00000000000E+00 0.  1.
<scales pt_clust_5="13000.00000" pt_clust_6="13000.00000" pt_clust_7="13000.00000" pt_clust_8="13000.00000" pt_clust_9="31.11091"></scales>
<clustering>
<clus scale="   31.111">  1  9  2 -1</clus>
<clus scale="   92.687">  7  8 -1 -1</clus>
<clus scale="   97.136">  2  7  1 -1</clus>
<clus scale="  102.632">  5  6 -1 -1</clus>
<clus scale="   97.136">  2  5  1 -1</clus>
</clustering>
</event>
<event>
 9    1  0.1434065E-005  0.9989667E+02  0.7546771E-02  0.1282675E+00
         -2   -1    0    0    0  501 -0.00000000000E+00  0.00000000000E+00  0.57434749700E+02  0.57434749700E+02  0.00000000000E+00 0.  1.
          2   -1    0    0  502    0  0.00000000000E+00 -0.00000000000E+00 -0.21425241788E+03  0.21425241788E+03  0.00000000000E+00 0. -1.
         23    2    1    2    0    0  0.26300722169E+02  0.34794837257E+02 -0.62260599326E+02  0.12043291230E+03  0.93409289956E+02 0.  0.
         23    2    1    2    0    0 -0.27084594662E+01 -0.29257702711E+02 -0.75339552957E+02  0.12032582765E+03  0.89100547920E+02 0.  0.
        -13    1    4    4    0    0  0.30687880949E+02  0.18162218699E+02 -0.25293948442E+02  0.43719515699E+02  0.00000000000E+00 0. -1.
         13    1    4    4    0    0 -0.33396340415E+02 -0.47419921410E+02 -0.50045604515E+02  0.76606311952E+02  0.00000000000E+00 0.  1.
        -13    1    3    3    0    0  0.93854184455E+01 -0.19737908884E+02  0.13407514276E+02  0.25640447842E+02  0.00000000000E+00 0.  1.
         13    1    3    3    0    0  0.16915303723E+02  0.54532746140E+02 -0.75668113602E+02  0.94792464456E+02  0.00000000000E+00 0. -1.
         21    1    1    2  502  501 -0.23592262702E+02 -0.55371345458E+01 -0.19217515898E+02  0.30928427630E+02  0.00000000000E+00 0. -1.
<scales pt_clust_5="13000.00000" pt_clust_6="13000.00000" pt_clust_7="13000.00000" pt_clust_8="13000.00000" pt_clust_9="24.23334"></scales>
<clustering>
<clus scale="   24.233">  2  9  1 -1</clus>
<clus scale="   89.101">  5  6 -1 -1</clus>
<clus scale="   93.409">  7  8 -1 -1</clus>
<clus scale="   95.880">  2  5  1 -1</clus>
<clus scale="   24.233">  2  5  1 -1</clus>
</clustering>
</event>
<event>
 9    1  0.1434065E-005  0.1236263E+03  0.7546771E-02  0.1237439E+00
         -3   -1    0    0    0  501 -0.00000000000E+00  0.00000000000E+00  0.27462099118E+02  0.27462099118E+02  0.00000000000E+00 0.  1.
          3   -1    0    0  502    0  0.00000000000E+00 -0.00000000000E+00 -0.74596467696E+03  0.74596467696E+03  0.00000000000E+00 0. -1.
         23    2    1    2    0    0 -0.12164383664E+02 -0.76761805664E+02 -0.21529663498E+03  0.24694726327E+03  0.92682051997E+02 0.  0.
         23    2    1    2    0    0  0.37414333545E+02  0.81058392726E+02 -0.42159350318E+03  0.44094232241E+03  0.93374270492E+02 0.  0.
        -11    1    3    3    0    0 -0.47105063761E+02 -0.16747803213E+02 -0.71310568668E+02  0.87089454862E+02  0.00000000000E+00 0. -1.
         11    1    3    3    0    0  0.34940680097E+02 -0.60014002451E+02 -0.14398606631E+03  0.15985780841E+03  0.00000000000E+00 0.  1.
        -13    1    4    4    0    0  0.49100557692E+02  0.23218116300E+02 -0.30985825119E+03  0.31458239226E+03  0.00000000000E+00 0.  1.
         13    1    4    4    0    0 -0.11686224147E+02  0.57840276426E+02 -0.11173525198E+03  0.12635993015E+03  0.00000000000E+00 0. -1.
         21    1    1    2  502  501 -0.25249949881E+02 -0.42965870614E+01 -0.81612439682E+02  0.85537190392E+02  0.00000000000E+00 0. -1.
<scales pt_clust_5="13000.00000" pt_clust_6="13000.00000" pt_clust_7="13000.00000" pt_clust_8="13000.00000" pt_clust_9="25.61290"></scales>
<clustering>
<clus scale="   25.613">  2  9  1 -1</clus>
<clus scale="   92.682">  5  6 -1 -1</clus>
<clus scale="   93.374">  7  8 -1 -1</clus>
<clus scale="  123.104">  1  5  2 -1</clus>
<clus scale="   25.613">  2  5  1 -1</clus>
</clustering>
</event>
<event>
 9    1  0.1434065E-005  0.1056262E+03  0.7546771E-02  0.1269861E+00
         -1   -1    0    0    0  501 -0.00000000000E+00  0.00000000000E+00  0.12256272596E+03  0.12256272596E+03  0.00000000000E+00 0.  1.
          1   -1    0    0  502    0  0.00000000000E+00 -0.00000000000E+00 -0.14297320608E+03  0.14297320608E+03  0.00000000000E+00 0. -1.
         23    2    1    2    0    0 -0.25821565678E+01  0.32600466823E+02  0.68544167988E+01  0.99280896986E+02  0.93489333654E+02 0.  0.
         23    2    1    2    0    0 -0.11134644751E+02 -0.58820511766E+02 -0.57992566836E+02  0.12359555670E+03  0.91262757520E+02 0.  0.
        -13    1    3    3    0    0  0.34456332343E+02  0.47019044718E+02 -0.28677143853E+01  0.58363114983E+02  0.00000000000E+00 0.  1.
         13    1    3    3    0    0 -0.37038488911E+02 -0.14418577895E+02  0.97221311841E+01  0.40917782003E+02  0.00000000000E+00 0. -1.
        -13    1    4    4    0    0  0.26212338832E+01 -0.76072901911E+02 -0.65364203604E+02  0.10033163203E+03  0.00000000000E+00 0. -1.
         13    1    4    4    0    0 -0.13755878634E+02  0.17252390145E+02  0.73716367678E+01  0.23263924676E+02  0.00000000000E+00 0.  1.
         21    1    1    2  502  501  0.13716801318E+02  0.26220044942E+02  0.30727669915E+02  0.42659478356E+02  0.00000000000E+00 0.  1.
<scales pt_clust_5="13000.00000" pt_clust_6="13000.00000" pt_clust_7="13000.00000" pt_clust_8="13000.00000" pt_clust_9="29.59124"></scales>
<clustering>
<clus scale="   29.591">  1  9  2 -1</clus>
<clus scale="   91.263">  7  8 -1 -1</clus>
<clus scale="   93.489">  5  6 -1 -1</clus>
<clus scale="  103.661">  2  7  1 -1</clus>
<clus scale="  103.661">  2  5  1 -1</clus>
</clustering>
</event>
<event>
 9    1  0.1434065E-005  0.1229143E+03  0.7546771E-02  0.1245034E+00
          1   -1    0    0  502    0  0.00000000000E+00  0.00000000000E+00  0.42421153775E+02  0.42421153775E+02  0.00000000000E+00 0. -1.
         -1   -1    0    0    0  501 -0.00000000000E+00 -0.00000000000E+00 -0.54541578226E+03  0.54541578226E+03  0.00000000000E+00 0.  1.
         23    2    1    2    0    0  0.26458667101E+02 -0.10289367073E+03 -0.30406512433E+03  0.33618647817E+03  0.96325384685E+02 0.  0.
         23    2    1    2    0    0 -0.28886282020E+02  0.59559163659E+02 -0.91774546398E+02  0.13603922229E+03  0.75514179931E+02 0.  0.
        -11    1    3    3    0    0  0.62325799018E+02 -0.76815881654E+02 -0.20290977844E+03  0.22573781935E+03  0.00000000000E+00 0.  1.
         11    1    3    3    0    0 -0.35867131917E+02 -0.26077789073E+02 -0.10115534589E+03  0.11044865883E+03  0.00000000000E+00 0. -1.
        -13    1    4    4    0    0 -0.50799070710E+02  0.57250662040E+02 -0.59429514906E+02  0.96902276191E+02  0.00000000000E+00 0. -1.
         13    1    4    4    0    0  0.21912788690E+02  0.23085016190E+01 -0.32345031492E+02  0.39136946101E+02  0.00000000000E+00 0.  1.
         21    1    1    2  502  501  0.24276149193E+01  0.43334507068E+02 -0.10715495777E+03  0.11561123557E+03  0.00000000000E+00 0. -1.
<scales pt_clust_5="13000.00000" pt_clust_6="13000.00000" pt_clust_7="13000.00000" pt_clust_8="13000.00000" pt_clust_9="43.40245"></scales>
<clustering>
<clus scale="   43.402">  2  9  1 -1</clus>
<clus scale="   75.514">  7  8 -1 -1</clus>
<clus scale="   96.325">  5  6 -1 -1</clus>
<clus scale="  107.386">  1  7  2 -1</clus>
<clus scale="  107.386">  1  5  2 -1</clus>
</clustering>
</event>
<event>
 9    1  0.1434065E-005  0.1218353E+03  0.7546771E-02  0.1249134E+00
         -1   -1    0    0    0  501 -0.00000000000E+00  0.00000000000E+00  0.27993130431E+03  0.27993130431E+03  0.00000000000E+00 0.  1.
          1   -1    0    0  502    0  0.00000000000E+00 -0.00000000000E+00 -0.15800796720E+03  0.15800796720E+03  0.00000000000E+00 0. -1.
         23    2    1    2    0    0  0.50462552660E+02  0.47740904812E+02  0.18866712345E+03  0.22072707051E+03  0.91101553065E+02 0.  0.
         23    2    1    2    0    0 -0.24728245735E+02 -0.33708501342E+02 -0.11107900658E+03  0.16406359187E+03  0.11327209398E+03 0.  0.
        -11    1    4    4    0    0 -0.47632517333E+02 -0.21623758429E+02 -0.12439303644E+03  0.13494469663E+03  0.00000000000E+00 0. -1.
         11    1    4    4    0    0  0.22904271597E+02 -0.12084742912E+02  0.13314029858E+02  0.29118895235E+02  0.00000000000E+00 0.  1.
        -11    1    3    3    0    0  0.47156307317E+02 -0.32431265378E+01  0.14818748725E+03  0.15554345556E+03  0.00000000000E+00 0. -1.
         11    1    3    3    0    0  0.33062453426E+01  0.50984031350E+02  0.40479636198E+02  0.65183614948E+02  0.00000000000E+00 0.  1.
         21    1    1    2  502  501 -0.25734306924E+02 -0.14032403470E+02  0.44335220234E+02  0.53148609138E+02  0.00000000000E+00 0. -1.
<scales pt_clust_5="13000.00000" pt_clust_6="13000.00000" pt_clust_7="13000.00000" pt_clust_8="13000.00000" pt_clust_9="29.31148"></scales>
<clustering>
<clus scale="   29.311">  1  9  2 -1</clus>
<clus scale="   91.102">  7  8 -1 -1</clus>
<clus scale="  101.552">  1  7  2 -1</clus>
<clus scale="  113.272">  5  6 -1 -1</clus>
<clus scale="  121.835">  2  5  1 -1</clus>
</clustering>
</event>
<event>
 9    1  0.1434065E-005  0.1330641E+03  0.7546771E-02  0.1229633E+00
         -1   -1    0    0    0  501 -0.00000000000E+00  0.00000000000E+00  0.15104316871E+03  0.15104316871E+03  0.00000000000E+00 0.  1.
          1   -1    0    0  502    0  0.00000000000E+00 -0.00000000000E+00 -0.40957652948E+03  0.40957652948E+03  0.00000000000E+00 0. -1.
         23    2    1    2    0    0  0.39506656079E+02  0.78444682106E+02  0.30943605319E+02  0.13025382109E+03  0.91072537980E+02 0.  0.
         23    2    1    2    0    0 -0.76377232747E+02  0.13554793440E+01 -0.31148279352E+03  0.33974710624E+03  0.11212157031E+03 0.  0.
        -11    1    4    4    0    0 -0.76694020055E+02 -0.45190972592E+02 -0.21081246712E+03  0.22883638917E+03  0.00000000000E+00 0. -1.
         11    1    4    4    0    0  0.31678730871E+00  0.46546451936E+02 -0.10067032640E+03  0.11091071706E+03  0.00000000000E+00 0.  1.
        -13    1    3    3    0    0  0.13635708648E+02  0.53871291031E+02 -0.27327496898E+02  0.61926090094E+02  0.00000000000E+00 0.  1.
         13    1    3    3    0    0  0.25870947431E+02  0.24573391075E+02  0.58271102217E+02  0.68327730999E+02  0.00000000000E+00 0. -1.
         21    1    1    2  502  501  0.36870576668E+02 -0.79800161450E+02  0.22005827439E+02  0.90618770862E+02  0.00000000000E+00 0. -1.
<scales pt_clust_5="13000.00000" pt_clust_6="13000.00000" pt_clust_7="13000.00000" pt_clust_8="13000.00000" pt_clust_9="87.90623"></scales>
<clustering>
<clus scale="   87.906">  1  9  2 -1</clus>
<clus scale="   91.073">  7  8 -1 -1</clus>
<clus scale="  112.122">  5  6 -1 -1</clus>
<clus scale="  115.884">  1  7  2 -1</clus>
<clus scale="  133.064">  2  5  1 -1</clus>
</clustering>
</event>
<event>
 9    1  0.1434065E-005  0.1745127E+03  0.7546771E-02  0.1173446E+00
          1   -1    0    0  502    0  0.00000000000E+00  0.00000000000E+00  0.31369779624E+03  0.31369779624E+03  0.00000000000E+00 0. -1.
         -1   -1    0    0    0  501 -0.00000000000E+00 -0.00000000000E+00 -0.15666557322E+03  0.15666557322E+03  0.00000000000E+00 0.  1.
         23    2    1    2    0    0  0.11681930429E+03 -0.63600041706E+02 -0.36236051102E+02  0.16575307142E+03  0.92028876579E+02 0.  0.
         23    2    1    2    0    0 -0.13719513878E+03  0.68153365963E+02  0.21189068931E+03  0.27663349086E+03  0.90338456119E+02 0.  0.
        -13    1    3    3    0    0 -0.89911907023E+01 -0.20512474993E+02  0.10578788990E+02  0.24769213090E+02  0.00000000000E+00 0.  1.
         13    1    3    3    0    0  0.12581049499E+03 -0.43087566712E+02 -0.46814840093E+02  0.14098385833E+03  0.00000000000E+00 0. -1.
        -13    1    4    4    0    0 -0.62882777552E+02  0.29956309296E+02  0.16883377974E+03  0.18263753547E+03  0.00000000000E+00 0. -1.
         13    1    4    4    0    0 -0.74312361225E+02  0.38197056667E+02  0.43056909564E+02  0.93995955392E+02  0.00000000000E+00 0.  1.
         21    1    1    2  502  501  0.20375834487E+02 -0.45533242575E+01 -0.18622415190E+02  0.27976807187E+02  0.00000000000E+00 0.  1.
<scales pt_clust_5="13000.00000" pt_clust_6="13000.00000" pt_clust_7="13000.00000" pt_clust_8="13000.00000" pt_clust_9="20.87840"></scales>
<clustering>
<clus scale="   20.878">  2  9  1 -1</clus>
<clus scale="   90.338">  7  8 -1 -1</clus>
<clus scale="   92.029">  5  6 -1 -1</clus>
<clus scale="  173.627">  1  7  2 -1</clus>
<clus scale="  173.627">  1  5  2 -1</clus>
</clustering>
</event>
<event>
 9    1  0.1434065E-005  0.1009808E+03  0.7546771E-02  0.1278326E+00
          2   -1    0    0  502    0  0.00000000000E+00  0.00000000000E+00  0.27822026128E+03  0.27822026128E+03  0.00000000000E+00 0. -1.
         -2   -1    0    0    0  501 -0.00000000000E+00 -0.00000000000E+00 -0.77723686862E+02  0.77723686862E+02  0.00000000000E+00 0.  1.
         23    2    1    2    0    0  0.24653754573E+02  0.10616582520E+02 -0.74768480229E+01  0.93024173181E+02  0.88752882211E+02 0.  0.
         23    2    1    2    0    0 -0.23372724137E+02 -0.49652631301E+02  0.19591902816E+03  0.22204481239E+03  0.88926739991E+02 0.  0.
        -11    1    3    3    0    0 -0.29545450588E+02  0.20539552155E+02  0.55400463812E+01  0.36407402641E+02  0.00000000000E+00 0. -1.
         11    1    3    3    0    0  0.54199205161E+02 -0.99229696344E+01 -0.13016894404E+02  0.56616770540E+02  0.00000000000E+00 0.  1.
        -13    1    4    4    0    0  0.18617206694E+02 -0.44611046991E+02  0.47706502374E+02  0.67916538983E+02  0.00000000000E+00 0.  1.
         13    1    4    4    0    0 -0.41989930831E+02 -0.50415843105E+01  0.14821252579E+03  0.15412827341E+03  0.00000000000E+00 0. -1.
         21    1    1    2  502  501 -0.12810304366E+01  0.39036048781E+02  0.12054394276E+02  0.40874962566E+02  0.00000000000E+00 0. -1.
<scales pt_clust_5="13000.00000" pt_clust_6="13000.00000" pt_clust_7="13000.00000" pt_clust_8="13000.00000" pt_clust_9="39.05706"></scales>
<clustering>
<clus scale="   39.057">  2  9  1 -1</clus>
<clus scale="   88.753">  5  6 -1 -1</clus>
<clus scale="   88.927">  7  8 -1 -1</clus>
<clus scale="  100.828">  2  5  1 -1</clus>
<clus scale="  100.981">  1  5  2 -1</clus>
</clustering>
</event>
<event>
 9    1  0.1434065E-005  0.1034813E+03  0.7546771E-02  0.1275159E+00
         -1   -1    0    0    0  501 -0.00000000000E+00  0.00000000000E+00  0.53102355589E+02  0.53102355589E+02  0.00000000000E+00 0.  1.
          1   -1    0    0  502    0  0.00000000000E+00 -0.00000000000E+00 -0.36115186189E+03  0.36115186189E+03  0.00000000000E+00 0. -1.
         23    2    1    2    0    0 -0.80817255170E+01  0.18028365939E+02 -0.39067895292E+02  0.10419233361E+03  0.94548430310E+02 0.  0.
         23    2    1    2    0    0  0.21724891527E+02 -0.43619829117E+02 -0.26032995482E+03  0.27979787685E+03  0.90224753298E+02 0.  0.
        -11    1    3    3    0    0  0.36620992511E+02 -0.48638572939E+01 -0.39342266725E+02  0.53968214268E+02  0.00000000000E+00 0.  1.
         11    1    3    3    0    0 -0.44702718028E+02  0.22892223233E+02  0.27437143248E+00  0.50224119339E+02  0.00000000000E+00 0. -1.
        -13    1    4    4    0    0 -0.29887633961E+02 -0.30844436253E+02 -0.16649903634E+03  0.17194935014E+03  0.00000000000E+00 0. -1.
         13    1    4    4    0    0  0.51612525488E+02 -0.12775392864E+02 -0.93830918480E+02  0.10784852671E+03  0.00000000000E+00 0.  1.
         21    1    1    2  502  501 -0.13643166010E+02  0.25591463177E+02 -0.86516561880E+01  0.30264007023E+02  0.00000000000E+00 0.  1.
<scales pt_clust_5="13000.00000" pt_clust_6="13000.00000" pt_clust_7="13000.00000" pt_clust_8="13000.00000" pt_clust_9="29.00102"></scales>
<clustering>
<clus scale="   29.001">  1  9  2 -1</clus>
<clus scale="   90.225">  7  8 -1 -1</clus>
<clus scale="   94.548">  5  6 -1 -1</clus>
<clus scale="   99.546">  2  7  1 -1</clus>
<clus scale="   99.546">  2  5  1 -1</clus>
</clustering>
</event>
<event>
 9    1  0.1434065E-005  0.1020116E+03  0.7546771E-02  0.1276226E+00
         -3   -1    0    0    0  501 -0.00000000000E+00  0.00000000000E+00  0.53816547626E+03  0.53816547626E+03  0.00000000000E+00 0.  1.
          3   -1    0    0  502    0  0.00000000000E+00 -0.00000000000E+00 -0.53130342200E+02  0.53130342200E+02  0.00000000000E+00 0. -1.
         23    2    1    2    0    0 -0.44152316686E+02  0.21568742542E+02  0.37929038233E+03  0.39293018715E+03  0.90101609993E+02 0.  0.
         23    2    1    2    0    0  0.47854682345E+02  0.13203104153E+01  0.13343467165E+02  0.10309961614E+03  0.90330885584E+02 0.  0.
        -11    1    4    4    0    0  0.41341015604E+02 -0.35082403033E+02  0.30634295653E+02  0.62276116160E+02  0.00000000000E+00 0.  1.
         11    1    4    4    0    0  0.65136667409E+01  0.36402713449E+02 -0.17290828488E+02  0.40823499980E+02  0.00000000000E+00 0. -1.
        -11    1    3    3    0    0 -0.16533808193E+02 -0.34969538892E+02  0.17221627930E+03  0.17650689029E+03  0.00000000000E+00 0. -1.
         11    1    3    3    0    0 -0.27618508493E+02  0.56538281435E+02  0.20707410302E+03  0.21642329686E+03  0.00000000000E+00 0.  1.
         21    1    1    2  502  501 -0.37023656589E+01 -0.22889052958E+02  0.92401284569E+02  0.95266015172E+02  0.00000000000E+00 0. -1.
<scales pt_clust_5="13000.00000" pt_clust_6="13000.00000" pt_clust_7="13000.00000" pt_clust_8="13000.00000" pt_clust_9="23.18655"></scales>
<clustering>
<clus scale="   23.187">  1  9  2 -1</clus>
<clus scale="   90.102">  7  8 -1 -1</clus>
<clus scale="   90.331">  5  6 -1 -1</clus>
<clus scale="  101.809">  1  7  2 -1</clus>
<clus scale="  102.012">  2  5  1 -1</clus>
</clustering>
</event>
<event>
 9    1  0.1434065E-005  0.2651761E+03  0.7546771E-02  0.1104084E+00
         -1   -1    0    0    0  501 -0.00000000000E+00  0.00000000000E+00  0.13441207766E+03  0.13441207766E+03  0.00000000000E+00 0.  1.
          1   -1    0    0  502    0  0.00000000000E+00 -0.00000000000E+00 -0.75748126872E+03  0.75748126872E+03  0.00000000000E+00 0. -1.
         23    2    1    2    0    0  0.60438423668E+02  0.26587046030E+03 -0.22062356863E+03  0.36271476985E+03  0.92451828093E+02 0.  0.
         23    2    1    2    0    0  0.26104896377E+02 -0.22807350498E+03 -0.26760602742E+03  0.36455758012E+03  0.92683623276E+02 0.  0.
        -11    1    4    4    0    0  0.70227923321E+01 -0.48407368922E+02 -0.10030343832E+02  0.49931961463E+02  0.00000000000E+00 0.  1.
         11    1    4    4    0    0  0.19082104045E+02 -0.17966613606E+03 -0.25757568358E+03  0.31462561865E+03  0.00000000000E+00 0. -1.
        -13    1    3    3    0    0  0.84077879321E+02  0.23052519997E+03 -0.18783837983E+03  0.30902138203E+03  0.00000000000E+00 0.  1.
         13    1    3    3    0    0 -0.23639455654E+02  0.35345260321E+02 -0.32785188803E+02  0.53693387820E+02  0.00000000000E+00 0. -1.
         21    1    1    2  502  501 -0.86543320044E+02 -0.37796955317E+02 -0.13483959502E+03  0.16462099642E+03  0.00000000000E+00 0. -1.
<scales pt_clust_5="13000.00000" pt_clust_6="13000.00000" pt_clust_7="13000.00000" pt_clust_8="13000.00000" pt_clust_9="94.43705"></scales>
<clustering>
<clus scale="   92.452">  7  8 -1 -1</clus>
<clus scale="   92.684">  5  6 -1 -1</clus>
<clus scale="   94.437">  2  9  1 -1</clus>
<clus scale="  265.095">  1  7  2 -1</clus>
<clus scale="   94.437">  2  5  1 -1</clus>
</clustering>
</event>
<event>
 9    1  0.1434065E-005  0.1153380E+03  0.7546771E-02  0.1253713E+00
          3   -1    0    0  502    0  0.00000000000E+00  0.00000000000E+00  0.60093692236E+03  0.60093692236E+03  0.00000000000E+00 0. -1.
         -3   -1    0    0    0  501 -0.00000000000E+00 -0.00000000000E+00 -0.50380852037E+02  0.50380852037E+02  0.00000000000E+00 0.  1.
         23    2    1    2    0    0 -0.90097145022E+01 -0.49591178497E+02  0.17784095063E+03  0.20448100008E+03  0.87433493198E+02 0.  0.
         23    2    1    2    0    0 -0.63935311115E+01  0.76645266596E+02  0.39174263829E+03  0.41035074793E+03  0.94921375569E+02 0.  0.
        -11    1    3    3    0    0 -0.47665205279E+02 -0.35012001814E+02  0.94903556391E+02  0.11182350862E+03  0.00000000000E+00 0. -1.
         11    1    3    3    0    0  0.38655490776E+02 -0.14579176682E+02  0.82937394237E+02  0.92657491455E+02  0.00000000000E+00 0.  1.
        -13    1    4    4    0    0 -0.60468847564E+01  0.98173881919E+02  0.34741636087E+03  0.36107174316E+03  0.00000000000E+00 0. -1.
         13    1    4    4    0    0 -0.34664635510E+00 -0.21528615323E+02  0.44326277420E+02  0.49279004772E+02  0.00000000000E+00 0.  1.
         21    1    1    2  502  501  0.15403245614E+02 -0.27054088099E+02 -0.19027518590E+02  0.36486026394E+02  0.00000000000E+00 0.  1.
<scales pt_clust_5="13000.00000" pt_clust_6="13000.00000" pt_clust_7="13000.00000" pt_clust_8="13000.00000" pt_clust_9="31.13171"></scales>
<clustering>
<clus scale="   31.132">  2  9  1 -1</clus>
<clus scale="   87.433">  5  6 -1 -1</clus>
<clus scale="   94.921">  7  8 -1 -1</clus>
<clus scale="  109.258">  2  5  1 -1</clus>
<clus scale="  115.338">  1  5  2 -1</clus>
</clustering>
</event>
<event>
 9    1  0.1434065E-005  0.1533778E+03  0.7546771E-02  0.1197895E+00
          2   -1    0    0  502    0  0.00000000000E+00  0.00000000000E+00  0.24724447196E+03  0.24724447196E+03  0.00000000000E+00 0. -1.
         -2   -1    0    0    0  501 -0.00000000000E+00 -0.00000000000E+00 -0.20262805898E+03  0.20262805898E+03  0.00000000000E+00 0.  1.
         23    2    1    2    0    0  0.83096787594E+02 -0.12681618538E+03 -0.78195424744E+02  0.19357748888E+03  0.91489336900E+02 0.  0.
         23    2    1    2    0    0 -0.44752308646E+02  0.99560349796E+02  0.14261884480E+03  0.20525097121E+03  0.99361933898E+02 0.  0.
        -13    1    3    3    0    0  0.86217209960E+02 -0.87152519152E+02 -0.89994153009E+02  0.15207865223E+03  0.00000000000E+00 0.  1.
         13    1    3    3    0    0 -0.31204223666E+01 -0.39663666233E+02  0.11798728265E+02  0.41498836651E+02  0.00000000000E+00 0. -1.
        -13    1    4    4    0    0 -0.27069715307E+02  0.11559389370E+03  0.95250036599E+02  0.15220803928E+03  0.00000000000E+00 0. -1.
         13    1    4    4    0    0 -0.17682593339E+02 -0.16033543906E+02  0.47368808201E+02  0.53042931930E+02  0.00000000000E+00 0.  1.
         21    1    1    2  502  501 -0.38344478948E+02  0.27255835588E+02 -0.19807007075E+02  0.51044070847E+02  0.00000000000E+00 0.  1.
<scales pt_clust_5="13000.00000" pt_clust_6="13000.00000" pt_clust_7="13000.00000" pt_clust_8="13000.00000" pt_clust_9="47.04444"></scales>
<clustering>
<clus scale="   47.044">  2  9  1 -1</clus>
<clus scale="   91.489">  5  6 -1 -1</clus>
<clus scale="   99.362">  7  8 -1 -1</clus>
<clus scale="  148.399">  2  5  1 -1</clus>
<clus scale="  153.378">  1  5  2 -1</clus>
</clustering>
</event>
<event>
 9    1  0.1434065E-005  0.1060618E+03  0.7546771E-02  0.1269481E+00
          1   -1    0    0  502    0  0.00000000000E+00  0.00000000000E+00  0.44199658032E+03  0.44199658032E+03  0.00000000000E+00 0. -1.
         -1   -1    0    0    0  501 -0.00000000000E+00 -0.00000000000E+00 -0.82368124679E+02  0.82368124679E+02  0.00000000000E+00 0.  1.
         23    2    1    2    0    0 -0.67314190112E+02  0.11670370435E+02  0.22441975986E+02  0.11495980496E+03  0.89692344901E+02 0.  0.
         23    2    1    2    0    0  0.58929967374E+01 -0.55614301894E+02  0.31111714945E+03  0.32950970566E+03  0.93032722521E+02 0.  0.
        -11    1    4    4    0    0  0.31699648717E+02 -0.62043924087E+02  0.28017696044E+03  0.28870996763E+03  0.00000000000E+00 0.  1.
         11    1    4    4    0    0 -0.25806651980E+02  0.64296221936E+01  0.30940189001E+02  0.40799738031E+02  0.00000000000E+00 0. -1.
        -11    1    3    3    0    0 -0.18331825250E+02  0.42531220298E+02  0.31984997802E+02  0.56284994461E+02  0.00000000000E+00 0. -1.
         11    1    3    3    0    0 -0.48982364862E+02 -0.30860849863E+02 -0.95430218168E+01  0.58674810499E+02  0.00000000000E+00 0.  1.
         21    1    1    2  502  501  0.61421193375E+02  0.43943931458E+02  0.26069330213E+02  0.79895194382E+02  0.00000000000E+00 0. -1.
<scales pt_clust_5="13000.00000" pt_clust_6="13000.00000" pt_clust_7="13000.00000" pt_clust_8="13000.00000" pt_clust_9="75.52239"></scales>
<clustering>
<clus scale="   75.522">  2  9  1 -1</clus>
<clus scale="   89.692">  7  8 -1 -1</clus>
<clus scale="   93.033">  5  6 -1 -1</clus>
<clus scale="  103.144">  2  7  1 -1</clus>
<clus scale="  106.062">  1  5  2 -1</clus>
</clustering>
</event>
<event>
 9    1  0.1434065E-005  0.9319439E+02  0.7546771E-02  0.1295335E+00
         -2   -1    0    0    0  501 -0.00000000000E+00  0.00000000000E+00  0.17258122444E+02  0.17258122444E+02  0.00000000000E+00 0.  1.
          2   -1    0    0  502    0  0.00000000000E+00 -0.00000000000E+00 -0.70163201960E+03  0.70163201960E+03  0.00000000000E+00 0. -1.
         23    2    1    2    0    0  0.18003828446E+02  0.15786112783E+02 -0.22637613836E+03  0.24485453347E+03  0.90190062347E+02 0.  0.
         23    2    1    2    0    0  0.13716557273E+01 -0.26304514247E+02 -0.41717647916E+03  0.42764139528E+03  0.90261504987E+02 0.  0.
        -11    1    4    4    0    0 -0.12717844090E+02  0.31762978551E+02 -0.14465389739E+03  0.14864514924E+03  0.00000000000E+00 0.  1.
         11    1    4    4    0    0  0.14089499818E+02 -0.58067492798E+02 -0.27252258177E+03  0.27899624603E+03  0.00000000000E+00 0. -1.
        -11    1    3    3    0    0  0.29577796652E+02  0.49279926989E+02 -0.15084073752E+03  0.16141959409E+03  0.00000000000E+00 0.  1.
         11    1    3    3    0    0 -0.11573968206E+02 -0.33493814206E+02 -0.75535400840E+02  0.83434939385E+02  0.00000000000E+00 0. -1.
         21    1    1    2  502  501 -0.19375484173E+02  0.10518401464E+02 -0.40821279636E+02  0.46394213297E+02  0.00000000000E+00 0. -1.
<scales pt_clust_5="13000.00000" pt_clust_6="13000.00000" pt_clust_7="13000.00000" pt_clust_8="13000.00000" pt_clust_9="22.04645"></scales>
<clustering>
<clus scale="   22.046">  1  9  2 -1</clus>
<clus scale="   90.190">  7  8 -1 -1</clus>
<clus scale="   90.262">  5  6 -1 -1</clus>
<clus scale="   93.125">  1  7  2 -1</clus>
<clus scale="   93.194">  2  5  1 -1</clus>
</clustering>
</event>
<event>
 9    1  0.1434065E-005  0.9762256E+02  0.7546771E-02  0.1292227E+00
         -1   -1    0    0    0  501 -0.00000000000E+00  0.00000000000E+00  0.37405165830E+03  0.37405165830E+03  0.00000000000E+00 0.  1.
          1   -1    0    0  502    0  0.00000000000E+00 -0.00000000000E+00 -0.24934713134E+03  0.24934713134E+03  0.00000000000E+00 0. -1.
         23    2    1    2    0    0 -0.52961287600E+01 -0.45812464821E+01  0.14018869182E+03  0.16995288168E+03  0.95823148971E+02 0.  0.
         23    2    1    2    0    0 -0.11358606066E+02 -0.16412210092E+02 -0.22567420103E+03  0.24155452843E+03  0.83793595374E+02 0.  0.
        -13    1    3    3    0    0  0.23374784440E+02 -0.37271578351E+01 -0.30542366039E+01  0.23866307095E+02  0.00000000000E+00 0. -1.
         13    1    3    3    0    0 -0.28670913200E+02 -0.85408864697E+00  0.14324292842E+03  0.14608657459E+03  0.00000000000E+00 0.  1.
        -13    1    4    4    0    0  0.18783686870E+02  0.26333388656E+02 -0.65404291167E+02  0.72965714919E+02  0.00000000000E+00 0. -1.
         13    1    4    4    0    0 -0.30142292936E+02 -0.42745598748E+02 -0.16026990986E+03  0.16858881351E+03  0.00000000000E+00 0.  1.
         21    1    1    2  502  501  0.16654734826E+02  0.20993456574E+02  0.21019003617E+03  0.21189137952E+03  0.00000000000E+00 0.  1.
<scales pt_clust_5="13000.00000" pt_clust_6="13000.00000" pt_clust_7="13000.00000" pt_clust_8="13000.00000" pt_clust_9="26.79749"></scales>
<clustering>
<clus scale="   26.797">  1  9  2 -1</clus>
<clus scale="   83.794">  7  8 -1 -1</clus>
<clus scale="   85.846">  2  7  1 -1</clus>
<clus scale="   95.823">  5  6 -1 -1</clus>
<clus scale="   85.846">  2  5  1 -1</clus>
</clustering>
</event>
<event>
 9    1  0.1434065E-005  0.1523354E+03  0.7546771E-02  0.1198290E+00
          2   -1    0    0  502    0  0.00000000000E+00  0.00000000000E+00  0.79788211724E+03  0.79788211724E+03  0.00000000000E+00 0. -1.
         -2   -1    0    0    0  501 -0.00000000000E+00 -0.00000000000E+00 -0.60762084194E+02  0.60762084194E+02  0.00000000000E+00 0.  1.
         23    2    1    2    0    0  0.74170759476E+02  0.85542588869E+02  0.12148619883E+03  0.19137779594E+03  0.95119546895E+02 0.  0.
         23    2    1    2    0    0 -0.11153898595E+03 -0.51473912710E+02  0.59188483837E+03  0.61139983366E+03  0.91605598286E+02 0.  0.
        -11    1    3    3    0    0  0.26566223949E+01  0.53873126348E+02  0.94185983267E+02  0.10853741672E+03  0.00000000000E+00 0. -1.
         11    1    3    3    0    0  0.71514137081E+02  0.31669462520E+02  0.27300215558E+02  0.82840379214E+02  0.00000000000E+00 0.  1.
        -11    1    4    4    0    0 -0.58304782857E+02 -0.62584472571E+02  0.47294467148E+03  0.48061723460E+03  0.00000000000E+00 0. -1.
         11    1    4    4    0    0 -0.53234203089E+02  0.11110559860E+02  0.11894016689E+03  0.13078259907E+03  0.00000000000E+00 0.  1.
         21    1    1    2  502  501  0.37368226469E+02 -0.34068676158E+02  0.23748995856E+02  0.55866571837E+02  0.00000000000E+00 0.  1.
<scales pt_clust_5="13000.00000" pt_clust_6="13000.00000" pt_clust_7="13000.00000" pt_clust_8="13000.00000" pt_clust_9="50.56737"></scales>
<clustering>
<clus scale="   50.567">  2  9  1 -1</clus>
<clus scale="   91.606">  7  8 -1 -1</clus>
<clus scale="   95.120">  5  6 -1 -1</clus>
<clus scale="  150.166">  1  7  2 -1</clus>
<clus scale="  150.166">  1  5  2 -1</clus>
</clustering>
</event>
<event>
 9    1  0.1434065E-005  0.2020772E+03  0.7546771E-02  0.1148150E+00
          2   -1    0    0  502    0  0.00000000000E+00  0.00000000000E+00  0.26889053614E+03  0.26889053614E+03  0.00000000000E+00 0. -1.
         -2   -1    0    0    0  501 -0.00000000000E+00 -0.00000000000E+00 -0.20404871676E+03  0.20404871676E+03  0.00000000000E+00 0.  1.
         23    2    1    2    0    0 -0.11410158608E+03 -0.14495913610E+03  0.17030402247E+02  0.20689262964E+03  0.92098873577E+02 0.  0.
         23    2    1    2    0    0  0.73317235343E+02  0.16306214419E+03  0.74810218499E+02  0.21389283680E+03  0.90492524431E+02 0.  0.
        -13    1    4    4    0    0  0.75332797287E+02  0.12594555278E+03  0.91715468829E+02  0.17305790891E+03  0.00000000000E+00 0. -1.
         13    1    4    4    0    0 -0.20155619435E+01  0.37116591402E+02 -0.16905250330E+02  0.40834927893E+02  0.00000000000E+00 0.  1.
        -13    1    3    3    0    0 -0.67743759534E+02 -0.30816470538E+02 -0.22090797238E+02  0.77632951347E+02  0.00000000000E+00 0.  1.
         13    1    3    3    0    0 -0.46357826544E+02 -0.11414266556E+03  0.39121199485E+02  0.12925967829E+03  0.00000000000E+00 0. -1.
         21    1    1    2  502  501  0.40784350734E+02 -0.18103008089E+02 -0.26998801373E+02  0.52153786462E+02  0.00000000000E+00 0.  1.
<scales pt_clust_5="13000.00000" pt_clust_6="13000.00000" pt_clust_7="13000.00000" pt_clust_8="13000.00000" pt_clust_9="44.62154"></scales>
<clustering>
<clus scale="   44.622">  2  9  1 -1</clus>
<clus scale="   90.493">  5  6 -1 -1</clus>
<clus scale="   92.099">  7  8 -1 -1</clus>
<clus scale="  201.350">  1  5  2 -1</clus>
<clus scale="  201.350">  1  5  2 -1</clus>
</clustering>
</event>
<event>
 9    1  0.1434065E-005  0.1771954E+03  0.7546771E-02  0.1194098E+00
         -1   -1    0    0    0  501 -0.00000000000E+00  0.00000000000E+00  0.35139507982E+03  0.35139507982E+03  0.00000000000E+00 0.  1.
          1   -1    0    0  502    0  0.00000000000E+00 -0.00000000000E+00 -0.20596973487E+03  0.20596973487E+03  0.00000000000E+00 0. -1.
         23    2    1    2    0    0 -0.10486204842E+03 -0.13072226430E+03 -0.26008192208E+02  0.19151480815E+03  0.88978290039E+02 0.  0.
         23    2    1    2    0    0 -0.21130086796E+02  0.46780673861E+02 -0.34623379356E+02  0.11015553733E+03  0.91107365188E+02 0.  0.
        -11    1    3    3    0    0 -0.50949402368E+02 -0.25357674546E+02  0.25590532779E+02  0.62399748621E+02  0.00000000000E+00 0.  1.
         11    1    3    3    0    0 -0.53912646048E+02 -0.10536458975E+03 -0.51598724987E+02  0.12911505953E+03  0.00000000000E+00 0. -1.
        -13    1    4    4    0    0 -0.51155665132E+02  0.19326294665E+02  0.29644259524E+01  0.54764911775E+02  0.00000000000E+00 0. -1.
         13    1    4    4    0    0  0.30025578336E+02  0.27454379196E+02 -0.37587805309E+02  0.55390625555E+02  0.00000000000E+00 0.  1.
         21    1    1    2  502  501  0.12599213521E+03  0.83941590434E+02  0.20605691652E+03  0.25569446921E+03  0.00000000000E+00 0.  1.
<scales pt_clust_5="13000.00000" pt_clust_6="13000.00000" pt_clust_7="13000.00000" pt_clust_8="13000.00000" pt_clust_9="153.23541"></scales>
<clustering>
<clus scale="   88.978">  5  6 -1 -1</clus>
<clus scale="   91.107">  7  8 -1 -1</clus>
<clus scale="  104.573">  2  7  1 -1</clus>
<clus scale="  153.235">  1  9  2 -1</clus>
<clus scale="  104.573">  2  5  1 -1</clus>
</clustering>
</event>
<event>
 9    1  0.1434065E-005  0.1039364E+03  0.7546771E-02  0.1275394E+00
          1   -1    0    0  502    0  0.00000000000E+00  0.00000000000E+00  0.12929588618E+03  0.12929588618E+03  0.00000000000E+00 0. -1.
         -1   -1    0    0    0  501 -0.00000000000E+00 -0.00000000000E+00 -0.10180637362E+03  0.10180637362E+03  0.00000000000E+00 0.  1.
         23    2    1    2    0    0 -0.20870257843E+02 -0.53776678492E+02 -0.10021604596E+02  0.10314527633E+03  0.84917705216E+02 0.  0.
         23    2    1    2    0    0  0.63006979488E+01  0.35762931687E+02  0.26587132614E+02  0.10234252294E+03  0.91915343136E+02 0.  0.
        -13    1    4    4    0    0  0.30938620519E+02  0.46546761079E+02 -0.10158020247E+02  0.56806554041E+02  0.00000000000E+00 0.  1.
         13    1    4    4    0    0 -0.24637922571E+02 -0.10783829392E+02  0.36745152861E+02  0.45535968901E+02  0.00000000000E+00 0. -1.
        -13    1    3    3    0    0  0.25615423627E+02 -0.23461989786E+02 -0.28205262757E+02  0.44745410262E+02  0.00000000000E+00 0.  1.
         13    1    3    3    0    0 -0.46485681470E+02 -0.30314688706E+02  0.18183658161E+02  0.58399866072E+02  0.00000000000E+00 0. -1.
         21    1    1    2  502  501  0.14569559894E+02  0.18013746805E+02  0.10923984548E+02  0.25614460523E+02  0.00000000000E+00 0.  1.
<scales pt_clust_5="13000.00000" pt_clust_6="13000.00000" pt_clust_7="13000.00000" pt_clust_8="13000.00000" pt_clust_9="23.16824"></scales>
<clustering>
<clus scale="   23.168">  1  9  2 -1</clus>
<clus scale="   84.918">  7  8 -1 -1</clus>
<clus scale="   91.915">  5  6 -1 -1</clus>
<clus scale="   97.803">  2  7  1 -1</clus>
<clus scale="   23.168">  1  5  2 -1</clus>
</clustering>
</event>
<event>
 9    1  0.1434065E-005  0.1756622E+03  0.7546771E-02  0.1172434E+00
         -2   -1    0    0    0  501 -0.00000000000E+00  0.00000000000E+00  0.57507677447E+02  0.57507677447E+02  0.00000000000E+00 0.  1.
          2   -1    0    0  502    0  0.00000000000E+00 -0.00000000000E+00 -0.67298774940E+03  0.67298774940E+03  0.00000000000E+00 0. -1.
         23    2    1    2    0    0  0.14635556455E+03  0.81520094589E+01 -0.30259359347E+03  0.34911444486E+03  0.93976626180E+02 0.  0.
         23    2    1    2    0    0 -0.14820253812E+03 -0.28214071522E+02 -0.31514515233E+03  0.36110786547E+03  0.91227174318E+02 0.  0.
        -11    1    4    4    0    0 -0.37929060704E+02 -0.15827865637E+02 -0.19830819325E+02  0.45633281403E+02  0.00000000000E+00 0.  1.
         11    1    4    4    0    0 -0.11027347742E+03 -0.12386205885E+02 -0.29531433300E+03  0.31547458407E+03  0.00000000000E+00 0. -1.
        -11    1    3    3    0    0  0.12236250233E+03 -0.10896806066E+02 -0.15199940357E+03  0.19543577217E+03  0.00000000000E+00 0.  1.
         11    1    3    3    0    0  0.23993062219E+02  0.19048815525E+02 -0.15059418990E+03  0.15367867269E+03  0.00000000000E+00 0. -1.
         21    1    1    2  502  501  0.18469735781E+01  0.20062062063E+02  0.22586738452E+01  0.20273116513E+02  0.00000000000E+00 0. -1.
<scales pt_clust_5="13000.00000" pt_clust_6="13000.00000" pt_clust_7="13000.00000" pt_clust_8="13000.00000" pt_clust_9="20.14690"></scales>
<clustering>
<clus scale="   20.147">  1  9  2 -1</clus>
<clus scale="   91.227">  5  6 -1 -1</clus>
<clus scale="   93.977">  7  8 -1 -1</clus>
<clus scale="  174.207">  2  5  1 -1</clus>
<clus scale="  174.207">  2  5  1 -1</clus>
</clustering>
</event>
<event>
 9    1  0.1434065E-005  0.1055970E+03  0.7546771E-02  0.1269055E+00
          1   -1    0    0  502    0  0.00000000000E+00  0.00000000000E+00  0.65680469695E+03  0.65680469695E+03  0.00000000000E+00 0. -1.
         -1   -1    0    0    0  501 -0.00000000000E+00 -0.00000000000E+00 -0.37190716631E+02  0.37190716631E+02  0.00000000000E+00 0.  1.
         23    2    1    2    0    0  0.23151221025E+02 -0.26512142308E+02  0.13954353469E+03  0.16967904389E+03  0.89887191162E+02 0.  0.
         23    2    1    2    0    0 -0.20353701271E+02  0.60958231465E+02  0.47693478152E+03  0.48961490626E+03  0.90143172042E+02 0.  0.
        -11    1    4    4    0    0  0.31658291516E+02  0.28762513218E+02  0.11817598867E+03  0.12567853391E+03  0.00000000000E+00 0. -1.
         11    1    4    4    0    0 -0.52011992787E+02  0.32195718248E+02  0.35875879285E+03  0.36393637235E+03  0.00000000000E+00 0.  1.
        -11    1    3    3    0    0 -0.15852083670E+02  0.14383556321E+02  0.26365505061E+01  0.21566795026E+02  0.00000000000E+00 0.  1.
         11    1    3    3    0    0  0.39003304695E+02 -0.40895698629E+02  0.13690698419E+03  0.14811224886E+03  0.00000000000E+00 0. -1.
         21    1    1    2  502  501 -0.27975197538E+01 -0.34446089157E+02  0.31356641009E+01  0.34701463433E+02  0.00000000000E+00 0. -1.
<scales pt_clust_5="13000.00000" pt_clust_6="13000.00000" pt_clust_7="13000.00000" pt_clust_8="13000.00000" pt_clust_9="34.55950"></scales>
<clustering>
<clus scale="   34.560">  2  9  1 -1</clus>
<clus scale="   89.887">  7  8 -1 -1</clus>
<clus scale="   90.143">  5  6 -1 -1</clus>
<clus scale="  105.379">  2  7  1 -1</clus>
<clus scale="  105.597">  1  5  2 -1</clus>
</clustering>
</event>
<event>
 9    1  0.1434065E-005  0.1637670E+03  0.7546771E-02  0.1184683E+00
          1   -1    0    0  502    0  0.00000000000E+00  0.00000000000E+00  0.10494067224E+03  0.10494067224E+03  0.00000000000E+00 0. -1.
         -1   -1    0    0    0  501 -0.00000000000E+00 -0.00000000000E+00 -0.50314651761E+03  0.50314651761E+03  0.00000000000E+00 0.  1.
         23    2    1    2    0    0  0.10998856595E+01 -0.13364273218E+03 -0.31546112850E+03  0.35493220483E+03  0.92733795457E+02 0.  0.
         23    2    1    2    0    0 -0.44252752496E+02  0.12836499510E+03 -0.62544244853E+01  0.16517322977E+03  0.93846683152E+02 0.  0.
        -13    1    3    3    0    0  0.34335248103E+02 -0.96397637426E+02 -0.26446080511E+03  0.28356821261E+03  0.00000000000E+00 0.  1.
         13    1    3    3    0    0 -0.33235362444E+02 -0.37245094755E+02 -0.51000323391E+02  0.71363992223E+02  0.00000000000E+00 0. -1.
        -13    1    4    4    0    0 -0.27367482852E+01  0.73189340061E+02  0.38643218977E+02  0.82809828298E+02  0.00000000000E+00 0. -1.
         13    1    4    4    0    0 -0.41516004211E+02  0.55175655036E+02 -0.44897643462E+02  0.82363401477E+02  0.00000000000E+00 0.  1.
         21    1    1    2  502  501  0.43152866837E+02  0.52777370840E+01 -0.76490292382E+02  0.87981755232E+02  0.00000000000E+00 0. -1.
<scales pt_clust_5="13000.00000" pt_clust_6="13000.00000" pt_clust_7="13000.00000" pt_clust_8="13000.00000" pt_clust_9="43.47441"></scales>
<clustering>
<clus scale="   43.474">  2  9  1 -1</clus>
<clus scale="   92.734">  5  6 -1 -1</clus>
<clus scale="   93.847">  7  8 -1 -1</clus>
<clus scale="  163.132">  2  5  1 -1</clus>
<clus scale="  163.767">  1  5  2 -1</clus>
</clustering>
</event>
<event>
 9    1  0.1434065E-005  0.1269799E+03  0.7546771E-02  0.1232941E+00
         -1   -1    0    0    0  501 -0.00000000000E+00  0.00000000000E+00  0.36941678112E+02  0.36941678112E+02  0.00000000000E+00 0.  1.
          1   -1    0    0  502    0  0.00000000000E+00 -0.00000000000E+00 -0.69879892004E+03  0.69879892004E+03  0.00000000000E+00 0. -1.
         23    2    1    2    0    0 -0.85729941808E+02 -0.45303551274E+02 -0.13998709535E+03  0.19117195294E+03  0.86880918773E+02 0.  0.
         23    2    1    2    0    0  0.49347779916E+02  0.51576122981E+02 -0.43909592538E+03  0.45393433297E+03  0.90309728835E+02 0.  0.
        -11    1    3    3    0    0 -0.29241695050E+02 -0.55068207573E+02 -0.11008480828E+03  0.12651580624E+03  0.00000000000E+00 0.  1.
         11    1    3    3    0    0 -0.56488246758E+02  0.97646562986E+01 -0.29902287074E+02  0.64656146704E+02  0.00000000000E+00 0. -1.
        -13    1    4    4    0    0  0.12584540714E+02 -0.18681740841E+02 -0.31668135908E+02  0.38861921436E+02  0.00000000000E+00 0.  1.
         13    1    4    4    0    0  0.36763239202E+02  0.70257863821E+02 -0.40742778947E+03  0.41507241153E+03  0.00000000000E+00 0. -1.
         21    1    1    2  502  501  0.36382161891E+02 -0.62725717068E+01 -0.82774221199E+02  0.90634312237E+02  0.00000000000E+00 0. -1.
<scales pt_clust_5="13000.00000" pt_clust_6="13000.00000" pt_clust_7="13000.00000" pt_clust_8="13000.00000" pt_clust_9="36.91892"></scales>
<clustering>
<clus scale="   36.919">  2  9  1 -1</clus>
<clus scale="   86.881">  5  6 -1 -1</clus>
<clus scale="   90.310">  7  8 -1 -1</clus>
<clus scale="  124.565">  1  5  2 -1</clus>
<clus scale="   36.919">  2  5  1 -1</clus>
</clustering>
</event>
<event>
 9    1  0.1434065E-005  0.1866500E+03  0.7546771E-02  0.1161540E+00
         -1   -1    0    0    0  501 -0.00000000000E+00  0.00000000000E+00  0.12018335780E+03  0.12018335780E+03  0.00000000000E+00 0.  1.
          1   -1    0    0  502    0  0.00000000000E+00 -0.00000000000E+00 -0.48795581047E+03  0.48795581047E+03  0.00000000000E+00 0. -1.
         23    2    1    2    0    0 -0.24173872679E+02 -0.15164554613E+03 -0.22399662378E+02  0.18043580240E+03  0.92057515345E+02 0.  0.
         23    2    1    2    0    0  0.26502294057E+02  0.19002502248E+03 -0.30594451991E+03  0.37263073876E+03  0.91868043688E+02 0.  0.
        -11    1    4    4    0    0  0.45577450408E+01  0.37558652006E+02 -0.10215146344E+02  0.39188960119E+02  0.00000000000E+00 0.  1.
         11    1    4    4    0    0  0.21944549016E+02  0.15246637047E+03 -0.29572937357E+03  0.33344177864E+03  0.00000000000E+00 0. -1.
        -13    1    3    3    0    0 -0.34317287619E+02 -0.25998669128E+02  0.19957139464E+02  0.47454129868E+02  0.00000000000E+00 0. -1.
         13    1    3    3    0    0  0.10143414940E+02 -0.12564687700E+03 -0.42356801842E+02  0.13298167253E+03  0.00000000000E+00 0.  1.
         21    1    1    2  502  501 -0.23284213779E+01 -0.38379476345E+02 -0.39428270379E+02  0.55072627100E+02  0.00000000000E+00 0.  1.
<scales pt_clust_5="13000.00000" pt_clust_6="13000.00000" pt_clust_7="13000.00000" pt_clust_8="13000.00000" pt_clust_9="38.45004"></scales>
<clustering>
<clus scale="   38.450">  2  9  1 -1</clus>
<clus scale="   91.868">  5  6 -1 -1</clus>
<clus scale="   92.058">  7  8 -1 -1</clus>
<clus scale="  186.557">  2  5  1 -1</clus>
<clus scale="   38.450">  2  5  1 -1</clus>
</clustering>
</event>
<event>
 9    1  0.1434065E-005  0.1160325E+03  0.7546771E-02  0.1249825E+00
         -2   -1    0    0    0  501 -0.00000000000E+00  0.00000000000E+00  0.14880193286E+03  0.14880193286E+03  0.00000000000E+00 0.  1.
          2   -1    0    0  502    0  0.00000000000E+00 -0.00000000000E+00 -0.24414740467E+03  0.24414740467E+03  0.00000000000E+00 0. -1.
         23    2    1    2    0    0 -0.48640599827E+02  0.36436884896E+02  0.78739510847E+02  0.13444959275E+03  0.90461195496E+02 0.  0.
         23    2    1    2    0    0  0.43058384542E+02 -0.61104963272E+02 -0.19368382514E+03  0.22650302861E+03  0.90566863879E+02 0.  0.
        -11    1    4    4    0    0 -0.21058518841E+02 -0.97841581625E+01 -0.96551038942E+02  0.99304048697E+02  0.00000000000E+00 0. -1.
         11    1    4    4    0    0  0.64116903383E+02 -0.51320805110E+02 -0.97132786201E+02  0.12719897992E+03  0.00000000000E+00 0.  1.
        -11    1    3    3    0    0  0.11894851706E+02 -0.17847081916E+02  0.26818885170E+00  0.21449423192E+02  0.00000000000E+00 0. -1.
         11    1    3    3    0    0 -0.60535451533E+02  0.54283966812E+02  0.78471321995E+02  0.11300016956E+03  0.00000000000E+00 0.  1.
         21    1    1    2  502  501  0.55822152850E+01  0.24668078376E+02  0.19598842483E+02  0.31996716158E+02  0.00000000000E+00 0.  1.
<scales pt_clust_5="13000.00000" pt_clust_6="13000.00000" pt_clust_7="13000.00000" pt_clust_8="13000.00000" pt_clust_9="25.29180"></scales>
<clustering>
<clus scale="   25.292">  1  9  2 -1</clus>
<clus scale="   90.461">  7  8 -1 -1</clus>
<clus scale="   90.567">  5  6 -1 -1</clus>
<clus scale="  115.950">  1  7  2 -1</clus>
<clus scale="  116.032">  2  5  1 -1</clus>
</clustering>
</event>
<event>
 9    1  0.1434065E-005  0.1137992E+03  0.7546771E-02  0.1254195E+00
         -4   -1    0    0    0  501 -0.00000000000E+00  0.00000000000E+00  0.41143335077E+02  0.41143335077E+02  0.00000000000E+00 0.  1.
          4   -1    0    0  502    0  0.00000000000E+00 -0.00000000000E+00 -0.71260814813E+03  0.71260814813E+03  0.00000000000E+00 0. -1.
         23    2    1    2    0    0  0.55717047814E+02 -0.10098000739E+02 -0.94899892323E+02  0.14371958145E+03  0.91885632686E+02 0.  0.
         23    2    1    2    0    0 -0.10262846286E+03  0.38156286857E+02 -0.45698736745E+03  0.47855285578E+03  0.90481369072E+02 0.  0.
        -11    1    3    3    0    0  0.23753405099E+02  0.12658926907E+01 -0.10552355396E+03  0.10817137874E+03  0.00000000000E+00 0. -1.
         11    1    3    3    0    0  0.31963642715E+02 -0.11363893430E+02  0.10623661638E+02  0.35548202713E+02  0.00000000000E+00 0.  1.
        -13    1    4    4    0    0 -0.58310537937E+02  0.54765892715E+02 -0.37881678756E+03  0.38717125459E+03  0.00000000000E+00 0.  1.
         13    1    4    4    0    0 -0.44317924926E+02 -0.16609605857E+02 -0.78170579887E+02  0.91381601191E+02  0.00000000000E+00 0. -1.
         21    1    1    2  502  501  0.46911415049E+02 -0.28058286118E+02 -0.11957755328E+03  0.13147904597E+03  0.00000000000E+00 0. -1.
<scales pt_clust_5="13000.00000" pt_clust_6="13000.00000" pt_clust_7="13000.00000" pt_clust_8="13000.00000" pt_clust_9="54.66213"></scales>
<clustering>
<clus scale="   54.662">  2  9  1 -1</clus>
<clus scale="   90.481">  7  8 -1 -1</clus>
<clus scale="   91.886">  5  6 -1 -1</clus>
<clus scale="  112.668">  2  7  1 -1</clus>
<clus scale="   54.662">  2  5  1 -1</clus>
</clustering>
</event>
<event>
 9    1  0.1434065E-005  0.1339631E+03  0.7546771E-02  0.1221712E+00
          2   -1    0    0  502    0  0.00000000000E+00  0.00000000000E+00  0.39013730029E+03  0.39013730029E+03  0.00000000000E+00 0. -1.
         -2   -1    0    0    0  501 -0.00000000000E+00 -0.00000000000E+00 -0.70228935038E+02  0.70228935038E+02  0.00000000000E+00 0.  1.
         23    2    1    2    0    0 -0.65715424383E+02 -0.68188690582E+02  0.11995172710E+03  0.17784305311E+03  0.90947898165E+02 0.  0.
         23    2    1    2    0    0  0.91096337455E+02  0.47886000922E+02  0.20777187137E+03  0.24909463414E+03  0.91035017678E+02 0.  0.
        -11    1    3    3    0    0 -0.77634485897E+02 -0.33757929787E+02  0.11226377709E+03  0.14060535861E+03  0.00000000000E+00 0.  1.
         11    1    3    3    0    0  0.11919061514E+02 -0.34430760795E+02  0.76879500114E+01  0.37237694500E+02  0.00000000000E+00 0. -1.
        -13    1    4    4    0    0  0.26454970579E+02  0.59764184496E+02  0.66284612700E+02  0.93087448658E+02  0.00000000000E+00 0.  1.
         13    1    4    4    0    0  0.64641366877E+02 -0.11878183574E+02  0.14148725867E+03  0.15600718549E+03  0.00000000000E+00 0. -1.
         21    1    1    2  502  501 -0.25380913072E+02  0.20302689660E+02 -0.78152332223E+01  0.33428548071E+02  0.00000000000E+00 0.  1.
<scales pt_clust_5="13000.00000" pt_clust_6="13000.00000" pt_clust_7="13000.00000" pt_clust_8="13000.00000" pt_clust_9="32.50215"></scales>
<clustering>
<clus scale="   32.502">  2  9  1 -1</clus>
<clus scale="   90.948">  5  6 -1 -1</clus>
<clus scale="   91.035">  7  8 -1 -1</clus>
<clus scale="  133.904">  2  5  1 -1</clus>
<clus scale="  133.963">  1  5  2 -1</clus>
</clustering>
</event>
<event>
 9    1  0.1434065E-005  0.9143914E+02  0.7546771E-02  0.1299815E+00
          2   -1    0    0  502    0  0.00000000000E+00  0.00000000000E+00  0.35386030431E+03  0.35386030431E+03  0.00000000000E+00 0. -1.
         -2   -1    0    0    0  501 -0.00000000000E+00 -0.00000000000E+00 -0.90045463922E+02  0.90045463922E+02  0.00000000000E+00 0.  1.
         23    2    1    2    0    0  0.10926156819E+02 -0.11067207352E+02 -0.23991399056E+02  0.93585100265E+02  0.89110716424E+02 0.  0.
         23    2    1    2    0    0 -0.16472792202E+02 -0.15668364547E+02  0.30479021036E+03  0.31816462286E+03  0.88401382217E+02 0.  0.
        -13    1    4    4    0    0 -0.42135503410E+02 -0.38382907574E+02  0.19257204659E+03  0.20082988167E+03  0.00000000000E+00 0. -1.
         13    1    4    4    0    0  0.25662711208E+02  0.22714543027E+02  0.11221816377E+03  0.11733474120E+03  0.00000000000E+00 0.  1.
        -13    1    3    3    0    0 -0.47332431080E+00 -0.31553649666E+02  0.24349428965E+02  0.39859146179E+02  0.00000000000E+00 0. -1.
         13    1    3    3    0    0  0.11399481130E+02  0.20486442314E+02 -0.48340828022E+02  0.53725954087E+02  0.00000000000E+00 0.  1.
         21    1    1    2  502  501  0.55466353827E+01  0.26735571899E+02 -0.16983970915E+02  0.32156045107E+02  0.00000000000E+00 0.  1.
<scales pt_clust_5="13000.00000" pt_clust_6="13000.00000" pt_clust_7="13000.00000" pt_clust_8="13000.00000" pt_clust_9="27.30487"></scales>
<clustering>
<clus scale="   27.305">  2  9  1 -1</clus>
<clus scale="   88.401">  5  6 -1 -1</clus>
<clus scale="   89.111">  7  8 -1 -1</clus>
<clus scale="   90.748">  1  5  2 -1</clus>
<clus scale="   90.748">  1  5  2 -1</clus>
</clustering>
</event>
<event>
 9    1  0.1434065E-005  0.2344041E+03  0.7546771E-02  0.1123595E+00
          1   -1    0    0  502    0  0.00000000000E+00  0.00000000000E+00  0.99086878060E+03  0.99086878060E+03  0.00000000000E+00 0. -1.
         -1   -1    0    0    0  501 -0.00000000000E+00 -0.00000000000E+00 -0.21959363882E+03  0.21959363882E+03  0.00000000000E+00 0.  1.
         23    2    1    2    0    0 -0.16273594341E+03  0.12492471153E+03 -0.90002705943E+02  0.24126807789E+03  0.89557956112E+02 0.  0.
         23    2    1    2    0    0  0.18306967427E+03 -0.11786465080E+03  0.89707272536E+03  0.92742619177E+03  0.89293253123E+02 0.  0.
        -11    1    4    4    0    0  0.15492254815E+03 -0.53538747350E+02  0.58327505624E+03  0.60586895005E+03  0.00000000000E+00 0.  1.
         11    1    4    4    0    0  0.28147126118E+02 -0.64325903448E+02  0.31379766912E+03  0.32155724173E+03  0.00000000000E+00 0. -1.
        -11    1    3    3    0    0 -0.14142293077E+03  0.58393589599E+02 -0.51138155064E+02  0.16132379724E+03  0.00000000000E+00 0.  1.
         11    1    3    3    0    0 -0.21313012642E+02  0.66531121930E+02 -0.38864550879E+02  0.79944280647E+02  0.00000000000E+00 0. -1.
         21    1    1    2  502  501 -0.20333730859E+02 -0.70600607306E+01 -0.35794877641E+02  0.41768149749E+02  0.00000000000E+00 0.  1.
<scales pt_clust_5="13000.00000" pt_clust_6="13000.00000" pt_clust_7="13000.00000" pt_clust_8="13000.00000" pt_clust_9="21.52452"></scales>
<clustering>
<clus scale="   21.525">  2  9  1 -1</clus>
<clus scale="   89.293">  5  6 -1 -1</clus>
<clus scale="   89.558">  7  8 -1 -1</clus>
<clus scale="  234.303">  1  5  2 -1</clus>
<clus scale="  234.303">  1  5  2 -1</clus>
</clustering>
</event>
<event>
 9    1  0.1434065E-005  0.1244935E+03  0.7546771E-02  0.1235961E+00
          2   -1    0    0  502    0  0.00000000000E+00  0.00000000000E+00  0.71230114465E+02  0.71230114465E+02  0.00000000000E+00 0. -1.
         -2   -1    0    0    0  501 -0.00000000000E+00 -0.00000000000E+00 -0.75666365523E+03  0.75666365523E+03  0.00000000000E+00 0.  1.
         23    2    1    2    0    0  0.62753115382E+02  0.10979902881E+03 -0.21267276119E+03  0.26381489234E+03  0.91514009040E+02 0.  0.
         23    2    1    2    0    0 -0.84525272273E+02  0.88777489057E+00 -0.63603171147E+02  0.13965509873E+03  0.91174960512E+02 0.  0.
        -13    1    3    3    0    0 -0.13789146479E+02  0.14781980663E+02 -0.19389394268E+01  0.20307806357E+02  0.00000000000E+00 0.  1.
         13    1    3    3    0    0  0.76542261861E+02  0.95017048143E+02 -0.21073382176E+03  0.24350708598E+03  0.00000000000E+00 0. -1.
        -13    1    4    4    0    0 -0.38406993055E+02  0.23063857059E+02  0.13789493711E+02  0.46874180044E+02  0.00000000000E+00 0.  1.
         13    1    4    4    0    0 -0.46118279218E+02 -0.22176082169E+02 -0.77392664858E+02  0.92780918686E+02  0.00000000000E+00 0. -1.
         21    1    1    2  502  501  0.21772156890E+02 -0.11068680370E+03 -0.40915760843E+03  0.42442377863E+03  0.00000000000E+00 0.  1.
<scales pt_clust_5="13000.00000" pt_clust_6="13000.00000" pt_clust_7="13000.00000" pt_clust_8="13000.00000" pt_clust_9="112.80778"></scales>
<clustering>
<clus scale="   91.175">  7  8 -1 -1</clus>
<clus scale="   91.514">  5  6 -1 -1</clus>
<clus scale="  112.808">  2  9  1 -1</clus>
<clus scale="  124.244">  1  7  2 -1</clus>
<clus scale="  124.244">  1  5  2 -1</clus>
</clustering>
</event>
<event>
 9    1  0.1434065E-005  0.1122231E+03  0.7546771E-02  0.1257150E+00
         -1   -1    0    0    0  501 -0.00000000000E+00  0.00000000000E+00  0.14532146719E+03  0.14532146719E+03  0.00000000000E+00 0.  1.
          1   -1    0    0  502    0  0.00000000000E+00 -0.00000000000E+00 -0.20212915706E+03  0.20212915706E+03  0.00000000000E+00 0. -1.
         23    2    1    2    0    0 -0.27917045877E+02 -0.90161080948E+02  0.30216640486E+02  0.13577417061E+03  0.92807316926E+02 0.  0.
         23    2    1    2    0    0 -0.20212365597E+02  0.54596950400E+02 -0.10343992940E+03  0.14962228760E+03  0.91091400457E+02 0.  0.
        -11    1    3    3    0    0 -0.23049069699E+01 -0.67763305311E+02  0.60013354230E+02  0.90547119384E+02  0.00000000000E+00 0.  1.
         11    1    3    3    0    0 -0.25612138907E+02 -0.22397775637E+02 -0.29796713744E+02  0.45227051229E+02  0.00000000000E+00 0. -1.
        -13    1    4    4    0    0  0.75094291539E+01 -0.19560825575E+02 -0.21498394913E+01  0.21062745150E+02  0.00000000000E+00 0.  1.
         13    1    4    4    0    0 -0.27721794751E+02  0.74157775975E+02 -0.10129008991E+03  0.12855954245E+03  0.00000000000E+00 0. -1.
         21    1    1    2  502  501  0.48129411475E+02  0.35564130548E+02  0.16415599041E+02  0.62054166036E+02  0.00000000000E+00 0.  1.
<scales pt_clust_5="13000.00000" pt_clust_6="13000.00000" pt_clust_7="13000.00000" pt_clust_8="13000.00000" pt_clust_9="59.84353"></scales>
<clustering>
<clus scale="   59.844">  1  9  2 -1</clus>
<clus scale="   91.091">  7  8 -1 -1</clus>
<clus scale="   92.807">  5  6 -1 -1</clus>
<clus scale="  110.808">  2  7  1 -1</clus>
<clus scale="  110.808">  2  5  1 -1</clus>
</clustering>
</event>
<event>
 9    1  0.1434065E-005  0.1026791E+03  0.7546771E-02  0.1286830E+00
         -3   -1    0    0    0  501 -0.00000000000E+00  0.00000000000E+00  0.82922055017E+02  0.82922055017E+02  0.00000000000E+00 0.  1.
          3   -1    0    0  502    0  0.00000000000E+00 -0.00000000000E+00 -0.15287179703E+03  0.15287179703E+03  0.00000000000E+00 0. -1.
         23    2    1    2    0    0 -0.15680375207E+02  0.54087690993E+02 -0.11082580554E+02  0.88814859101E+02  0.67778338145E+02 0.  0.
         23    2    1    2    0    0  0.19559608621E+01 -0.38805633773E+02 -0.71502125064E+02  0.12286378763E+03  0.92050276631E+02 0.  0.
        -11    1    3    3    0    0  0.12274357760E+02  0.16157984022E+02  0.22992915008E+02  0.30666177568E+02  0.00000000000E+00 0.  1.
         11    1    3    3    0    0 -0.27954732967E+02  0.37929706971E+02 -0.34075495562E+02  0.58148681532E+02  0.00000000000E+00 0. -1.
        -11    1    4    4    0    0  0.20763860737E+02 -0.53419309917E+02 -0.11702494192E+02  0.58495375501E+02  0.00000000000E+00 0. -1.
         11    1    4    4    0    0 -0.18807899875E+02  0.14613676144E+02 -0.59799630872E+02  0.64368412133E+02  0.00000000000E+00 0.  1.
         21    1    1    2  502  501  0.13724414345E+02 -0.15282057220E+02  0.12634963604E+02  0.24115205312E+02  0.00000000000E+00 0. -1.
<scales pt_clust_5="13000.00000" pt_clust_6="13000.00000" pt_clust_7="13000.00000" pt_clust_8="13000.00000" pt_clust_9="20.54022"></scales>
<clustering>
<clus scale="   20.540">  1  9  2 -1</clus>
<clus scale="   67.778">  5  6 -1 -1</clus>
<clus scale="   81.631">  1  5  2 -1</clus>
<clus scale="   92.050">  7  8 -1 -1</clus>
<clus scale="  102.679">  2  5  1 -1</clus>
</clustering>
</event>
<event>
 9    1  0.1434065E-005  0.1091516E+03  0.7546771E-02  0.1263122E+00
         -1   -1    0    0    0  501 -0.00000000000E+00  0.00000000000E+00  0.86732101166E+02  0.86732101166E+02  0.00000000000E+00 0.  1.
          1   -1    0    0  502    0  0.00000000000E+00 -0.00000000000E+00 -0.36161087357E+03  0.36161087357E+03  0.00000000000E+00 0. -1.
         23    2    1    2    0    0 -0.33129898959E+02  0.21414939851E+02  0.24808387361E+02  0.10146899728E+03  0.90134962538E+02 0.  0.
         23    2    1    2    0    0  0.44571189616E+02 -0.41293468007E+02 -0.30399766573E+03  0.32353646526E+03  0.92571713498E+02 0.  0.
        -11    1    3    3    0    0 -0.75697528428E+01 -0.29475786320E+02 -0.13020591359E+02  0.33100739216E+02  0.00000000000E+00 0. -1.
         11    1    3    3    0    0 -0.25560146116E+02  0.50890726172E+02  0.37828978721E+02  0.68368258065E+02  0.00000000000E+00 0.  1.
        -13    1    4    4    0    0  0.37459706659E+02  0.96916887894E+01 -0.23096808009E+03  0.23418670431E+03  0.00000000000E+00 0. -1.
         13    1    4    4    0    0  0.71114829577E+01 -0.50985156797E+02 -0.73029585643E+02  0.89349760955E+02  0.00000000000E+00 0.  1.
         21    1    1    2  502  501 -0.11441290658E+02  0.19878528156E+02  0.43105059682E+01  0.23337512191E+02  0.00000000000E+00 0.  1.
<scales pt_clust_5="13000.00000" pt_clust_6="13000.00000" pt_clust_7="13000.00000" pt_clust_8="13000.00000" pt_clust_9="22.93598"></scales>
<clustering>
<clus scale="   22.936">  1  9  2 -1</clus>
<clus scale="   90.135">  5  6 -1 -1</clus>
<clus scale="   92.572">  7  8 -1 -1</clus>
<clus scale="  107.093">  1  5  2 -1</clus>
<clus scale="  109.152">  2  5  1 -1</clus>
</clustering>
</event>
<event>
 9    1  0.1434065E-005  0.9749116E+02  0.7546771E-02  0.1287481E+00
          2   -1    0    0  502    0  0.00000000000E+00  0.00000000000E+00  0.33403115700E+03  0.33403115700E+03  0.00000000000E+00 0. -1.
         -2   -1    0    0    0  501 -0.00000000000E+00 -0.00000000000E+00 -0.69639713493E+02  0.69639713493E+02  0.00000000000E+00 0.  1.
         23    2    1    2    0    0 -0.43063100052E+02  0.19486706480E+02  0.97028434644E+02  0.14465164141E+03  0.96308971123E+02 0.  0.
         23    2    1    2    0    0 -0.50056240525E+01  0.25022326574E+02  0.16777280691E+03  0.19350721342E+03  0.92984696633E+02 0.  0.
        -11    1    4    4    0    0  0.23954968174E+02  0.48566094102E+02  0.12789923687E+03  0.13889103927E+03  0.00000000000E+00 0. -1.
         11    1    4    4    0    0 -0.28960592227E+02 -0.23543767528E+02  0.39873570043E+02  0.54616174157E+02  0.00000000000E+00 0.  1.
        -13    1    3    3    0    0 -0.20636973370E+02 -0.20585769138E+02 -0.78270964091E+01  0.30181484375E+02  0.00000000000E+00 0.  1.
         13    1    3    3    0    0 -0.22426126682E+02  0.40072475618E+02  0.10485553105E+03  0.11447015704E+03  0.00000000000E+00 0. -1.
         21    1    1    2  502  501  0.48068724105E+02 -0.44509033054E+02 -0.40979805258E+00  0.65512015653E+02  0.00000000000E+00 0.  1.
<scales pt_clust_5="13000.00000" pt_clust_6="13000.00000" pt_clust_7="13000.00000" pt_clust_8="13000.00000" pt_clust_9="65.51073"></scales>
<clustering>
<clus scale="   65.511">  2  9  1 -1</clus>
<clus scale="   92.985">  5  6 -1 -1</clus>
<clus scale="   94.209">  1  5  2 -1</clus>
<clus scale="   96.309">  7  8 -1 -1</clus>
<clus scale="   94.209">  1  5  2 -1</clus>
</clustering>
</event>
<event>
 9    1  0.1434065E-005  0.1708540E+03  0.7546771E-02  0.1179511E+00
         -2   -1    0    0    0  501 -0.00000000000E+00  0.00000000000E+00  0.89460262929E+03  0.89460262929E+03  0.00000000000E+00 0.  1.
          2   -1    0    0  502    0  0.00000000000E+00 -0.00000000000E+00 -0.76197466970E+02  0.76197466970E+02  0.00000000000E+00 0. -1.
         23    2    1    2    0    0  0.14602777081E+03 -0.14522186302E+02  0.19056485206E+03  0.25586029356E+03  0.87261235598E+02 0.  0.
         23    2    1    2    0    0 -0.12000441668E+03 -0.70502322637E+02  0.15176027280E+03  0.23062731664E+03  0.10385634916E+03 0.  0.
        -11    1    3    3    0    0  0.11717572236E+03  0.45461891858E+01  0.18748876257E+03  0.22113989653E+03  0.00000000000E+00 0.  1.
         11    1    3    3    0    0  0.28852048450E+02 -0.19068375487E+02  0.30760894875E+01  0.34720397031E+02  0.00000000000E+00 0. -1.
        -11    1    4    4    0    0 -0.93571849763E+02 -0.14749231411E+02  0.39713766892E+02  0.10271520908E+03  0.00000000000E+00 0. -1.
         11    1    4    4    0    0 -0.26432566913E+02 -0.55753091226E+02  0.11204650591E+03  0.12791210756E+03  0.00000000000E+00 0.  1.
         21    1    1    2  502  501 -0.26023354138E+02  0.85024508939E+02  0.47608003747E+03  0.48431248607E+03  0.00000000000E+00 0.  1.
<scales pt_clust_5="13000.00000" pt_clust_6="13000.00000" pt_clust_7="13000.00000" pt_clust_8="13000.00000" pt_clust_9="88.91784"></scales>
<clustering>
<clus scale="   87.261">  5  6 -1 -1</clus>
<clus scale="   88.918">  1  9  2 -1</clus>
<clus scale="  103.856">  7  8 -1 -1</clus>
<clus scale="  161.306">  1  5  2 -1</clus>
<clus scale="  170.854">  2  5  1 -1</clus>
</clustering>
</event>
<event>
 9    1  0.1434065E-005  0.9354126E+02  0.7546771E-02  0.1294825E+00
          1   -1    0    0  502    0  0.00000000000E+00  0.00000000000E+00  0.19080220167E+03  0.19080220167E+03  0.00000000000E+00 0. -1.
         -1   -1    0    0    0  501 -0.00000000000E+00 -0.00000000000E+00 -0.70865837258E+02  0.70865837258E+02  0.00000000000E+00 0.  1.
         23    2    1    2    0    0  0.20392727591E+02  0.32793579379E+02  0.28867907945E+02  0.10304052197E+03  0.91064322715E+02 0.  0.
         23    2    1    2    0    0 -0.71748865409E+01 -0.49706896291E+01  0.88526823924E+02  0.12771984134E+03  0.91646999767E+02 0.  0.
        -11    1    3    3    0    0 -0.11343353848E+02  0.40586962213E+02  0.49022220726E+02  0.64646355684E+02  0.00000000000E+00 0. -1.
         11    1    3    3    0    0  0.31736081439E+02 -0.77933828348E+01 -0.20154312782E+02  0.38394166286E+02  0.00000000000E+00 0.  1.
        -13    1    4    4    0    0  0.29042501819E+02  0.29957327048E+02  0.38748062957E+02  0.56941379845E+02  0.00000000000E+00 0.  1.
         13    1    4    4    0    0 -0.36217388360E+02 -0.34928016677E+02  0.49778760966E+02  0.70778461497E+02  0.00000000000E+00 0. -1.
         21    1    1    2  502  501 -0.13217841050E+02 -0.27822889750E+02  0.25416325431E+01  0.30907675617E+02  0.00000000000E+00 0.  1.
<scales pt_clust_5="13000.00000" pt_clust_6="13000.00000" pt_clust_7="13000.00000" pt_clust_8="13000.00000" pt_clust_9="30.80300"></scales>
<clustering>
<clus scale="   30.803">  2  9  1 -1</clus>
<clus scale="   91.064">  5  6 -1 -1</clus>
<clus scale="   91.647">  7  8 -1 -1</clus>
<clus scale="   92.970">  2  5  1 -1</clus>
<clus scale="   93.541">  1  5  2 -1</clus>
</clustering>
</event>
<event>
 9    1  0.1434065E-005  0.2507314E+03  0.7546771E-02  0.1141193E+00
         -2   -1    0    0    0  501 -0.00000000000E+00  0.00000000000E+00  0.56304011517E+02  0.56304011517E+02  0.00000000000E+00 0.  1.
          2   -1    0    0  502    0  0.00000000000E+00 -0.00000000000E+00 -0.16886923283E+04  0.16886923283E+04  0.00000000000E+00 0. -1.
         23    2    1    2    0    0 -0.46152047056E+02  0.69422324945E+02 -0.30044761853E+03  0.32521934353E+03  0.92462853498E+02 0.  0.
         23    2    1    2    0    0 -0.19577849379E+03  0.31464856205E+02 -0.46783020423E+03  0.51678444050E+03  0.94243313564E+02 0.  0.
        -11    1    3    3    0    0 -0.70137671000E+02  0.58119375906E+02 -0.17822022180E+03  0.20014895005E+03  0.00000000000E+00 0.  1.
         11    1    3    3    0    0  0.23985623943E+02  0.11302949039E+02 -0.12222739673E+03  0.12507039347E+03  0.00000000000E+00 0. -1.
        -11    1    4    4    0    0 -0.17691123860E+03  0.56642241253E+02 -0.42326004687E+03  0.46222829545E+03  0.00000000000E+00 0.  1.
         11    1    4    4    0    0 -0.18867255196E+02 -0.25177385049E+02 -0.44570157358E+02  0.54556145057E+02  0.00000000000E+00 0. -1.
         21    1    1    2  502  501  0.24193054085E+03 -0.10088718115E+03 -0.86411049398E+03  0.90299255574E+03  0.00000000000E+00 0. -1.
<scales pt_clust_5="13000.00000" pt_clust_6="13000.00000" pt_clust_7="13000.00000" pt_clust_8="13000.00000" pt_clust_9="232.34553"></scales>
<clustering>
<clus scale="   92.463">  5  6 -1 -1</clus>
<clus scale="   94.243">  7  8 -1 -1</clus>
<clus scale="  124.494">  1  5  2 -1</clus>
<clus scale="  232.346">  2  9  1 -1</clus>
<clus scale="  232.346">  2  5  1 -1</clus>
</clustering>
</event>
<event>
 9    1  0.1434065E-005  0.1540602E+03  0.7546771E-02  0.1212338E+00
         -3   -1    0    0    0  501 -0.00000000000E+00  0.00000000000E+00  0.15534321318E+03  0.15534321318E+03  0.00000000000E+00 0.  1.
          3   -1    0    0  502    0  0.00000000000E+00 -0.00000000000E+00 -0.28110787690E+03  0.28110787690E+03  0.00000000000E+00 0. -1.
         23    2    1    2    0    0  0.11005174672E+02  0.53307714546E+02 -0.63349505085E+00  0.10729900016E+03  0.92465387142E+02 0.  0.
         23    2    1    2    0    0  0.10451329860E+03  0.45349827028E+02 -0.99903532890E+02  0.17515773358E+03  0.87862843989E+02 0.  0.
        -11    1    4    4    0    0  0.60058915871E+02  0.70646352501E+02 -0.64475505175E+02  0.11293835161E+03  0.00000000000E+00 0.  1.
         11    1    4    4    0    0  0.44454382732E+02 -0.25296525473E+02 -0.35428027715E+02  0.62219381972E+02  0.00000000000E+00 0. -1.
        -13    1    3    3    0    0 -0.26859048345E+02  0.54035279065E+02  0.20746697601E+02  0.63809445406E+02  0.00000000000E+00 0.  1.
         13    1    3    3    0    0  0.37864223016E+02 -0.72756451936E+00 -0.21380192651E+02  0.43489554752E+02  0.00000000000E+00 0. -1.
         21    1    1    2  502  501 -0.11551847327E+03 -0.98657541574E+02 -0.25227635780E+02  0.15399435634E+03  0.00000000000E+00 0. -1.
<scales pt_clust_5="13000.00000" pt_clust_6="13000.00000" pt_clust_7="13000.00000" pt_clust_8="13000.00000" pt_clust_9="126.54904"></scales>
<clustering>
<clus scale="   87.863">  5  6 -1 -1</clus>
<clus scale="   92.465">  7  8 -1 -1</clus>
<clus scale="  107.297">  1  7  2 -1</clus>
<clus scale="  126.549">  1  9  2 -1</clus>
<clus scale="  154.060">  2  5  1 -1</clus>
</clustering>
</event>
<event>
 9    1  0.1434065E-005  0.1007248E+03  0.7546771E-02  0.1278977E+00
          1   -1    0    0  502    0  0.00000000000E+00  0.00000000000E+00  0.21672564248E+03  0.21672564248E+03  0.00000000000E+00 0. -1.
         -1   -1    0    0    0  501 -0.00000000000E+00 -0.00000000000E+00 -0.73734205592E+02  0.73734205592E+02  0.00000000000E+00 0.  1.
         23    2    1    2    0    0  0.23400944217E+01  0.61572338939E+02  0.42534430240E+02  0.11840881433E+03  0.91732440235E+02 0.  0.
         23    2    1    2    0    0 -0.11049432876E+02 -0.16634643046E+02  0.73674028277E+02  0.11901729901E+03  0.91315134045E+02 0.  0.
        -11    1    3    3    0    0  0.23219220209E+02  0.69740492245E+02  0.55865754198E+02  0.92324703833E+02  0.00000000000E+00 0. -1.
         11    1    3    3    0    0 -0.20879125787E+02 -0.81681533061E+01 -0.13331323958E+02  0.26084110500E+02  0.00000000000E+00 0.  1.
        -11    1    4    4    0    0 -0.65714314403E+01  0.37927037381E+02  0.34609905083E+02  0.51763784691E+02  0.00000000000E+00 0.  1.
         11    1    4    4    0    0 -0.44780014355E+01 -0.54561680426E+02  0.39064123194E+02  0.67253514322E+02  0.00000000000E+00 0. -1.
         21    1    1    2  502  501  0.87093384541E+01 -0.44937695894E+02  0.26782978369E+02  0.53033734725E+02  0.00000000000E+00 0.  1.
<scales pt_clust_5="13000.00000" pt_clust_6="13000.00000" pt_clust_7="13000.00000" pt_clust_8="13000.00000" pt_clust_9="45.77389"></scales>
<clustering>
<clus scale="   45.774">  1  9  2 -1</clus>
<clus scale="   91.315">  7  8 -1 -1</clus>
<clus scale="   91.732">  5  6 -1 -1</clus>
<clus scale="  100.345">  1  7  2 -1</clus>
<clus scale="   45.774">  1  5  2 -1</clus>
</clustering>
</event>
<event>
 9    1  0.1434065E-005  0.1124975E+03  0.7546771E-02  0.1256198E+00
         -1   -1    0    0    0  501 -0.00000000000E+00  0.00000000000E+00  0.64858791832E+02  0.64858791832E+02  0.00000000000E+00 0.  1.
          1   -1    0    0  502    0  0.00000000000E+00 -0.00000000000E+00 -0.42685813339E+03  0.42685813339E+03  0.00000000000E+00 0. -1.
         23    2    1    2    0    0 -0.14036509666E+01  0.32782270878E+02 -0.51960373068E+02  0.10938709686E+03  0.90493143780E+02 0.  0.
         23    2    1    2    0    0  0.24760668258E+02 -0.75809894576E+02 -0.31063311900E+03  0.33336780560E+03  0.90999606520E+02 0.  0.
        -13    1    3    3    0    0  0.34576535383E+02 -0.12326145016E+02 -0.10008886903E+02  0.38047975861E+02  0.00000000000E+00 0.  1.
         13    1    3    3    0    0 -0.35980186350E+02  0.45108415894E+02 -0.41951486165E+02  0.71339121004E+02  0.00000000000E+00 0. -1.
        -13    1    4    4    0    0 -0.32449099979E+02 -0.11294509193E+02 -0.10142038379E+03  0.10708223137E+03  0.00000000000E+00 0.  1.
         13    1    4    4    0    0  0.57209768237E+02 -0.64515385383E+02 -0.20921273521E+03  0.22628557423E+03  0.00000000000E+00 0. -1.
         21    1    1    2  502  501 -0.23357017292E+02  0.43027623698E+02  0.59415050127E+00  0.48962022759E+02  0.00000000000E+00 0.  1.
<scales pt_clust_5="13000.00000" pt_clust_6="13000.00000" pt_clust_7="13000.00000" pt_clust_8="13000.00000" pt_clust_9="48.95842"></scales>
<clustering>
<clus scale="   48.958">  1  9  2 -1</clus>
<clus scale="   90.493">  5  6 -1 -1</clus>
<clus scale="   91.000">  7  8 -1 -1</clus>
<clus scale="  112.088">  1  5  2 -1</clus>
<clus scale="  112.497">  2  5  1 -1</clus>
</clustering>
</event>
<event>
 9    1  0.1434065E-005  0.9964690E+02  0.7546771E-02  0.1281855E+00
         -2   -1    0    0    0  501 -0.00000000000E+00  0.00000000000E+00  0.14231596985E+03  0.14231596985E+03  0.00000000000E+00 0.  1.
          2   -1    0    0  502    0  0.00000000000E+00 -0.00000000000E+00 -0.23914136787E+03  0.23914136787E+03  0.00000000000E+00 0. -1.
         23    2    1    2    0    0 -0.39473344963E+00  0.12549169222E+02  0.98393370082E+02  0.13455458205E+03  0.90917780508E+02 0.  0.
         23    2    1    2    0    0 -0.15307925673E+02 -0.41095427227E+02 -0.18924920109E+03  0.21378028474E+03  0.89238911374E+02 0.  0.
        -11    1    3    3    0    0 -0.36298182229E+01 -0.37458385316E+02  0.23257102547E+02  0.44240242197E+02  0.00000000000E+00 0. -1.
         11    1    3    3    0    0  0.32350847732E+01  0.50007554538E+02  0.75136267535E+02  0.90314339855E+02  0.00000000000E+00 0.  1.
        -13    1    4    4    0    0  0.14763107808E+02 -0.46449083821E+02 -0.17185111527E+03  0.17862886822E+03  0.00000000000E+00 0. -1.
         13    1    4    4    0    0 -0.30071033481E+02  0.53536565934E+01 -0.17398085818E+02  0.35151416525E+02  0.00000000000E+00 0.  1.
         21    1    1    2  502  501  0.15702659122E+02  0.28546258005E+02 -0.59695670112E+01  0.33122470921E+02  0.00000000000E+00 0.  1.
<scales pt_clust_5="13000.00000" pt_clust_6="13000.00000" pt_clust_7="13000.00000" pt_clust_8="13000.00000" pt_clust_9="32.58009"></scales>
<clustering>
<clus scale="   32.580">  1  9  2 -1</clus>
<clus scale="   89.239">  7  8 -1 -1</clus>
<clus scale="   90.918">  5  6 -1 -1</clus>
<clus scale="   98.118">  2  7  1 -1</clus>
<clus scale="   98.118">  2  5  1 -1</clus>
</clustering>
</event>
<event>
 9    1  0.1434065E-005  0.1103950E+03  0.7546771E-02  0.1261343E+00
          1   -1    0    0  502    0  0.00000000000E+00  0.00000000000E+00  0.34597195544E+03  0.34597195544E+03  0.00000000000E+00 0. -1.
         -1   -1    0    0    0  501 -0.00000000000E+00 -0.00000000000E+00 -0.15391895426E+03  0.15391895426E+03  0.00000000000E+00 0.  1.
         23    2    1    2    0    0  0.55822324787E+02  0.15345055954E+02 -0.10398765245E+03  0.15159811954E+03  0.93898643750E+02 0.  0.
         23    2    1    2    0    0 -0.57937699320E+02  0.69363675708E+01  0.30563724106E+03  0.32394055958E+03  0.90102568338E+02 0.  0.
        -11    1    4    4    0    0 -0.49414772824E+02 -0.34252551747E+02  0.22620441686E+03  0.23405874322E+03  0.00000000000E+00 0. -1.
         11    1    4    4    0    0 -0.85229264961E+01  0.41188919317E+02  0.79432824207E+02  0.89881816360E+02  0.00000000000E+00 0.  1.
        -13    1    3    3    0    0  0.10018642985E+02  0.41118679903E+02 -0.93442927852E+01  0.43340914295E+02  0.00000000000E+00 0. -1.
         13    1    3    3    0    0  0.45803681801E+02 -0.25773623950E+02 -0.94643359664E+02  0.10825720524E+03  0.00000000000E+00 0.  1.
         21    1    1    2  502  501  0.21153745335E+01 -0.22281423524E+02 -0.95965874417E+01  0.24352230580E+02  0.00000000000E+00 0.  1.
<scales pt_clust_5="13000.00000" pt_clust_6="13000.00000" pt_clust_7="13000.00000" pt_clust_8="13000.00000" pt_clust_9="22.38161"></scales>
<clustering>
<clus scale="   22.382">  2  9  1 -1</clus>
<clus scale="   90.103">  5  6 -1 -1</clus>
<clus scale="   93.899">  7  8 -1 -1</clus>
<clus scale="  107.185">  1  5  2 -1</clus>
<clus scale="  107.185">  1  5  2 -1</clus>
</clustering>
</event>
<event>
 9    1  0.1434065E-005  0.1162886E+03  0.7546771E-02  0.1252944E+00
         -1   -1    0    0    0  501 -0.00000000000E+00  0.00000000000E+00  0.56354232765E+02  0.56354232765E+02  0.00000000000E+00 0.  1.
          1   -1    0    0  502    0  0.00000000000E+00 -0.00000000000E+00 -0.50115675949E+03  0.50115675949E+03  0.00000000000E+00 0. -1.
         23    2    1    2    0    0  0.42004911613E+02  0.15476527156E+01 -0.33703168939E+02  0.10599766694E+03  0.91284138668E+02 0.  0.
         23    2    1    2    0    0 -0.64263777820E+02 -0.49496987967E+02 -0.36086237517E+03  0.37858630496E+03  0.80784599572E+02 0.  0.
        -11    1    3    3    0    0  0.87388964607E+01  0.44402733160E+02 -0.22753067363E+02  0.50652473759E+02  0.00000000000E+00 0. -1.
         11    1    3    3    0    0  0.33266015153E+02 -0.42855080445E+02 -0.10950101575E+02  0.55345193184E+02  0.00000000000E+00 0.  1.
        -11    1    4    4    0    0 -0.56405649861E+02 -0.18635410813E+02 -0.32599906251E+03  0.33136726548E+03  0.00000000000E+00 0.  1.
         11    1    4    4    0    0 -0.78581279589E+01 -0.30861577154E+02 -0.34863312659E+02  0.47219039476E+02  0.00000000000E+00 0. -1.
         21    1    1    2  502  501  0.22258866207E+02  0.47949335252E+02 -0.50236982614E+02  0.72927020356E+02  0.00000000000E+00 0. -1.
<scales pt_clust_5="13000.00000" pt_clust_6="13000.00000" pt_clust_7="13000.00000" pt_clust_8="13000.00000" pt_clust_9="52.86394"></scales>
<clustering>
<clus scale="   52.864">  1  9  2 -1</clus>
<clus scale="   80.785">  7  8 -1 -1</clus>
<clus scale="   91.284">  5  6 -1 -1</clus>
<clus scale="  108.242">  2  7  1 -1</clus>
<clus scale="  108.242">  2  5  1 -1</clus>
</clustering>
</event>
<event>
 9    1  0.1434065E-005  0.3098215E+03  0.7546771E-02  0.1080641E+00
          2   -1    0    0  502    0  0.00000000000E+00  0.00000000000E+00  0.56584733152E+03  0.56584733152E+03  0.00000000000E+00 0. -1.
         -2   -1    0    0    0  501 -0.00000000000E+00 -0.00000000000E+00 -0.61355127528E+03  0.61355127528E+03  0.00000000000E+00 0.  1.
         23    2    1    2    0    0 -0.33487446280E+03 -0.34133119219E+02 -0.46657093296E+03  0.58250431849E+03  0.91196874481E+02 0.  0.
         23    2    1    2    0    0  0.28809222595E+03  0.50784857771E+02  0.44614119304E+03  0.54023971853E+03  0.85092637282E+02 0.  0.
        -13    1    4    4    0    0  0.13783214628E+03 -0.14085514506E+02  0.23885703216E+03  0.27613182373E+03  0.00000000000E+00 0.  1.
         13    1    4    4    0    0  0.15026007967E+03  0.64870372276E+02  0.20728416088E+03  0.26410789480E+03  0.00000000000E+00 0. -1.
        -13    1    3    3    0    0 -0.21979286021E+03 -0.45665020876E+02 -0.24321666428E+03  0.33098117970E+03  0.00000000000E+00 0.  1.
         13    1    3    3    0    0 -0.11508160258E+03  0.11531901657E+02 -0.22335426868E+03  0.25152313879E+03  0.00000000000E+00 0. -1.
         21    1    1    2  502  501  0.46782236852E+02 -0.16651738552E+02 -0.27274203844E+02  0.56654569780E+02  0.00000000000E+00 0.  1.
<scales pt_clust_5="13000.00000" pt_clust_6="13000.00000" pt_clust_7="13000.00000" pt_clust_8="13000.00000" pt_clust_9="49.65741"></scales>
<clustering>
<clus scale="   49.657">  2  9  1 -1</clus>
<clus scale="   85.093">  5  6 -1 -1</clus>
<clus scale="   91.197">  7  8 -1 -1</clus>
<clus scale="  308.080">  1  5  2 -1</clus>
<clus scale="  308.080">  1  5  2 -1</clus>
</clustering>
</event>
<event>
 9    1  0.1434065E-005  0.1199207E+03  0.7546771E-02  0.1243620E+00
          2   -1    0    0  502    0  0.00000000000E+00  0.00000000000E+00  0.51044737552E+03  0.51044737552E+03  0.00000000000E+00 0. -1.
         -2   -1    0    0    0  501 -0.00000000000E+00 -0.00000000000E+00 -0.93461390397E+02  0.93461390397E+02  0.00000000000E+00 0.  1.
         23    2    1    2    0    0  0.21271187150E+02  0.93338735593E+02  0.10020934308E+03  0.16632029370E+03  0.91956210720E+02 0.  0.
         23    2    1    2    0    0 -0.88530293245E+02 -0.46267831752E+01  0.29816094429E+03  0.32471623445E+03  0.93175448881E+02 0.  0.
        -11    1    4    4    0    0 -0.41098000874E+02  0.36066435843E+02  0.74022722957E+02  0.92028240145E+02  0.00000000000E+00 0.  1.
         11    1    4    4    0    0 -0.47432292371E+02 -0.40693219018E+02  0.22413822133E+03  0.23268799431E+03  0.00000000000E+00 0. -1.
        -13    1    3    3    0    0  0.29261579932E+02  0.13982154387E+02 -0.65224512175E+01  0.33079949688E+02  0.00000000000E+00 0.  1.
         13    1    3    3    0    0 -0.79903927825E+01  0.79356581206E+02  0.10673179430E+03  0.13324034401E+03  0.00000000000E+00 0. -1.
         21    1    1    2  502  501  0.67259106095E+02 -0.88711952418E+02  0.18615697747E+02  0.11287223776E+03  0.00000000000E+00 0.  1.
<scales pt_clust_5="13000.00000" pt_clust_6="13000.00000" pt_clust_7="13000.00000" pt_clust_8="13000.00000" pt_clust_9="111.32654"></scales>
<clustering>
<clus scale="   91.956">  7  8 -1 -1</clus>
<clus scale="   93.175">  5  6 -1 -1</clus>
<clus scale="  111.327">  2  9  1 -1</clus>
<clus scale="  118.976">  2  7  1 -1</clus>
<clus scale="  119.921">  1  5  2 -1</clus>
</clustering>
</event>
<event>
 9    1  0.1434065E-005  0.9176806E+02  0.7546771E-02  0.1299555E+00
          1   -1    0    0  502    0  0.00000000000E+00  0.00000000000E+00  0.34916736928E+03  0.34916736928E+03  0.00000000000E+00 0. -1.
         -1   -1    0    0    0  501 -0.00000000000E+00 -0.00000000000E+00 -0.80615121479E+02  0.80615121479E+02  0.00000000000E+00 0.  1.
         23    2    1    2    0    0  0.17543001582E+01  0.76018598686E+01  0.34592102626E+02  0.97800129835E+02  0.91144862659E+02 0.  0.
         23    2    1    2    0    0 -0.79145799711E+01  0.11952317254E+02  0.27311457455E+03  0.28778525434E+03  0.89572782244E+02 0.  0.
        -11    1    4    4    0    0  0.10150387530E+02 -0.32975880722E+02  0.59765901887E+02  0.69010159432E+02  0.00000000000E+00 0.  1.
         11    1    4    4    0    0 -0.18064967501E+02  0.44928197977E+02  0.21334867266E+03  0.21877509491E+03  0.00000000000E+00 0. -1.
        -13    1    3    3    0    0  0.12174361858E+02  0.33082395943E+02  0.53737716961E+02  0.64268205453E+02  0.00000000000E+00 0. -1.
         13    1    3    3    0    0 -0.10420061699E+02 -0.25480536075E+02 -0.19145614335E+02  0.33531924382E+02  0.00000000000E+00 0.  1.
         21    1    1    2  502  501  0.61602798129E+01 -0.19554177123E+02 -0.39154429379E+02  0.44197106583E+02  0.00000000000E+00 0.  1.
<scales pt_clust_5="13000.00000" pt_clust_6="13000.00000" pt_clust_7="13000.00000" pt_clust_8="13000.00000" pt_clust_9="20.50158"></scales>
<clustering>
<clus scale="   20.502">  2  9  1 -1</clus>
<clus scale="   89.573">  5  6 -1 -1</clus>
<clus scale="   90.207">  1  5  2 -1</clus>
<clus scale="   91.145">  7  8 -1 -1</clus>
<clus scale="   90.207">  1  5  2 -1</clus>
</clustering>
</event>
<event>
 9    1  0.1434065E-005  0.1842079E+03  0.7546771E-02  0.1167608E+00
         -2   -1    0    0    0  501 -0.00000000000E+00  0.00000000000E+00  0.73611996257E+02  0.73611996257E+02  0.00000000000E+00 0.  1.
          2   -1    0    0  502    0  0.00000000000E+00 -0.00000000000E+00 -0.53444408143E+03  0.53444408143E+03  0.00000000000E+00 0. -1.
         23    2    1    2    0    0  0.12396985578E+03 -0.20671355515E+02 -0.14708830419E+03  0.21549348147E+03  0.94903325788E+02 0.  0.
         23    2    1    2    0    0 -0.14573734359E+03  0.39379583285E+02 -0.30767099097E+03  0.36322490561E+03  0.12033606474E+03 0.  0.
        -11    1    4    4    0    0 -0.94505228282E+02  0.70406026569E+00 -0.27582777776E+03  0.29156936886E+03  0.00000000000E+00 0. -1.
         11    1    4    4    0    0 -0.51232115304E+02  0.38675523019E+02 -0.31843213208E+02  0.71655536749E+02  0.00000000000E+00 0.  1.
        -11    1    3    3    0    0  0.10650718368E+03  0.13949606502E+02 -0.67235710922E+02  0.12672415918E+03  0.00000000000E+00 0.  1.
         11    1    3    3    0    0  0.17462672099E+02 -0.34620962017E+02 -0.79852593269E+02  0.88769322288E+02  0.00000000000E+00 0. -1.
         21    1    1    2  502  501  0.21767487805E+02 -0.18708227770E+02 -0.60727900162E+01  0.29337690608E+02  0.00000000000E+00 0.  1.
<scales pt_clust_5="13000.00000" pt_clust_6="13000.00000" pt_clust_7="13000.00000" pt_clust_8="13000.00000" pt_clust_9="28.70229"></scales>
<clustering>
<clus scale="   28.702">  1  9  2 -1</clus>
<clus scale="   94.903">  7  8 -1 -1</clus>
<clus scale="  120.336">  5  6 -1 -1</clus>
<clus scale="  168.696">  1  7  2 -1</clus>
<clus scale="  184.208">  2  5  1 -1</clus>
</clustering>
</event>
<event>
 9    1  0.1434065E-005  0.2136940E+03  0.7546771E-02  0.1139279E+00
          4   -1    0    0  502    0  0.00000000000E+00  0.00000000000E+00  0.23358892455E+03  0.23358892455E+03  0.00000000000E+00 0. -1.
         -4   -1    0    0    0  501 -0.00000000000E+00 -0.00000000000E+00 -0.33856118636E+03  0.33856118636E+03  0.00000000000E+00 0.  1.
         23    2    1    2    0    0  0.13830133006E+03  0.12014459289E+03 -0.20508537198E+03  0.29063354890E+03  0.94052479222E+02 0.  0.
         23    2    1    2    0    0 -0.15592425354E+03 -0.14090927836E+03  0.10153477985E+03  0.25424458483E+03  0.10081269675E+03 0.  0.
        -11    1    3    3    0    0  0.88744239686E+02  0.11839517182E+03 -0.11348434229E+03  0.18647158693E+03  0.00000000000E+00 0.  1.
         11    1    3    3    0    0  0.49557090378E+02  0.17494210698E+01 -0.91601029693E+02  0.10416196197E+03  0.00000000000E+00 0. -1.
        -13    1    4    4    0    0 -0.87172038633E+02 -0.33007718967E+02  0.83297039011E+02  0.12500748193E+03  0.00000000000E+00 0. -1.
         13    1    4    4    0    0 -0.68752214903E+02 -0.10790155940E+03  0.18237740839E+02  0.12923710290E+03  0.00000000000E+00 0.  1.
         21    1    1    2  502  501  0.17622923471E+02  0.20764685477E+02 -0.14216696821E+01  0.27271977180E+02  0.00000000000E+00 0.  1.
<scales pt_clust_5="13000.00000" pt_clust_6="13000.00000" pt_clust_7="13000.00000" pt_clust_8="13000.00000" pt_clust_9="27.23490"></scales>
<clustering>
<clus scale="   27.235">  1  9  2 -1</clus>
<clus scale="   94.052">  5  6 -1 -1</clus>
<clus scale="  100.813">  7  8 -1 -1</clus>
<clus scale="  210.589">  2  5  1 -1</clus>
<clus scale="   27.235">  1  5  2 -1</clus>
</clustering>
</event>
<event>
 9    1  0.1434065E-005  0.1151813E+03  0.7546771E-02  0.1251642E+00
          1   -1    0    0  502    0  0.00000000000E+00  0.00000000000E+00  0.21067749930E+03  0.21067749930E+03  0.00000000000E+00 0. -1.
         -1   -1    0    0    0  501 -0.00000000000E+00 -0.00000000000E+00 -0.19454066028E+03  0.19454066028E+03  0.00000000000E+00 0.  1.
         23    2    1    2    0    0 -0.73038498890E+02  0.36296227015E+02  0.57197390802E+02  0.13424779749E+03  0.89993839791E+02 0.  0.
         23    2    1    2    0    0  0.63570544398E+02 -0.89749140499E+01  0.85935659884E+02  0.14072392613E+03  0.91085248793E+02 0.  0.
        -13    1    4    4    0    0  0.82044441147E+02  0.11591626659E+02  0.56187859740E+02  0.10011359405E+03  0.00000000000E+00 0.  1.
         13    1    4    4    0    0 -0.18473896749E+02 -0.20566540709E+02  0.29747800145E+02  0.40610332075E+02  0.00000000000E+00 0. -1.
        -13    1    3    3    0    0 -0.13703859355E+02 -0.26016091648E+02 -0.25193237199E+01  0.29512366525E+02  0.00000000000E+00 0.  1.
         13    1    3    3    0    0 -0.59334639534E+02  0.62312318663E+02  0.59716714522E+02  0.10473543096E+03  0.00000000000E+00 0. -1.
         21    1    1    2  502  501  0.94679544917E+01 -0.27321312965E+02 -0.12699621167E+03  0.13024643597E+03  0.00000000000E+00 0.  1.
<scales pt_clust_5="13000.00000" pt_clust_6="13000.00000" pt_clust_7="13000.00000" pt_clust_8="13000.00000" pt_clust_9="28.91533"></scales>
<clustering>
<clus scale="   28.915">  2  9  1 -1</clus>
<clus scale="   89.994">  7  8 -1 -1</clus>
<clus scale="   91.085">  5  6 -1 -1</clus>
<clus scale="  114.320">  2  7  1 -1</clus>
<clus scale="  115.181">  1  5  2 -1</clus>
</clustering>
</event>
<event>
 9    1  0.1434065E-005  0.1687185E+03  0.7546771E-02  0.1179670E+00
          1   -1    0    0  502    0  0.00000000000E+00  0.00000000000E+00  0.52749556279E+03  0.52749556279E+03  0.00000000000E+00 0. -1.
         -1   -1    0    0    0  501 -0.00000000000E+00 -0.00000000000E+00 -0.10550676022E+03  0.10550676022E+03  0.00000000000E+00 0.  1.
         23    2    1    2    0    0  0.68735120988E+02  0.12137577205E+03  0.83595953658E+02  0.18581356009E+03  0.89898836192E+02 0.  0.
         23    2    1    2    0    0 -0.99415241661E+02 -0.10182808900E+03  0.36461178240E+03  0.40234666004E+03  0.93213373484E+02 0.  0.
        -11    1    4    4    0    0 -0.94988944750E+01 -0.74707247055E+02  0.18294960693E+03  0.19784327240E+03  0.00000000000E+00 0. -1.
         11    1    4    4    0    0 -0.89916347186E+02 -0.27120841950E+02  0.18166217547E+03  0.20450338764E+03  0.00000000000E+00 0.  1.
        -13    1    3    3    0    0  0.57732855555E+02  0.10199085003E+03  0.10317809534E+03  0.15614395748E+03  0.00000000000E+00 0.  1.
         13    1    3    3    0    0  0.11002265433E+02  0.19384922020E+02 -0.19582141680E+02  0.29669602612E+02  0.00000000000E+00 0. -1.
         21    1    1    2  502  501  0.30680120674E+02 -0.19547683045E+02 -0.26218933487E+02  0.44842102874E+02  0.00000000000E+00 0. -1.
<scales pt_clust_5="13000.00000" pt_clust_6="13000.00000" pt_clust_7="13000.00000" pt_clust_8="13000.00000" pt_clust_9="36.37831"></scales>
<clustering>
<clus scale="   36.378">  2  9  1 -1</clus>
<clus scale="   89.899">  7  8 -1 -1</clus>
<clus scale="   93.213">  5  6 -1 -1</clus>
<clus scale="  166.910">  2  7  1 -1</clus>
<clus scale="  168.718">  1  5  2 -1</clus>
</clustering>
</event>
<event>
 9    1  0.1434065E-005  0.1146319E+03  0.7546771E-02  0.1257086E+00
          1   -1    0    0  502    0  0.00000000000E+00  0.00000000000E+00  0.10005211682E+03  0.10005211682E+03  0.00000000000E+00 0. -1.
         -1   -1    0    0    0  501 -0.00000000000E+00 -0.00000000000E+00 -0.26147414554E+03  0.26147414554E+03  0.00000000000E+00 0.  1.
         23    2    1    2    0    0  0.69145293826E+02  0.58557997252E+01 -0.16206795372E+03  0.20445947056E+03  0.10354849797E+03 0.  0.
         23    2    1    2    0    0 -0.42615576126E+02  0.18226034962E+02  0.33842435025E+02  0.10822245782E+03  0.91752462037E+02 0.  0.
        -11    1    3    3    0    0  0.82370263624E+02  0.36653724932E+02 -0.10619695071E+03  0.13930595185E+03  0.00000000000E+00 0.  1.
         11    1    3    3    0    0 -0.13224969799E+02 -0.30797925207E+02 -0.55871003009E+02  0.65153518711E+02  0.00000000000E+00 0. -1.
        -11    1    4    4    0    0  0.14140917918E+02  0.21672698618E+02 -0.17801160944E+02  0.31409437370E+02  0.00000000000E+00 0.  1.
         11    1    4    4    0    0 -0.56756494043E+02 -0.34466636555E+01  0.51643595970E+02  0.76813020453E+02  0.00000000000E+00 0. -1.
         21    1    1    2  502  501 -0.26529717700E+02 -0.24081834687E+02 -0.33196510028E+02  0.48844333972E+02  0.00000000000E+00 0.  1.
<scales pt_clust_5="13000.00000" pt_clust_6="13000.00000" pt_clust_7="13000.00000" pt_clust_8="13000.00000" pt_clust_9="35.82961"></scales>
<clustering>
<clus scale="   35.830">  2  9  1 -1</clus>
<clus scale="   91.752">  7  8 -1 -1</clus>
<clus scale="  103.548">  5  6 -1 -1</clus>
<clus scale="  104.099">  1  7  2 -1</clus>
<clus scale="  104.099">  1  5  2 -1</clus>
</clustering>
</event>
<event>
 9    1  0.1434065E-005  0.1160797E+03  0.7546771E-02  0.1251593E+00
          2   -1    0    0  502    0  0.00000000000E+00  0.00000000000E+00  0.10505554222E+04  0.10505554222E+04  0.00000000000E+00 0. -1.
         -2   -1    0    0    0  501 -0.00000000000E+00 -0.00000000000E+00 -0.16902572394E+02  0.16902572394E+02  0.00000000000E+00 0.  1.
         23    2    1    2    0    0  0.63882775749E+02  0.16014842908E+02  0.45561028004E+03  0.47040782239E+03  0.96774520731E+02 0.  0.
         23    2    1    2    0    0 -0.64102370945E+02  0.60316452900E+01  0.55050400309E+03  0.56177314683E+03  0.91591027811E+02 0.  0.
        -13    1    4    4    0    0 -0.87134193575E+02 -0.15270238209E+01  0.40572611458E+03  0.41497997487E+03  0.00000000000E+00 0.  1.
         13    1    4    4    0    0  0.23031822630E+02  0.75586691108E+01  0.14477788851E+03  0.14679317196E+03  0.00000000000E+00 0. -1.
        -13    1    3    3    0    0  0.72099249402E+02  0.46155509581E+02  0.32091638543E+03  0.33213846399E+03  0.00000000000E+00 0. -1.
         13    1    3    3    0    0 -0.82164736530E+01 -0.30140666674E+02  0.13469389461E+03  0.13826935840E+03  0.00000000000E+00 0.  1.
         21    1    1    2  502  501  0.21959519620E+00 -0.22046488198E+02  0.27538566653E+02  0.35277025345E+02  0.00000000000E+00 0.  1.
<scales pt_clust_5="13000.00000" pt_clust_6="13000.00000" pt_clust_7="13000.00000" pt_clust_8="13000.00000" pt_clust_9="22.04758"></scales>
<clustering>
<clus scale="   22.048">  2  9  1 -1</clus>
<clus scale="   91.591">  5  6 -1 -1</clus>
<clus scale="   96.775">  7  8 -1 -1</clus>
<clus scale="  111.795">  1  5  2 -1</clus>
<clus scale="  111.795">  1  5  2 -1</clus>
</clustering>
</event>
<event>
 9    1  0.1434065E-005  0.1011266E+03  0.7546771E-02  0.1278035E+00
         -1   -1    0    0    0  501 -0.00000000000E+00  0.00000000000E+00  0.35258976325E+02  0.35258976325E+02  0.00000000000E+00 0.  1.
          1   -1    0    0  502    0  0.00000000000E+00 -0.00000000000E+00 -0.56921465108E+03  0.56921465108E+03  0.00000000000E+00 0. -1.
         23    2    1    2    0    0 -0.17682269524E+02  0.62536823759E+02 -0.26259852893E+03  0.28524537821E+03  0.90462265121E+02 0.  0.
         23    2    1    2    0    0 -0.10308968308E+02 -0.31077651012E+02 -0.25741726681E+03  0.27487163558E+03  0.90656889281E+02 0.  0.
        -11    1    3    3    0    0  0.34848951325E+02  0.20856076594E+02 -0.13664897287E+03  0.14255654010E+03  0.00000000000E+00 0.  1.
         11    1    3    3    0    0 -0.52531220849E+02  0.41680747164E+02 -0.12594955606E+03  0.14268883810E+03  0.00000000000E+00 0. -1.
        -11    1    4    4    0    0 -0.24466338567E+01  0.30327191540E+02 -0.12573064027E+03  0.12935964775E+03  0.00000000000E+00 0. -1.
         11    1    4    4    0    0 -0.78623344517E+01 -0.61404842552E+02 -0.13168662654E+03  0.14551198783E+03  0.00000000000E+00 0.  1.
         21    1    1    2  502  501  0.27991237832E+02 -0.31459172747E+02 -0.13939879023E+02  0.44356613628E+02  0.00000000000E+00 0.  1.
<scales pt_clust_5="13000.00000" pt_clust_6="13000.00000" pt_clust_7="13000.00000" pt_clust_8="13000.00000" pt_clust_9="42.10925"></scales>
<clustering>
<clus scale="   42.109">  1  9  2 -1</clus>
<clus scale="   90.462">  5  6 -1 -1</clus>
<clus scale="   90.657">  7  8 -1 -1</clus>
<clus scale="  100.952">  1  5  2 -1</clus>
<clus scale="  101.127">  2  5  1 -1</clus>
</clustering>
</event>
<event>
 9    1  0.1434065E-005  0.9467125E+02  0.7546771E-02  0.1292729E+00
         -1   -1    0    0    0  501 -0.00000000000E+00  0.00000000000E+00  0.22126981557E+03  0.22126981557E+03  0.00000000000E+00 0.  1.
          1   -1    0    0  502    0  0.00000000000E+00 -0.00000000000E+00 -0.11362638151E+03  0.11362638151E+03  0.00000000000E+00 0. -1.
         23    2    1    2    0    0  0.65099991194E+01 -0.60430599702E+01  0.71233602700E+02  0.11594711081E+03  0.91052774195E+02 0.  0.
         23    2    1    2    0    0 -0.26673699713E+01 -0.27069932916E+02 -0.62275296798E+02  0.11478579804E+03  0.92507679196E+02 0.  0.
        -11    1    4    4    0    0 -0.28292934522E+02 -0.92767697747E+01  0.13609938687E+02  0.32738036477E+02  0.00000000000E+00 0.  1.
         11    1    4    4    0    0  0.25625564551E+02 -0.17793163141E+02 -0.75885235485E+02  0.82047761564E+02  0.00000000000E+00 0. -1.
        -11    1    3    3    0    0 -0.38090291453E+02  0.10151668839E+02  0.50760089256E+02  0.64269069889E+02  0.00000000000E+00 0.  1.
         11    1    3    3    0    0  0.44600290573E+02 -0.16194728809E+02  0.20473513445E+02  0.51678040918E+02  0.00000000000E+00 0. -1.
         21    1    1    2  502  501 -0.38426291481E+01  0.33112992886E+02  0.98685128153E+02  0.10416328823E+03  0.00000000000E+00 0.  1.
<scales pt_clust_5="13000.00000" pt_clust_6="13000.00000" pt_clust_7="13000.00000" pt_clust_8="13000.00000" pt_clust_9="33.33521"></scales>
<clustering>
<clus scale="   33.335">  1  9  2 -1</clus>
<clus scale="   91.053">  7  8 -1 -1</clus>
<clus scale="   92.508">  5  6 -1 -1</clus>
<clus scale="   93.250">  1  7  2 -1</clus>
<clus scale="   94.671">  2  5  1 -1</clus>
</clustering>
</event>
<event>
 9    1  0.1434065E-005  0.1480293E+03  0.7546771E-02  0.1206613E+00
         -4   -1    0    0    0  501 -0.00000000000E+00  0.00000000000E+00  0.17329352133E+03  0.17329352133E+03  0.00000000000E+00 0.  1.
          4   -1    0    0  502    0  0.00000000000E+00 -0.00000000000E+00 -0.14117055277E+03  0.14117055277E+03  0.00000000000E+00 0. -1.
         23    2    1    2    0    0 -0.12580489132E+03 -0.19557020814E+02  0.12033311171E+02  0.14740698546E+03  0.73312147977E+02 0.  0.
         23    2    1    2    0    0  0.10410289359E+03  0.55529244008E+01  0.12273313277E+02  0.14007215475E+03  0.92743338805E+02 0.  0.
        -11    1    4    4    0    0  0.14838838800E+01 -0.20782628017E+02  0.25915986646E+02  0.33252938253E+02  0.00000000000E+00 0. -1.
         11    1    4    4    0    0  0.10261900971E+03  0.26335552418E+02 -0.13642673368E+02  0.10681921649E+03  0.00000000000E+00 0.  1.
        -13    1    3    3    0    0 -0.30609929837E+02  0.26756146576E+02  0.82028144848E+01  0.41474635015E+02  0.00000000000E+00 0.  1.
         13    1    3    3    0    0 -0.95194961486E+02 -0.46313167390E+02  0.38304966864E+01  0.10593235045E+03  0.00000000000E+00 0. -1.
         21    1    1    2  502  501  0.21701997731E+02  0.14004096413E+02  0.78163441083E+01  0.26984933891E+02  0.00000000000E+00 0.  1.
<scales pt_clust_5="13000.00000" pt_clust_6="13000.00000" pt_clust_7="13000.00000" pt_clust_8="13000.00000" pt_clust_9="25.82811"></scales>
<clustering>
<clus scale="   25.828">  1  9  2 -1</clus>
<clus scale="   73.312">  7  8 -1 -1</clus>
<clus scale="   92.743">  5  6 -1 -1</clus>
<clus scale="  136.697">  1  7  2 -1</clus>
<clus scale="  148.029">  2  5  1 -1</clus>
</clustering>
</event>
<event>
 9    1  0.1434065E-005  0.1126804E+03  0.7546771E-02  0.1256395E+00
          1   -1    0    0  502    0  0.00000000000E+00  0.00000000000E+00  0.58893310887E+03  0.58893310887E+03  0.00000000000E+00 0. -1.
         -1   -1    0    0    0  501 -0.00000000000E+00 -0.00000000000E+00 -0.35844671359E+02  0.35844671359E+02  0.00000000000E+00 0.  1.
         23    2    1    2    0    0  0.69171629998E+02 -0.19237444815E+02  0.11866325346E+03  0.16662687486E+03  0.92351253513E+02 0.  0.
         23    2    1    2    0    0 -0.63125349185E+02 -0.58766067149E+01  0.40087218640E+03  0.41580616842E+03  0.90426299534E+02 0.  0.
        -13    1    4    4    0    0 -0.70112184734E+02 -0.36350592256E+02  0.29806220212E+03  0.30834746689E+03  0.00000000000E+00 0.  1.
         13    1    4    4    0    0  0.69868355490E+01  0.30473985541E+02  0.10280998429E+03  0.10745870153E+03  0.00000000000E+00 0. -1.
        -13    1    3    3    0    0  0.38753394203E+02  0.91264553773E+01 -0.11192720781E+01  0.39829267128E+02  0.00000000000E+00 0.  1.
         13    1    3    3    0    0  0.30418235795E+02 -0.28363900192E+02  0.11978252554E+03  0.12679760774E+03  0.00000000000E+00 0. -1.
         21    1    1    2  502  501 -0.60462808125E+01  0.25114051530E+02  0.33552997641E+02  0.42344736941E+02  0.00000000000E+00 0.  1.
<scales pt_clust_5="13000.00000" pt_clust_6="13000.00000" pt_clust_7="13000.00000" pt_clust_8="13000.00000" pt_clust_9="25.83163"></scales>
<clustering>
<clus scale="   25.832">  2  9  1 -1</clus>
<clus scale="   90.426">  5  6 -1 -1</clus>
<clus scale="   92.351">  7  8 -1 -1</clus>
<clus scale="  111.108">  1  5  2 -1</clus>
<clus scale="  111.108">  1  5  2 -1</clus>
</clustering>
</event>
<event>
 9    1  0.1434065E-005  0.1077823E+03  0.7546771E-02  0.1264813E+00
          1   -1    0    0  502    0  0.00000000000E+00  0.00000000000E+00  0.73328371442E+02  0.73328371442E+02  0.00000000000E+00 0. -1.
         -1   -1    0    0    0  501 -0.00000000000E+00 -0.00000000000E+00 -0.28228408402E+03  0.28228408402E+03  0.00000000000E+00 0.  1.
         23    2    1    2    0    0 -0.41346355033E+02  0.58454423332E+02 -0.50933680219E+02  0.12693362554E+03  0.91604938903E+02 0.  0.
         23    2    1    2    0    0  0.21018924130E+02 -0.38141750791E+02 -0.43366012946E+02  0.11047641073E+03  0.91803256615E+02 0.  0.
        -11    1    3    3    0    0 -0.61492686474E+02  0.36164097813E+02 -0.62396112517E+02  0.94775879409E+02  0.00000000000E+00 0.  1.
         11    1    3    3    0    0  0.20146331441E+02  0.22290325519E+02  0.11462432299E+02  0.32157746135E+02  0.00000000000E+00 0. -1.
        -11    1    4    4    0    0 -0.16372531573E+02 -0.19875301909E+02  0.21407508177E+02  0.33486845513E+02  0.00000000000E+00 0. -1.
         11    1    4    4    0    0  0.37391455703E+02 -0.18266448882E+02 -0.64773521123E+02  0.76989565221E+02  0.00000000000E+00 0.  1.
         21    1    1    2  502  501  0.20327430903E+02 -0.20312672541E+02 -0.11465601942E+03  0.11820241919E+03  0.00000000000E+00 0. -1.
<scales pt_clust_5="13000.00000" pt_clust_6="13000.00000" pt_clust_7="13000.00000" pt_clust_8="13000.00000" pt_clust_9="28.73689"></scales>
<clustering>
<clus scale="   28.737">  2  9  1 -1</clus>
<clus scale="   91.605">  5  6 -1 -1</clus>
<clus scale="   91.803">  7  8 -1 -1</clus>
<clus scale="  107.613">  2  5  1 -1</clus>
<clus scale="  107.782">  1  5  2 -1</clus>
</clustering>
</event>
<event>
 9    1  0.2989724E-005  0.1244286E+03  0.7546771E-02  0.1236362E+00
         -1   -1    0    0    0  501 -0.00000000000E+00  0.00000000000E+00  0.39717512658E+03  0.39717512658E+03  0.00000000000E+00 0.  1.
          1   -1    0    0  502    0  0.00000000000E+00 -0.00000000000E+00 -0.16653910837E+03  0.16653910837E+03  0.00000000000E+00 0. -1.
         23    2    1    2    0    0  0.45325487819E+02  0.77930389103E+02  0.34014182196E+03  0.36229672557E+03  0.86225941096E+02 0.  0.
         23    2    1    2    0    0 -0.66252500586E+02 -0.58142464155E+02 -0.11944798936E+03  0.17094869103E+03  0.84768466018E+02 0.  0.
        -11    1    3    3    0    0  0.31660588431E+01  0.82033246340E+02  0.23594885615E+03  0.24982261737E+03  0.00000000000E+00 0.  1.
         11    1    3    3    0    0  0.42159428976E+02 -0.41028572371E+01  0.10419296581E+03  0.11247410820E+03  0.00000000000E+00 0. -1.
        -11    1    4    4    0    0 -0.31227546836E+02  0.18878043397E+02 -0.25505451217E+02  0.44520425039E+02  0.00000000000E+00 0.  1.
         11    1    4    4    0    0 -0.35024953750E+02 -0.77020507552E+02 -0.93942538146E+02  0.12642826599E+03  0.00000000000E+00 0. -1.
         21    1    1    2  502  501  0.20927012767E+02 -0.19787924948E+02  0.99421856129E+01  0.30468818353E+02  0.00000000000E+00 0.  1.
<scales pt_clust_5="13000.00000" pt_clust_6="13000.00000" pt_clust_7="13000.00000" pt_clust_8="13000.00000" pt_clust_9="28.80107"></scales>
<clustering>
<clus scale="   28.801">  2  9  1 -1</clus>
<clus scale="   84.768">  7  8 -1 -1</clus>
<clus scale="   86.226">  5  6 -1 -1</clus>
<clus scale="  123.423">  2  7  1 -1</clus>
<clus scale="   28.801">  2  5  1 -1</clus>
</clustering>
</event>
<event>
 9    1  0.1434065E-005  0.1083783E+03  0.7546771E-02  0.1264673E+00
         -1   -1    0    0    0  501 -0.00000000000E+00  0.00000000000E+00  0.67807186087E+02  0.67807186087E+02  0.00000000000E+00 0.  1.
          1   -1    0    0  502    0  0.00000000000E+00 -0.00000000000E+00 -0.26443863842E+03  0.26443863842E+03  0.00000000000E+00 0. -1.
         23    2    1    2    0    0 -0.28998766635E+01 -0.35579095559E+02 -0.24551247706E+02  0.10853390187E+03  0.99511621262E+02 0.  0.
         23    2    1    2    0    0  0.40799387553E-01  0.61698854014E+02 -0.15215946978E+03  0.19073842143E+03  0.97066425279E+02 0.  0.
        -11    1    3    3    0    0 -0.81690515959E+01 -0.56654543528E+02  0.18630022124E+02  0.60195917060E+02  0.00000000000E+00 0.  1.
         11    1    3    3    0    0  0.52691749324E+01  0.21075447969E+02 -0.43181269830E+02  0.48337984812E+02  0.00000000000E+00 0. -1.
        -13    1    4    4    0    0  0.33268843751E+02  0.24780581205E+01 -0.12832041123E+02  0.35743782900E+02  0.00000000000E+00 0.  1.
         13    1    4    4    0    0 -0.33228044364E+02  0.59220795894E+02 -0.13932742865E+03  0.15499463853E+03  0.00000000000E+00 0. -1.
         21    1    1    2  502  501  0.28590772759E+01 -0.26119758455E+02 -0.19920734848E+02  0.32973501202E+02  0.00000000000E+00 0.  1.
<scales pt_clust_5="13000.00000" pt_clust_6="13000.00000" pt_clust_7="13000.00000" pt_clust_8="13000.00000" pt_clust_9="26.27577"></scales>
<clustering>
<clus scale="   26.276">  2  9  1 -1</clus>
<clus scale="   97.066">  7  8 -1 -1</clus>
<clus scale="   99.512">  5  6 -1 -1</clus>
<clus scale="  106.138">  2  7  1 -1</clus>
<clus scale="   26.276">  2  5  1 -1</clus>
</clustering>
</event>
<event>
 9    1  0.1434065E-005  0.1033733E+03  0.7546771E-02  0.1273903E+00
         -1   -1    0    0    0  501 -0.00000000000E+00  0.00000000000E+00  0.63807957908E+02  0.63807957908E+02  0.00000000000E+00 0.  1.
          1   -1    0    0  502    0  0.00000000000E+00 -0.00000000000E+00 -0.31587203055E+03  0.31587203055E+03  0.00000000000E+00 0. -1.
         23    2    1    2    0    0 -0.13781738422E+02 -0.28575092250E+02 -0.29099078397E+02  0.99885601585E+02  0.90132706769E+02 0.  0.
         23    2    1    2    0    0 -0.13787670772E+02  0.54845365573E+02 -0.21576828824E+03  0.24103884326E+03  0.91354560692E+02 0.  0.
        -11    1    3    3    0    0 -0.35175787022E+02 -0.50066522027E+02 -0.54515794332E+01  0.61430548905E+02  0.00000000000E+00 0.  1.
         11    1    3    3    0    0  0.21394048600E+02  0.21491429778E+02 -0.23647498964E+02  0.38455052680E+02  0.00000000000E+00 0. -1.
        -13    1    4    4    0    0 -0.41672309817E+02  0.18955652917E+02 -0.44507261469E+02  0.63849780786E+02  0.00000000000E+00 0.  1.
         13    1    4    4    0    0  0.27884639045E+02  0.35889712656E+02 -0.17126102677E+03  0.17718906247E+03  0.00000000000E+00 0. -1.
         21    1    1    2  502  501  0.27569409194E+02 -0.26270273323E+02 -0.71967060101E+01  0.38755543619E+02  0.00000000000E+00 0.  1.
<scales pt_clust_5="13000.00000" pt_clust_6="13000.00000" pt_clust_7="13000.00000" pt_clust_8="13000.00000" pt_clust_9="38.08149"></scales>
<clustering>
<clus scale="   38.081">  1  9  2 -1</clus>
<clus scale="   90.133">  5  6 -1 -1</clus>
<clus scale="   91.355">  7  8 -1 -1</clus>
<clus scale="  102.295">  1  5  2 -1</clus>
<clus scale="  103.373">  2  5  1 -1</clus>
</clustering>
</event>
<event>
 9    1  0.1434065E-005  0.2515851E+03  0.7546771E-02  0.1112595E+00
          1   -1    0    0  502    0  0.00000000000E+00  0.00000000000E+00  0.34903054171E+03  0.34903054171E+03  0.00000000000E+00 0. -1.
         -1   -1    0    0    0  501 -0.00000000000E+00 -0.00000000000E+00 -0.24430705468E+03  0.24430705468E+03  0.00000000000E+00 0.  1.
         23    2    1    2    0    0 -0.24491319463E+03  0.18316536877E+02 -0.64584814847E+02  0.26893627924E+03  0.88529969800E+02 0.  0.
         23    2    1    2    0    0  0.22718216120E+03 -0.28790965369E+02  0.17502014129E+03  0.30303011437E+03  0.93565732527E+02 0.  0.
        -11    1    3    3    0    0 -0.20131567342E+03  0.33417817175E+02 -0.20458638346E+02  0.20509340983E+03  0.00000000000E+00 0.  1.
         11    1    3    3    0    0 -0.43597521210E+02 -0.15101280298E+02 -0.44126176501E+02  0.63842869413E+02  0.00000000000E+00 0. -1.
        -11    1    4    4    0    0  0.21844399942E+02  0.55162221355E+00 -0.10953483739E+02  0.24443013356E+02  0.00000000000E+00 0.  1.
         11    1    4    4    0    0  0.20533776126E+03 -0.29342587583E+02  0.18597362503E+03  0.27858710102E+03  0.00000000000E+00 0. -1.
         21    1    1    2  502  501  0.17731033430E+02  0.10474428492E+02 -0.57118394059E+01  0.21371202777E+02  0.00000000000E+00 0.  1.
<scales pt_clust_5="13000.00000" pt_clust_6="13000.00000" pt_clust_7="13000.00000" pt_clust_8="13000.00000" pt_clust_9="20.59377"></scales>
<clustering>
<clus scale="   20.594">  2  9  1 -1</clus>
<clus scale="   88.530">  5  6 -1 -1</clus>
<clus scale="   93.566">  7  8 -1 -1</clus>
<clus scale="  249.756">  2  5  1 -1</clus>
<clus scale="  251.585">  1  5  2 -1</clus>
</clustering>
</event>
<event>
 9    1  0.1434065E-005  0.9421137E+02  0.7546771E-02  0.1293423E+00
         -2   -1    0    0    0  501 -0.00000000000E+00  0.00000000000E+00  0.40514432998E+02  0.40514432998E+02  0.00000000000E+00 0.  1.
          2   -1    0    0  502    0  0.00000000000E+00 -0.00000000000E+00 -0.29721340848E+03  0.29721340848E+03  0.00000000000E+00 0. -1.
         23    2    1    2    0    0 -0.19798559139E+02 -0.61128429567E+01 -0.11092988078E+03  0.14636560647E+03  0.93209991483E+02 0.  0.
         23    2    1    2    0    0 -0.63791760293E+01 -0.35274499103E+01 -0.12501525403E+03  0.15659255041E+03  0.94017425581E+02 0.  0.
        -11    1    4    4    0    0  0.40352376210E+02  0.14668567370E+02 -0.45297868680E+02  0.62412963729E+02  0.00000000000E+00 0.  1.
         11    1    4    4    0    0 -0.46731552240E+02 -0.18196017280E+02 -0.79717385352E+02  0.94179586679E+02  0.00000000000E+00 0. -1.
        -13    1    3    3    0    0  0.21301824095E+02 -0.37909487271E+02 -0.52564870216E+02  0.68219956873E+02  0.00000000000E+00 0.  1.
         13    1    3    3    0    0 -0.41100383233E+02  0.31796644315E+02 -0.58365010568E+02  0.78145649592E+02  0.00000000000E+00 0. -1.
         21    1    1    2  502  501  0.26177735168E+02  0.96402928670E+01 -0.20753840667E+02  0.34769684605E+02  0.00000000000E+00 0. -1.
<scales pt_clust_5="13000.00000" pt_clust_6="13000.00000" pt_clust_7="13000.00000" pt_clust_8="13000.00000" pt_clust_9="27.89640"></scales>
<clustering>
<clus scale="   27.896">  1  9  2 -1</clus>
<clus scale="   93.210">  7  8 -1 -1</clus>
<clus scale="   93.406">  1  7  2 -1</clus>
<clus scale="   94.017">  5  6 -1 -1</clus>
<clus scale="   94.211">  2  5  1 -1</clus>
</clustering>
</event>
<event>
 9    1  0.1434065E-005  0.1003459E+03  0.7546771E-02  0.1279584E+00
          3   -1    0    0  502    0  0.00000000000E+00  0.00000000000E+00  0.55111099245E+02  0.55111099245E+02  0.00000000000E+00 0. -1.
         -3   -1    0    0    0  501 -0.00000000000E+00 -0.00000000000E+00 -0.33722177425E+03  0.33722177425E+03  0.00000000000E+00 0.  1.
         23    2    1    2    0    0 -0.28819489967E+02  0.33341687416E+02 -0.21706941248E+03  0.23956365615E+03  0.91265461128E+02 0.  0.
         23    2    1    2    0    0  0.39287622241E+02 -0.15297573501E+02 -0.19088746872E+02  0.10230333247E+03  0.91236278759E+02 0.  0.
        -11    1    3    3    0    0  0.30315750558E+02  0.35821960895E+01 -0.38604179314E+02  0.49215439867E+02  0.00000000000E+00 0. -1.
         11    1    3    3    0    0 -0.59135240525E+02  0.29759491326E+02 -0.17846523316E+03  0.19034821629E+03  0.00000000000E+00 0.  1.
        -11    1    4    4    0    0  0.67714022360E+02 -0.71613798330E+01 -0.24264651092E+02  0.72285873294E+02  0.00000000000E+00 0.  1.
         11    1    4    4    0    0 -0.28426400119E+02 -0.81361936680E+01  0.51759042194E+01  0.30017459180E+02  0.00000000000E+00 0. -1.
         21    1    1    2  502  501 -0.10468132274E+02 -0.18044113915E+02 -0.45952515662E+02  0.50465884873E+02  0.00000000000E+00 0.  1.
<scales pt_clust_5="13000.00000" pt_clust_6="13000.00000" pt_clust_7="13000.00000" pt_clust_8="13000.00000" pt_clust_9="20.86077"></scales>
<clustering>
<clus scale="   20.861">  2  9  1 -1</clus>
<clus scale="   91.236">  7  8 -1 -1</clus>
<clus scale="   91.265">  5  6 -1 -1</clus>
<clus scale="  100.319">  1  7  2 -1</clus>
<clus scale="  100.319">  1  5  2 -1</clus>
</clustering>
</event>
<event>
 9    1  0.1434065E-005  0.1109690E+03  0.7546771E-02  0.1262781E+00
          3   -1    0    0  502    0  0.00000000000E+00  0.00000000000E+00  0.83376279029E+02  0.83376279029E+02  0.00000000000E+00 0. -1.
         -3   -1    0    0    0  501 -0.00000000000E+00 -0.00000000000E+00 -0.18188592607E+03  0.18188592607E+03  0.00000000000E+00 0.  1.
         23    2    1    2    0    0  0.34679499627E+02 -0.11199610710E+02 -0.55735438414E+02  0.11284954868E+03  0.91106984181E+02 0.  0.
         23    2    1    2    0    0 -0.55828335655E+02  0.40085279425E+01 -0.13771380144E+02  0.11580461091E+03  0.10043996036E+03 0.  0.
        -11    1    3    3    0    0  0.62487514251E+02 -0.23656650369E+02 -0.31262227176E+02  0.73767563278E+02  0.00000000000E+00 0.  1.
         11    1    3    3    0    0 -0.27808014623E+02  0.12457039659E+02 -0.24473211238E+02  0.39081985398E+02  0.00000000000E+00 0. -1.
        -13    1    4    4    0    0 -0.51482446825E+01 -0.35694855337E+02 -0.32718348032E+02  0.48694120987E+02  0.00000000000E+00 0.  1.
         13    1    4    4    0    0 -0.50680090973E+02  0.39703383279E+02  0.18946967888E+02  0.67110489918E+02  0.00000000000E+00 0. -1.
         21    1    1    2  502  501  0.21148836028E+02  0.71910827674E+01 -0.29002828482E+02  0.36608045518E+02  0.00000000000E+00 0. -1.
<scales pt_clust_5="13000.00000" pt_clust_6="13000.00000" pt_clust_7="13000.00000" pt_clust_8="13000.00000" pt_clust_9="22.33797"></scales>
<clustering>
<clus scale="   22.338">  2  9  1 -1</clus>
<clus scale="   91.107">  5  6 -1 -1</clus>
<clus scale="  100.440">  7  8 -1 -1</clus>
<clus scale="  102.598">  2  5  1 -1</clus>
<clus scale="  110.969">  1  5  2 -1</clus>
</clustering>
</event>
<event>
 9    1  0.1434065E-005  0.1335629E+03  0.7546771E-02  0.1222717E+00
          1   -1    0    0  502    0  0.00000000000E+00  0.00000000000E+00  0.14505922422E+03  0.14505922422E+03  0.00000000000E+00 0. -1.
         -1   -1    0    0    0  501 -0.00000000000E+00 -0.00000000000E+00 -0.24299022028E+03  0.24299022028E+03  0.00000000000E+00 0.  1.
         23    2    1    2    0    0 -0.47558407525E+02  0.59670867494E+02 -0.11467406838E+03  0.16432010505E+03  0.89602122807E+02 0.  0.
         23    2    1    2    0    0  0.21806815928E+02 -0.10403713849E+03  0.63854500902E+02  0.15408023913E+03  0.91455231666E+02 0.  0.
        -11    1    4    4    0    0 -0.17967254827E+02 -0.35831018157E+02 -0.14708733775E+02  0.42696966607E+02  0.00000000000E+00 0.  1.
         11    1    4    4    0    0  0.39774070754E+02 -0.68206120334E+02  0.78563234677E+02  0.11138327252E+03  0.00000000000E+00 0. -1.
        -11    1    3    3    0    0 -0.61057898819E+02  0.75150380549E+02 -0.89769150829E+02  0.13203843056E+03  0.00000000000E+00 0.  1.
         11    1    3    3    0    0  0.13499491294E+02 -0.15479513055E+02 -0.24904917552E+02  0.32281674490E+02  0.00000000000E+00 0. -1.
         21    1    1    2  502  501  0.25751591597E+02  0.44366270998E+02 -0.47111428583E+02  0.69649100319E+02  0.00000000000E+00 0.  1.
<scales pt_clust_5="13000.00000" pt_clust_6="13000.00000" pt_clust_7="13000.00000" pt_clust_8="13000.00000" pt_clust_9="51.29825"></scales>
<clustering>
<clus scale="   51.298">  2  9  1 -1</clus>
<clus scale="   89.602">  7  8 -1 -1</clus>
<clus scale="   91.455">  5  6 -1 -1</clus>
<clus scale="  132.301">  2  7  1 -1</clus>
<clus scale="  133.563">  1  5  2 -1</clus>
</clustering>
</event>
<event>
 9    1  0.1434065E-005  0.1683026E+03  0.7546771E-02  0.1180208E+00
          1   -1    0    0  502    0  0.00000000000E+00  0.00000000000E+00  0.44979212272E+02  0.44979212272E+02  0.00000000000E+00 0. -1.
         -1   -1    0    0    0  501 -0.00000000000E+00 -0.00000000000E+00 -0.79488857373E+03  0.79488857373E+03  0.00000000000E+00 0.  1.
         23    2    1    2    0    0  0.82381625980E+02  0.11298075187E+03 -0.38464396019E+03  0.41904878175E+03  0.89997348772E+02 0.  0.
         23    2    1    2    0    0 -0.11075685030E+03 -0.88314647065E+02 -0.27877689484E+03  0.32651188986E+03  0.93951585112E+02 0.  0.
        -13    1    3    3    0    0  0.65420625987E+02  0.51815702131E+02 -0.11534031070E+03  0.14236612155E+03  0.00000000000E+00 0. -1.
         13    1    3    3    0    0  0.16960999993E+02  0.61165049736E+02 -0.26930364949E+03  0.27668266020E+03  0.00000000000E+00 0.  1.
        -13    1    4    4    0    0 -0.19193235169E+02  0.14175564217E+02 -0.12682487908E+02  0.27021702328E+02  0.00000000000E+00 0. -1.
         13    1    4    4    0    0 -0.91563615132E+02 -0.10249021128E+03 -0.26609440693E+03  0.29949018753E+03  0.00000000000E+00 0.  1.
         21    1    1    2  502  501  0.28375224322E+02 -0.24666104803E+02 -0.86488506428E+02  0.94307114395E+02  0.00000000000E+00 0. -1.
<scales pt_clust_5="13000.00000" pt_clust_6="13000.00000" pt_clust_7="13000.00000" pt_clust_8="13000.00000" pt_clust_9="37.59747"></scales>
<clustering>
<clus scale="   37.597">  2  9  1 -1</clus>
<clus scale="   89.997">  5  6 -1 -1</clus>
<clus scale="   93.952">  7  8 -1 -1</clus>
<clus scale="  166.128">  2  5  1 -1</clus>
<clus scale="  168.303">  1  5  2 -1</clus>
</clustering>
</event>
<event>
 9    1  0.1434065E-005  0.1062247E+03  0.7546771E-02  0.1268282E+00
         -1   -1    0    0    0  501 -0.00000000000E+00  0.00000000000E+00  0.16204509758E+03  0.16204509758E+03  0.00000000000E+00 0.  1.
          1   -1    0    0  502    0  0.00000000000E+00 -0.00000000000E+00 -0.21598348974E+03  0.21598348974E+03  0.00000000000E+00 0. -1.
         23    2    1    2    0    0  0.42685291471E+02  0.28716558576E+02  0.47664187872E+02  0.11346961313E+03  0.89200916222E+02 0.  0.
         23    2    1    2    0    0 -0.56874891695E+02  0.19747200342E+02 -0.15611676618E+03  0.19024963982E+03  0.90541568030E+02 0.  0.
        -11    1    3    3    0    0  0.24440200985E+02 -0.30607585669E+02  0.28743615121E+02  0.48583362738E+02  0.00000000000E+00 0.  1.
         11    1    3    3    0    0  0.18245090486E+02  0.59324144245E+02  0.18920572751E+02  0.64886250396E+02  0.00000000000E+00 0. -1.
        -13    1    4    4    0    0  0.83205281457E+01  0.23391070532E+02 -0.45834569949E+01  0.25246414543E+02  0.00000000000E+00 0.  1.
         13    1    4    4    0    0 -0.65195419841E+02 -0.36438701895E+01 -0.15153330919E+03  0.16500322528E+03  0.00000000000E+00 0. -1.
         21    1    1    2  502  501  0.14189600224E+02 -0.48463758919E+02  0.54514186151E+02  0.74309334372E+02  0.00000000000E+00 0.  1.
<scales pt_clust_5="13000.00000" pt_clust_6="13000.00000" pt_clust_7="13000.00000" pt_clust_8="13000.00000" pt_clust_9="50.49832"></scales>
<clustering>
<clus scale="   50.498">  1  9  2 -1</clus>
<clus scale="   89.201">  5  6 -1 -1</clus>
<clus scale="   90.542">  7  8 -1 -1</clus>
<clus scale="  105.084">  1  5  2 -1</clus>
<clus scale="  106.225">  2  5  1 -1</clus>
</clustering>
</event>
<event>
 9    1  0.1434065E-005  0.1875759E+03  0.7546771E-02  0.1160860E+00
         -1   -1    0    0    0  501 -0.00000000000E+00  0.00000000000E+00  0.20567062080E+03  0.20567062080E+03  0.00000000000E+00 0.  1.
          1   -1    0    0  502    0  0.00000000000E+00 -0.00000000000E+00 -0.56271182246E+03  0.56271182246E+03  0.00000000000E+00 0. -1.
         23    2    1    2    0    0 -0.14254258127E+03 -0.62385476250E+02  0.82239506583E+01  0.18002234047E+03  0.90166926214E+02 0.  0.
         23    2    1    2    0    0  0.66484270855E+02  0.21800453691E+03 -0.87201144170E+02  0.26076011613E+03  0.91900284179E+02 0.  0.
        -11    1    4    4    0    0 -0.11020150927E+02  0.52589278560E+02  0.87209791177E+01  0.54434652774E+02  0.00000000000E+00 0. -1.
         11    1    4    4    0    0  0.77504421782E+02  0.16541525835E+03 -0.95922123287E+02  0.20632546335E+03  0.00000000000E+00 0.  1.
        -11    1    3    3    0    0 -0.83749182495E+02  0.66972967514E+01  0.25239886667E+02  0.87725886894E+02  0.00000000000E+00 0.  1.
         11    1    3    3    0    0 -0.58793398774E+02 -0.69082773001E+02 -0.17015936008E+02  0.92296453578E+02  0.00000000000E+00 0. -1.
         21    1    1    2  502  501  0.76058310414E+02 -0.15561906067E+03 -0.27806400815E+03  0.32759998665E+03  0.00000000000E+00 0. -1.
<scales pt_clust_5="13000.00000" pt_clust_6="13000.00000" pt_clust_7="13000.00000" pt_clust_8="13000.00000" pt_clust_9="173.21131"></scales>
<clustering>
<clus scale="   90.167">  7  8 -1 -1</clus>
<clus scale="   91.900">  5  6 -1 -1</clus>
<clus scale="  173.211">  2  9  1 -1</clus>
<clus scale="  186.733">  1  7  2 -1</clus>
<clus scale="  173.211">  2  5  1 -1</clus>
</clustering>
</event>
<event>
 9    1  0.1434065E-005  0.1799601E+03  0.7546771E-02  0.1168007E+00
          3   -1    0    0  502    0  0.00000000000E+00  0.00000000000E+00  0.38278692728E+03  0.38278692728E+03  0.00000000000E+00 0. -1.
         -3   -1    0    0    0  501 -0.00000000000E+00 -0.00000000000E+00 -0.18130053424E+03  0.18130053424E+03  0.00000000000E+00 0.  1.
         23    2    1    2    0    0  0.26026211742E+02 -0.13037588723E+03  0.69949402400E+02  0.17872068088E+03  0.96813879221E+02 0.  0.
         23    2    1    2    0    0 -0.40874901286E+02  0.15738105754E+03  0.22063043266E+03  0.29109375047E+03  0.98072569667E+02 0.  0.
        -11    1    3    3    0    0  0.59045221424E+02 -0.49411114026E+02  0.30987821579E+02  0.82994225393E+02  0.00000000000E+00 0.  1.
         11    1    3    3    0    0 -0.33019009683E+02 -0.80964773201E+02  0.38961580821E+02  0.95726455486E+02  0.00000000000E+00 0. -1.
        -13    1    4    4    0    0 -0.31772270263E+02  0.70163714993E+02  0.32632454306E+02  0.83649872285E+02  0.00000000000E+00 0.  1.
         13    1    4    4    0    0 -0.91026310227E+01  0.87217342551E+02  0.18799797835E+03  0.20744387819E+03  0.00000000000E+00 0. -1.
         21    1    1    2  502  501  0.14848689544E+02 -0.27005170317E+02 -0.89093442019E+02  0.94273030162E+02  0.00000000000E+00 0.  1.
<scales pt_clust_5="13000.00000" pt_clust_6="13000.00000" pt_clust_7="13000.00000" pt_clust_8="13000.00000" pt_clust_9="30.81822"></scales>
<clustering>
<clus scale="   30.818">  2  9  1 -1</clus>
<clus scale="   96.814">  5  6 -1 -1</clus>
<clus scale="   98.073">  7  8 -1 -1</clus>
<clus scale="  179.277">  2  5  1 -1</clus>
<clus scale="  179.960">  1  5  2 -1</clus>
</clustering>
</event>
<event>
 9    1  0.1434065E-005  0.1013048E+03  0.7546771E-02  0.1277992E+00
          1   -1    0    0  502    0  0.00000000000E+00  0.00000000000E+00  0.56551773461E+03  0.56551773461E+03  0.00000000000E+00 0. -1.
         -1   -1    0    0    0  501 -0.00000000000E+00 -0.00000000000E+00 -0.23934609896E+02  0.23934609896E+02  0.00000000000E+00 0.  1.
         23    2    1    2    0    0 -0.35880642732E+02 -0.11169956946E+02  0.16779982531E+03  0.19477002782E+03  0.91467993869E+02 0.  0.
         23    2    1    2    0    0  0.47877503628E+02 -0.59797859508E+01  0.33789898964E+03  0.35314050594E+03  0.90578565576E+02 0.  0.
        -13    1    3    3    0    0  0.28814146068E+02 -0.17088703020E+02  0.48804390237E+02  0.59195838459E+02  0.00000000000E+00 0.  1.
         13    1    3    3    0    0 -0.64694788799E+02  0.59187460739E+01  0.11899543507E+03  0.13557418936E+03  0.00000000000E+00 0. -1.
        -13    1    4    4    0    0  0.63027321932E+02 -0.27319776425E+02  0.29496981263E+03  0.30286301170E+03  0.00000000000E+00 0.  1.
         13    1    4    4    0    0 -0.15149818305E+02  0.21339990474E+02  0.42929177008E+02  0.50277494236E+02  0.00000000000E+00 0. -1.
         21    1    1    2  502  501 -0.11996860896E+02  0.17149742897E+02  0.35884309763E+02  0.41541810745E+02  0.00000000000E+00 0.  1.
<scales pt_clust_5="13000.00000" pt_clust_6="13000.00000" pt_clust_7="13000.00000" pt_clust_8="13000.00000" pt_clust_9="20.92937"></scales>
<clustering>
<clus scale="   20.929">  2  9  1 -1</clus>
<clus scale="   90.579">  7  8 -1 -1</clus>
<clus scale="   91.468">  5  6 -1 -1</clus>
<clus scale="  100.503">  1  7  2 -1</clus>
<clus scale="  100.503">  1  5  2 -1</clus>
</clustering>
</event>
<event>
 9    1  0.1434065E-005  0.9141448E+02  0.7546771E-02  0.1299637E+00
          2   -1    0    0  502    0  0.00000000000E+00  0.00000000000E+00  0.61130658138E+02  0.61130658138E+02  0.00000000000E+00 0. -1.
         -2   -1    0    0    0  501 -0.00000000000E+00 -0.00000000000E+00 -0.35391634338E+03  0.35391634338E+03  0.00000000000E+00 0.  1.
         23    2    1    2    0    0  0.47195664183E+02 -0.19756686956E+02 -0.16760588259E+03  0.19739681931E+03  0.90862616070E+02 0.  0.
         23    2    1    2    0    0  0.19017468299E+02  0.19364774742E+01 -0.25329872821E+02  0.96523194021E+02  0.91157613403E+02 0.  0.
        -11    1    3    3    0    0  0.57793593388E+02  0.15510201876E+02 -0.13705652218E+03  0.14954984477E+03  0.00000000000E+00 0.  1.
         11    1    3    3    0    0 -0.10597929205E+02 -0.35266888832E+02 -0.30549360405E+02  0.47846974538E+02  0.00000000000E+00 0. -1.
        -11    1    4    4    0    0  0.85080407945E+01 -0.44431924439E+02 -0.81342159478E+01  0.45964640068E+02  0.00000000000E+00 0. -1.
         11    1    4    4    0    0  0.10509427504E+02  0.46368401913E+02 -0.17195656873E+02  0.50558553952E+02  0.00000000000E+00 0.  1.
         21    1    1    2  502  501 -0.66213132482E+02  0.17820209482E+02 -0.99849929836E+02  0.12112698819E+03  0.00000000000E+00 0. -1.
<scales pt_clust_5="13000.00000" pt_clust_6="13000.00000" pt_clust_7="13000.00000" pt_clust_8="13000.00000" pt_clust_9="68.56923"></scales>
<clustering>
<clus scale="   68.569">  2  9  1 -1</clus>
<clus scale="   90.863">  5  6 -1 -1</clus>
<clus scale="   91.120">  2  5  1 -1</clus>
<clus scale="   91.158">  7  8 -1 -1</clus>
<clus scale="   91.414">  1  5  2 -1</clus>
</clustering>
</event>
<event>
 9    1  0.1434065E-005  0.9806743E+02  0.7546771E-02  0.1286108E+00
          1   -1    0    0  502    0  0.00000000000E+00  0.00000000000E+00  0.42285259033E+03  0.42285259033E+03  0.00000000000E+00 0. -1.
         -1   -1    0    0    0  501 -0.00000000000E+00 -0.00000000000E+00 -0.34435052987E+02  0.34435052987E+02  0.00000000000E+00 0.  1.
         23    2    1    2    0    0 -0.30598681067E+02 -0.32340625233E+02  0.14779060887E+03  0.18038181248E+03  0.93345267046E+02 0.  0.
         23    2    1    2    0    0  0.26419180967E+02 -0.20834142426E+01  0.21224885760E+03  0.23209737604E+03  0.90096063586E+02 0.  0.
        -13    1    3    3    0    0  0.11349498448E+02  0.27107096076E+02  0.56101801520E+02  0.63332597503E+02  0.00000000000E+00 0.  1.
         13    1    3    3    0    0 -0.41948179515E+02 -0.59447721309E+02  0.91688807347E+02  0.11704921497E+03  0.00000000000E+00 0. -1.
        -13    1    4    4    0    0  0.24580911614E+02 -0.44550719085E+02  0.10334675541E+03  0.11519348784E+03  0.00000000000E+00 0. -1.
         13    1    4    4    0    0  0.18382693528E+01  0.42467304842E+02  0.10890210219E+03  0.11690388820E+03  0.00000000000E+00 0.  1.
         21    1    1    2  502  501  0.41795001000E+01  0.34424039476E+02  0.28378070876E+02  0.44808454799E+02  0.00000000000E+00 0. -1.
<scales pt_clust_5="13000.00000" pt_clust_6="13000.00000" pt_clust_7="13000.00000" pt_clust_8="13000.00000" pt_clust_9="34.67683"></scales>
<clustering>
<clus scale="   34.677">  2  9  1 -1</clus>
<clus scale="   90.096">  7  8 -1 -1</clus>
<clus scale="   93.345">  5  6 -1 -1</clus>
<clus scale="   94.980">  1  7  2 -1</clus>
<clus scale="   94.980">  1  5  2 -1</clus>
</clustering>
</event>
<event>
 9    1  0.1434065E-005  0.1020180E+03  0.7546771E-02  0.1280219E+00
         -1   -1    0    0    0  501 -0.00000000000E+00  0.00000000000E+00  0.33490205953E+02  0.33490205953E+02  0.00000000000E+00 0.  1.
          1   -1    0    0  502    0  0.00000000000E+00 -0.00000000000E+00 -0.47987985165E+03  0.47987985165E+03  0.00000000000E+00 0. -1.
         23    2    1    2    0    0 -0.30395468262E+02 -0.68131976132E+01 -0.98241779021E+02  0.13350978081E+03  0.84871139232E+02 0.  0.
         23    2    1    2    0    0  0.37983247188E+02  0.26550613326E+02 -0.34245301056E+03  0.35796115913E+03  0.93351298178E+02 0.  0.
        -13    1    4    4    0    0 -0.68435158100E+01 -0.29027850681E+02 -0.65817656105E+02  0.72259350114E+02  0.00000000000E+00 0.  1.
         13    1    4    4    0    0  0.44826762998E+02  0.55578464007E+02 -0.27663535445E+03  0.28570180902E+03  0.00000000000E+00 0. -1.
        -13    1    3    3    0    0  0.77376481447E+01  0.23475583364E+02 -0.97972320832E+00  0.24737301200E+02  0.00000000000E+00 0. -1.
         13    1    3    3    0    0 -0.38133116406E+02 -0.30288780977E+02 -0.97262055813E+02  0.10877247961E+03  0.00000000000E+00 0.  1.
         21    1    1    2  502  501 -0.75877789263E+01 -0.19737415712E+02 -0.56948561170E+01  0.21899117659E+02  0.00000000000E+00 0.  1.
<scales pt_clust_5="13000.00000" pt_clust_6="13000.00000" pt_clust_7="13000.00000" pt_clust_8="13000.00000" pt_clust_9="21.14568"></scales>
<clustering>
<clus scale="   21.146">  1  9  2 -1</clus>
<clus scale="   84.871">  7  8 -1 -1</clus>
<clus scale="   93.351">  5  6 -1 -1</clus>
<clus scale="   94.320">  1  7  2 -1</clus>
<clus scale="  102.018">  2  5  1 -1</clus>
</clustering>
</event>
<event>
 9    1  0.1434065E-005  0.9600819E+02  0.7546771E-02  0.1289064E+00
         -2   -1    0    0    0  501 -0.00000000000E+00  0.00000000000E+00  0.30138367409E+02  0.30138367409E+02  0.00000000000E+00 0.  1.
          2   -1    0    0  502    0  0.00000000000E+00 -0.00000000000E+00 -0.51605864714E+03  0.51605864714E+03  0.00000000000E+00 0. -1.
         23    2    1    2    0    0  0.21008234850E+02 -0.72467798718E+01 -0.20360325200E+03  0.22376807099E+03  0.90133254788E+02 0.  0.
         23    2    1    2    0    0 -0.28953375861E+02  0.31187553715E+02 -0.27976762435E+03  0.29707573123E+03  0.90405226469E+02 0.  0.
        -11    1    4    4    0    0  0.11463362236E+02  0.52798273304E+02 -0.15649475114E+03  0.16555867078E+03  0.00000000000E+00 0. -1.
         11    1    4    4    0    0 -0.40416738097E+02 -0.21610719589E+02 -0.12327287321E+03  0.13151706045E+03  0.00000000000E+00 0.  1.
        -13    1    3    3    0    0 -0.35342685462E+02 -0.13820261506E+01 -0.92995092810E+02  0.99494234500E+02  0.00000000000E+00 0.  1.
         13    1    3    3    0    0  0.56350920312E+02 -0.58647537213E+01 -0.11060815919E+03  0.12427383649E+03  0.00000000000E+00 0. -1.
         21    1    1    2  502  501  0.79451410111E+01 -0.23940773843E+02 -0.25494033856E+01  0.25353212332E+02  0.00000000000E+00 0. -1.
<scales pt_clust_5="13000.00000" pt_clust_6="13000.00000" pt_clust_7="13000.00000" pt_clust_8="13000.00000" pt_clust_9="25.22471"></scales>
<clustering>
<clus scale="   25.225">  1  9  2 -1</clus>
<clus scale="   90.133">  7  8 -1 -1</clus>
<clus scale="   90.405">  5  6 -1 -1</clus>
<clus scale="   95.752">  1  7  2 -1</clus>
<clus scale="   96.008">  2  5  1 -1</clus>
</clustering>
</event>
<event>
 9    1  0.1434065E-005  0.1157346E+03  0.7546771E-02  0.1251064E+00
          2   -1    0    0  502    0  0.00000000000E+00  0.00000000000E+00  0.27756495920E+03  0.27756495920E+03  0.00000000000E+00 0.  1.
         -2   -1    0    0    0  501 -0.00000000000E+00 -0.00000000000E+00 -0.68293622847E+02  0.68293622847E+02  0.00000000000E+00 0. -1.
         23    2    1    2    0    0  0.65111269140E+02 -0.11828543275E+02  0.30372812035E+02  0.11637972785E+03  0.90787342386E+02 0.  0.
         23    2    1    2    0    0 -0.74506642718E+02 -0.73180642598E+01  0.17125651003E+03  0.20682347941E+03  0.88557131456E+02 0.  0.
        -11    1    3    3    0    0  0.43114996628E+02 -0.27496612467E+02  0.58287469023E+02  0.77539639388E+02  0.00000000000E+00 0.  1.
         11    1    3    3    0    0  0.21996272511E+02  0.15668069192E+02 -0.27914656988E+02  0.38840088457E+02  0.00000000000E+00 0. -1.
        -13    1    4    4    0    0  0.17004180479E+02 -0.14607031169E+02  0.49483172713E+02  0.54323953235E+02  0.00000000000E+00 0. -1.
         13    1    4    4    0    0 -0.91510823197E+02  0.72889669090E+01  0.12177333732E+03  0.15249952617E+03  0.00000000000E+00 0.  1.
         21    1    1    2  502  501  0.93953735781E+01  0.19146607535E+02  0.76420142867E+01  0.22655374796E+02  0.00000000000E+00 0. -1.
<scales pt_clust_5="13000.00000" pt_clust_6="13000.00000" pt_clust_7="13000.00000" pt_clust_8="13000.00000" pt_clust_9="21.32758"></scales>
<clustering>
<clus scale="   21.328">  2  9  1 -1</clus>
<clus scale="   88.557">  7  8 -1 -1</clus>
<clus scale="   90.787">  5  6 -1 -1</clus>
<clus scale="  113.994">  1  7  2 -1</clus>
<clus scale="  113.994">  1  5  2 -1</clus>
</clustering>
</event>
<event>
 9    1  0.1434065E-005  0.9924244E+02  0.7546771E-02  0.1282797E+00
          1   -1    0    0  502    0  0.00000000000E+00  0.00000000000E+00  0.42943216463E+03  0.42943216463E+03  0.00000000000E+00 0. -1.
         -1   -1    0    0    0  501 -0.00000000000E+00 -0.00000000000E+00 -0.30230719304E+02  0.30230719304E+02  0.00000000000E+00 0.  1.
         23    2    1    2    0    0  0.34332241573E+02 -0.25087656485E+02  0.12819088501E+03  0.16335086511E+03  0.91883125835E+02 0.  0.
         23    2    1    2    0    0 -0.15103942634E+02  0.33397273848E+02  0.23935899179E+03  0.25835679506E+03  0.90066639885E+02 0.  0.
        -13    1    3    3    0    0  0.39424406910E+02  0.40241554261E+01  0.91173332241E+01  0.40664523264E+02  0.00000000000E+00 0.  1.
         13    1    3    3    0    0 -0.50921653370E+01 -0.29111811911E+02  0.11907355179E+03  0.12268634185E+03  0.00000000000E+00 0. -1.
        -13    1    4    4    0    0  0.34256511423E+02  0.25042684742E+02  0.71019754939E+02  0.82731192579E+02  0.00000000000E+00 0.  1.
         13    1    4    4    0    0 -0.49360454056E+02  0.83545891054E+01  0.16833923685E+03  0.17562560248E+03  0.00000000000E+00 0. -1.
         21    1    1    2  502  501 -0.19228298940E+02 -0.83096173627E+01  0.31651568527E+02  0.37955223765E+02  0.00000000000E+00 0.  1.
<scales pt_clust_5="13000.00000" pt_clust_6="13000.00000" pt_clust_7="13000.00000" pt_clust_8="13000.00000" pt_clust_9="20.94701"></scales>
<clustering>
<clus scale="   20.947">  2  9  1 -1</clus>
<clus scale="   90.067">  7  8 -1 -1</clus>
<clus scale="   91.883">  5  6 -1 -1</clus>
<clus scale="   97.563">  1  7  2 -1</clus>
<clus scale="   97.563">  1  5  2 -1</clus>
</clustering>
</event>
<event>
 9    1  0.1434065E-005  0.9353630E+02  0.7546771E-02  0.1294761E+00
          3   -1    0    0  502    0  0.00000000000E+00  0.00000000000E+00  0.38385205643E+03  0.38385205643E+03  0.00000000000E+00 0. -1.
         -3   -1    0    0    0  501 -0.00000000000E+00 -0.00000000000E+00 -0.10499834582E+03  0.10499834582E+03  0.00000000000E+00 0.  1.
         23    2    1    2    0    0  0.11196329020E+02  0.26185687747E+02  0.39615266574E+02  0.10220259256E+03  0.89805080887E+02 0.  0.
         23    2    1    2    0    0 -0.23585052339E+02  0.21702751236E+02  0.29614419018E+03  0.31124855905E+03  0.90260844371E+02 0.  0.
        -11    1    3    3    0    0  0.45390237243E+02  0.40745237779E+01  0.26139211395E+00  0.45573497856E+02  0.00000000000E+00 0.  1.
         11    1    3    3    0    0 -0.34193908223E+02  0.22111163969E+02  0.39353874460E+02  0.56629094700E+02  0.00000000000E+00 0. -1.
        -13    1    4    4    0    0 -0.15774107792E+02  0.55458930711E+02  0.14202716371E+03  0.15328480259E+03  0.00000000000E+00 0.  1.
         13    1    4    4    0    0 -0.78109445470E+01 -0.33756179475E+02  0.15411702647E+03  0.15796375646E+03  0.00000000000E+00 0. -1.
         21    1    1    2  502  501  0.12388723318E+02 -0.47888438983E+02 -0.56905746150E+02  0.75399250650E+02  0.00000000000E+00 0.  1.
<scales pt_clust_5="13000.00000" pt_clust_6="13000.00000" pt_clust_7="13000.00000" pt_clust_8="13000.00000" pt_clust_9="49.46497"></scales>
<clustering>
<clus scale="   49.465">  2  9  1 -1</clus>
<clus scale="   89.805">  5  6 -1 -1</clus>
<clus scale="   90.261">  7  8 -1 -1</clus>
<clus scale="   93.097">  2  5  1 -1</clus>
<clus scale="   93.536">  1  5  2 -1</clus>
</clustering>
</event>
<event>
 9    1  0.1434065E-005  0.9779360E+02  0.7546771E-02  0.1292061E+00
         -1   -1    0    0    0  501 -0.00000000000E+00  0.00000000000E+00  0.49573573511E+02  0.49573573511E+02  0.00000000000E+00 0.  1.
          1   -1    0    0  502    0  0.00000000000E+00 -0.00000000000E+00 -0.29434848541E+03  0.29434848541E+03  0.00000000000E+00 0. -1.
         23    2    1    2    0    0  0.13735332209E+02 -0.23143457259E+01 -0.62863317022E+02  0.10415045192E+03  0.81862717160E+02 0.  0.
         23    2    1    2    0    0 -0.21950328018E+02 -0.29184842448E+02 -0.18074920898E+03  0.20719805711E+03  0.94483789060E+02 0.  0.
        -11    1    3    3    0    0  0.27993564565E+02  0.32558867286E+02 -0.45834226508E+02  0.62805221245E+02  0.00000000000E+00 0. -1.
         11    1    3    3    0    0 -0.14258232356E+02 -0.34873213012E+02 -0.17029090514E+02  0.41345230674E+02  0.00000000000E+00 0.  1.
        -13    1    4    4    0    0 -0.44970520478E+02 -0.47289829517E+02 -0.85567976960E+02  0.10761298420E+03  0.00000000000E+00 0.  1.
         13    1    4    4    0    0  0.23020192460E+02  0.18104987068E+02 -0.95181232017E+02  0.99585072907E+02  0.00000000000E+00 0. -1.
         21    1    1    2  502  501  0.82149958086E+01  0.31499188174E+02 -0.11623859023E+01  0.32573549895E+02  0.00000000000E+00 0. -1.
<scales pt_clust_5="13000.00000" pt_clust_6="13000.00000" pt_clust_7="13000.00000" pt_clust_8="13000.00000" pt_clust_9="32.55280"></scales>
<clustering>
<clus scale="   32.553">  1  9  2 -1</clus>
<clus scale="   81.863">  5  6 -1 -1</clus>
<clus scale="   85.662">  1  5  2 -1</clus>
<clus scale="   94.484">  7  8 -1 -1</clus>
<clus scale="   97.794">  2  5  1 -1</clus>
</clustering>
</event>
<event>
 9    1  0.1434065E-005  0.1346698E+03  0.7546771E-02  0.1221446E+00
          1   -1    0    0  502    0  0.00000000000E+00  0.00000000000E+00  0.74438482082E+03  0.74438482082E+03  0.00000000000E+00 0. -1.
         -1   -1    0    0    0  501 -0.00000000000E+00 -0.00000000000E+00 -0.97286545367E+02  0.97286545367E+02  0.00000000000E+00 0.  1.
         23    2    1    2    0    0 -0.55129757821E+02  0.12084793651E+03  0.14812871173E+03  0.21828961478E+03  0.89803823569E+02 0.  0.
         23    2    1    2    0    0  0.49272966203E+02 -0.75413999805E+02  0.54397861911E+03  0.55916057359E+03  0.92912391235E+02 0.  0.
        -13    1    4    4    0    0  0.71413777650E+02 -0.78295712300E+02  0.41835041434E+03  0.43156368636E+03  0.00000000000E+00 0.  1.
         13    1    4    4    0    0 -0.22140811446E+02  0.28817124945E+01  0.12562820477E+03  0.12759688723E+03  0.00000000000E+00 0. -1.
        -13    1    3    3    0    0 -0.79940796554E+02  0.97856935557E+02  0.12066749574E+03  0.17472022012E+03  0.00000000000E+00 0. -1.
         13    1    3    3    0    0  0.24811038733E+02  0.22991000948E+02  0.27461215994E+02  0.43569394665E+02  0.00000000000E+00 0.  1.
         21    1    1    2  502  501  0.58567916179E+01 -0.45433936700E+02 -0.45009055392E+02  0.64221177811E+02  0.00000000000E+00 0.  1.
<scales pt_clust_5="13000.00000" pt_clust_6="13000.00000" pt_clust_7="13000.00000" pt_clust_8="13000.00000" pt_clust_9="45.80987"></scales>
<clustering>
<clus scale="   45.810">  2  9  1 -1</clus>
<clus scale="   89.804">  7  8 -1 -1</clus>
<clus scale="   92.912">  5  6 -1 -1</clus>
<clus scale="  132.544">  2  7  1 -1</clus>
<clus scale="  134.670">  1  5  2 -1</clus>
</clustering>
</event>
<event>
 9    1  0.1434065E-005  0.1185636E+03  0.7546771E-02  0.1246300E+00
          1   -1    0    0  502    0  0.00000000000E+00  0.00000000000E+00  0.43651869148E+03  0.43651869148E+03  0.00000000000E+00 0. -1.
         -1   -1    0    0    0  501 -0.00000000000E+00 -0.00000000000E+00 -0.40759546052E+02  0.40759546052E+02  0.00000000000E+00 0.  1.
         23    2    1    2    0    0 -0.10616857938E+01  0.66682675265E+02  0.13639399459E+03  0.17730586048E+03  0.91576962412E+02 0.  0.
         23    2    1    2    0    0 -0.12707379289E+02 -0.87621512584E+02  0.21296347169E+03  0.24723588219E+03  0.89068143661E+02 0.  0.
        -13    1    3    3    0    0 -0.16908272890E+02 -0.14691752712E+02  0.67017094635E+01  0.23380551739E+02  0.00000000000E+00 0. -1.
         13    1    3    3    0    0  0.15846587096E+02  0.81374427977E+02  0.12969228512E+03  0.15392530874E+03  0.00000000000E+00 0.  1.
        -13    1    4    4    0    0 -0.45046313167E+02 -0.39547640821E+02  0.65448952569E+02  0.88751065441E+02  0.00000000000E+00 0.  1.
         13    1    4    4    0    0  0.32338933878E+02 -0.48073871762E+02  0.14751451912E+03  0.15848481675E+03  0.00000000000E+00 0. -1.
         21    1    1    2  502  501  0.13769065083E+02  0.20938837319E+02  0.46401679157E+02  0.52736494860E+02  0.00000000000E+00 0.  1.
<scales pt_clust_5="13000.00000" pt_clust_6="13000.00000" pt_clust_7="13000.00000" pt_clust_8="13000.00000" pt_clust_9="25.06037"></scales>
<clustering>
<clus scale="   25.060">  1  9  2 -1</clus>
<clus scale="   89.068">  7  8 -1 -1</clus>
<clus scale="   91.577">  5  6 -1 -1</clus>
<clus scale="  116.637">  1  7  2 -1</clus>
<clus scale="   25.060">  1  5  2 -1</clus>
</clustering>
</event>
<event>
 9    1  0.1434065E-005  0.9719144E+02  0.7546771E-02  0.1288023E+00
         -1   -1    0    0    0  501 -0.00000000000E+00  0.00000000000E+00  0.25792624555E+03  0.25792624555E+03  0.00000000000E+00 0.  1.
          1   -1    0    0  502    0  0.00000000000E+00 -0.00000000000E+00 -0.36121816972E+03  0.36121816972E+03  0.00000000000E+00 0. -1.
         23    2    1    2    0    0 -0.43248776241E+02 -0.11528477143E+01 -0.40840555542E+02  0.10617443269E+03  0.87939032725E+02 0.  0.
         23    2    1    2    0    0 -0.15993157667E+02  0.42512201964E+02 -0.27245331801E+03  0.29088661611E+03  0.91220307651E+02 0.  0.
        -13    1    3    3    0    0 -0.13732641006E+02 -0.38020712181E+02  0.45383909053E+01  0.40678704205E+02  0.00000000000E+00 0.  1.
         13    1    3    3    0    0 -0.29516135235E+02  0.36867864467E+02 -0.45378946447E+02  0.65495728488E+02  0.00000000000E+00 0. -1.
        -13    1    4    4    0    0  0.35534563830E+02  0.99546265597E+00 -0.10365682697E+03  0.10958300028E+03  0.00000000000E+00 0.  1.
         13    1    4    4    0    0 -0.51527721497E+02  0.41516739308E+02 -0.16879649104E+03  0.18130361583E+03  0.00000000000E+00 0. -1.
         21    1    1    2  502  501  0.59241933908E+02 -0.41359354250E+02  0.21000194938E+03  0.22208336647E+03  0.00000000000E+00 0.  1.
<scales pt_clust_5="13000.00000" pt_clust_6="13000.00000" pt_clust_7="13000.00000" pt_clust_8="13000.00000" pt_clust_9="72.25097"></scales>
<clustering>
<clus scale="   72.251">  1  9  2 -1</clus>
<clus scale="   87.939">  5  6 -1 -1</clus>
<clus scale="   91.220">  7  8 -1 -1</clus>
<clus scale="   94.119">  1  5  2 -1</clus>
<clus scale="   97.191">  2  5  1 -1</clus>
</clustering>
</event>
<event>
 9    1  0.1434065E-005  0.1745712E+03  0.7546771E-02  0.1197917E+00
         -1   -1    0    0    0  501 -0.00000000000E+00  0.00000000000E+00  0.16742634951E+03  0.16742634951E+03  0.00000000000E+00 0.  1.
          1   -1    0    0  502    0  0.00000000000E+00 -0.00000000000E+00 -0.56404104450E+03  0.56404104450E+03  0.00000000000E+00 0. -1.
         23    2    1    2    0    0 -0.38560321818E+02  0.10305750984E+02  0.20402459804E+01  0.10061875534E+03  0.92341022304E+02 0.  0.
         23    2    1    2    0    0 -0.10884399981E+03  0.10203286282E+03 -0.41132094406E+03  0.44508420230E+03  0.81592320236E+02 0.  0.
        -11    1    3    3    0    0 -0.53497073171E+02 -0.20625275733E+02  0.21389349586E+02  0.61195123275E+02  0.00000000000E+00 0. -1.
         11    1    3    3    0    0  0.14936751353E+02  0.30931026716E+02 -0.19349103606E+02  0.39423632063E+02  0.00000000000E+00 0.  1.
        -13    1    4    4    0    0 -0.11047648846E+03  0.59973863139E+02 -0.33685591900E+03  0.35954669923E+03  0.00000000000E+00 0. -1.
         13    1    4    4    0    0  0.16324886501E+01  0.42058999684E+02 -0.74465025055E+02  0.85537503061E+02  0.00000000000E+00 0.  1.
         21    1    1    2  502  501  0.14740432163E+03 -0.11233861381E+03  0.12666003088E+02  0.18576443637E+03  0.00000000000E+00 0.  1.
<scales pt_clust_5="13000.00000" pt_clust_6="13000.00000" pt_clust_7="13000.00000" pt_clust_8="13000.00000" pt_clust_9="154.33016"></scales>
<clustering>
<clus scale="   81.592">  7  8 -1 -1</clus>
<clus scale="   92.341">  5  6 -1 -1</clus>
<clus scale="  100.598">  1  5  2 -1</clus>
<clus scale="  154.330">  1  9  2 -1</clus>
<clus scale="  174.571">  2  5  1 -1</clus>
</clustering>
</event>
<event>
 9    1  0.1434065E-005  0.1385092E+03  0.7546771E-02  0.1216446E+00
         -2   -1    0    0    0  501 -0.00000000000E+00  0.00000000000E+00  0.18191666169E+03  0.18191666169E+03  0.00000000000E+00 0.  1.
          2   -1    0    0  502    0  0.00000000000E+00 -0.00000000000E+00 -0.19087397773E+03  0.19087397773E+03  0.00000000000E+00 0. -1.
         23    2    1    2    0    0  0.11636627222E+02  0.82946699021E+02  0.95616288912E+02  0.15731689149E+03  0.92685293715E+02 0.  0.
         23    2    1    2    0    0 -0.28474577709E+02 -0.98564432841E+02 -0.12192829159E+03  0.18668806860E+03  0.97263444687E+02 0.  0.
        -11    1    3    3    0    0 -0.11218397636E+02  0.89533140025E+02  0.98235941008E+02  0.13338791442E+03  0.00000000000E+00 0.  1.
         11    1    3    3    0    0  0.22855024858E+02 -0.65864410037E+01 -0.26196520962E+01  0.23928977067E+02  0.00000000000E+00 0. -1.
        -11    1    4    4    0    0 -0.30057053059E+02 -0.48502014956E+02 -0.12406229281E+03  0.13655520639E+03  0.00000000000E+00 0. -1.
         11    1    4    4    0    0  0.15824753498E+01 -0.50062417885E+02  0.21340012263E+01  0.50132862216E+02  0.00000000000E+00 0.  1.
         21    1    1    2  502  501  0.16837950487E+02  0.15617733820E+02  0.17354686636E+02  0.28785679331E+02  0.00000000000E+00 0.  1.
<scales pt_clust_5="13000.00000" pt_clust_6="13000.00000" pt_clust_7="13000.00000" pt_clust_8="13000.00000" pt_clust_9="22.96585"></scales>
<clustering>
<clus scale="   22.966">  1  9  2 -1</clus>
<clus scale="   92.685">  5  6 -1 -1</clus>
<clus scale="   97.263">  7  8 -1 -1</clus>
<clus scale="  135.334">  1  5  2 -1</clus>
<clus scale="  138.509">  2  5  1 -1</clus>
</clustering>
</event>
<event>
 9    1  0.1434065E-005  0.1687230E+03  0.7546771E-02  0.1179313E+00
          1   -1    0    0  502    0  0.00000000000E+00  0.00000000000E+00  0.34774813037E+03  0.34774813037E+03  0.00000000000E+00 0. -1.
         -1   -1    0    0    0  501 -0.00000000000E+00 -0.00000000000E+00 -0.28921040723E+03  0.28921040723E+03  0.00000000000E+00 0.  1.
         23    2    1    2    0    0 -0.10620480528E+03 -0.18981343961E+03 -0.94618914162E+01  0.23582033226E+03  0.90626150727E+02 0.  0.
         23    2    1    2    0    0  0.74650062973E+02  0.10033291691E+03  0.19089513881E+03  0.24587785758E+03  0.91518526591E+02 0.  0.
        -11    1    4    4    0    0  0.18903364914E+02 -0.11676559766E+02  0.63689607218E+02  0.67454023754E+02  0.00000000000E+00 0.  1.
         11    1    4    4    0    0  0.55746698059E+02  0.11200947667E+03  0.12720553159E+03  0.17842383383E+03  0.00000000000E+00 0. -1.
        -13    1    3    3    0    0 -0.11388087208E+03 -0.16368634603E+03 -0.30084937018E+02  0.20166104318E+03  0.00000000000E+00 0.  1.
         13    1    3    3    0    0  0.76760667942E+01 -0.26127093582E+02  0.20623045601E+02  0.34159289078E+02  0.00000000000E+00 0. -1.
         21    1    1    2  502  501  0.31554742309E+02  0.89480522701E+02 -0.12289552426E+03  0.15526034776E+03  0.00000000000E+00 0.  1.
<scales pt_clust_5="13000.00000" pt_clust_6="13000.00000" pt_clust_7="13000.00000" pt_clust_8="13000.00000" pt_clust_9="94.88132"></scales>
<clustering>
<clus scale="   90.626">  7  8 -1 -1</clus>
<clus scale="   91.519">  5  6 -1 -1</clus>
<clus scale="   94.881">  2  9  1 -1</clus>
<clus scale="  168.241">  2  7  1 -1</clus>
<clus scale="  168.723">  1  5  2 -1</clus>
</clustering>
</event>
<event>
 9    1  0.1434065E-005  0.1427834E+03  0.7546771E-02  0.1209860E+00
         -2   -1    0    0    0  501 -0.00000000000E+00  0.00000000000E+00  0.47350983692E+03  0.47350983692E+03  0.00000000000E+00 0.  1.
          2   -1    0    0  502    0  0.00000000000E+00 -0.00000000000E+00 -0.10475294119E+03  0.10475294119E+03  0.00000000000E+00 0. -1.
         23    2    1    2    0    0 -0.54720578546E+02  0.96666537131E+02  0.38767172153E+03  0.41363257400E+03  0.91998812372E+02 0.  0.
         23    2    1    2    0    0  0.54813479910E+02 -0.72179273629E+02 -0.35963214798E+02  0.13479260581E+03  0.93066259420E+02 0.  0.
        -11    1    4    4    0    0  0.60201528334E+02 -0.10226561169E+02 -0.39129743494E+02  0.72525467203E+02  0.00000000000E+00 0.  1.
         11    1    4    4    0    0 -0.53880484245E+01 -0.61952712459E+02  0.31665286959E+01  0.62267138612E+02  0.00000000000E+00 0. -1.
        -13    1    3    3    0    0 -0.64040898420E+02  0.43380648505E+02  0.13830316778E+03  0.15846413964E+03  0.00000000000E+00 0. -1.
         13    1    3    3    0    0  0.93203198733E+01  0.53285888626E+02  0.24936855376E+03  0.25516843436E+03  0.00000000000E+00 0.  1.
         21    1    1    2  502  501 -0.92901363618E-01 -0.24487263502E+02  0.17048388992E+02  0.29837598290E+02  0.00000000000E+00 0.  1.
<scales pt_clust_5="13000.00000" pt_clust_6="13000.00000" pt_clust_7="13000.00000" pt_clust_8="13000.00000" pt_clust_9="24.48744"></scales>
<clustering>
<clus scale="   24.487">  2  9  1 -1</clus>
<clus scale="   91.999">  7  8 -1 -1</clus>
<clus scale="   93.066">  5  6 -1 -1</clus>
<clus scale="  142.090">  1  7  2 -1</clus>
<clus scale="   24.487">  2  5  1 -1</clus>
</clustering>
</event>
<event>
 9    1  0.1434065E-005  0.9212625E+02  0.7546771E-02  0.1298793E+00
          2   -1    0    0  502    0  0.00000000000E+00  0.00000000000E+00  0.46989619104E+03  0.46989619104E+03  0.00000000000E+00 0. -1.
         -2   -1    0    0    0  501 -0.00000000000E+00 -0.00000000000E+00 -0.22386247514E+03  0.22386247514E+03  0.00000000000E+00 0.  1.
         23    2    1    2    0    0 -0.34905284498E+01 -0.13894304389E+02  0.17228001831E+03  0.19556359584E+03  0.91430191006E+02 0.  0.
         23    2    1    2    0    0 -0.70386549900E+01 -0.27606427332E+02  0.27592574254E+03  0.29153905133E+03  0.89712571899E+02 0.  0.
        -11    1    4    4    0    0 -0.27892062031E+02  0.15637275607E+02  0.42271260439E+02  0.53003310952E+02  0.00000000000E+00 0.  1.
         11    1    4    4    0    0  0.20853407041E+02 -0.43243702939E+02  0.23365448210E+03  0.23853574037E+03  0.00000000000E+00 0. -1.
        -13    1    3    3    0    0  0.31027302905E+02 -0.10674863573E+02  0.15178449443E+03  0.15529062749E+03  0.00000000000E+00 0. -1.
         13    1    3    3    0    0 -0.34517831355E+02 -0.32194408158E+01  0.20495523876E+02  0.40272968348E+02  0.00000000000E+00 0.  1.
         21    1    1    2  502  501  0.10529183440E+02  0.41500731721E+02 -0.20217204495E+03  0.20665601902E+03  0.00000000000E+00 0.  1.
<scales pt_clust_5="13000.00000" pt_clust_6="13000.00000" pt_clust_7="13000.00000" pt_clust_8="13000.00000" pt_clust_9="42.81559"></scales>
<clustering>
<clus scale="   42.816">  2  9  1 -1</clus>
<clus scale="   89.713">  5  6 -1 -1</clus>
<clus scale="   90.422">  1  5  2 -1</clus>
<clus scale="   91.430">  7  8 -1 -1</clus>
<clus scale="   90.422">  1  5  2 -1</clus>
</clustering>
</event>
<event>
 9    1  0.1434065E-005  0.1078943E+03  0.7546771E-02  0.1266766E+00
          1   -1    0    0  502    0  0.00000000000E+00  0.00000000000E+00  0.19906337733E+03  0.19906337733E+03  0.00000000000E+00 0. -1.
         -1   -1    0    0    0  501 -0.00000000000E+00 -0.00000000000E+00 -0.10135781155E+03  0.10135781155E+03  0.00000000000E+00 0.  1.
         23    2    1    2    0    0 -0.25646999389E+02  0.27044764875E+02 -0.13635904113E+02  0.10038880216E+03  0.92210551642E+02 0.  0.
         23    2    1    2    0    0  0.67556287551E+02 -0.22884926185E+01  0.10292965562E+03  0.15063582743E+03  0.86761450619E+02 0.  0.
        -11    1    3    3    0    0 -0.73397875235E+00 -0.33621661475E+02 -0.12907870793E+01  0.33654434721E+02  0.00000000000E+00 0.  1.
         11    1    3    3    0    0 -0.24913020637E+02  0.60666426350E+02 -0.12345117033E+02  0.66734367442E+02  0.00000000000E+00 0. -1.
        -11    1    4    4    0    0  0.28354080284E+02 -0.15886703758E+01 -0.10764963215E+02  0.30370416120E+02  0.00000000000E+00 0.  1.
         11    1    4    4    0    0  0.39202207267E+02 -0.69982224276E+00  0.11369461883E+03  0.12026541131E+03  0.00000000000E+00 0. -1.
         21    1    1    2  502  501 -0.41909288162E+02 -0.24756272257E+02  0.84118142685E+01  0.49396559289E+02  0.00000000000E+00 0.  1.
<scales pt_clust_5="13000.00000" pt_clust_6="13000.00000" pt_clust_7="13000.00000" pt_clust_8="13000.00000" pt_clust_9="48.67506"></scales>
<clustering>
<clus scale="   48.675">  2  9  1 -1</clus>
<clus scale="   86.761">  7  8 -1 -1</clus>
<clus scale="   92.211">  5  6 -1 -1</clus>
<clus scale="  103.276">  1  7  2 -1</clus>
<clus scale="  103.276">  1  5  2 -1</clus>
</clustering>
</event>
<event>
 9    1  0.1434065E-005  0.2450295E+03  0.7546771E-02  0.1116609E+00
         -2   -1    0    0    0  501 -0.00000000000E+00  0.00000000000E+00  0.38426362238E+03  0.38426362238E+03  0.00000000000E+00 0.  1.
          2   -1    0    0  502    0  0.00000000000E+00 -0.00000000000E+00 -0.32324903861E+03  0.32324903861E+03  0.00000000000E+00 0. -1.
         23    2    1    2    0    0 -0.16710917342E+03  0.19056155154E+03  0.21502860282E+03  0.34398044123E+03  0.88578006030E+02 0.  0.
         23    2    1    2    0    0  0.12395572453E+03 -0.18494739492E+03 -0.19052137150E+03  0.30672970496E+03  0.90631994197E+02 0.  0.
        -11    1    4    4    0    0  0.86628348020E+02 -0.16779285538E+03 -0.18657465901E+03  0.26546000901E+03  0.00000000000E+00 0. -1.
         11    1    4    4    0    0  0.37327376514E+02 -0.17154539546E+02 -0.39467124870E+01  0.41269695951E+02  0.00000000000E+00 0.  1.
        -13    1    3    3    0    0 -0.13397059605E+02  0.73550537050E+02  0.50359460493E+02  0.90140101883E+02  0.00000000000E+00 0. -1.
         13    1    3    3    0    0 -0.15371211381E+03  0.11701101449E+03  0.16466914233E+03  0.25384033935E+03  0.00000000000E+00 0.  1.
         21    1    1    2  502  501  0.43153448885E+02 -0.56141566154E+01  0.36507352447E+02  0.56802514802E+02  0.00000000000E+00 0. -1.
<scales pt_clust_5="13000.00000" pt_clust_6="13000.00000" pt_clust_7="13000.00000" pt_clust_8="13000.00000" pt_clust_9="43.51711"></scales>
<clustering>
<clus scale="   43.517">  1  9  2 -1</clus>
<clus scale="   88.578">  7  8 -1 -1</clus>
<clus scale="   90.632">  5  6 -1 -1</clus>
<clus scale="  244.277">  1  7  2 -1</clus>
<clus scale="  245.029">  2  5  1 -1</clus>
</clustering>
</event>
<event>
 9    1  0.1434065E-005  0.1546450E+03  0.7546771E-02  0.1211489E+00
          1   -1    0    0  502    0  0.00000000000E+00  0.00000000000E+00  0.17367625616E+03  0.17367625616E+03  0.00000000000E+00 0. -1.
         -1   -1    0    0    0  501 -0.00000000000E+00 -0.00000000000E+00 -0.34855219047E+03  0.34855219047E+03  0.00000000000E+00 0.  1.
         23    2    1    2    0    0  0.16354810460E+02  0.48780402042E+02 -0.90133492155E+02  0.14068344146E+03  0.94977770257E+02 0.  0.
         23    2    1    2    0    0  0.98414757066E+02 -0.94441019676E+02 -0.16591275596E+03  0.23374255095E+03  0.92216955762E+02 0.  0.
        -11    1    3    3    0    0 -0.32748849891E+02  0.20055996876E+02 -0.56261052043E+01  0.38812153246E+02  0.00000000000E+00 0.  1.
         11    1    3    3    0    0  0.49103660351E+02  0.28724405166E+02 -0.84507386951E+02  0.10187128821E+03  0.00000000000E+00 0. -1.
        -13    1    4    4    0    0  0.29535354656E+02  0.13258812266E+01  0.72788090801E+00  0.29574058671E+02  0.00000000000E+00 0. -1.
         13    1    4    4    0    0  0.68879402410E+02 -0.95766900903E+02 -0.16664063686E+03  0.20416849228E+03  0.00000000000E+00 0.  1.
         21    1    1    2  502  501 -0.11476956753E+03  0.45660617635E+02  0.81170313795E+02  0.14780245422E+03  0.00000000000E+00 0.  1.
<scales pt_clust_5="13000.00000" pt_clust_6="13000.00000" pt_clust_7="13000.00000" pt_clust_8="13000.00000" pt_clust_9="124.14152"></scales>
<clustering>
<clus scale="   92.217">  7  8 -1 -1</clus>
<clus scale="   94.978">  5  6 -1 -1</clus>
<clus scale="  108.018">  2  5  1 -1</clus>
<clus scale="  124.142">  1  9  2 -1</clus>
<clus scale="  124.142">  1  5  2 -1</clus>
</clustering>
</event>
<event>
 9    1  0.1434065E-005  0.1107590E+03  0.7546771E-02  0.1261305E+00
         -3   -1    0    0    0  501 -0.00000000000E+00  0.00000000000E+00  0.11321982249E+03  0.11321982249E+03  0.00000000000E+00 0.  1.
          3   -1    0    0  502    0  0.00000000000E+00 -0.00000000000E+00 -0.21139808305E+03  0.21139808305E+03  0.00000000000E+00 0. -1.
         23    2    1    2    0    0  0.22646011226E+02  0.35366000527E+02  0.47402640319E+02  0.10893200773E+03  0.88631688355E+02 0.  0.
         23    2    1    2    0    0 -0.38326127656E+02 -0.49277632090E+02 -0.15578161901E+03  0.19237379379E+03  0.94035028738E+02 0.  0.
        -13    1    3    3    0    0 -0.20392590710E+02  0.80528231920E+01 -0.16318336602E+02  0.27331187802E+02  0.00000000000E+00 0. -1.
         13    1    3    3    0    0  0.43038601936E+02  0.27313177335E+02  0.63720976921E+02  0.81600819925E+02  0.00000000000E+00 0.  1.
        -13    1    4    4    0    0  0.14659599204E+02 -0.40522612411E+02 -0.22358117778E+02  0.48547619880E+02  0.00000000000E+00 0. -1.
         13    1    4    4    0    0 -0.52985726859E+02 -0.87550196788E+01 -0.13342350123E+03  0.14382617391E+03  0.00000000000E+00 0.  1.
         21    1    1    2  502  501  0.15680116430E+02  0.13911631563E+02  0.10200718124E+02  0.23312104029E+02  0.00000000000E+00 0.  1.
<scales pt_clust_5="13000.00000" pt_clust_6="13000.00000" pt_clust_7="13000.00000" pt_clust_8="13000.00000" pt_clust_9="20.96186"></scales>
<clustering>
<clus scale="   20.962">  1  9  2 -1</clus>
<clus scale="   88.632">  5  6 -1 -1</clus>
<clus scale="   94.035">  7  8 -1 -1</clus>
<clus scale="  106.210">  1  5  2 -1</clus>
<clus scale="  110.759">  2  5  1 -1</clus>
</clustering>
</event>
<event>
 9    1  0.1434065E-005  0.1509912E+03  0.7546771E-02  0.1199734E+00
         -1   -1    0    0    0  501 -0.00000000000E+00  0.00000000000E+00  0.61758218645E+02  0.61758218645E+02  0.00000000000E+00 0.  1.
          1   -1    0    0  502    0  0.00000000000E+00 -0.00000000000E+00 -0.77146169391E+03  0.77146169391E+03  0.00000000000E+00 0. -1.
         23    2    1    2    0    0  0.77356774823E+02  0.93130064396E+02 -0.64718833954E+02  0.16325149644E+03  0.88347292640E+02 0.  0.
         23    2    1    2    0    0 -0.66683893784E+02 -0.11290684708E+03 -0.59290460413E+03  0.61324662316E+03  0.85678780416E+02 0.  0.
        -13    1    3    3    0    0  0.29307827062E+02  0.25334840093E+02 -0.69982024091E+02  0.79989290192E+02  0.00000000000E+00 0. -1.
         13    1    3    3    0    0  0.48048947760E+02  0.67795224303E+02  0.52631901363E+01  0.83262206250E+02  0.00000000000E+00 0.  1.
        -13    1    4    4    0    0  0.18918244614E+02 -0.97673349530E+01 -0.57367366714E+02  0.61190812832E+02  0.00000000000E+00 0.  1.
         13    1    4    4    0    0 -0.85602138398E+02 -0.10313951212E+03 -0.53553723742E+03  0.55205581033E+03  0.00000000000E+00 0. -1.
         21    1    1    2  502  501 -0.10672881038E+02  0.19776782679E+02 -0.52080037182E+02  0.56721792952E+02  0.00000000000E+00 0.  1.
<scales pt_clust_5="13000.00000" pt_clust_6="13000.00000" pt_clust_7="13000.00000" pt_clust_8="13000.00000" pt_clust_9="22.47291"></scales>
<clustering>
<clus scale="   22.473">  2  9  1 -1</clus>
<clus scale="   85.679">  7  8 -1 -1</clus>
<clus scale="   88.347">  5  6 -1 -1</clus>
<clus scale="  149.446">  2  7  1 -1</clus>
<clus scale="   22.473">  2  5  1 -1</clus>
</clustering>
</event>
<event>
 9    1  0.1434065E-005  0.1211832E+03  0.7546771E-02  0.1241721E+00
          2   -1    0    0  502    0  0.00000000000E+00  0.00000000000E+00  0.63178215492E+03  0.63178215492E+03  0.00000000000E+00 0. -1.
         -2   -1    0    0    0  501 -0.00000000000E+00 -0.00000000000E+00 -0.48339235765E+02  0.48339235765E+02  0.00000000000E+00 0.  1.
         23    2    1    2    0    0  0.57591589685E+02 -0.10405730626E+03  0.25258845052E+03  0.29407491410E+03  0.92381900696E+02 0.  0.
         23    2    1    2    0    0 -0.53710919051E+02  0.30745386092E+02  0.26733838838E+03  0.28896924087E+03  0.90571886799E+02 0.  0.
        -11    1    4    4    0    0  0.19839784412E+02 -0.11364101651E+02  0.36561498296E+02  0.43121955075E+02  0.00000000000E+00 0.  1.
         11    1    4    4    0    0 -0.73550703463E+02  0.42109487743E+02  0.23077689008E+03  0.24584728580E+03  0.00000000000E+00 0. -1.
        -11    1    3    3    0    0 -0.20040035731E+02 -0.42695890964E+01  0.16667241505E+02  0.26412674278E+02  0.00000000000E+00 0. -1.
         11    1    3    3    0    0  0.77631625416E+02 -0.99787717163E+02  0.23592120902E+03  0.26766223982E+03  0.00000000000E+00 0.  1.
         21    1    1    2  502  501 -0.38806706340E+01  0.73311920168E+02  0.63516080255E+02  0.97077235716E+02  0.00000000000E+00 0. -1.
<scales pt_clust_5="13000.00000" pt_clust_6="13000.00000" pt_clust_7="13000.00000" pt_clust_8="13000.00000" pt_clust_9="73.41456"></scales>
<clustering>
<clus scale="   73.415">  2  9  1 -1</clus>
<clus scale="   90.572">  5  6 -1 -1</clus>
<clus scale="   92.382">  7  8 -1 -1</clus>
<clus scale="  119.809">  1  5  2 -1</clus>
<clus scale="  119.809">  1  5  2 -1</clus>
</clustering>
</event>
<event>
 9    1  0.2346754E-005  0.1810806E+03  0.7546771E-02  0.1166986E+00
         -1   -1    0    0    0  501 -0.00000000000E+00  0.00000000000E+00  0.26315974559E+03  0.26315974559E+03  0.00000000000E+00 0.  1.
          1   -1    0    0  502    0  0.00000000000E+00 -0.00000000000E+00 -0.47321922997E+03  0.47321922997E+03  0.00000000000E+00 0. -1.
         23    2    1    2    0    0  0.13925707073E+03 -0.75199449122E+02  0.20696422204E+03  0.27529918490E+03  0.88926728870E+02 0.  0.
         23    2    1    2    0    0 -0.11588583257E+03  0.74336439936E+02 -0.39838544558E+03  0.43117420046E+03  0.90800855745E+02 0.  0.
        -11    1    3    3    0    0  0.25982843429E+02 -0.44954999910E+02  0.11538314223E+03  0.12652797984E+03  0.00000000000E+00 0.  1.
         11    1    3    3    0    0  0.11327422730E+03 -0.30244449213E+02  0.91581079803E+02  0.14877120507E+03  0.00000000000E+00 0. -1.
        -13    1    4    4    0    0 -0.34162158123E+02 -0.16677724832E+02 -0.56800640786E+02  0.68348462652E+02  0.00000000000E+00 0.  1.
         13    1    4    4    0    0 -0.81723674448E+02  0.91014164768E+02 -0.34158480479E+03  0.36282573781E+03  0.00000000000E+00 0. -1.
         21    1    1    2  502  501 -0.23371238161E+02  0.86300918626E+00 -0.18638260839E+02  0.29905590199E+02  0.00000000000E+00 0.  1.
<scales pt_clust_5="13000.00000" pt_clust_6="13000.00000" pt_clust_7="13000.00000" pt_clust_8="13000.00000" pt_clust_9="23.38717"></scales>
<clustering>
<clus scale="   23.387">  2  9  1 -1</clus>
<clus scale="   88.927">  5  6 -1 -1</clus>
<clus scale="   90.801">  7  8 -1 -1</clus>
<clus scale="  180.148">  1  5  2 -1</clus>
<clus scale="   23.387">  2  5  1 -1</clus>
</clustering>
</event>
<event>
 9    1  0.1434065E-005  0.1110237E+03  0.7546771E-02  0.1260157E+00
         -4   -1    0    0    0  501 -0.00000000000E+00  0.00000000000E+00  0.11903101335E+03  0.11903101335E+03  0.00000000000E+00 0.  1.
          4   -1    0    0  502    0  0.00000000000E+00 -0.00000000000E+00 -0.22627281771E+03  0.22627281771E+03  0.00000000000E+00 0. -1.
         23    2    1    2    0    0 -0.56982855265E+02 -0.65101188525E+02 -0.61077991167E+02  0.13829096147E+03  0.88930638572E+02 0.  0.
         23    2    1    2    0    0 -0.25885503868E+02  0.54603171078E+02 -0.53909175902E+02  0.12312387175E+03  0.92745473993E+02 0.  0.
        -13    1    4    4    0    0  0.15952714145E+02  0.42770434439E+02  0.91220106843E+01  0.46551157124E+02  0.00000000000E+00 0.  1.
         13    1    4    4    0    0 -0.41838218013E+02  0.11832736640E+02 -0.63031186586E+02  0.76572714627E+02  0.00000000000E+00 0. -1.
        -13    1    3    3    0    0  0.14382357191E+02 -0.45692917557E+02 -0.11532304159E+02  0.49271583621E+02  0.00000000000E+00 0. -1.
         13    1    3    3    0    0 -0.71365212457E+02 -0.19408270967E+02 -0.49545687008E+02  0.89019377845E+02  0.00000000000E+00 0.  1.
         21    1    1    2  502  501  0.82868359134E+02  0.10498017446E+02  0.77453627163E+01  0.83888997845E+02  0.00000000000E+00 0.  1.
<scales pt_clust_5="13000.00000" pt_clust_6="13000.00000" pt_clust_7="13000.00000" pt_clust_8="13000.00000" pt_clust_9="83.53067"></scales>
<clustering>
<clus scale="   83.531">  1  9  2 -1</clus>
<clus scale="   88.931">  7  8 -1 -1</clus>
<clus scale="   92.745">  5  6 -1 -1</clus>
<clus scale="  107.857">  1  7  2 -1</clus>
<clus scale="  111.024">  2  5  1 -1</clus>
</clustering>
</event>
<event>
 9    1  0.1434065E-005  0.1343364E+03  0.7546771E-02  0.1221417E+00
         -1   -1    0    0    0  501 -0.00000000000E+00  0.00000000000E+00  0.30421270729E+02  0.30421270729E+02  0.00000000000E+00 0.  1.
          1   -1    0    0  502    0  0.00000000000E+00 -0.00000000000E+00 -0.96650055141E+03  0.96650055141E+03  0.00000000000E+00 0. -1.
         23    2    1    2    0    0  0.16644029292E+01 -0.11294563909E+03 -0.21823343302E+03  0.26176137116E+03  0.90187008580E+02 0.  0.
         23    2    1    2    0    0 -0.11298627284E+02  0.93825425626E+02 -0.66977347641E+03  0.68253580162E+03  0.91256459074E+02 0.  0.
        -11    1    3    3    0    0  0.32367872009E+02 -0.96545973969E+02 -0.19477281063E+03  0.21978455813E+03  0.00000000000E+00 0. -1.
         11    1    3    3    0    0 -0.30703469080E+02 -0.16399665125E+02 -0.23460622381E+02  0.41976813031E+02  0.00000000000E+00 0.  1.
        -11    1    4    4    0    0  0.24123485824E+02 -0.63967010383E+01 -0.13903809196E+03  0.14126022571E+03  0.00000000000E+00 0. -1.
         11    1    4    4    0    0 -0.35422113108E+02  0.10022212666E+03 -0.53073538446E+03  0.54127557592E+03  0.00000000000E+00 0.  1.
         21    1    1    2  502  501  0.96342243545E+01  0.19120213469E+02 -0.48072371257E+02  0.52624649360E+02  0.00000000000E+00 0. -1.
<scales pt_clust_5="13000.00000" pt_clust_6="13000.00000" pt_clust_7="13000.00000" pt_clust_8="13000.00000" pt_clust_9="21.41030"></scales>
<clustering>
<clus scale="   21.410">  1  9  2 -1</clus>
<clus scale="   90.187">  5  6 -1 -1</clus>
<clus scale="   91.256">  7  8 -1 -1</clus>
<clus scale="  133.612">  1  5  2 -1</clus>
<clus scale="  134.336">  2  5  1 -1</clus>
</clustering>
</event>
<event>
 9    1  0.1434065E-005  0.9822548E+02  0.7546771E-02  0.1287665E+00
         -1   -1    0    0    0  501 -0.00000000000E+00  0.00000000000E+00  0.12445631517E+03  0.12445631517E+03  0.00000000000E+00 0.  1.
          1   -1    0    0  502    0  0.00000000000E+00 -0.00000000000E+00 -0.17685017661E+03  0.17685017661E+03  0.00000000000E+00 0. -1.
         23    2    1    2    0    0  0.32789226880E+02  0.27773025811E+02  0.41069028734E+02  0.11265673026E+03  0.95699526591E+02 0.  0.
         23    2    1    2    0    0  0.88749310978E+00 -0.20314823127E+02 -0.11583442756E+03  0.14753733102E+03  0.89085182577E+02 0.  0.
        -11    1    3    3    0    0  0.36806098160E+02  0.57481247225E+02  0.45953186990E+02  0.82282914623E+02  0.00000000000E+00 0.  1.
         11    1    3    3    0    0 -0.40168712808E+01 -0.29708221414E+02 -0.48841582564E+01  0.30373815637E+02  0.00000000000E+00 0. -1.
        -11    1    4    4    0    0  0.24088872786E+02  0.76103244740E+01  0.90902323756E+00  0.25278788617E+02  0.00000000000E+00 0.  1.
         11    1    4    4    0    0 -0.23201379677E+02 -0.27925147601E+02 -0.11674345079E+03  0.12225854240E+03  0.00000000000E+00 0. -1.
         21    1    1    2  502  501 -0.33676719989E+02 -0.74582026837E+01  0.22371537387E+02  0.41112430500E+02  0.00000000000E+00 0. -1.
<scales pt_clust_5="13000.00000" pt_clust_6="13000.00000" pt_clust_7="13000.00000" pt_clust_8="13000.00000" pt_clust_9="34.49270"></scales>
<clustering>
<clus scale="   34.493">  1  9  2 -1</clus>
<clus scale="   89.085">  7  8 -1 -1</clus>
<clus scale="   91.793">  2  7  1 -1</clus>
<clus scale="   95.700">  5  6 -1 -1</clus>
<clus scale="   91.793">  2  5  1 -1</clus>
</clustering>
</event>
<event>
 9    1  0.1434065E-005  0.1053542E+03  0.7546771E-02  0.1271060E+00
         -1   -1    0    0    0  501 -0.00000000000E+00  0.00000000000E+00  0.67194061608E+02  0.67194061608E+02  0.00000000000E+00 0.  1.
          1   -1    0    0  502    0  0.00000000000E+00 -0.00000000000E+00 -0.28293750602E+03  0.28293750602E+03  0.00000000000E+00 0. -1.
         23    2    1    2    0    0  0.33323953115E+02 -0.23960531289E+02 -0.10800489479E+03  0.14695307399E+03  0.90805042510E+02 0.  0.
         23    2    1    2    0    0 -0.26649200160E+02  0.47595935014E+02 -0.13022271959E+03  0.16988100820E+03  0.94477761145E+02 0.  0.
        -13    1    4    4    0    0 -0.23625194705E+02  0.21448735891E+02 -0.13862568745E+03  0.14225076210E+03  0.00000000000E+00 0.  1.
         13    1    4    4    0    0 -0.30240054544E+01  0.26147199123E+02  0.84029678589E+01  0.27630246105E+02  0.00000000000E+00 0. -1.
        -13    1    3    3    0    0 -0.27888964271E+02 -0.73837786154E+01 -0.10626301006E+02  0.30744638359E+02  0.00000000000E+00 0. -1.
         13    1    3    3    0    0  0.61212917386E+02 -0.16576752674E+02 -0.97378593788E+02  0.11620843563E+03  0.00000000000E+00 0.  1.
         21    1    1    2  502  501 -0.66747529559E+01 -0.23635403725E+02  0.22484169978E+02  0.33297485429E+02  0.00000000000E+00 0.  1.
<scales pt_clust_5="13000.00000" pt_clust_6="13000.00000" pt_clust_7="13000.00000" pt_clust_8="13000.00000" pt_clust_9="24.55982"></scales>
<clustering>
<clus scale="   24.560">  1  9  2 -1</clus>
<clus scale="   90.805">  7  8 -1 -1</clus>
<clus scale="   94.478">  5  6 -1 -1</clus>
<clus scale="  102.074">  1  7  2 -1</clus>
<clus scale="  105.354">  2  5  1 -1</clus>
</clustering>
</event>
<event>
 9    1  0.1434065E-005  0.1733132E+03  0.7546771E-02  0.1174746E+00
          4   -1    0    0  502    0  0.00000000000E+00  0.00000000000E+00  0.60417203892E+03  0.60417203892E+03  0.00000000000E+00 0.  1.
         -4   -1    0    0    0  501 -0.00000000000E+00 -0.00000000000E+00 -0.10799618232E+03  0.10799618232E+03  0.00000000000E+00 0. -1.
         23    2    1    2    0    0  0.19626798055E+03 -0.53886231982E+02  0.18177766481E+03  0.28799760490E+03  0.92057888425E+02 0.  0.
         23    2    1    2    0    0 -0.12789649751E+03  0.28381512134E+00  0.29696577211E+03  0.33556041352E+03  0.89747014945E+02 0.  0.
        -11    1    3    3    0    0  0.10957172266E+03  0.86024400308E+01  0.12683998883E+03  0.16783428478E+03  0.00000000000E+00 0. -1.
         11    1    3    3    0    0  0.86696257887E+02 -0.62488672013E+02  0.54937675987E+02  0.12016332013E+03  0.00000000000E+00 0.  1.
        -13    1    4    4    0    0 -0.43754105415E+02  0.39956695801E+02  0.80535351027E+02  0.99984509025E+02  0.00000000000E+00 0. -1.
         13    1    4    4    0    0 -0.84142392095E+02 -0.39672880680E+02  0.21643042109E+03  0.23557590450E+03  0.00000000000E+00 0.  1.
         21    1    1    2  502  501 -0.68371483036E+02  0.53602416860E+02  0.17432419680E+02  0.88610202808E+02  0.00000000000E+00 0.  1.
<scales pt_clust_5="13000.00000" pt_clust_6="13000.00000" pt_clust_7="13000.00000" pt_clust_8="13000.00000" pt_clust_9="86.87853"></scales>
<clustering>
<clus scale="   86.879">  2  9  1 -1</clus>
<clus scale="   89.747">  7  8 -1 -1</clus>
<clus scale="   92.058">  5  6 -1 -1</clus>
<clus scale="  172.097">  1  7  2 -1</clus>
<clus scale="  172.097">  1  5  2 -1</clus>
</clustering>
</event>
<event>
 9    1  0.1434065E-005  0.1541306E+03  0.7546771E-02  0.1196493E+00
         -3   -1    0    0    0  501 -0.00000000000E+00  0.00000000000E+00  0.43811670126E+03  0.43811670126E+03  0.00000000000E+00 0.  1.
          3   -1    0    0  502    0  0.00000000000E+00 -0.00000000000E+00 -0.21979460864E+03  0.21979460864E+03  0.00000000000E+00 0. -1.
         23    2    1    2    0    0  0.60397045614E+02 -0.10278110661E+03  0.34471909818E+03  0.37520049517E+03  0.87934043074E+02 0.  0.
         23    2    1    2    0    0 -0.10827424717E+03  0.12312943301E+03 -0.13204916751E+03  0.23038273670E+03  0.93568439417E+02 0.  0.
        -11    1    4    4    0    0 -0.45888763734E+02  0.79357720815E+02 -0.18323821599E+02  0.93483629198E+02  0.00000000000E+00 0.  1.
         11    1    4    4    0    0 -0.62385483437E+02  0.43771712195E+02 -0.11372534591E+03  0.13689910750E+03  0.00000000000E+00 0. -1.
        -13    1    3    3    0    0  0.36012343158E+02 -0.87427697521E+02  0.32912081292E+03  0.34243393619E+03  0.00000000000E+00 0.  1.
         13    1    3    3    0    0  0.24384702456E+02 -0.15353409093E+02  0.15598285254E+02  0.32766558982E+02  0.00000000000E+00 0. -1.
         21    1    1    2  502  501  0.47877201557E+02 -0.20348326397E+02  0.56521619559E+01  0.52328078035E+02  0.00000000000E+00 0. -1.
<scales pt_clust_5="13000.00000" pt_clust_6="13000.00000" pt_clust_7="13000.00000" pt_clust_8="13000.00000" pt_clust_9="52.02193"></scales>
<clustering>
<clus scale="   52.022">  2  9  1 -1</clus>
<clus scale="   87.934">  7  8 -1 -1</clus>
<clus scale="   93.568">  5  6 -1 -1</clus>
<clus scale="  150.777">  1  7  2 -1</clus>
<clus scale="   52.022">  2  5  1 -1</clus>
</clustering>
</event>
<event>
 9    1  0.1434065E-005  0.9961141E+02  0.7546771E-02  0.1281282E+00
         -1   -1    0    0    0  501 -0.00000000000E+00  0.00000000000E+00  0.12774864822E+03  0.12774864822E+03  0.00000000000E+00 0.  1.
          1   -1    0    0  502    0  0.00000000000E+00 -0.00000000000E+00 -0.22460824645E+03  0.22460824645E+03  0.00000000000E+00 0. -1.
         23    2    1    2    0    0 -0.54595511495E+02  0.19053245862E+02  0.24729030807E+02  0.11069609081E+03  0.91095573449E+02 0.  0.
         23    2    1    2    0    0  0.35770521922E+02 -0.44824403445E+01 -0.16505424084E+03  0.19210328157E+03  0.91439301511E+02 0.  0.
        -11    1    4    4    0    0  0.43659243968E+01  0.23733053441E+02 -0.26209581109E+01  0.24273206276E+02  0.00000000000E+00 0.  1.
         11    1    4    4    0    0  0.31404597525E+02 -0.28215493786E+02 -0.16243328273E+03  0.16783007529E+03  0.00000000000E+00 0. -1.
        -13    1    3    3    0    0  0.40034958333E+01 -0.27772985043E+02 -0.75153501954E+01  0.29049047585E+02  0.00000000000E+00 0. -1.
         13    1    3    3    0    0 -0.58599007329E+02  0.46826230904E+02  0.32244381002E+02  0.81647043222E+02  0.00000000000E+00 0.  1.
         21    1    1    2  502  501  0.18824989573E+02 -0.14570805517E+02  0.43465611806E+02  0.49557522290E+02  0.00000000000E+00 0.  1.
<scales pt_clust_5="13000.00000" pt_clust_6="13000.00000" pt_clust_7="13000.00000" pt_clust_8="13000.00000" pt_clust_9="23.80522"></scales>
<clustering>
<clus scale="   23.805">  1  9  2 -1</clus>
<clus scale="   91.096">  7  8 -1 -1</clus>
<clus scale="   91.439">  5  6 -1 -1</clus>
<clus scale="   99.296">  1  7  2 -1</clus>
<clus scale="   99.611">  2  5  1 -1</clus>
</clustering>
</event>
<event>
 9    1  0.1434065E-005  0.9906930E+02  0.7546771E-02  0.1283738E+00
          3   -1    0    0  502    0  0.00000000000E+00  0.00000000000E+00  0.37374143324E+02  0.37374143324E+02  0.00000000000E+00 0. -1.
         -3   -1    0    0    0  501 -0.00000000000E+00 -0.00000000000E+00 -0.44144132628E+03  0.44144132628E+03  0.00000000000E+00 0.  1.
         23    2    1    2    0    0  0.11907513769E+02  0.63653309765E+02 -0.27317687871E+03  0.29424531620E+03  0.88097481870E+02 0.  0.
         23    2    1    2    0    0 -0.94272297233E+01 -0.38035197427E+02 -0.65386767450E+02  0.11419151445E+03  0.85021901367E+02 0.  0.
        -11    1    4    4    0    0  0.27555533704E+02  0.23681494130E+01 -0.50260587766E+02  0.57367606295E+02  0.00000000000E+00 0.  1.
         11    1    4    4    0    0 -0.36982763427E+02 -0.40403346840E+02 -0.15126179684E+02  0.56823908159E+02  0.00000000000E+00 0. -1.
        -13    1    3    3    0    0 -0.34651413151E+02  0.72295290569E+01 -0.73226923046E+02  0.81333687870E+02  0.00000000000E+00 0. -1.
         13    1    3    3    0    0  0.46558926920E+02  0.56423780708E+02 -0.19994995567E+03  0.21291162833E+03  0.00000000000E+00 0.  1.
         21    1    1    2  502  501 -0.24802840454E+01 -0.25618112337E+02 -0.65503536789E+02  0.70378638950E+02  0.00000000000E+00 0.  1.
<scales pt_clust_5="13000.00000" pt_clust_6="13000.00000" pt_clust_7="13000.00000" pt_clust_8="13000.00000" pt_clust_9="25.73790"></scales>
<clustering>
<clus scale="   25.738">  2  9  1 -1</clus>
<clus scale="   85.022">  5  6 -1 -1</clus>
<clus scale="   88.097">  7  8 -1 -1</clus>
<clus scale="   96.345">  1  5  2 -1</clus>
<clus scale="   96.345">  1  5  2 -1</clus>
</clustering>
</event>
<event>
 9    1  0.2553205E-005  0.9317601E+02  0.7546771E-02  0.1295361E+00
         -1   -1    0    0    0  501 -0.00000000000E+00  0.00000000000E+00  0.10858076111E+03  0.10858076111E+03  0.00000000000E+00 0.  1.
          1   -1    0    0  502    0  0.00000000000E+00 -0.00000000000E+00 -0.34549815434E+03  0.34549815434E+03  0.00000000000E+00 0. -1.
         23    2    1    2    0    0  0.51766520648E+01  0.88947752539E+01  0.49453801836E+02  0.10484145025E+03  0.91870215088E+02 0.  0.
         23    2    1    2    0    0 -0.59887155261E+01  0.16207777684E+02 -0.30432111978E+03  0.31836680910E+03  0.91910415180E+02 0.  0.
        -11    1    3    3    0    0  0.26267442460E+02  0.41008143025E+02  0.98918173599E+01  0.49694007470E+02  0.00000000000E+00 0.  1.
         11    1    3    3    0    0 -0.21090790395E+02 -0.32113367771E+02  0.39561984476E+02  0.55147442776E+02  0.00000000000E+00 0. -1.
        -11    1    4    4    0    0  0.37787735797E+02 -0.86202194507E+01 -0.18229778073E+03  0.18637248193E+03  0.00000000000E+00 0. -1.
         11    1    4    4    0    0 -0.43776451323E+02  0.24827997135E+02 -0.12202333905E+03  0.13199432717E+03  0.00000000000E+00 0.  1.
         21    1    1    2  502  501  0.81206346126E+00 -0.25102552938E+02  0.17949924718E+02  0.30870656106E+02  0.00000000000E+00 0.  1.
<scales pt_clust_5="13000.00000" pt_clust_6="13000.00000" pt_clust_7="13000.00000" pt_clust_8="13000.00000" pt_clust_9="25.11568"></scales>
<clustering>
<clus scale="   25.116">  1  9  2 -1</clus>
<clus scale="   91.870">  5  6 -1 -1</clus>
<clus scale="   91.910">  7  8 -1 -1</clus>
<clus scale="   93.136">  1  5  2 -1</clus>
<clus scale="   93.176">  2  5  1 -1</clus>
</clustering>
</event>
<event>
 9    1  0.1434065E-005  0.1293807E+03  0.7546771E-02  0.1228806E+00
         -2   -1    0    0    0  501 -0.00000000000E+00  0.00000000000E+00  0.52366671771E+03  0.52366671771E+03  0.00000000000E+00 0.  1.
          2   -1    0    0  502    0  0.00000000000E+00 -0.00000000000E+00 -0.30147959832E+03  0.30147959832E+03  0.00000000000E+00 0. -1.
         23    2    1    2    0    0  0.38396650947E+02  0.40102716002E+02  0.17333089684E+03  0.20513742741E+03  0.94632096517E+02 0.  0.
         23    2    1    2    0    0 -0.12213093560E+02 -0.90827989006E+02 -0.26795612931E+03  0.29809477230E+03  0.93065153508E+02 0.  0.
        -11    1    4    4    0    0 -0.17304679589E+02  0.15175564727E+02 -0.66901881106E+02  0.70750345554E+02  0.00000000000E+00 0.  1.
         11    1    4    4    0    0  0.50915860292E+01 -0.10600355373E+03 -0.20105424820E+03  0.22734442674E+03  0.00000000000E+00 0. -1.
        -11    1    3    3    0    0  0.64180155548E+02  0.26565858544E+02  0.15716459954E+03  0.17182999899E+03  0.00000000000E+00 0.  1.
         11    1    3    3    0    0 -0.25783504601E+02  0.13536857458E+02  0.16166297301E+02  0.33307428418E+02  0.00000000000E+00 0. -1.
         21    1    1    2  502  501 -0.26183557387E+02  0.50725273004E+02  0.31681235186E+03  0.32191411632E+03  0.00000000000E+00 0.  1.
<scales pt_clust_5="13000.00000" pt_clust_6="13000.00000" pt_clust_7="13000.00000" pt_clust_8="13000.00000" pt_clust_9="57.08443"></scales>
<clustering>
<clus scale="   57.084">  1  9  2 -1</clus>
<clus scale="   93.065">  5  6 -1 -1</clus>
<clus scale="   94.632">  7  8 -1 -1</clus>
<clus scale="  128.239">  2  5  1 -1</clus>
<clus scale="  128.239">  2  5  1 -1</clus>
</clustering>
</event>
<event>
 9    1  0.3197743E-005  0.9605306E+02  0.7546771E-02  0.1289017E+00
          1   -1    0    0  502    0  0.00000000000E+00  0.00000000000E+00  0.41055481607E+03  0.41055481607E+03  0.00000000000E+00 0. -1.
         -1   -1    0    0    0  501 -0.00000000000E+00 -0.00000000000E+00 -0.17092595408E+03  0.17092595408E+03  0.00000000000E+00 0.  1.
         23    2    1    2    0    0 -0.27875062450E+02 -0.14429149938E+02 -0.13714984470E+03  0.16715725479E+03  0.90256570129E+02 0.  0.
         23    2    1    2    0    0  0.54301655509E+02 -0.15253323638E+02  0.35119272115E+03  0.36705770622E+03  0.90629457853E+02 0.  0.
        -11    1    3    3    0    0 -0.41779489774E+02  0.42504331889E+01 -0.13760070326E+03  0.14386641542E+03  0.00000000000E+00 0.  1.
         11    1    3    3    0    0  0.13904427323E+02 -0.18679583127E+02  0.45085855752E+00  0.23290839367E+02  0.00000000000E+00 0. -1.
        -13    1    4    4    0    0  0.52904486897E+02 -0.49114061404E+02  0.25736635926E+03  0.26729855713E+03  0.00000000000E+00 0.  1.
         13    1    4    4    0    0  0.13971686126E+01  0.33860737766E+02  0.93826361887E+02  0.99759149090E+02  0.00000000000E+00 0. -1.
         21    1    1    2  502  501 -0.26426593059E+02  0.29682473576E+02  0.25585985536E+02  0.47265809145E+02  0.00000000000E+00 0.  1.
<scales pt_clust_5="13000.00000" pt_clust_6="13000.00000" pt_clust_7="13000.00000" pt_clust_8="13000.00000" pt_clust_9="39.74184"></scales>
<clustering>
<clus scale="   39.742">  1  9  2 -1</clus>
<clus scale="   90.257">  5  6 -1 -1</clus>
<clus scale="   90.629">  7  8 -1 -1</clus>
<clus scale="   95.701">  2  5  1 -1</clus>
<clus scale="   39.742">  1  5  2 -1</clus>
</clustering>
</event>
<event>
 9    1  0.1434065E-005  0.2945932E+03  0.7546771E-02  0.1088042E+00
          1   -1    0    0  502    0  0.00000000000E+00  0.00000000000E+00  0.22294961123E+04  0.22294961123E+04  0.00000000000E+00 0. -1.
         -1   -1    0    0    0  501 -0.00000000000E+00 -0.00000000000E+00 -0.65736920955E+02  0.65736920955E+02  0.00000000000E+00 0.  1.
         23    2    1    2    0    0  0.26301162858E+03  0.97299221570E+02  0.95073165366E+03  0.99554631695E+03  0.92625788175E+02 0.  0.
         23    2    1    2    0    0 -0.25076801575E+03 -0.12392705335E+03  0.12307688973E+04  0.12654273625E+04  0.90949540902E+02 0.  0.
        -11    1    4    4    0    0 -0.89301974098E+02  0.20280450030E+01  0.38150006475E+03  0.39181788492E+03  0.00000000000E+00 0.  1.
         11    1    4    4    0    0 -0.16146604166E+03 -0.12595509836E+03  0.84926883250E+03  0.87360947755E+03  0.00000000000E+00 0. -1.
        -13    1    3    3    0    0  0.25486488499E+03  0.72801743045E+02  0.80411696067E+03  0.84667602413E+03  0.00000000000E+00 0.  1.
         13    1    3    3    0    0  0.81467435903E+01  0.24497478526E+02  0.14661469298E+03  0.14887029282E+03  0.00000000000E+00 0. -1.
         21    1    1    2  502  501 -0.12243612830E+02  0.26627831783E+02 -0.17741359611E+02  0.34259353780E+02  0.00000000000E+00 0.  1.
<scales pt_clust_5="13000.00000" pt_clust_6="13000.00000" pt_clust_7="13000.00000" pt_clust_8="13000.00000" pt_clust_9="29.30781"></scales>
<clustering>
<clus scale="   29.308">  2  9  1 -1</clus>
<clus scale="   90.950">  5  6 -1 -1</clus>
<clus scale="   92.626">  7  8 -1 -1</clus>
<clus scale="  294.070">  1  5  2 -1</clus>
<clus scale="  294.070">  1  5  2 -1</clus>
</clustering>
</event>
<event>
 9    1  0.1434065E-005  0.1026610E+03  0.7546771E-02  0.1276201E+00
         -1   -1    0    0    0  501 -0.00000000000E+00  0.00000000000E+00  0.28446186118E+02  0.28446186118E+02  0.00000000000E+00 0.  1.
          1   -1    0    0  502    0  0.00000000000E+00 -0.00000000000E+00 -0.45358605326E+03  0.45358605326E+03  0.00000000000E+00 0. -1.
         23    2    1    2    0    0  0.48540477211E+02  0.22492445558E+02 -0.18100651888E+03  0.21056441942E+03  0.93337703069E+02 0.  0.
         23    2    1    2    0    0 -0.26241123723E+02 -0.18209747760E+02 -0.19096204792E+03  0.21365095524E+03  0.90332914478E+02 0.  0.
        -11    1    3    3    0    0  0.61526716498E+02 -0.96600942699E+01 -0.67335617623E+02  0.91722078395E+02  0.00000000000E+00 0. -1.
         11    1    3    3    0    0 -0.12986239287E+02  0.32152539828E+02 -0.11367090125E+03  0.11884234102E+03  0.00000000000E+00 0.  1.
        -13    1    4    4    0    0 -0.54663111965E+02  0.10027412263E+02 -0.10455983257E+03  0.11841183807E+03  0.00000000000E+00 0.  1.
         13    1    4    4    0    0  0.28421988242E+02 -0.28237160023E+02 -0.86402215351E+02  0.95239117170E+02  0.00000000000E+00 0. -1.
         21    1    1    2  502  501 -0.22299353488E+02 -0.42826977982E+01 -0.53171300341E+02  0.57816864723E+02  0.00000000000E+00 0. -1.
<scales pt_clust_5="13000.00000" pt_clust_6="13000.00000" pt_clust_7="13000.00000" pt_clust_8="13000.00000" pt_clust_9="22.70689"></scales>
<clustering>
<clus scale="   22.707">  2  9  1 -1</clus>
<clus scale="   90.333">  7  8 -1 -1</clus>
<clus scale="   93.338">  5  6 -1 -1</clus>
<clus scale="   99.937">  2  7  1 -1</clus>
<clus scale="   22.707">  2  5  1 -1</clus>
</clustering>
</event>
<event>
 9    1  0.1434065E-005  0.1301247E+03  0.7546771E-02  0.1227474E+00
         -1   -1    0    0    0  501 -0.00000000000E+00  0.00000000000E+00  0.55872831661E+02  0.55872831661E+02  0.00000000000E+00 0.  1.
          1   -1    0    0  502    0  0.00000000000E+00 -0.00000000000E+00 -0.76906775668E+03  0.76906775668E+03  0.00000000000E+00 0. -1.
         23    2    1    2    0    0  0.43400943289E+02 -0.58760150356E+02 -0.96966610890E+02  0.15188114351E+03  0.91263141403E+02 0.  0.
         23    2    1    2    0    0 -0.12173172299E+03  0.91773056531E+02 -0.33165816723E+03  0.37606494736E+03  0.90480928681E+02 0.  0.
        -11    1    4    4    0    0 -0.51067344300E+02  0.66239691424E+01 -0.43559529466E+02  0.67447633230E+02  0.00000000000E+00 0.  1.
         11    1    4    4    0    0 -0.70664378687E+02  0.85149087389E+02 -0.28809863776E+03  0.30861731413E+03  0.00000000000E+00 0. -1.
        -13    1    3    3    0    0  0.17405712070E+02  0.14699485822E+02  0.52209625002E+01  0.23372893392E+02  0.00000000000E+00 0. -1.
         13    1    3    3    0    0  0.25995231219E+02 -0.73459636178E+02 -0.10218757339E+03  0.12850825012E+03  0.00000000000E+00 0.  1.
         21    1    1    2  502  501  0.78330779698E+02 -0.33012906175E+02 -0.28457014690E+03  0.29699449747E+03  0.00000000000E+00 0. -1.
<scales pt_clust_5="13000.00000" pt_clust_6="13000.00000" pt_clust_7="13000.00000" pt_clust_8="13000.00000" pt_clust_9="85.00331"></scales>
<clustering>
<clus scale="   85.003">  2  9  1 -1</clus>
<clus scale="   90.481">  5  6 -1 -1</clus>
<clus scale="   91.263">  7  8 -1 -1</clus>
<clus scale="  129.577">  2  5  1 -1</clus>
<clus scale="   85.003">  2  5  1 -1</clus>
</clustering>
</event>
<event>
 9    1  0.1434065E-005  0.1010895E+03  0.7546771E-02  0.1279485E+00
         -3   -1    0    0    0  501 -0.00000000000E+00  0.00000000000E+00  0.16080117565E+03  0.16080117565E+03  0.00000000000E+00 0.  1.
          3   -1    0    0  502    0  0.00000000000E+00 -0.00000000000E+00 -0.95463215590E+02  0.95463215590E+02  0.00000000000E+00 0. -1.
         23    2    1    2    0    0 -0.36267914077E+02  0.32121433480E+02  0.61920150886E+02  0.12119026887E+03  0.92227046479E+02 0.  0.
         23    2    1    2    0    0  0.77117914871E+00 -0.39505656435E+02  0.10625609903E+02  0.98107957700E+02  0.89168246426E+02 0.  0.
        -13    1    4    4    0    0  0.40510122644E+02 -0.31011817503E+01  0.16591101650E+02  0.43885669857E+02  0.00000000000E+00 0. -1.
         13    1    4    4    0    0 -0.39738943495E+02 -0.36404474685E+02 -0.59654917466E+01  0.54222287843E+02  0.00000000000E+00 0.  1.
        -13    1    3    3    0    0 -0.29743725426E+02  0.62511095366E+02  0.26650989849E+02  0.74179522147E+02  0.00000000000E+00 0.  1.
         13    1    3    3    0    0 -0.65241886511E+01 -0.30389661885E+02  0.35269161037E+02  0.47010746721E+02  0.00000000000E+00 0. -1.
         21    1    1    2  502  501  0.35496734928E+02  0.73842229549E+01 -0.72078007283E+01  0.36966164672E+02  0.00000000000E+00 0. -1.
<scales pt_clust_5="13000.00000" pt_clust_6="13000.00000" pt_clust_7="13000.00000" pt_clust_8="13000.00000" pt_clust_9="36.25665"></scales>
<clustering>
<clus scale="   36.257">  2  9  1 -1</clus>
<clus scale="   89.168">  5  6 -1 -1</clus>
<clus scale="   92.227">  7  8 -1 -1</clus>
<clus scale="   98.307">  2  5  1 -1</clus>
<clus scale="   36.257">  2  5  1 -1</clus>
</clustering>
</event>
<event>
 9    1  0.1434065E-005  0.1171134E+03  0.7546771E-02  0.1254524E+00
         -1   -1    0    0    0  501 -0.00000000000E+00  0.00000000000E+00  0.23642806244E+02  0.23642806244E+02  0.00000000000E+00 0.  1.
          1   -1    0    0  502    0  0.00000000000E+00 -0.00000000000E+00 -0.75153121368E+03  0.75153121368E+03  0.00000000000E+00 0. -1.
         23    2    1    2    0    0  0.11745274229E+02 -0.80620688160E+02 -0.27685159422E+03  0.30385867655E+03  0.95108586732E+02 0.  0.
         23    2    1    2    0    0  0.13458925171E+02  0.62346875573E+02 -0.39299958116E+03  0.40545561213E+03  0.76663596685E+02 0.  0.
        -13    1    4    4    0    0 -0.20950868746E+02  0.56359290880E+02 -0.30316820372E+03  0.30907324102E+03  0.00000000000E+00 0.  1.
         13    1    4    4    0    0  0.34409793916E+02  0.59875846937E+01 -0.89831377443E+02  0.96382371112E+02  0.00000000000E+00 0. -1.
        -13    1    3    3    0    0  0.36391266707E+02 -0.57916116207E+02 -0.25461341703E+03  0.26364103046E+03  0.00000000000E+00 0. -1.
         13    1    3    3    0    0 -0.24645992479E+02 -0.22704571952E+02 -0.22238177185E+02  0.40217646093E+02  0.00000000000E+00 0.  1.
         21    1    1    2  502  501 -0.25204199400E+02  0.18273812586E+02 -0.58037232059E+02  0.65859731239E+02  0.00000000000E+00 0.  1.
<scales pt_clust_5="13000.00000" pt_clust_6="13000.00000" pt_clust_7="13000.00000" pt_clust_8="13000.00000" pt_clust_9="31.13172"></scales>
<clustering>
<clus scale="   31.132">  1  9  2 -1</clus>
<clus scale="   76.664">  5  6 -1 -1</clus>
<clus scale="   95.109">  7  8 -1 -1</clus>
<clus scale="  102.700">  2  5  1 -1</clus>
<clus scale="  102.700">  2  5  1 -1</clus>
</clustering>
</event>
<event>
 9    1  0.1434065E-005  0.1421625E+03  0.7546771E-02  0.1210933E+00
         -1   -1    0    0    0  501 -0.00000000000E+00  0.00000000000E+00  0.15588560876E+03  0.15588560876E+03  0.00000000000E+00 0.  1.
          1   -1    0    0  502    0  0.00000000000E+00 -0.00000000000E+00 -0.20650304793E+03  0.20650304793E+03  0.00000000000E+00 0. -1.
         23    2    1    2    0    0  0.98451855500E+02 -0.62740024680E+02 -0.15826991079E+02  0.15087685913E+03  0.94256323008E+02 0.  0.
         23    2    1    2    0    0 -0.95994573690E+02  0.33011274090E+02 -0.79009267653E+02  0.15817193583E+03  0.92039092317E+02 0.  0.
        -11    1    4    4    0    0 -0.30232851586E+02 -0.32217188964E+02 -0.29743554393E+02  0.53260225381E+02  0.00000000000E+00 0. -1.
         11    1    4    4    0    0 -0.65761722104E+02  0.65228463054E+02 -0.49265713260E+02  0.10491171045E+03  0.00000000000E+00 0.  1.
        -13    1    3    3    0    0  0.29563432499E+02 -0.28409675088E+02 -0.51678502064E+02  0.65967975225E+02  0.00000000000E+00 0. -1.
         13    1    3    3    0    0  0.68888423001E+02 -0.34330349592E+02  0.35851510985E+02  0.84908883908E+02  0.00000000000E+00 0.  1.
         21    1    1    2  502  501 -0.24572818102E+01  0.29728750590E+02  0.44218819565E+02  0.53339861729E+02  0.00000000000E+00 0.  1.
<scales pt_clust_5="13000.00000" pt_clust_6="13000.00000" pt_clust_7="13000.00000" pt_clust_8="13000.00000" pt_clust_9="29.83013"></scales>
<clustering>
<clus scale="   29.830">  1  9  2 -1</clus>
<clus scale="   92.039">  5  6 -1 -1</clus>
<clus scale="   94.256">  7  8 -1 -1</clus>
<clus scale="  140.702">  2  5  1 -1</clus>
<clus scale="  140.702">  2  5  1 -1</clus>
</clustering>
</event>
<event>
 9    1  0.1434065E-005  0.9668461E+02  0.7546771E-02  0.1288519E+00
         -1   -1    0    0    0  501 -0.00000000000E+00  0.00000000000E+00  0.99629202405E+02  0.99629202405E+02  0.00000000000E+00 0.  1.
          1   -1    0    0  502    0  0.00000000000E+00 -0.00000000000E+00 -0.12970353755E+03  0.12970353755E+03  0.00000000000E+00 0. -1.
         23    2    1    2    0    0 -0.60330946845E+01  0.28513956974E+02 -0.32548264528E+01  0.93410625087E+02  0.88687693679E+02 0.  0.
         23    2    1    2    0    0  0.31094031541E+02 -0.24530830143E+02 -0.40601063859E+02  0.10704570377E+03  0.90784006764E+02 0.  0.
        -11    1    3    3    0    0  0.39389184594E+02  0.14929566777E+02 -0.14741925823E+02  0.44628737425E+02  0.00000000000E+00 0. -1.
         11    1    3    3    0    0 -0.45422279279E+02  0.13584390197E+02  0.11487099371E+02  0.48781887662E+02  0.00000000000E+00 0.  1.
        -13    1    4    4    0    0  0.59669329812E+02 -0.33941546923E+02 -0.32106319155E+02  0.75784386633E+02  0.00000000000E+00 0. -1.
         13    1    4    4    0    0 -0.28575298270E+02  0.94107167802E+01 -0.84947447042E+01  0.31261317137E+02  0.00000000000E+00 0.  1.
         21    1    1    2  502  501 -0.25060936857E+02 -0.39831268306E+01  0.13781555162E+02  0.28876411103E+02  0.00000000000E+00 0.  1.
<scales pt_clust_5="13000.00000" pt_clust_6="13000.00000" pt_clust_7="13000.00000" pt_clust_8="13000.00000" pt_clust_9="25.37550"></scales>
<clustering>
<clus scale="   25.375">  1  9  2 -1</clus>
<clus scale="   88.688">  5  6 -1 -1</clus>
<clus scale="   90.784">  7  8 -1 -1</clus>
<clus scale="   94.719">  1  5  2 -1</clus>
<clus scale="   96.685">  2  5  1 -1</clus>
</clustering>
</event>
<event>
 9    1  0.1434065E-005  0.9819108E+02  0.7546771E-02  0.1286431E+00
         -2   -1    0    0    0  501 -0.00000000000E+00  0.00000000000E+00  0.13657549806E+03  0.13657549806E+03  0.00000000000E+00 0.  1.
          2   -1    0    0  502    0  0.00000000000E+00 -0.00000000000E+00 -0.11069379837E+03  0.11069379837E+03  0.00000000000E+00 0. -1.
         23    2    1    2    0    0  0.22983612019E+02 -0.32551964514E+01  0.34604403703E+02  0.96868029827E+02  0.87447742804E+02 0.  0.
         23    2    1    2    0    0 -0.32286385638E+02  0.26664920667E+02 -0.41404117551E+02  0.10913831014E+03  0.91888198909E+02 0.  0.
        -13    1    4    4    0    0  0.29061822411E+02 -0.76478763536E+01 -0.68947889955E+01  0.30832087991E+02  0.00000000000E+00 0. -1.
         13    1    4    4    0    0 -0.61348208050E+02  0.34312797021E+02 -0.34509328556E+02  0.78306222152E+02  0.00000000000E+00 0.  1.
        -13    1    3    3    0    0  0.45383939166E+02  0.25967980125E+02  0.11949937555E+02  0.53636171876E+02  0.00000000000E+00 0. -1.
         13    1    3    3    0    0 -0.22400327146E+02 -0.29223176576E+02  0.22654466148E+02  0.43231857951E+02  0.00000000000E+00 0.  1.
         21    1    1    2  502  501  0.93027736190E+01 -0.23409724216E+02  0.32681413538E+02  0.41262956459E+02  0.00000000000E+00 0. -1.
<scales pt_clust_5="13000.00000" pt_clust_6="13000.00000" pt_clust_7="13000.00000" pt_clust_8="13000.00000" pt_clust_9="25.19041"></scales>
<clustering>
<clus scale="   25.190">  1  9  2 -1</clus>
<clus scale="   87.448">  7  8 -1 -1</clus>
<clus scale="   91.888">  5  6 -1 -1</clus>
<clus scale="   94.049">  1  7  2 -1</clus>
<clus scale="   98.191">  2  5  1 -1</clus>
</clustering>
</event>
<event>
 9    1  0.1434065E-005  0.9866992E+02  0.7546771E-02  0.1283969E+00
          1   -1    0    0  502    0  0.00000000000E+00  0.00000000000E+00  0.34092032108E+03  0.34092032108E+03  0.00000000000E+00 0. -1.
         -1   -1    0    0    0  501 -0.00000000000E+00 -0.00000000000E+00 -0.55736401831E+02  0.55736401831E+02  0.00000000000E+00 0.  1.
         23    2    1    2    0    0 -0.24562079125E+02 -0.39281919224E+02  0.64650113628E+02  0.12035258547E+03  0.90325758936E+02 0.  0.
         23    2    1    2    0    0  0.62297939888E+00  0.39063450101E+02  0.23077384975E+03  0.25026595917E+03  0.88601012142E+02 0.  0.
        -11    1    3    3    0    0  0.29594523270E+02 -0.21932793150E+01  0.22088221849E+01  0.29757775071E+02  0.00000000000E+00 0. -1.
         11    1    3    3    0    0 -0.54156602395E+02 -0.37088639909E+02  0.62441291443E+02  0.90594810394E+02  0.00000000000E+00 0.  1.
        -13    1    4    4    0    0 -0.36970498884E+02  0.35657986872E+01  0.14866026689E+03  0.15322991764E+03  0.00000000000E+00 0.  1.
         13    1    4    4    0    0  0.37593478282E+02  0.35497651414E+02  0.82113582856E+02  0.97036041525E+02  0.00000000000E+00 0. -1.
         21    1    1    2  502  501  0.23939099726E+02  0.21846912229E+00 -0.10240044126E+02  0.26038178280E+02  0.00000000000E+00 0. -1.
<scales pt_clust_5="13000.00000" pt_clust_6="13000.00000" pt_clust_7="13000.00000" pt_clust_8="13000.00000" pt_clust_9="23.94010"></scales>
<clustering>
<clus scale="   23.940">  2  9  1 -1</clus>
<clus scale="   88.601">  7  8 -1 -1</clus>
<clus scale="   90.326">  5  6 -1 -1</clus>
<clus scale="   97.094">  1  7  2 -1</clus>
<clus scale="   97.094">  1  5  2 -1</clus>
</clustering>
</event>
<event>
 9    1  0.1434065E-005  0.1697503E+03  0.7546771E-02  0.1178304E+00
          2   -1    0    0  502    0  0.00000000000E+00  0.00000000000E+00  0.68118917851E+02  0.68118917851E+02  0.00000000000E+00 0.  1.
         -2   -1    0    0    0  501 -0.00000000000E+00 -0.00000000000E+00 -0.52842821381E+03  0.52842821381E+03  0.00000000000E+00 0. -1.
         23    2    1    2    0    0 -0.11491896059E+03  0.94099010478E+02 -0.30319335755E+03  0.34950457472E+03  0.90367275089E+02 0.  0.
         23    2    1    2    0    0  0.89246868164E+02 -0.10104921671E+03 -0.14318441233E+03  0.21701841473E+03  0.91756573201E+02 0.  0.
        -13    1    4    4    0    0  0.53594013471E+02 -0.72111986983E+02 -0.14554079613E+03  0.17103970383E+03  0.00000000000E+00 0. -1.
         13    1    4    4    0    0  0.35652854693E+02 -0.28937229728E+02  0.23563838053E+01  0.45978710908E+02  0.00000000000E+00 0.  1.
        -13    1    3    3    0    0 -0.72638207526E+02  0.73678558877E+01 -0.93101704108E+02  0.11831534897E+03  0.00000000000E+00 0. -1.
         13    1    3    3    0    0 -0.42280753068E+02  0.86731154590E+02 -0.21009165344E+03  0.23118922575E+03  0.00000000000E+00 0.  1.
         21    1    1    2  502  501  0.25672092431E+02  0.69502062331E+01 -0.13931526079E+02  0.30024142208E+02  0.00000000000E+00 0.  1.
<scales pt_clust_5="13000.00000" pt_clust_6="13000.00000" pt_clust_7="13000.00000" pt_clust_8="13000.00000" pt_clust_9="26.59627"></scales>
<clustering>
<clus scale="   26.596">  1  9  2 -1</clus>
<clus scale="   90.367">  7  8 -1 -1</clus>
<clus scale="   91.757">  5  6 -1 -1</clus>
<clus scale="  169.003">  2  7  1 -1</clus>
<clus scale="   26.596">  1  5  2 -1</clus>
</clustering>
</event>
<event>
 9    1  0.1434065E-005  0.1116088E+03  0.7546771E-02  0.1258125E+00
          1   -1    0    0  502    0  0.00000000000E+00  0.00000000000E+00  0.10233770243E+03  0.10233770243E+03  0.00000000000E+00 0. -1.
         -1   -1    0    0    0  501 -0.00000000000E+00 -0.00000000000E+00 -0.29374756314E+03  0.29374756314E+03  0.00000000000E+00 0.  1.
         23    2    1    2    0    0  0.57742775583E+02 -0.86109245133E+01 -0.17793214724E+03  0.20830581204E+03  0.91230949539E+02 0.  0.
         23    2    1    2    0    0 -0.33774854324E+02  0.61713784562E+02  0.26438926694E+02  0.11715570995E+03  0.89872751933E+02 0.  0.
        -13    1    4    4    0    0 -0.10083450863E+02  0.77641272780E+02  0.37156099710E+02  0.86662673429E+02  0.00000000000E+00 0. -1.
         13    1    4    4    0    0 -0.23691403462E+02 -0.15927488218E+02 -0.10717173016E+02  0.30493036522E+02  0.00000000000E+00 0.  1.
        -13    1    3    3    0    0  0.17900035992E+02 -0.23729446798E+02 -0.15886188785E+03  0.16161867883E+03  0.00000000000E+00 0.  1.
         13    1    3    3    0    0  0.39842739592E+02  0.15118522284E+02 -0.19070259388E+02  0.46687133210E+02  0.00000000000E+00 0. -1.
         21    1    1    2  502  501 -0.23967921259E+02 -0.53102860049E+02 -0.39916640175E+02  0.70623743583E+02  0.00000000000E+00 0.  1.
<scales pt_clust_5="13000.00000" pt_clust_6="13000.00000" pt_clust_7="13000.00000" pt_clust_8="13000.00000" pt_clust_9="58.26126"></scales>
<clustering>
<clus scale="   58.261">  2  9  1 -1</clus>
<clus scale="   89.873">  5  6 -1 -1</clus>
<clus scale="   91.231">  7  8 -1 -1</clus>
<clus scale="  110.501">  1  5  2 -1</clus>
<clus scale="  110.501">  1  5  2 -1</clus>
</clustering>
</event>
<event>
 9    1  0.1434065E-005  0.1897403E+03  0.7546771E-02  0.1158969E+00
         -1   -1    0    0    0  501 -0.00000000000E+00  0.00000000000E+00  0.30363684822E+03  0.30363684822E+03  0.00000000000E+00 0.  1.
          1   -1    0    0  502    0  0.00000000000E+00 -0.00000000000E+00 -0.35978671388E+03  0.35978671388E+03  0.00000000000E+00 0. -1.
         23    2    1    2    0    0 -0.18662295984E+03  0.92207013059E+02 -0.16075385031E+03  0.27727360043E+03  0.87798557564E+02 0.  0.
         23    2    1    2    0    0  0.84889877751E+02 -0.10757831612E+03 -0.73981981296E+02  0.18004599717E+03  0.90353982182E+02 0.  0.
        -13    1    3    3    0    0 -0.15051105734E+03  0.10918957133E+03 -0.12976570922E+03  0.22674893640E+03  0.00000000000E+00 0.  1.
         13    1    3    3    0    0 -0.36111902503E+02 -0.16982558268E+02 -0.30988141093E+02  0.50524664038E+02  0.00000000000E+00 0. -1.
        -13    1    4    4    0    0 -0.51796865087E+01 -0.55398365832E+02 -0.46171723789E+02  0.72302393921E+02  0.00000000000E+00 0. -1.
         13    1    4    4    0    0  0.90069564260E+02 -0.52179950291E+02 -0.27810257507E+02  0.10774360325E+03  0.00000000000E+00 0.  1.
         21    1    1    2  502  501  0.10173308209E+03  0.15371303063E+02  0.17858596595E+03  0.20610396450E+03  0.00000000000E+00 0.  1.
<scales pt_clust_5="13000.00000" pt_clust_6="13000.00000" pt_clust_7="13000.00000" pt_clust_8="13000.00000" pt_clust_9="102.88779"></scales>
<clustering>
<clus scale="   87.799">  5  6 -1 -1</clus>
<clus scale="   90.354">  7  8 -1 -1</clus>
<clus scale="  102.888">  1  9  2 -1</clus>
<clus scale="  188.537">  1  5  2 -1</clus>
<clus scale="  189.740">  2  5  1 -1</clus>
</clustering>
</event>
<event>
 9    1  0.1434065E-005  0.1080500E+03  0.7546771E-02  0.1264801E+00
         -2   -1    0    0    0  501 -0.00000000000E+00  0.00000000000E+00  0.16812335571E+02  0.16812335571E+02  0.00000000000E+00 0. -1.
          2   -1    0    0  502    0  0.00000000000E+00 -0.00000000000E+00 -0.89617164199E+03  0.89617164199E+03  0.00000000000E+00 0.  1.
         23    2    1    2    0    0 -0.54236323539E+02 -0.31412421345E+02 -0.37918287418E+03  0.39485242234E+03  0.90556415262E+02 0.  0.
         23    2    1    2    0    0  0.52137931411E+02  0.11378204502E+02 -0.46978640004E+03  0.48167161624E+03  0.91980741456E+02 0.  0.
        -11    1    3    3    0    0 -0.54805773520E+02  0.47452795754E+01 -0.32556285270E+03  0.33017777264E+03  0.00000000000E+00 0.  1.
         11    1    3    3    0    0  0.56944998101E+00 -0.36157700920E+02 -0.53620021486E+02  0.64674649695E+02  0.00000000000E+00 0. -1.
        -13    1    4    4    0    0  0.46431899914E+02 -0.35544618282E+02 -0.23417090498E+03  0.24136145913E+03  0.00000000000E+00 0. -1.
         13    1    4    4    0    0  0.57060314971E+01  0.46922822784E+02 -0.23561549506E+03  0.24031015710E+03  0.00000000000E+00 0.  1.
         21    1    1    2  502  501  0.20983921279E+01  0.20034216843E+02 -0.30390032201E+02  0.36459938991E+02  0.00000000000E+00 0. -1.
<scales pt_clust_5="13000.00000" pt_clust_6="13000.00000" pt_clust_7="13000.00000" pt_clust_8="13000.00000" pt_clust_9="20.14381"></scales>
<clustering>
<clus scale="   20.144">  1  9  2 -1</clus>
<clus scale="   90.556">  5  6 -1 -1</clus>
<clus scale="   91.981">  7  8 -1 -1</clus>
<clus scale="  106.840">  1  5  2 -1</clus>
<clus scale="  108.050">  2  5  1 -1</clus>
</clustering>
</event>
<event>
 9    1  0.1434065E-005  0.1264526E+03  0.7546771E-02  0.1233318E+00
          2   -1    0    0  502    0  0.00000000000E+00  0.00000000000E+00  0.59169846302E+02  0.59169846302E+02  0.00000000000E+00 0. -1.
         -2   -1    0    0    0  501 -0.00000000000E+00 -0.00000000000E+00 -0.48495092114E+03  0.48495092114E+03  0.00000000000E+00 0.  1.
         23    2    1    2    0    0  0.48264660422E+02 -0.63178635707E+02 -0.35542927839E+03  0.37517465903E+03  0.90027970021E+02 0.  0.
         23    2    1    2    0    0 -0.67972900161E+02  0.57648755025E+02 -0.43446928886E+02  0.13513980438E+03  0.91822856553E+02 0.  0.
        -13    1    3    3    0    0 -0.15468550966E+02  0.12784612033E+02 -0.78632730214E+02  0.81153118453E+02  0.00000000000E+00 0. -1.
         13    1    3    3    0    0  0.63733211388E+02 -0.75963247740E+02 -0.27679654818E+03  0.29402154058E+03  0.00000000000E+00 0.  1.
        -13    1    4    4    0    0 -0.14260012489E+02  0.50586922338E+02  0.15776838102E+02  0.54875252057E+02  0.00000000000E+00 0. -1.
         13    1    4    4    0    0 -0.53712887672E+02  0.70618326864E+01 -0.59223766989E+02  0.80264552321E+02  0.00000000000E+00 0.  1.
         21    1    1    2  502  501  0.19708239739E+02  0.55298806828E+01 -0.26904867563E+02  0.33806304035E+02  0.00000000000E+00 0.  1.
<scales pt_clust_5="13000.00000" pt_clust_6="13000.00000" pt_clust_7="13000.00000" pt_clust_8="13000.00000" pt_clust_9="20.46935"></scales>
<clustering>
<clus scale="   20.469">  2  9  1 -1</clus>
<clus scale="   90.028">  5  6 -1 -1</clus>
<clus scale="   91.823">  7  8 -1 -1</clus>
<clus scale="  125.155">  2  5  1 -1</clus>
<clus scale="  126.453">  1  5  2 -1</clus>
</clustering>
</event>
<event>
 9    1  0.1434065E-005  0.1693881E+03  0.7546771E-02  0.1178524E+00
         -1   -1    0    0    0  501 -0.00000000000E+00  0.00000000000E+00  0.15597609459E+03  0.15597609459E+03  0.00000000000E+00 0.  1.
          1   -1    0    0  502    0  0.00000000000E+00 -0.00000000000E+00 -0.32296847237E+03  0.32296847237E+03  0.00000000000E+00 0. -1.
         23    2    1    2    0    0  0.33003951978E+02  0.17009974635E+03 -0.79988140995E+01  0.19639033220E+03  0.92097757838E+02 0.  0.
         23    2    1    2    0    0 -0.49951151220E+02 -0.12212632780E+03 -0.16588724026E+03  0.23121049876E+03  0.92356704172E+02 0.  0.
        -11    1    3    3    0    0  0.11117864915E+02  0.15664336662E+03  0.20097612820E+02  0.15831824047E+03  0.00000000000E+00 0.  1.
         11    1    3    3    0    0  0.21886087063E+02  0.13456379731E+02 -0.28096426920E+02  0.38072091722E+02  0.00000000000E+00 0. -1.
        -11    1    4    4    0    0 -0.67373313654E+02 -0.50426200493E+02 -0.11076751498E+03  0.13910933636E+03  0.00000000000E+00 0. -1.
         11    1    4    4    0    0  0.17422162434E+02 -0.71700127309E+02 -0.55119725284E+02  0.92101162400E+02  0.00000000000E+00 0.  1.
         21    1    1    2  502  501  0.16947199242E+02 -0.47973418548E+02  0.68936765816E+01  0.51343735997E+02  0.00000000000E+00 0. -1.
<scales pt_clust_5="13000.00000" pt_clust_6="13000.00000" pt_clust_7="13000.00000" pt_clust_8="13000.00000" pt_clust_9="50.87884"></scales>
<clustering>
<clus scale="   50.879">  1  9  2 -1</clus>
<clus scale="   92.098">  5  6 -1 -1</clus>
<clus scale="   92.357">  7  8 -1 -1</clus>
<clus scale="  169.247">  1  5  2 -1</clus>
<clus scale="  169.388">  2  5  1 -1</clus>
</clustering>
</event>
<event>
 9    1  0.1434065E-005  0.9317420E+02  0.7546771E-02  0.1296790E+00
          1   -1    0    0  502    0  0.00000000000E+00  0.00000000000E+00  0.41242962784E+03  0.41242962784E+03  0.00000000000E+00 0. -1.
         -1   -1    0    0    0  501 -0.00000000000E+00 -0.00000000000E+00 -0.35105944728E+03  0.35105944728E+03  0.00000000000E+00 0.  1.
         23    2    1    2    0    0  0.85472897357E+01  0.16742453488E+02  0.14384482944E+03  0.16969114147E+03  0.88036257452E+02 0.  0.
         23    2    1    2    0    0  0.32970535926E+02 -0.14310322286E+02  0.24501264918E+03  0.26368041594E+03  0.90577712084E+02 0.  0.
        -11    1    4    4    0    0 -0.17199739053E+02 -0.11268027694E+02  0.91225369098E+01  0.22494891671E+02  0.00000000000E+00 0.  1.
         11    1    4    4    0    0  0.50170274979E+02 -0.30422945923E+01  0.23589011227E+03  0.24118552427E+03  0.00000000000E+00 0. -1.
        -13    1    3    3    0    0  0.43444617397E+02  0.28253066199E+02  0.98730321535E+02  0.11150491882E+03  0.00000000000E+00 0. -1.
         13    1    3    3    0    0 -0.34897327662E+02 -0.11510612711E+02  0.45114507906E+02  0.58186222652E+02  0.00000000000E+00 0.  1.
         21    1    1    2  502  501 -0.41517825662E+02 -0.24321312019E+01 -0.32748729806E+03  0.33011751771E+03  0.00000000000E+00 0.  1.
<scales pt_clust_5="13000.00000" pt_clust_6="13000.00000" pt_clust_7="13000.00000" pt_clust_8="13000.00000" pt_clust_9="41.58900"></scales>
<clustering>
<clus scale="   41.589">  2  9  1 -1</clus>
<clus scale="   88.036">  7  8 -1 -1</clus>
<clus scale="   90.578">  5  6 -1 -1</clus>
<clus scale="   90.706">  2  7  1 -1</clus>
<clus scale="   93.174">  1  5  2 -1</clus>
</clustering>
</event>
<event>
 9    1  0.1434065E-005  0.1149635E+03  0.7546771E-02  0.1256642E+00
          1   -1    0    0  502    0  0.00000000000E+00  0.00000000000E+00  0.31187182856E+03  0.31187182856E+03  0.00000000000E+00 0. -1.
         -1   -1    0    0    0  501 -0.00000000000E+00 -0.00000000000E+00 -0.50441406428E+02  0.50441406428E+02  0.00000000000E+00 0.  1.
         23    2    1    2    0    0 -0.55918620328E+02  0.26378758380E+01  0.10122054858E+03  0.15527766384E+03  0.10359393295E+03 0.  0.
         23    2    1    2    0    0  0.42872488019E+02 -0.21342714189E+02  0.14996228267E+03  0.18203385791E+03  0.91400642903E+02 0.  0.
        -13    1    4    4    0    0 -0.27764075090E+02 -0.16330127601E+02  0.51712035601E+02  0.60923325246E+02  0.00000000000E+00 0. -1.
         13    1    4    4    0    0  0.70636563109E+02 -0.50125865881E+01  0.98250247069E+02  0.12111053266E+03  0.00000000000E+00 0.  1.
        -13    1    3    3    0    0 -0.54318023397E+02 -0.34475143687E+02  0.22366946376E+02  0.68112139066E+02  0.00000000000E+00 0.  1.
         13    1    3    3    0    0 -0.16005969316E+01  0.37113019525E+02  0.78853602205E+02  0.87165524776E+02  0.00000000000E+00 0. -1.
         21    1    1    2  502  501  0.13046132309E+02  0.18704838351E+02  0.10247590879E+02  0.25001713237E+02  0.00000000000E+00 0. -1.
<scales pt_clust_5="13000.00000" pt_clust_6="13000.00000" pt_clust_7="13000.00000" pt_clust_8="13000.00000" pt_clust_9="22.80510"></scales>
<clustering>
<clus scale="   22.805">  2  9  1 -1</clus>
<clus scale="   91.401">  5  6 -1 -1</clus>
<clus scale="  103.594">  7  8 -1 -1</clus>
<clus scale="  104.110">  1  5  2 -1</clus>
<clus scale="  104.110">  1  5  2 -1</clus>
</clustering>
</event>
<event>
 9    1  0.1434065E-005  0.9423694E+02  0.7546771E-02  0.1294190E+00
          1   -1    0    0  502    0  0.00000000000E+00  0.00000000000E+00  0.58879804526E+02  0.58879804526E+02  0.00000000000E+00 0. -1.
         -1   -1    0    0    0  501 -0.00000000000E+00 -0.00000000000E+00 -0.63106455779E+03  0.63106455779E+03  0.00000000000E+00 0.  1.
         23    2    1    2    0    0 -0.34176329545E+02  0.67858972954E+01 -0.16300462449E+03  0.19066792693E+03  0.92572570734E+02 0.  0.
         23    2    1    2    0    0 -0.12903719479E+02  0.24605686808E+02 -0.87661946337E+01  0.94883951252E+02  0.90300455354E+02 0.  0.
        -13    1    3    3    0    0  0.87668352922E+01  0.33545805069E+02 -0.22507423009E+02  0.41337180954E+02  0.00000000000E+00 0. -1.
         13    1    3    3    0    0 -0.42943164838E+02 -0.26759907773E+02 -0.14049720148E+03  0.14933074598E+03  0.00000000000E+00 0.  1.
        -13    1    4    4    0    0  0.37830020090E+02 -0.26829845393E+00 -0.60832850668E+01  0.38316951357E+02  0.00000000000E+00 0.  1.
         13    1    4    4    0    0 -0.50733739569E+02  0.24873985262E+02 -0.26829095669E+01  0.56566999896E+02  0.00000000000E+00 0. -1.
         21    1    1    2  502  501  0.47080049025E+02 -0.31391584104E+02 -0.40041393414E+03  0.40439248413E+03  0.00000000000E+00 0.  1.
<scales pt_clust_5="13000.00000" pt_clust_6="13000.00000" pt_clust_7="13000.00000" pt_clust_8="13000.00000" pt_clust_9="56.58589"></scales>
<clustering>
<clus scale="   56.586">  2  9  1 -1</clus>
<clus scale="   90.300">  7  8 -1 -1</clus>
<clus scale="   92.006">  1  7  2 -1</clus>
<clus scale="   92.573">  5  6 -1 -1</clus>
<clus scale="   92.006">  1  5  2 -1</clus>
</clustering>
</event>
<event>
 9    1  0.1434065E-005  0.1328307E+03  0.7546771E-02  0.1224663E+00
         -2   -1    0    0    0  501 -0.00000000000E+00  0.00000000000E+00  0.26132672941E+03  0.26132672941E+03  0.00000000000E+00 0.  1.
          2   -1    0    0  502    0  0.00000000000E+00 -0.00000000000E+00 -0.29264205099E+03  0.29264205099E+03  0.00000000000E+00 0. -1.
         23    2    1    2    0    0  0.79146286614E+02 -0.80754422549E+02  0.19235394208E+03  0.24104618958E+03  0.91202056074E+02 0.  0.
         23    2    1    2    0    0 -0.72267680938E+02  0.53440203030E+02 -0.24459901082E+03  0.27783076670E+03  0.96347214926E+02 0.  0.
        -11    1    4    4    0    0 -0.11170571734E+01 -0.22227170004E+02 -0.18221901727E+02  0.28763390024E+02  0.00000000000E+00 0.  1.
         11    1    4    4    0    0 -0.71150623764E+02  0.75667373034E+02 -0.22637710909E+03  0.24906737668E+03  0.00000000000E+00 0. -1.
        -13    1    3    3    0    0  0.30195022068E+02 -0.87301310209E+02  0.14909359949E+03  0.17539144657E+03  0.00000000000E+00 0.  1.
         13    1    3    3    0    0  0.48951264546E+02  0.65468876598E+01  0.43260342592E+02  0.65654743011E+02  0.00000000000E+00 0. -1.
         21    1    1    2  502  501 -0.68786056761E+01  0.27314219519E+02  0.20929747153E+02  0.35091824117E+02  0.00000000000E+00 0. -1.
<scales pt_clust_5="13000.00000" pt_clust_6="13000.00000" pt_clust_7="13000.00000" pt_clust_8="13000.00000" pt_clust_9="28.16703"></scales>
<clustering>
<clus scale="   28.167">  1  9  2 -1</clus>
<clus scale="   91.202">  7  8 -1 -1</clus>
<clus scale="   96.347">  5  6 -1 -1</clus>
<clus scale="  129.147">  1  7  2 -1</clus>
<clus scale="  132.831">  2  5  1 -1</clus>
</clustering>
</event>
<event>
 9    1  0.1434065E-005  0.1007858E+03  0.7546771E-02  0.1280129E+00
         -1   -1    0    0    0  501 -0.00000000000E+00  0.00000000000E+00  0.36427269965E+02  0.36427269965E+02  0.00000000000E+00 0.  1.
          1   -1    0    0  502    0  0.00000000000E+00 -0.00000000000E+00 -0.36171042702E+03  0.36171042702E+03  0.00000000000E+00 0. -1.
         23    2    1    2    0    0 -0.26007319403E+02  0.52321720407E+01 -0.14376524321E+03  0.17366800122E+03  0.93746323693E+02 0.  0.
         23    2    1    2    0    0  0.44140083140E+02 -0.15713143216E+02 -0.17485748817E+03  0.20249222668E+03  0.90734287264E+02 0.  0.
        -11    1    3    3    0    0  0.16384839000E+02 -0.34614046753E+02 -0.69212095738E+02  0.79100628177E+02  0.00000000000E+00 0.  1.
         11    1    3    3    0    0 -0.42392158403E+02  0.39846218794E+02 -0.74553147468E+02  0.94567373040E+02  0.00000000000E+00 0. -1.
        -11    1    4    4    0    0 -0.16108023084E+02 -0.33785417998E+02 -0.47734838804E+02  0.60659193142E+02  0.00000000000E+00 0.  1.
         11    1    4    4    0    0  0.60248106224E+02  0.18072274782E+02 -0.12712264937E+03  0.14183303353E+03  0.00000000000E+00 0. -1.
         21    1    1    2  502  501 -0.18132763737E+02  0.10480971176E+02 -0.66604256789E+01  0.21977469093E+02  0.00000000000E+00 0.  1.
<scales pt_clust_5="13000.00000" pt_clust_6="13000.00000" pt_clust_7="13000.00000" pt_clust_8="13000.00000" pt_clust_9="20.94392"></scales>
<clustering>
<clus scale="   20.944">  1  9  2 -1</clus>
<clus scale="   90.734">  7  8 -1 -1</clus>
<clus scale="   93.746">  5  6 -1 -1</clus>
<clus scale="   97.990">  2  7  1 -1</clus>
<clus scale="   97.990">  2  5  1 -1</clus>
</clustering>
</event>
<event>
 9    1  0.1434065E-005  0.1253513E+03  0.7546771E-02  0.1237382E+00
         -2   -1    0    0    0  501 -0.00000000000E+00  0.00000000000E+00  0.44408544077E+02  0.44408544077E+02  0.00000000000E+00 0.  1.
          2   -1    0    0  502    0  0.00000000000E+00 -0.00000000000E+00 -0.42152953974E+03  0.42152953974E+03  0.00000000000E+00 0. -1.
         23    2    1    2    0    0 -0.60939429958E+02  0.80828361744E+02 -0.14286825737E+03  0.19130832471E+03  0.77075923303E+02 0.  0.
         23    2    1    2    0    0  0.52505691904E+02 -0.54656122819E+02 -0.18860549405E+03  0.22134012658E+03  0.87608674258E+02 0.  0.
        -11    1    4    4    0    0  0.75858568775E+02 -0.49289656879E+02 -0.13365844368E+03  0.16139570099E+03  0.00000000000E+00 0.  1.
         11    1    4    4    0    0 -0.23352876871E+02 -0.53664659399E+01 -0.54947050364E+02  0.59944425584E+02  0.00000000000E+00 0. -1.
        -13    1    3    3    0    0 -0.63001800378E+02  0.47691491331E+02 -0.13617415923E+03  0.15743921633E+03  0.00000000000E+00 0. -1.
         13    1    3    3    0    0  0.20623704206E+01  0.33136870413E+02 -0.66940981402E+01  0.33869108379E+02  0.00000000000E+00 0.  1.
         21    1    1    2  502  501  0.84337380538E+01 -0.26172238924E+02 -0.45647244244E+02  0.53289632528E+02  0.00000000000E+00 0.  1.
<scales pt_clust_5="13000.00000" pt_clust_6="13000.00000" pt_clust_7="13000.00000" pt_clust_8="13000.00000" pt_clust_9="27.49753"></scales>
<clustering>
<clus scale="   27.498">  2  9  1 -1</clus>
<clus scale="   77.076">  7  8 -1 -1</clus>
<clus scale="   87.609">  5  6 -1 -1</clus>
<clus scale="  118.230">  1  7  2 -1</clus>
<clus scale="   27.498">  2  5  1 -1</clus>
</clustering>
</event>
<event>
 9    1  0.1434065E-005  0.1327527E+03  0.7546771E-02  0.1223822E+00
          2   -1    0    0  502    0  0.00000000000E+00  0.00000000000E+00  0.86041959606E+03  0.86041959606E+03  0.00000000000E+00 0. -1.
         -2   -1    0    0    0  501 -0.00000000000E+00 -0.00000000000E+00 -0.95349475539E+02  0.95349475539E+02  0.00000000000E+00 0.  1.
         23    2    1    2    0    0 -0.74868215517E+02  0.39553274720E+02 -0.24143052573E+02  0.12738473574E+03  0.92055812839E+02 0.  0.
         23    2    1    2    0    0  0.75041687356E+02 -0.60751683189E+02  0.79537610976E+03  0.80630755161E+03  0.90480329069E+02 0.  0.
        -11    1    4    4    0    0  0.66490231912E+02  0.43737134948E+01  0.39825493226E+03  0.40379087580E+03  0.00000000000E+00 0. -1.
         11    1    4    4    0    0  0.85514554446E+01 -0.65125396684E+02  0.39712117750E+03  0.40251667581E+03  0.00000000000E+00 0.  1.
        -11    1    3    3    0    0 -0.42257152464E+02  0.64929875408E+02 -0.34470275493E+02  0.84792426238E+02  0.00000000000E+00 0.  1.
         11    1    3    3    0    0 -0.32611063052E+02 -0.25376600688E+02  0.10327222920E+02  0.42592309507E+02  0.00000000000E+00 0. -1.
         21    1    1    2  502  501 -0.17347183954E+00  0.21198408469E+02 -0.61629366712E+01  0.22076784243E+02  0.00000000000E+00 0.  1.
<scales pt_clust_5="13000.00000" pt_clust_6="13000.00000" pt_clust_7="13000.00000" pt_clust_8="13000.00000" pt_clust_9="21.19912"></scales>
<clustering>
<clus scale="   21.199">  2  9  1 -1</clus>
<clus scale="   90.480">  5  6 -1 -1</clus>
<clus scale="   92.056">  7  8 -1 -1</clus>
<clus scale="  131.665">  1  5  2 -1</clus>
<clus scale="  131.665">  1  5  2 -1</clus>
</clustering>
</event>
<event>
 9    1  0.1434065E-005  0.2688067E+03  0.7546771E-02  0.1102347E+00
          2   -1    0    0  502    0  0.00000000000E+00  0.00000000000E+00  0.35491143402E+03  0.35491143402E+03  0.00000000000E+00 0. -1.
         -2   -1    0    0    0  501 -0.00000000000E+00 -0.00000000000E+00 -0.30421118467E+03  0.30421118467E+03  0.00000000000E+00 0.  1.
         23    2    1    2    0    0 -0.19385839005E+03 -0.16864955650E+03 -0.15476823580E+03  0.31440593327E+03  0.94202631415E+02 0.  0.
         23    2    1    2    0    0  0.17526559015E+03  0.15608484317E+03  0.20307779490E+03  0.32214946076E+03  0.86366538268E+02 0.  0.
        -11    1    4    4    0    0  0.77598809041E+02  0.88984186831E+02  0.15361217386E+03  0.19374328537E+03  0.00000000000E+00 0. -1.
         11    1    4    4    0    0  0.97666781112E+02  0.67100656336E+02  0.49465621040E+02  0.12840617539E+03  0.00000000000E+00 0.  1.
        -13    1    3    3    0    0 -0.50043091458E+02 -0.32955761256E+01 -0.52391908057E+02  0.72526435556E+02  0.00000000000E+00 0. -1.
         13    1    3    3    0    0 -0.14381529859E+03 -0.16535398037E+03 -0.10237632774E+03  0.24187949771E+03  0.00000000000E+00 0.  1.
         21    1    1    2  502  501  0.18592799894E+02  0.12564713328E+02  0.23906902479E+01  0.22567224658E+02  0.00000000000E+00 0.  1.
<scales pt_clust_5="13000.00000" pt_clust_6="13000.00000" pt_clust_7="13000.00000" pt_clust_8="13000.00000" pt_clust_9="22.44024"></scales>
<clustering>
<clus scale="   22.440">  1  9  2 -1</clus>
<clus scale="   86.367">  5  6 -1 -1</clus>
<clus scale="   94.203">  7  8 -1 -1</clus>
<clus scale="  266.162">  1  5  2 -1</clus>
<clus scale="   22.440">  1  5  2 -1</clus>
</clustering>
</event>
<event>
 9    1  0.1434065E-005  0.9900154E+02  0.7546771E-02  0.1283026E+00
         -1   -1    0    0    0  501 -0.00000000000E+00  0.00000000000E+00  0.80355420848E+02  0.80355420848E+02  0.00000000000E+00 0.  1.
          1   -1    0    0  502    0  0.00000000000E+00 -0.00000000000E+00 -0.17826371230E+03  0.17826371230E+03  0.00000000000E+00 0. -1.
         23    2    1    2    0    0  0.48426414196E+02 -0.17881807283E+02 -0.10767771908E+02  0.10497521028E+03  0.90768789996E+02 0.  0.
         23    2    1    2    0    0 -0.24980093464E+02  0.16636033362E+02 -0.87043819449E+02  0.13016433047E+03  0.92007411366E+02 0.  0.
        -11    1    3    3    0    0  0.72599566135E+02 -0.16319959166E+02 -0.22937695898E+02  0.77866398166E+02  0.00000000000E+00 0.  1.
         11    1    3    3    0    0 -0.24173151939E+02 -0.15618481171E+01  0.12169923990E+02  0.27108812112E+02  0.00000000000E+00 0. -1.
        -13    1    4    4    0    0 -0.48210463445E+02 -0.11911912406E+02 -0.77662010577E+02  0.92182049931E+02  0.00000000000E+00 0. -1.
         13    1    4    4    0    0  0.23230369981E+02  0.28547945768E+02 -0.93818088725E+01  0.37982280536E+02  0.00000000000E+00 0.  1.
         21    1    1    2  502  501 -0.23446320733E+02  0.12457739212E+01 -0.96700095567E-01  0.23479592404E+02  0.00000000000E+00 0. -1.
<scales pt_clust_5="13000.00000" pt_clust_6="13000.00000" pt_clust_7="13000.00000" pt_clust_8="13000.00000" pt_clust_9="23.47939"></scales>
<clustering>
<clus scale="   23.479">  1  9  2 -1</clus>
<clus scale="   90.769">  5  6 -1 -1</clus>
<clus scale="   92.007">  7  8 -1 -1</clus>
<clus scale="   97.851">  1  5  2 -1</clus>
<clus scale="   99.002">  2  5  1 -1</clus>
</clustering>
</event>
<event>
 9    1  0.1434065E-005  0.9501728E+02  0.7546771E-02  0.1302876E+00
         -1   -1    0    0    0  501 -0.00000000000E+00  0.00000000000E+00  0.41533746397E+02  0.41533746397E+02  0.00000000000E+00 0.  1.
          1   -1    0    0  502    0  0.00000000000E+00 -0.00000000000E+00 -0.25799566605E+03  0.25799566605E+03  0.00000000000E+00 0. -1.
         23    2    1    2    0    0 -0.85514380856E+01  0.11931395620E+02 -0.76730300225E+02  0.11925269067E+03  0.90100943189E+02 0.  0.
         23    2    1    2    0    0  0.28668530142E+02 -0.25614299093E+02 -0.13263500121E+03  0.15493345383E+03  0.70244961602E+02 0.  0.
        -11    1    3    3    0    0 -0.44395297641E+02 -0.70094166931E+01 -0.19202994370E+02  0.48875652096E+02  0.00000000000E+00 0.  1.
         11    1    3    3    0    0  0.35843859555E+02  0.18940812313E+02 -0.57527305855E+02  0.70377038570E+02  0.00000000000E+00 0. -1.
        -13    1    4    4    0    0 -0.18624809992E+02 -0.24804693199E+02 -0.68936072120E+02  0.75593243027E+02  0.00000000000E+00 0.  1.
         13    1    4    4    0    0  0.47293340134E+02 -0.80960589386E+00 -0.63698929091E+02  0.79340210802E+02  0.00000000000E+00 0. -1.
         21    1    1    2  502  501 -0.20117092057E+02  0.13682903473E+02 -0.70966182133E+01  0.25343267949E+02  0.00000000000E+00 0.  1.
<scales pt_clust_5="13000.00000" pt_clust_6="13000.00000" pt_clust_7="13000.00000" pt_clust_8="13000.00000" pt_clust_9="24.32939"></scales>
<clustering>
<clus scale="   24.329">  1  9  2 -1</clus>
<clus scale="   70.245">  7  8 -1 -1</clus>
<clus scale="   76.449">  2  7  1 -1</clus>
<clus scale="   90.101">  5  6 -1 -1</clus>
<clus scale="   76.449">  2  5  1 -1</clus>
</clustering>
</event>
<event>
 9    1  0.1434065E-005  0.1664406E+03  0.7546771E-02  0.1192556E+00
         -1   -1    0    0    0  501 -0.00000000000E+00  0.00000000000E+00  0.62698298996E+02  0.62698298996E+02  0.00000000000E+00 0.  1.
          1   -1    0    0  502    0  0.00000000000E+00 -0.00000000000E+00 -0.81504272568E+03  0.81504272568E+03  0.00000000000E+00 0. -1.
         23    2    1    2    0    0 -0.37088392915E+02 -0.99303153479E+02 -0.26218272124E+03  0.29746238476E+03  0.92235708114E+02 0.  0.
         23    2    1    2    0    0 -0.92828858282E+02 -0.20897250088E+02 -0.24897265039E+03  0.28111515709E+03  0.89355799555E+02 0.  0.
        -13    1    4    4    0    0 -0.10274468796E+03  0.33826277072E+01 -0.21390295079E+03  0.23732337734E+03  0.00000000000E+00 0.  1.
         13    1    4    4    0    0  0.99158296814E+01 -0.24279877795E+02 -0.35069699599E+02  0.43791779754E+02  0.00000000000E+00 0. -1.
        -13    1    3    3    0    0 -0.58773428046E+02 -0.67465579701E+02 -0.23158138780E+03  0.24826570336E+03  0.00000000000E+00 0. -1.
         13    1    3    3    0    0  0.21685035131E+02 -0.31837573778E+02 -0.30601333437E+02  0.49196681401E+02  0.00000000000E+00 0.  1.
         21    1    1    2  502  501  0.12991725120E+03  0.12020040357E+03 -0.24118905506E+03  0.29916348283E+03  0.00000000000E+00 0.  1.
<scales pt_clust_5="13000.00000" pt_clust_6="13000.00000" pt_clust_7="13000.00000" pt_clust_8="13000.00000" pt_clust_9="138.54619"></scales>
<clustering>
<clus scale="   89.356">  5  6 -1 -1</clus>
<clus scale="   92.236">  7  8 -1 -1</clus>
<clus scale="  130.531">  2  5  1 -1</clus>
<clus scale="  138.546">  2  9  1 -1</clus>
<clus scale="  130.531">  2  5  1 -1</clus>
</clustering>
</event>
<event>
 9    1  0.1434065E-005  0.1430374E+03  0.7546771E-02  0.1210251E+00
          2   -1    0    0  502    0  0.00000000000E+00  0.00000000000E+00  0.22502588436E+03  0.22502588436E+03  0.00000000000E+00 0. -1.
         -2   -1    0    0    0  501 -0.00000000000E+00 -0.00000000000E+00 -0.17091319295E+03  0.17091319295E+03  0.00000000000E+00 0.  1.
         23    2    1    2    0    0 -0.92076853016E+02 -0.91280669226E+01 -0.89102825334E+01  0.12987034712E+03  0.90694241595E+02 0.  0.
         23    2    1    2    0    0  0.11322771963E+03  0.11743110257E+02  0.12910224946E+03  0.19663769778E+03  0.95081944871E+02 0.  0.
        -13    1    4    4    0    0  0.74743425681E+02  0.32048588853E+02  0.27065014070E+02  0.85710015265E+02  0.00000000000E+00 0.  1.
         13    1    4    4    0    0  0.38484293951E+02 -0.20305478596E+02  0.10203723539E+03  0.11092768252E+03  0.00000000000E+00 0. -1.
        -13    1    3    3    0    0 -0.93875233266E+02 -0.37439506023E+02 -0.45440044794E+01  0.10116780125E+03  0.00000000000E+00 0.  1.
         13    1    3    3    0    0  0.17983802505E+01  0.28311439101E+02 -0.43662780540E+01  0.28702545872E+02  0.00000000000E+00 0. -1.
         21    1    1    2  502  501 -0.21150866617E+02 -0.26150433343E+01 -0.66079275512E+02  0.69431032417E+02  0.00000000000E+00 0.  1.
<scales pt_clust_5="13000.00000" pt_clust_6="13000.00000" pt_clust_7="13000.00000" pt_clust_8="13000.00000" pt_clust_9="21.31191"></scales>
<clustering>
<clus scale="   21.312">  2  9  1 -1</clus>
<clus scale="   90.694">  7  8 -1 -1</clus>
<clus scale="   95.082">  5  6 -1 -1</clus>
<clus scale="  140.159">  2  7  1 -1</clus>
<clus scale="  143.037">  1  5  2 -1</clus>
</clustering>
</event>
<event>
 9    1  0.1434065E-005  0.1516010E+03  0.7546771E-02  0.1198551E+00
         -1   -1    0    0    0  501 -0.00000000000E+00  0.00000000000E+00  0.24433866153E+03  0.24433866153E+03  0.00000000000E+00 0.  1.
          1   -1    0    0  502    0  0.00000000000E+00 -0.00000000000E+00 -0.16554898082E+03  0.16554898082E+03  0.00000000000E+00 0. -1.
         23    2    1    2    0    0  0.52063721971E+02  0.12398289108E+03  0.80054310152E+02  0.18244518323E+03  0.93782535068E+02 0.  0.
         23    2    1    2    0    0 -0.29518790493E+02 -0.10984230839E+03 -0.62999443440E+02  0.16021584777E+03  0.93613547635E+02 0.  0.
        -11    1    3    3    0    0  0.73380936440E+02  0.10790839946E+03  0.84378703025E+02  0.15539868092E+03  0.00000000000E+00 0.  1.
         11    1    3    3    0    0 -0.21317214469E+02  0.16074491619E+02 -0.43243928736E+01  0.27046502311E+02  0.00000000000E+00 0. -1.
        -11    1    4    4    0    0 -0.41776513390E+02 -0.62417426940E+02 -0.78689699987E+02  0.10878088592E+03  0.00000000000E+00 0. -1.
         11    1    4    4    0    0  0.12257722897E+02 -0.47424881446E+02  0.15690256547E+02  0.51434961858E+02  0.00000000000E+00 0.  1.
         21    1    1    2  502  501 -0.22544931478E+02 -0.14140582690E+02  0.61734814001E+02  0.67226611353E+02  0.00000000000E+00 0. -1.
<scales pt_clust_5="13000.00000" pt_clust_6="13000.00000" pt_clust_7="13000.00000" pt_clust_8="13000.00000" pt_clust_9="26.61259"></scales>
<clustering>
<clus scale="   26.613">  1  9  2 -1</clus>
<clus scale="   93.614">  7  8 -1 -1</clus>
<clus scale="   93.783">  5  6 -1 -1</clus>
<clus scale="  151.496">  2  7  1 -1</clus>
<clus scale="  151.496">  2  5  1 -1</clus>
</clustering>
</event>
<event>
 9    1  0.1434065E-005  0.1101166E+03  0.7546771E-02  0.1260492E+00
         -1   -1    0    0    0  501 -0.00000000000E+00  0.00000000000E+00  0.25067531337E+02  0.25067531337E+02  0.00000000000E+00 0.  1.
          1   -1    0    0  502    0  0.00000000000E+00 -0.00000000000E+00 -0.62391307834E+03  0.62391307834E+03  0.00000000000E+00 0. -1.
         23    2    1    2    0    0 -0.10221202399E+02 -0.54255425728E+02 -0.23850883148E+03  0.26138114391E+03  0.91572460363E+02 0.  0.
         23    2    1    2    0    0  0.31292629330E+02  0.59415905015E+02 -0.33794684864E+03  0.35642348594E+03  0.91214858463E+02 0.  0.
        -11    1    4    4    0    0 -0.17112570960E+02  0.47945245769E+02 -0.88785892378E+02  0.10234510913E+03  0.00000000000E+00 0. -1.
         11    1    4    4    0    0  0.48405200290E+02  0.11470659246E+02 -0.24916095626E+03  0.25407837681E+03  0.00000000000E+00 0.  1.
        -13    1    3    3    0    0  0.17765661735E+02 -0.64838266978E+02 -0.20822680641E+03  0.21881047166E+03  0.00000000000E+00 0. -1.
         13    1    3    3    0    0 -0.27986864134E+02  0.10582841250E+02 -0.30282025071E+02  0.42570672245E+02  0.00000000000E+00 0.  1.
         21    1    1    2  502  501 -0.21071426931E+02 -0.51604792870E+01 -0.22389866885E+02  0.31175979832E+02  0.00000000000E+00 0. -1.
<scales pt_clust_5="13000.00000" pt_clust_6="13000.00000" pt_clust_7="13000.00000" pt_clust_8="13000.00000" pt_clust_9="21.69414"></scales>
<clustering>
<clus scale="   21.694">  1  9  2 -1</clus>
<clus scale="   91.215">  5  6 -1 -1</clus>
<clus scale="   91.572">  7  8 -1 -1</clus>
<clus scale="  109.819">  2  5  1 -1</clus>
<clus scale="  109.819">  2  5  1 -1</clus>
</clustering>
</event>
<event>
 9    1  0.1434065E-005  0.1346022E+03  0.7546771E-02  0.1221649E+00
          1   -1    0    0  502    0  0.00000000000E+00  0.00000000000E+00  0.50058599152E+03  0.50058599152E+03  0.00000000000E+00 0. -1.
         -1   -1    0    0    0  501 -0.00000000000E+00 -0.00000000000E+00 -0.54288733753E+02  0.54288733753E+02  0.00000000000E+00 0.  1.
         23    2    1    2    0    0 -0.76951635687E+02  0.43562725732E+02  0.12767808850E+03  0.18110159562E+03  0.93149494602E+02 0.  0.
         23    2    1    2    0    0  0.71178633576E+02 -0.74782509397E+02  0.31297024506E+03  0.34152545082E+03  0.89612709331E+02 0.  0.
        -11    1    3    3    0    0 -0.46287911087E+02 -0.23932885489E+02  0.36661349130E+02  0.63713485548E+02  0.00000000000E+00 0.  1.
         11    1    3    3    0    0 -0.30663724599E+02  0.67495611221E+02  0.91016739374E+02  0.11738811007E+03  0.00000000000E+00 0. -1.
        -13    1    4    4    0    0  0.19681126981E+01 -0.53904009264E+02  0.20205835679E+03  0.20913415606E+03  0.00000000000E+00 0.  1.
         13    1    4    4    0    0  0.69210520878E+02 -0.20878500133E+02  0.11091188827E+03  0.13239129476E+03  0.00000000000E+00 0. -1.
         21    1    1    2  502  501  0.57730021106E+01  0.31219783665E+02  0.56489242022E+01  0.32247678833E+02  0.00000000000E+00 0. -1.
<scales pt_clust_5="13000.00000" pt_clust_6="13000.00000" pt_clust_7="13000.00000" pt_clust_8="13000.00000" pt_clust_9="31.74905"></scales>
<clustering>
<clus scale="   31.749">  2  9  1 -1</clus>
<clus scale="   89.613">  7  8 -1 -1</clus>
<clus scale="   93.149">  5  6 -1 -1</clus>
<clus scale="  132.179">  1  7  2 -1</clus>
<clus scale="  132.179">  1  5  2 -1</clus>
</clustering>
</event>
<event>
 9    1  0.1434065E-005  0.9388785E+02  0.7546771E-02  0.1294625E+00
          1   -1    0    0  502    0  0.00000000000E+00  0.00000000000E+00  0.61003022101E+02  0.61003022101E+02  0.00000000000E+00 0. -1.
         -1   -1    0    0    0  501 -0.00000000000E+00 -0.00000000000E+00 -0.29239992728E+03  0.29239992728E+03  0.00000000000E+00 0.  1.
         23    2    1    2    0    0  0.29997591393E+00 -0.19335393759E+02 -0.58142116716E+02  0.11167238836E+03  0.93360961582E+02 0.  0.
         23    2    1    2    0    0 -0.17748271013E+02 -0.13594139534E+02 -0.38608718383E+02  0.10202243187E+03  0.91750431690E+02 0.  0.
        -11    1    3    3    0    0  0.19542932797E+01  0.37689102986E+02 -0.29105912059E+02  0.47659646063E+02  0.00000000000E+00 0.  1.
         11    1    3    3    0    0 -0.16543173658E+01 -0.57024496745E+02 -0.29036204656E+02  0.64012742293E+02  0.00000000000E+00 0. -1.
        -11    1    4    4    0    0 -0.30507815716E+02 -0.43564566024E+02 -0.22864295445E+01  0.53233692270E+02  0.00000000000E+00 0. -1.
         11    1    4    4    0    0  0.12759544703E+02  0.29970426490E+02 -0.36322288839E+02  0.48788739597E+02  0.00000000000E+00 0.  1.
         21    1    1    2  502  501  0.17448295099E+02  0.32929533293E+02 -0.13464607008E+03  0.13970812916E+03  0.00000000000E+00 0.  1.
<scales pt_clust_5="13000.00000" pt_clust_6="13000.00000" pt_clust_7="13000.00000" pt_clust_8="13000.00000" pt_clust_9="37.26657"></scales>
<clustering>
<clus scale="   37.267">  2  9  1 -1</clus>
<clus scale="   91.750">  7  8 -1 -1</clus>
<clus scale="   92.287">  1  7  2 -1</clus>
<clus scale="   93.361">  5  6 -1 -1</clus>
<clus scale="   92.287">  1  5  2 -1</clus>
</clustering>
</event>
<event>
 9    1  0.1434065E-005  0.9732212E+02  0.7546771E-02  0.1286494E+00
          2   -1    0    0  502    0  0.00000000000E+00  0.00000000000E+00  0.42660154768E+03  0.42660154768E+03  0.00000000000E+00 0. -1.
         -2   -1    0    0    0  501 -0.00000000000E+00 -0.00000000000E+00 -0.28513385272E+02  0.28513385272E+02  0.00000000000E+00 0.  1.
         23    2    1    2    0    0 -0.32588712287E+02 -0.48301159209E+00  0.18070691880E+03  0.20595643437E+03  0.93278105077E+02 0.  0.
         23    2    1    2    0    0  0.19589412108E+02 -0.19947676503E+02  0.18560886244E+03  0.20921004397E+03  0.92393386211E+02 0.  0.
        -11    1    4    4    0    0  0.47959927186E+02  0.12182857524E+02  0.12928575024E+03  0.13843186717E+03  0.00000000000E+00 0. -1.
         11    1    4    4    0    0 -0.28370515078E+02 -0.32130534027E+02  0.56323112200E+02  0.70778176796E+02  0.00000000000E+00 0.  1.
        -13    1    3    3    0    0  0.28975292500E+02 -0.18442889478E+02  0.55178087418E+02  0.64994838863E+02  0.00000000000E+00 0. -1.
         13    1    3    3    0    0 -0.61564004788E+02  0.17959877885E+02  0.12552883138E+03  0.14096159550E+03  0.00000000000E+00 0.  1.
         21    1    1    2  502  501  0.12999300179E+02  0.20430688095E+02  0.31772381165E+02  0.39948454614E+02  0.00000000000E+00 0.  1.
<scales pt_clust_5="13000.00000" pt_clust_6="13000.00000" pt_clust_7="13000.00000" pt_clust_8="13000.00000" pt_clust_9="24.21559"></scales>
<clustering>
<clus scale="   24.216">  2  9  1 -1</clus>
<clus scale="   92.393">  5  6 -1 -1</clus>
<clus scale="   93.278">  7  8 -1 -1</clus>
<clus scale="   96.474">  1  5  2 -1</clus>
<clus scale="   96.474">  1  5  2 -1</clus>
</clustering>
</event>
<event>
 9    1  0.1434065E-005  0.1263854E+03  0.7546771E-02  0.1233982E+00
          2   -1    0    0  502    0  0.00000000000E+00  0.00000000000E+00  0.91756210157E+03  0.91756210157E+03  0.00000000000E+00 0. -1.
         -2   -1    0    0    0  501 -0.00000000000E+00 -0.00000000000E+00 -0.20867701655E+02  0.20867701655E+02  0.00000000000E+00 0.  1.
         23    2    1    2    0    0 -0.66561160721E+02  0.22847819602E+02  0.30804806318E+03  0.33006610329E+03  0.95381404533E+02 0.  0.
         23    2    1    2    0    0  0.87454980364E+02 -0.27693365046E+02  0.53682482450E+03  0.55227894141E+03  0.91737892167E+02 0.  0.
        -11    1    3    3    0    0 -0.24868796524E+02  0.40630879503E+02  0.54012768301E+02  0.72018779143E+02  0.00000000000E+00 0.  1.
         11    1    3    3    0    0 -0.41692364197E+02 -0.17783059901E+02  0.25403529488E+03  0.25804732414E+03  0.00000000000E+00 0. -1.
        -13    1    4    4    0    0  0.72630688078E+02 -0.57865165519E+02  0.44259514629E+03  0.45223230507E+03  0.00000000000E+00 0.  1.
         13    1    4    4    0    0  0.14824292286E+02  0.30171800473E+02  0.94229678214E+02  0.10004663633E+03  0.00000000000E+00 0. -1.
         21    1    1    2  502  501 -0.20893819643E+02  0.48455454448E+01  0.51821512226E+02  0.56084758530E+02  0.00000000000E+00 0.  1.
<scales pt_clust_5="13000.00000" pt_clust_6="13000.00000" pt_clust_7="13000.00000" pt_clust_8="13000.00000" pt_clust_9="21.44833"></scales>
<clustering>
<clus scale="   21.448">  2  9  1 -1</clus>
<clus scale="   91.738">  7  8 -1 -1</clus>
<clus scale="   95.381">  5  6 -1 -1</clus>
<clus scale="  123.659">  1  7  2 -1</clus>
<clus scale="  123.659">  1  5  2 -1</clus>
</clustering>
</event>
<event>
 9    1  0.1434065E-005  0.2526617E+03  0.7546771E-02  0.1112945E+00
         -2   -1    0    0    0  501 -0.00000000000E+00  0.00000000000E+00  0.67881271994E+02  0.67881271994E+02  0.00000000000E+00 0.  1.
          2   -1    0    0  502    0  0.00000000000E+00 -0.00000000000E+00 -0.16099267643E+04  0.16099267643E+04  0.00000000000E+00 0. -1.
         23    2    1    2    0    0  0.16401518064E+03  0.15743247287E+03 -0.41302152995E+03  0.48291739416E+03  0.10457754244E+03 0.  0.
         23    2    1    2    0    0 -0.14095440065E+03 -0.18393137638E+03 -0.11331229859E+04  0.11595240837E+04  0.82640821056E+02 0.  0.
        -13    1    3    3    0    0  0.20079047406E+02 -0.15110496639E+02 -0.33676552617E+02  0.42019108148E+02  0.00000000000E+00 0. -1.
         13    1    3    3    0    0  0.14393613323E+03  0.17254296951E+03 -0.37934497733E+03  0.44089828601E+03  0.00000000000E+00 0.  1.
        -13    1    4    4    0    0 -0.59480026303E+02 -0.28017985259E+02 -0.22020501560E+03  0.22981107441E+03  0.00000000000E+00 0.  1.
         13    1    4    4    0    0 -0.81474374346E+02 -0.15591339112E+03 -0.91291797030E+03  0.92971300932E+03  0.00000000000E+00 0. -1.
         21    1    1    2  502  501 -0.23060779991E+02  0.26498903515E+02  0.40990235182E+01  0.35366558429E+02  0.00000000000E+00 0. -1.
<scales pt_clust_5="13000.00000" pt_clust_6="13000.00000" pt_clust_7="13000.00000" pt_clust_8="13000.00000" pt_clust_9="35.12821"></scales>
<clustering>
<clus scale="   35.128">  1  9  2 -1</clus>
<clus scale="   82.641">  7  8 -1 -1</clus>
<clus scale="  104.578">  5  6 -1 -1</clus>
<clus scale="  244.399">  2  7  1 -1</clus>
<clus scale="  244.399">  2  5  1 -1</clus>
</clustering>
</event>
<event>
 9    1  0.1434065E-005  0.1052675E+03  0.7546771E-02  0.1274489E+00
          2   -1    0    0  502    0  0.00000000000E+00  0.00000000000E+00  0.14210802912E+03  0.14210802912E+03  0.00000000000E+00 0. -1.
         -2   -1    0    0    0  501 -0.00000000000E+00 -0.00000000000E+00 -0.15991037559E+03  0.15991037559E+03  0.00000000000E+00 0.  1.
         23    2    1    2    0    0 -0.22583695478E+02 -0.73316986344E+01 -0.75092044250E+02  0.11905111279E+03  0.89278078162E+02 0.  0.
         23    2    1    2    0    0  0.35786112461E+02 -0.14871648816E+02  0.91198043161E+02  0.14034020736E+03  0.99380475662E+02 0.  0.
        -11    1    4    4    0    0  0.45153161851E+02 -0.33934031741E+02  0.10193743781E+03  0.11653998353E+03  0.00000000000E+00 0. -1.
         11    1    4    4    0    0 -0.93670493901E+01  0.19062382925E+02 -0.10739394645E+02  0.23800223831E+02  0.00000000000E+00 0.  1.
        -13    1    3    3    0    0 -0.51850894204E+02 -0.49146102844E+01 -0.18460440466E+02  0.55258089781E+02  0.00000000000E+00 0.  1.
         13    1    3    3    0    0  0.29267198726E+02 -0.24170883500E+01 -0.56631603784E+02  0.63793023008E+02  0.00000000000E+00 0. -1.
         21    1    1    2  502  501 -0.13202416983E+02  0.22203347451E+02 -0.33908345379E+02  0.42627084565E+02  0.00000000000E+00 0.  1.
<scales pt_clust_5="13000.00000" pt_clust_6="13000.00000" pt_clust_7="13000.00000" pt_clust_8="13000.00000" pt_clust_9="25.83200"></scales>
<clustering>
<clus scale="   25.832">  2  9  1 -1</clus>
<clus scale="   89.278">  7  8 -1 -1</clus>
<clus scale="   95.788">  2  7  1 -1</clus>
<clus scale="   99.380">  5  6 -1 -1</clus>
<clus scale="  105.268">  1  5  2 -1</clus>
</clustering>
</event>
<event>
 9    1  0.1434065E-005  0.1583805E+03  0.7546771E-02  0.1201893E+00
          2   -1    0    0  502    0  0.00000000000E+00  0.00000000000E+00  0.50069905425E+03  0.50069905425E+03  0.00000000000E+00 0. -1.
         -2   -1    0    0    0  501 -0.00000000000E+00 -0.00000000000E+00 -0.24279305384E+03  0.24279305384E+03  0.00000000000E+00 0.  1.
         23    2    1    2    0    0  0.15525237080E+02 -0.85618672573E+02  0.37650235278E+03  0.39697690041E+03  0.90912307912E+02 0.  0.
         23    2    1    2    0    0 -0.77651386139E+02 -0.32367195125E+02  0.48494547281E+02  0.13274034452E+03  0.90503617921E+02 0.  0.
        -13    1    4    4    0    0 -0.49452955470E+02 -0.63294312240E+02  0.41143234038E+02  0.90247052438E+02  0.00000000000E+00 0. -1.
         13    1    4    4    0    0 -0.28198430669E+02  0.30927117115E+02  0.73513132435E+01  0.42493292078E+02  0.00000000000E+00 0.  1.
        -13    1    3    3    0    0 -0.12924348491E+02 -0.65672734205E+02  0.34021913423E+03  0.34674054580E+03  0.00000000000E+00 0. -1.
         13    1    3    3    0    0  0.28449585571E+02 -0.19945938368E+02  0.36283218550E+02  0.50236354614E+02  0.00000000000E+00 0.  1.
         21    1    1    2  502  501  0.62126149059E+02  0.11798586770E+03 -0.16709089965E+03  0.21377486316E+03  0.00000000000E+00 0.  1.
<scales pt_clust_5="13000.00000" pt_clust_6="13000.00000" pt_clust_7="13000.00000" pt_clust_8="13000.00000" pt_clust_9="129.68933"></scales>
<clustering>
<clus scale="   90.504">  5  6 -1 -1</clus>
<clus scale="   90.912">  7  8 -1 -1</clus>
<clus scale="  123.565">  1  5  2 -1</clus>
<clus scale="  129.689">  2  9  1 -1</clus>
<clus scale="  123.565">  1  5  2 -1</clus>
</clustering>
</event>
<event>
 9    1  0.1434065E-005  0.1155793E+03  0.7546771E-02  0.1250952E+00
         -1   -1    0    0    0  501 -0.00000000000E+00  0.00000000000E+00  0.65167946659E+02  0.65167946659E+02  0.00000000000E+00 0.  1.
          1   -1    0    0  502    0  0.00000000000E+00 -0.00000000000E+00 -0.33801694981E+03  0.33801694981E+03  0.00000000000E+00 0. -1.
         23    2    1    2    0    0 -0.49432374468E+02  0.38001925128E+02 -0.29020596880E+02  0.11574366976E+03  0.93095091642E+02 0.  0.
         23    2    1    2    0    0  0.53453766053E+02 -0.63657681826E+02 -0.21134919038E+03  0.24585650707E+03  0.94166534589E+02 0.  0.
        -13    1    4    4    0    0  0.26884139507E+02 -0.82334671837E+02 -0.11359261554E+03  0.14284620208E+03  0.00000000000E+00 0.  1.
         13    1    4    4    0    0  0.26569626546E+02  0.18676990012E+02 -0.97756574839E+02  0.10301030499E+03  0.00000000000E+00 0. -1.
        -13    1    3    3    0    0  0.88163428011E+01  0.43725107312E+02 -0.35293592604E+02  0.56879263258E+02  0.00000000000E+00 0. -1.
         13    1    3    3    0    0 -0.58248717269E+02 -0.57231821838E+01  0.62729957238E+01  0.58864406505E+02  0.00000000000E+00 0.  1.
         21    1    1    2  502  501 -0.40213915849E+01  0.25655756697E+02 -0.32479215899E+02  0.41584719638E+02  0.00000000000E+00 0. -1.
<scales pt_clust_5="13000.00000" pt_clust_6="13000.00000" pt_clust_7="13000.00000" pt_clust_8="13000.00000" pt_clust_9="25.96901"></scales>
<clustering>
<clus scale="   25.969">  2  9  1 -1</clus>
<clus scale="   93.095">  7  8 -1 -1</clus>
<clus scale="   94.167">  5  6 -1 -1</clus>
<clus scale="  114.708">  1  7  2 -1</clus>
<clus scale="   25.969">  2  5  1 -1</clus>
</clustering>
</event>
<event>
 9    1  0.1434065E-005  0.1087781E+03  0.7546771E-02  0.1265384E+00
          1   -1    0    0  502    0  0.00000000000E+00  0.00000000000E+00  0.45624075185E+02  0.45624075185E+02  0.00000000000E+00 0. -1.
         -1   -1    0    0    0  501 -0.00000000000E+00 -0.00000000000E+00 -0.47252000964E+03  0.47252000964E+03  0.00000000000E+00 0.  1.
         23    2    1    2    0    0  0.62287903816E+02  0.25699423383E+02 -0.21855858437E+03  0.24596853970E+03  0.90512012430E+02 0.  0.
         23    2    1    2    0    0 -0.38476326278E+02 -0.20611618525E+02 -0.59706155159E+02  0.12156309847E+03  0.96475361850E+02 0.  0.
        -11    1    3    3    0    0  0.44252830420E+02 -0.15840380650E+02 -0.39882608801E+02  0.61642948859E+02  0.00000000000E+00 0. -1.
         11    1    3    3    0    0  0.18035073397E+02  0.41539804033E+02 -0.17867597557E+03  0.18432559084E+03  0.00000000000E+00 0.  1.
        -13    1    4    4    0    0 -0.39289446363E+02  0.21047917061E+02  0.47364604964E+01  0.44823090770E+02  0.00000000000E+00 0.  1.
         13    1    4    4    0    0  0.81312008493E+00 -0.41659535587E+02 -0.64442615656E+02  0.76740007702E+02  0.00000000000E+00 0. -1.
         21    1    1    2  502  501 -0.23811577538E+02 -0.50878048582E+01 -0.14863119493E+03  0.15061244666E+03  0.00000000000E+00 0.  1.
<scales pt_clust_5="13000.00000" pt_clust_6="13000.00000" pt_clust_7="13000.00000" pt_clust_8="13000.00000" pt_clust_9="24.34907"></scales>
<clustering>
<clus scale="   24.349">  2  9  1 -1</clus>
<clus scale="   90.512">  5  6 -1 -1</clus>
<clus scale="   96.475">  7  8 -1 -1</clus>
<clus scale="  103.526">  2  5  1 -1</clus>
<clus scale="  108.778">  1  5  2 -1</clus>
</clustering>
</event>
<event>
 9    1  0.1434065E-005  0.1250015E+03  0.7546771E-02  0.1238129E+00
          2   -1    0    0  502    0  0.00000000000E+00  0.00000000000E+00  0.17301702889E+03  0.17301702889E+03  0.00000000000E+00 0. -1.
         -2   -1    0    0    0  501 -0.00000000000E+00 -0.00000000000E+00 -0.42079658199E+03  0.42079658199E+03  0.00000000000E+00 0.  1.
         23    2    1    2    0    0  0.10733570610E+03 -0.39337302026E+02 -0.53242747666E+02  0.15804085629E+03  0.95256206840E+02 0.  0.
         23    2    1    2    0    0  0.94606419008E+01  0.51449835020E+02  0.72217670741E+02  0.14431769643E+03  0.11347077275E+03 0.  0.
        -13    1    3    3    0    0  0.80681054115E+02 -0.70287652581E+02 -0.30385148876E+02  0.11123418481E+03  0.00000000000E+00 0. -1.
         13    1    3    3    0    0  0.26654651986E+02  0.30950350555E+02 -0.22857598789E+02  0.46806671473E+02  0.00000000000E+00 0.  1.
        -13    1    4    4    0    0 -0.29125501264E+02 -0.23851949635E+02  0.36630132185E+02  0.52525964143E+02  0.00000000000E+00 0.  1.
         13    1    4    4    0    0  0.38586143165E+02  0.75301784655E+02  0.35587538556E+02  0.91791732291E+02  0.00000000000E+00 0. -1.
         21    1    1    2  502  501 -0.11679634800E+03 -0.12112532994E+02 -0.26675447618E+03  0.29145505816E+03  0.00000000000E+00 0.  1.
<scales pt_clust_5="13000.00000" pt_clust_6="13000.00000" pt_clust_7="13000.00000" pt_clust_8="13000.00000" pt_clust_9="117.42274"></scales>
<clustering>
<clus scale="   95.256">  5  6 -1 -1</clus>
<clus scale="  113.471">  7  8 -1 -1</clus>
<clus scale="  117.423">  2  9  1 -1</clus>
<clus scale="  117.423">  2  5  1 -1</clus>
<clus scale="  125.001">  1  5  2 -1</clus>
</clustering>
</event>
<event>
 9    1  0.1434065E-005  0.1188649E+03  0.7546771E-02  0.1251280E+00
         -2   -1    0    0    0  501 -0.00000000000E+00  0.00000000000E+00  0.21928607036E+03  0.21928607036E+03  0.00000000000E+00 0.  1.
          2   -1    0    0  502    0  0.00000000000E+00 -0.00000000000E+00 -0.80854411228E+02  0.80854411228E+02  0.00000000000E+00 0. -1.
         23    2    1    2    0    0 -0.53976098268E+02 -0.65643960292E+01  0.11921969633E+03  0.16796889804E+03  0.10508903005E+03 0.  0.
         23    2    1    2    0    0  0.53523341023E+02  0.28290126626E+02  0.82122121974E+01  0.10781574498E+03  0.88835325954E+02 0.  0.
        -11    1    3    3    0    0 -0.36019397493E+02  0.24837753303E+02  0.12398888327E+03  0.13148214388E+03  0.00000000000E+00 0.  1.
         11    1    3    3    0    0 -0.17956700775E+02 -0.31402149332E+02 -0.47691869336E+01  0.36486754164E+02  0.00000000000E+00 0. -1.
        -11    1    4    4    0    0  0.34685261884E+02 -0.29612338889E+02  0.10811327411E+02  0.46870489723E+02  0.00000000000E+00 0.  1.
         11    1    4    4    0    0  0.18838079139E+02  0.57902465515E+02 -0.25991152138E+01  0.60945255256E+02  0.00000000000E+00 0. -1.
         21    1    1    2  502  501  0.45275724446E+00 -0.21725730597E+02  0.10999750601E+02  0.24355838568E+02  0.00000000000E+00 0.  1.
<scales pt_clust_5="13000.00000" pt_clust_6="13000.00000" pt_clust_7="13000.00000" pt_clust_8="13000.00000" pt_clust_9="21.73045"></scales>
<clustering>
<clus scale="   21.730">  2  9  1 -1</clus>
<clus scale="   88.835">  7  8 -1 -1</clus>
<clus scale="  104.771">  2  7  1 -1</clus>
<clus scale="  105.089">  5  6 -1 -1</clus>
<clus scale="   21.730">  2  5  1 -1</clus>
</clustering>
</event>
<event>
 9    1  0.1434065E-005  0.1149810E+03  0.7546771E-02  0.1257252E+00
          2   -1    0    0  502    0  0.00000000000E+00  0.00000000000E+00  0.46273161153E+03  0.46273161153E+03  0.00000000000E+00 0. -1.
         -2   -1    0    0    0  501 -0.00000000000E+00 -0.00000000000E+00 -0.88238163979E+02  0.88238163979E+02  0.00000000000E+00 0.  1.
         23    2    1    2    0    0  0.42199448011E+02 -0.87933297631E+02  0.73426355926E+02  0.14324600116E+03  0.74932828990E+02 0.  0.
         23    2    1    2    0    0 -0.70211013338E+01  0.64042393040E+02  0.33517579824E+03  0.35321051666E+03  0.90907257050E+02 0.  0.
        -13    1    4    4    0    0 -0.37574959120E+02  0.29697073645E+02  0.26517508650E+03  0.26946543421E+03  0.00000000000E+00 0. -1.
         13    1    4    4    0    0  0.30553857786E+02  0.34345319395E+02  0.70000711737E+02  0.83745082445E+02  0.00000000000E+00 0.  1.
        -13    1    3    3    0    0  0.20224013728E+02 -0.90989789935E+02  0.36368619960E+02  0.10005413096E+03  0.00000000000E+00 0.  1.
         13    1    3    3    0    0  0.21975434283E+02  0.30564923042E+01  0.37057735966E+02  0.43191870208E+02  0.00000000000E+00 0. -1.
         21    1    1    2  502  501 -0.35178346677E+02  0.23890904591E+02 -0.34108706610E+02  0.54513257688E+02  0.00000000000E+00 0.  1.
<scales pt_clust_5="13000.00000" pt_clust_6="13000.00000" pt_clust_7="13000.00000" pt_clust_8="13000.00000" pt_clust_9="42.52401"></scales>
<clustering>
<clus scale="   42.524">  2  9  1 -1</clus>
<clus scale="   74.933">  7  8 -1 -1</clus>
<clus scale="   90.907">  5  6 -1 -1</clus>
<clus scale="  102.817">  2  7  1 -1</clus>
<clus scale="  114.981">  1  5  2 -1</clus>
</clustering>
</event>
<event>
 9    1  0.1434065E-005  0.9860776E+02  0.7546771E-02  0.1284106E+00
         -2   -1    0    0    0  501 -0.00000000000E+00  0.00000000000E+00  0.58776024151E+02  0.58776024151E+02  0.00000000000E+00 0.  1.
          2   -1    0    0  502    0  0.00000000000E+00 -0.00000000000E+00 -0.34504347711E+03  0.34504347711E+03  0.00000000000E+00 0. -1.
         23    2    1    2    0    0  0.17232153093E+02  0.17457126195E+02 -0.12455268213E+03  0.15663215840E+03  0.91752733270E+02 0.  0.
         23    2    1    2    0    0 -0.44675465716E+02  0.17056830482E+02 -0.17238421821E+03  0.20182011107E+03  0.93424867370E+02 0.  0.
        -11    1    3    3    0    0  0.29717445314E+02 -0.17852560563E+02 -0.99532105036E+01  0.36068086641E+02  0.00000000000E+00 0.  1.
         11    1    3    3    0    0 -0.12485292220E+02  0.35309686758E+02 -0.11459947163E+03  0.12056407175E+03  0.00000000000E+00 0. -1.
        -13    1    4    4    0    0  0.22423047335E+02 -0.30175289943E+01 -0.95412590105E+01  0.24554717602E+02  0.00000000000E+00 0. -1.
         13    1    4    4    0    0 -0.67098513051E+02  0.20074359476E+02 -0.16284295920E+03  0.17726539347E+03  0.00000000000E+00 0.  1.
         21    1    1    2  502  501  0.27443312623E+02 -0.34513956676E+02  0.10669447379E+02  0.45367231793E+02  0.00000000000E+00 0.  1.
<scales pt_clust_5="13000.00000" pt_clust_6="13000.00000" pt_clust_7="13000.00000" pt_clust_8="13000.00000" pt_clust_9="44.09477"></scales>
<clustering>
<clus scale="   44.095">  1  9  2 -1</clus>
<clus scale="   91.753">  5  6 -1 -1</clus>
<clus scale="   93.425">  7  8 -1 -1</clus>
<clus scale="   97.025">  1  5  2 -1</clus>
<clus scale="   98.608">  2  5  1 -1</clus>
</clustering>
</event>
<event>
 9    1  0.1434065E-005  0.1361072E+03  0.7546771E-02  0.1218884E+00
         -1   -1    0    0    0  501 -0.00000000000E+00  0.00000000000E+00  0.12967227125E+03  0.12967227125E+03  0.00000000000E+00 0.  1.
          1   -1    0    0  502    0  0.00000000000E+00 -0.00000000000E+00 -0.36501742731E+03  0.36501742731E+03  0.00000000000E+00 0. -1.
         23    2    1    2    0    0 -0.33665250312E+02  0.74339016583E+02  0.28679460729E+02  0.12651293006E+03  0.92322107535E+02 0.  0.
         23    2    1    2    0    0  0.45779265330E+02 -0.92976676804E+02 -0.29748200833E+03  0.32800826359E+03  0.91397331151E+02 0.  0.
        -13    1    4    4    0    0  0.15769888554E+02 -0.66117049918E+02 -0.27196649044E+03  0.28033181339E+03  0.00000000000E+00 0. -1.
         13    1    4    4    0    0  0.30009376776E+02 -0.26859626886E+02 -0.25515517889E+02  0.47676450204E+02  0.00000000000E+00 0.  1.
        -13    1    3    3    0    0  0.26278803094E+02 -0.30042288014E+00 -0.96284383992E+00  0.26298152297E+02  0.00000000000E+00 0. -1.
         13    1    3    3    0    0 -0.59944053406E+02  0.74639439463E+02  0.29642304569E+02  0.10021477776E+03  0.00000000000E+00 0.  1.
         21    1    1    2  502  501 -0.12114015018E+02  0.18637660221E+02  0.33457391538E+02  0.40168504913E+02  0.00000000000E+00 0.  1.
<scales pt_clust_5="13000.00000" pt_clust_6="13000.00000" pt_clust_7="13000.00000" pt_clust_8="13000.00000" pt_clust_9="22.22862"></scales>
<clustering>
<clus scale="   22.229">  1  9  2 -1</clus>
<clus scale="   91.397">  5  6 -1 -1</clus>
<clus scale="   92.322">  7  8 -1 -1</clus>
<clus scale="  135.482">  2  5  1 -1</clus>
<clus scale="  135.482">  2  5  1 -1</clus>
</clustering>
</event>
<event>
 9    1  0.1434065E-005  0.1164741E+03  0.7546771E-02  0.1249727E+00
          1   -1    0    0  502    0  0.00000000000E+00  0.00000000000E+00  0.33033714382E+03  0.33033714382E+03  0.00000000000E+00 0. -1.
         -1   -1    0    0    0  501 -0.00000000000E+00 -0.00000000000E+00 -0.79895980810E+02  0.79895980810E+02  0.00000000000E+00 0.  1.
         23    2    1    2    0    0  0.44685094726E+02 -0.50959210524E+02  0.92632384906E+02  0.14702582441E+03  0.91881638445E+02 0.  0.
         23    2    1    2    0    0 -0.65144953709E+02  0.37806432447E+02  0.18976099813E+03  0.22305078437E+03  0.89828863216E+02 0.  0.
        -11    1    3    3    0    0  0.54727595141E+02 -0.69659176355E+02  0.56346888266E+02  0.10498801045E+03  0.00000000000E+00 0. -1.
         11    1    3    3    0    0 -0.10042500415E+02  0.18699965831E+02  0.36285496640E+02  0.42037813967E+02  0.00000000000E+00 0.  1.
        -13    1    4    4    0    0 -0.86798195427E+02  0.21552329423E+02  0.15548588540E+03  0.17937193257E+03  0.00000000000E+00 0.  1.
         13    1    4    4    0    0  0.21653241719E+02  0.16254103024E+02  0.34275112727E+02  0.43678851800E+02  0.00000000000E+00 0. -1.
         21    1    1    2  502  501  0.20459858982E+02  0.13152778077E+02 -0.31952220026E+02  0.40156515851E+02  0.00000000000E+00 0.  1.
<scales pt_clust_5="13000.00000" pt_clust_6="13000.00000" pt_clust_7="13000.00000" pt_clust_8="13000.00000" pt_clust_9="24.32286"></scales>
<clustering>
<clus scale="   24.323">  2  9  1 -1</clus>
<clus scale="   89.829">  7  8 -1 -1</clus>
<clus scale="   91.882">  5  6 -1 -1</clus>
<clus scale="  114.862">  1  7  2 -1</clus>
<clus scale="  114.862">  1  5  2 -1</clus>
</clustering>
</event>
<event>
 9    1  0.1434065E-005  0.1345338E+03  0.7546771E-02  0.1222482E+00
          1   -1    0    0  502    0  0.00000000000E+00  0.00000000000E+00  0.45198257865E+02  0.45198257865E+02  0.00000000000E+00 0. -1.
         -1   -1    0    0    0  501 -0.00000000000E+00 -0.00000000000E+00 -0.61397862932E+03  0.61397862932E+03  0.00000000000E+00 0.  1.
         23    2    1    2    0    0 -0.10817125714E+03 -0.37159742730E+01 -0.23702269031E+03  0.27793903489E+03  0.96723947702E+02 0.  0.
         23    2    1    2    0    0  0.84118763289E+02 -0.99167206676E+01 -0.13780239010E+03  0.18532198321E+03  0.90445735442E+02 0.  0.
        -11    1    3    3    0    0 -0.27057637758E+02 -0.12388625669E+02 -0.27686432150E+01  0.29887442050E+02  0.00000000000E+00 0. -1.
         11    1    3    3    0    0 -0.81113619383E+02  0.86726513964E+01 -0.23425404709E+03  0.24805159284E+03  0.00000000000E+00 0.  1.
        -11    1    4    4    0    0  0.68279558521E+02  0.29708664507E+02 -0.56396507295E+02  0.93409147805E+02  0.00000000000E+00 0.  1.
         11    1    4    4    0    0  0.15839204767E+02 -0.39625385174E+02 -0.81405882804E+02  0.91912835410E+02  0.00000000000E+00 0. -1.
         21    1    1    2  502  501  0.24052493852E+02  0.13632694941E+02 -0.19395529105E+03  0.19591586908E+03  0.00000000000E+00 0.  1.
<scales pt_clust_5="13000.00000" pt_clust_6="13000.00000" pt_clust_7="13000.00000" pt_clust_8="13000.00000" pt_clust_9="27.64729"></scales>
<clustering>
<clus scale="   27.647">  2  9  1 -1</clus>
<clus scale="   90.446">  7  8 -1 -1</clus>
<clus scale="   96.724">  5  6 -1 -1</clus>
<clus scale="  130.093">  1  7  2 -1</clus>
<clus scale="  130.093">  1  5  2 -1</clus>
</clustering>
</event>
<event>
 9    1  0.1434065E-005  0.1833687E+03  0.7546771E-02  0.1164887E+00
          2   -1    0    0  502    0  0.00000000000E+00  0.00000000000E+00  0.13171877589E+03  0.13171877589E+03  0.00000000000E+00 0. -1.
         -2   -1    0    0    0  501 -0.00000000000E+00 -0.00000000000E+00 -0.63114054535E+03  0.63114054535E+03  0.00000000000E+00 0.  1.
         23    2    1    2    0    0 -0.52799982203E+02 -0.12134717975E+03 -0.25634958198E+03  0.30251639539E+03  0.91038921053E+02 0.  0.
         23    2    1    2    0    0  0.43953283941E+02  0.15973540896E+03  0.22734697006E+02  0.19163263566E+03  0.93589040787E+02 0.  0.
        -11    1    4    4    0    0  0.28555478718E+01  0.11430193499E+03  0.49731089382E+02  0.12468467326E+03  0.00000000000E+00 0. -1.
         11    1    4    4    0    0  0.41097736069E+02  0.45433473975E+02 -0.26996392376E+02  0.66947962395E+02  0.00000000000E+00 0.  1.
        -11    1    3    3    0    0 -0.33718124780E+01 -0.21517832767E+02  0.12974155957E+01  0.21819017705E+02  0.00000000000E+00 0. -1.
         11    1    3    3    0    0 -0.49428169725E+02 -0.99829346981E+02 -0.25764699757E+03  0.28069737768E+03  0.00000000000E+00 0.  1.
         21    1    1    2  502  501  0.88466982629E+01 -0.38388229213E+02 -0.26580688449E+03  0.26871029019E+03  0.00000000000E+00 0.  1.
<scales pt_clust_5="13000.00000" pt_clust_6="13000.00000" pt_clust_7="13000.00000" pt_clust_8="13000.00000" pt_clust_9="39.39442"></scales>
<clustering>
<clus scale="   39.394">  2  9  1 -1</clus>
<clus scale="   91.039">  7  8 -1 -1</clus>
<clus scale="   93.589">  5  6 -1 -1</clus>
<clus scale="  182.080">  2  7  1 -1</clus>
<clus scale="  183.369">  1  5  2 -1</clus>
</clustering>
</event>
<event>
 9    1  0.1434065E-005  0.1006138E+03  0.7546771E-02  0.1279268E+00
         -1   -1    0    0    0  501 -0.00000000000E+00  0.00000000000E+00  0.12903188383E+03  0.12903188383E+03  0.00000000000E+00 0.  1.
          1   -1    0    0  502    0  0.00000000000E+00 -0.00000000000E+00 -0.38907744207E+03  0.38907744207E+03  0.00000000000E+00 0. -1.
         23    2    1    2    0    0  0.35387900662E+02  0.10371470448E+01  0.40400193095E+02  0.10533922063E+03  0.90613446092E+02 0.  0.
         23    2    1    2    0    0 -0.36781939230E+02 -0.23722626493E+02 -0.34674729414E+03  0.36119097009E+03  0.91156770572E+02 0.  0.
        -11    1    3    3    0    0  0.85268173859E+01 -0.40529264047E+02 -0.57471792757E-01  0.41416556616E+02  0.00000000000E+00 0. -1.
         11    1    3    3    0    0  0.26861083276E+02  0.41566411092E+02  0.40457664888E+02  0.63922664009E+02  0.00000000000E+00 0.  1.
        -13    1    4    4    0    0  0.51177087355E-01 -0.46531907733E+02 -0.26105421938E+03  0.26516886414E+03  0.00000000000E+00 0. -1.
         13    1    4    4    0    0 -0.36833116318E+02  0.22809281240E+02 -0.85693074757E+02  0.96022105943E+02  0.00000000000E+00 0.  1.
         21    1    1    2  502  501  0.13940385682E+01  0.22685479448E+02  0.46301542794E+02  0.51579135185E+02  0.00000000000E+00 0.  1.
<scales pt_clust_5="13000.00000" pt_clust_6="13000.00000" pt_clust_7="13000.00000" pt_clust_8="13000.00000" pt_clust_9="22.72827"></scales>
<clustering>
<clus scale="   22.728">  1  9  2 -1</clus>
<clus scale="   90.613">  5  6 -1 -1</clus>
<clus scale="   91.157">  7  8 -1 -1</clus>
<clus scale="  100.122">  1  5  2 -1</clus>
<clus scale="  100.614">  2  5  1 -1</clus>
</clustering>
</event>
<event>
 9    1  0.1434065E-005  0.1444905E+03  0.7546771E-02  0.1207660E+00
         -1   -1    0    0    0  501 -0.00000000000E+00  0.00000000000E+00  0.54074011945E+02  0.54074011945E+02  0.00000000000E+00 0.  1.
          1   -1    0    0  502    0  0.00000000000E+00 -0.00000000000E+00 -0.58176569080E+03  0.58176569080E+03  0.00000000000E+00 0. -1.
         23    2    1    2    0    0  0.62706205709E+02 -0.64164704094E+02 -0.97728623464E+02  0.16046042734E+03  0.90263433409E+02 0.  0.
         23    2    1    2    0    0 -0.66453714589E+02  0.10303249497E+03 -0.39254066892E+03  0.42129430523E+03  0.91481821483E+02 0.  0.
        -11    1    3    3    0    0  0.75371570766E+02 -0.25696685898E+02 -0.37843664860E+02  0.88166526051E+02  0.00000000000E+00 0.  1.
         11    1    3    3    0    0 -0.12665365057E+02 -0.38468018196E+02 -0.59884958604E+02  0.72293901284E+02  0.00000000000E+00 0. -1.
        -11    1    4    4    0    0 -0.71992566845E+02  0.40077413966E+02 -0.28383465776E+03  0.29555243483E+03  0.00000000000E+00 0. -1.
         11    1    4    4    0    0  0.55388522560E+01  0.62955081003E+02 -0.10870601116E+03  0.12574187040E+03  0.00000000000E+00 0.  1.
         21    1    1    2  502  501  0.37475088800E+01 -0.38867790874E+02 -0.37422386479E+02  0.54084970186E+02  0.00000000000E+00 0.  1.
<scales pt_clust_5="13000.00000" pt_clust_6="13000.00000" pt_clust_7="13000.00000" pt_clust_8="13000.00000" pt_clust_9="39.04803"></scales>
<clustering>
<clus scale="   39.048">  1  9  2 -1</clus>
<clus scale="   90.263">  5  6 -1 -1</clus>
<clus scale="   91.482">  7  8 -1 -1</clus>
<clus scale="  143.722">  1  5  2 -1</clus>
<clus scale="  144.490">  2  5  1 -1</clus>
</clustering>
</event>
<event>
 9    1  0.1434065E-005  0.1735529E+03  0.7546771E-02  0.1174261E+00
          2   -1    0    0  502    0  0.00000000000E+00  0.00000000000E+00  0.51906358480E+03  0.51906358480E+03  0.00000000000E+00 0. -1.
         -2   -1    0    0    0  501 -0.00000000000E+00 -0.00000000000E+00 -0.10184625624E+03  0.10184625624E+03  0.00000000000E+00 0.  1.
         23    2    1    2    0    0 -0.18970685970E+03  0.68425029170E+02  0.22875922223E+03  0.31855452772E+03  0.92062631646E+02 0.  0.
         23    2    1    2    0    0  0.10402649868E+03 -0.31178962731E+02  0.12690127986E+03  0.19047306890E+03  0.91555529599E+02 0.  0.
        -13    1    4    4    0    0  0.53073212032E+02 -0.61581674928E+02  0.59929830199E+02  0.10099828251E+03  0.00000000000E+00 0.  1.
         13    1    4    4    0    0  0.50953286647E+02  0.30402712197E+02  0.66971449665E+02  0.89474786389E+02  0.00000000000E+00 0. -1.
        -13    1    3    3    0    0 -0.15349655366E+02 -0.13660449663E+02  0.15241066948E+01  0.20604434136E+02  0.00000000000E+00 0.  1.
         13    1    3    3    0    0 -0.17435720433E+03  0.82085478833E+02  0.22723511553E+03  0.29795009359E+03  0.00000000000E+00 0. -1.
         21    1    1    2  502  501  0.85680361020E+02 -0.37246066440E+02  0.61556826477E+02  0.11188224442E+03  0.00000000000E+00 0.  1.
<scales pt_clust_5="13000.00000" pt_clust_6="13000.00000" pt_clust_7="13000.00000" pt_clust_8="13000.00000" pt_clust_9="93.42587"></scales>
<clustering>
<clus scale="   91.556">  5  6 -1 -1</clus>
<clus scale="   92.063">  7  8 -1 -1</clus>
<clus scale="   93.426">  2  9  1 -1</clus>
<clus scale="  173.284">  1  5  2 -1</clus>
<clus scale="  173.284">  1  5  2 -1</clus>
</clustering>
</event>
<event>
 9    1  0.1434065E-005  0.9464986E+02  0.7546771E-02  0.1292703E+00
          2   -1    0    0  502    0  0.00000000000E+00  0.00000000000E+00  0.62329274203E+03  0.62329274203E+03  0.00000000000E+00 0. -1.
         -2   -1    0    0    0  501 -0.00000000000E+00 -0.00000000000E+00 -0.28130239903E+02  0.28130239903E+02  0.00000000000E+00 0.  1.
         23    2    1    2    0    0 -0.16700898045E+02 -0.27741428169E+02  0.11050435429E+03  0.14864914637E+03  0.94004518873E+02 0.  0.
         23    2    1    2    0    0 -0.54301125777E+01  0.66441731387E+01  0.43168043878E+03  0.44160592356E+03  0.92704688880E+02 0.  0.
        -11    1    3    3    0    0 -0.30067873386E+02 -0.57042574617E+02  0.56313493976E+02  0.85610407853E+02  0.00000000000E+00 0.  1.
         11    1    3    3    0    0  0.13366975341E+02  0.29301146448E+02  0.54190860314E+02  0.63038738522E+02  0.00000000000E+00 0. -1.
        -11    1    4    4    0    0  0.20960418052E+02 -0.35580050973E+02  0.15108921660E+03  0.15663087347E+03  0.00000000000E+00 0.  1.
         11    1    4    4    0    0 -0.26390530629E+02  0.42224224111E+02  0.28059122218E+03  0.28497505009E+03  0.00000000000E+00 0. -1.
         21    1    1    2  502  501  0.22131010623E+02  0.21097255030E+02  0.52977709056E+02  0.61167911995E+02  0.00000000000E+00 0. -1.
<scales pt_clust_5="13000.00000" pt_clust_6="13000.00000" pt_clust_7="13000.00000" pt_clust_8="13000.00000" pt_clust_9="30.57574"></scales>
<clustering>
<clus scale="   30.576">  2  9  1 -1</clus>
<clus scale="   92.705">  7  8 -1 -1</clus>
<clus scale="   93.359">  1  7  2 -1</clus>
<clus scale="   94.005">  5  6 -1 -1</clus>
<clus scale="   93.359">  1  5  2 -1</clus>
</clustering>
</event>
<event>
 9    1  0.1434065E-005  0.2170798E+03  0.7546771E-02  0.1171332E+00
          2   -1    0    0  502    0  0.00000000000E+00  0.00000000000E+00  0.10439238228E+04  0.10439238228E+04  0.00000000000E+00 0. -1.
         -2   -1    0    0    0  501 -0.00000000000E+00 -0.00000000000E+00 -0.17214734422E+03  0.17214734422E+03  0.00000000000E+00 0.  1.
         23    2    1    2    0    0  0.15901964421E+03 -0.90396808761E+02  0.79153519924E+03  0.81763839361E+03  0.92443175988E+02 0.  0.
         23    2    1    2    0    0  0.14601686431E+02 -0.38144551201E+01  0.15959522706E+03  0.18555445670E+03  0.93445495271E+02 0.  0.
        -11    1    4    4    0    0 -0.17974143766E+02  0.24307213282E+02  0.13239794260E+02  0.33003069762E+02  0.00000000000E+00 0. -1.
         11    1    4    4    0    0  0.32575830197E+02 -0.28121668402E+02  0.14635543280E+03  0.15255138694E+03  0.00000000000E+00 0.  1.
        -11    1    3    3    0    0  0.12896063723E+03 -0.32098813969E+02  0.61784825786E+03  0.63197915278E+03  0.00000000000E+00 0. -1.
         11    1    3    3    0    0  0.30059006980E+02 -0.58297994791E+02  0.17368694138E+03  0.18565924082E+03  0.00000000000E+00 0.  1.
         21    1    1    2  502  501 -0.17362133064E+03  0.94211263881E+02 -0.79353947739E+02  0.21287831669E+03  0.00000000000E+00 0.  1.
<scales pt_clust_5="13000.00000" pt_clust_6="13000.00000" pt_clust_7="13000.00000" pt_clust_8="13000.00000" pt_clust_9="196.41261"></scales>
<clustering>
<clus scale="   92.443">  7  8 -1 -1</clus>
<clus scale="   93.445">  5  6 -1 -1</clus>
<clus scale="   94.656">  1  5  2 -1</clus>
<clus scale="  196.413">  2  9  1 -1</clus>
<clus scale="   94.656">  1  5  2 -1</clus>
</clustering>
</event>
<event>
 9    1  0.1434065E-005  0.1449385E+03  0.7546771E-02  0.1225515E+00
          1   -1    0    0  502    0  0.00000000000E+00  0.00000000000E+00  0.36494447508E+03  0.36494447508E+03  0.00000000000E+00 0. -1.
         -1   -1    0    0    0  501 -0.00000000000E+00 -0.00000000000E+00 -0.97118296060E+02  0.97118296060E+02  0.00000000000E+00 0.  1.
         23    2    1    2    0    0  0.14812280902E+02 -0.21332116234E+02  0.39356232570E+02  0.10529422683E+03  0.94146154005E+02 0.  0.
         23    2    1    2    0    0  0.43589526772E+02  0.11280491063E+03  0.18984121569E+03  0.24157209430E+03  0.87706298874E+02 0.  0.
        -11    1    3    3    0    0 -0.25087916322E+02  0.25638466635E+02  0.17414572153E+02  0.39874827147E+02  0.00000000000E+00 0.  1.
         11    1    3    3    0    0  0.39900197224E+02 -0.46970582869E+02  0.21941660418E+02  0.65419399687E+02  0.00000000000E+00 0. -1.
        -13    1    4    4    0    0  0.23194437661E+02  0.89423823539E+01  0.74731629709E+00  0.24869793370E+02  0.00000000000E+00 0. -1.
         13    1    4    4    0    0  0.20395089111E+02  0.10386252828E+03  0.18909389939E+03  0.21670230093E+03  0.00000000000E+00 0.  1.
         21    1    1    2  502  501 -0.58401807674E+02 -0.91472794398E+02  0.38628730761E+02  0.11519645001E+03  0.00000000000E+00 0. -1.
<scales pt_clust_5="13000.00000" pt_clust_6="13000.00000" pt_clust_7="13000.00000" pt_clust_8="13000.00000" pt_clust_9="115.38972"></scales>
<clustering>
<clus scale="   87.706">  7  8 -1 -1</clus>
<clus scale="   94.146">  5  6 -1 -1</clus>
<clus scale="   97.662">  2  5  1 -1</clus>
<clus scale="  115.390">  2  9  1 -1</clus>
<clus scale="  144.939">  1  5  2 -1</clus>
</clustering>
</event>
<event>
 9    1  0.1434065E-005  0.9164019E+02  0.7546771E-02  0.1301287E+00
         -1   -1    0    0    0  501 -0.00000000000E+00  0.00000000000E+00  0.20813661068E+03  0.20813661068E+03  0.00000000000E+00 0.  1.
          1   -1    0    0  502    0  0.00000000000E+00 -0.00000000000E+00 -0.21795501884E+03  0.21795501884E+03  0.00000000000E+00 0. -1.
         23    2    1    2    0    0 -0.29833553755E+01  0.11526641070E+02  0.32412472968E+02  0.93442322498E+02  0.86828194535E+02 0.  0.
         23    2    1    2    0    0  0.74291118179E+01  0.14697115301E+02 -0.17468731434E+03  0.19754876355E+03  0.90767060605E+02 0.  0.
        -11    1    4    4    0    0 -0.69470164122E+01  0.46508837210E+02 -0.14252454485E+03  0.15008190717E+03  0.00000000000E+00 0. -1.
         11    1    4    4    0    0  0.14376128230E+02 -0.31811721909E+02 -0.32162769487E+02  0.47466856382E+02  0.00000000000E+00 0.  1.
        -11    1    3    3    0    0 -0.66834171893E+01  0.48931012572E+02  0.24078395613E+02  0.54942526261E+02  0.00000000000E+00 0. -1.
         11    1    3    3    0    0  0.37000618139E+01 -0.37404371503E+02  0.83340773551E+01  0.38499796237E+02  0.00000000000E+00 0.  1.
         21    1    1    2  502  501 -0.44457564424E+01 -0.26223756371E+02  0.13245643320E+03  0.13510054347E+03  0.00000000000E+00 0.  1.
<scales pt_clust_5="13000.00000" pt_clust_6="13000.00000" pt_clust_7="13000.00000" pt_clust_8="13000.00000" pt_clust_9="26.59794"></scales>
<clustering>
<clus scale="   26.598">  1  9  2 -1</clus>
<clus scale="   86.828">  7  8 -1 -1</clus>
<clus scale="   87.741">  1  7  2 -1</clus>
<clus scale="   90.767">  5  6 -1 -1</clus>
<clus scale="   91.640">  2  5  1 -1</clus>
</clustering>
</event>
<event>
 9    1  0.1434065E-005  0.1258243E+03  0.7546771E-02  0.1234441E+00
          1   -1    0    0  502    0  0.00000000000E+00  0.00000000000E+00  0.62543808033E+03  0.62543808033E+03  0.00000000000E+00 0. -1.
         -1   -1    0    0    0  501 -0.00000000000E+00 -0.00000000000E+00 -0.42499298821E+02  0.42499298821E+02  0.00000000000E+00 0.  1.
         23    2    1    2    0    0 -0.88708265354E+02 -0.78125237974E+02  0.28676503600E+03  0.32315877933E+03  0.90690140810E+02 0.  0.
         23    2    1    2    0    0  0.56673485106E+02  0.24132814621E+02  0.21453239843E+03  0.24178967576E+03  0.92972149979E+02 0.  0.
        -11    1    4    4    0    0  0.53094172880E+02 -0.19088132307E+02  0.17211125311E+03  0.18112324930E+03  0.00000000000E+00 0. -1.
         11    1    4    4    0    0  0.35793122253E+01  0.43220946928E+02  0.42421145323E+02  0.60666426463E+02  0.00000000000E+00 0.  1.
        -13    1    3    3    0    0 -0.10356873348E+03 -0.46890507616E+02  0.23248853516E+03  0.25879745216E+03  0.00000000000E+00 0.  1.
         13    1    3    3    0    0  0.14860468128E+02 -0.31234730358E+02  0.54276500832E+02  0.64361327178E+02  0.00000000000E+00 0. -1.
         21    1    1    2  502  501  0.32034780249E+02  0.53992423353E+02  0.81641347078E+02  0.10298892405E+03  0.00000000000E+00 0. -1.
<scales pt_clust_5="13000.00000" pt_clust_6="13000.00000" pt_clust_7="13000.00000" pt_clust_8="13000.00000" pt_clust_9="62.78064"></scales>
<clustering>
<clus scale="   62.781">  2  9  1 -1</clus>
<clus scale="   90.690">  7  8 -1 -1</clus>
<clus scale="   92.972">  5  6 -1 -1</clus>
<clus scale="  124.148">  2  7  1 -1</clus>
<clus scale="  125.824">  1  5  2 -1</clus>
</clustering>
</event>
<event>
 9    1  0.1434065E-005  0.1001702E+03  0.7546771E-02  0.1281853E+00
         -1   -1    0    0    0  501 -0.00000000000E+00  0.00000000000E+00  0.14667832084E+03  0.14667832084E+03  0.00000000000E+00 0.  1.
          1   -1    0    0  502    0  0.00000000000E+00 -0.00000000000E+00 -0.16525591138E+03  0.16525591138E+03  0.00000000000E+00 0. -1.
         23    2    1    2    0    0  0.28400629291E+02 -0.14228993692E+00 -0.27900511569E+02  0.10393274948E+03  0.96005009652E+02 0.  0.
         23    2    1    2    0    0 -0.22373954495E+02 -0.23658589701E+02 -0.73013670850E+02  0.12208223553E+03  0.92264583637E+02 0.  0.
        -11    1    3    3    0    0  0.16829037095E+02 -0.44864888258E+02 -0.31899926114E+02  0.57564572213E+02  0.00000000000E+00 0. -1.
         11    1    3    3    0    0  0.11571592195E+02  0.44722598321E+02  0.39994145448E+01  0.46368177269E+02  0.00000000000E+00 0.  1.
        -11    1    4    4    0    0 -0.33012174719E+01 -0.41963990195E+02 -0.83604837729E+02  0.93603650578E+02  0.00000000000E+00 0. -1.
         11    1    4    4    0    0 -0.19072737023E+02  0.18305400493E+02  0.10591166879E+02  0.28478584948E+02  0.00000000000E+00 0.  1.
         21    1    1    2  502  501 -0.60266747961E+01  0.23800879638E+02  0.82336591875E+02  0.85919247216E+02  0.00000000000E+00 0.  1.
<scales pt_clust_5="13000.00000" pt_clust_6="13000.00000" pt_clust_7="13000.00000" pt_clust_8="13000.00000" pt_clust_9="24.55204"></scales>
<clustering>
<clus scale="   24.552">  1  9  2 -1</clus>
<clus scale="   92.265">  7  8 -1 -1</clus>
<clus scale="   96.005">  5  6 -1 -1</clus>
<clus scale="   96.591">  2  7  1 -1</clus>
<clus scale="   96.591">  2  5  1 -1</clus>
</clustering>
</event>
<event>
 9    1  0.1434065E-005  0.2760554E+03  0.7546771E-02  0.1098114E+00
          2   -1    0    0  502    0  0.00000000000E+00  0.00000000000E+00  0.14951374646E+04  0.14951374646E+04  0.00000000000E+00 0. -1.
         -2   -1    0    0    0  501 -0.00000000000E+00 -0.00000000000E+00 -0.91162192312E+02  0.91162192312E+02  0.00000000000E+00 0.  1.
         23    2    1    2    0    0  0.30477841116E+03 -0.96972036678E+02  0.38805114098E+03  0.51246952281E+03  0.98731291849E+02 0.  0.
         23    2    1    2    0    0 -0.15668039941E+03  0.61975874501E+02  0.63597811384E+03  0.66454205873E+03  0.93585415296E+02 0.  0.
        -11    1    3    3    0    0  0.15223986487E+03 -0.17726631940E+02  0.12282213598E+03  0.19640897897E+03  0.00000000000E+00 0.  1.
         11    1    3    3    0    0  0.15253854628E+03 -0.79245404738E+02  0.26522900501E+03  0.31606054384E+03  0.00000000000E+00 0. -1.
        -13    1    4    4    0    0 -0.10001756787E+03  0.82615146680E+02  0.48268901857E+03  0.49981743166E+03  0.00000000000E+00 0. -1.
         13    1    4    4    0    0 -0.56662831535E+02 -0.20639272179E+02  0.15328909527E+03  0.16472462707E+03  0.00000000000E+00 0.  1.
         21    1    1    2  502  501 -0.14809801175E+03  0.34996162177E+02  0.37994601744E+03  0.40928807534E+03  0.00000000000E+00 0. -1.
<scales pt_clust_5="13000.00000" pt_clust_6="13000.00000" pt_clust_7="13000.00000" pt_clust_8="13000.00000" pt_clust_9="152.17671"></scales>
<clustering>
<clus scale="   93.585">  7  8 -1 -1</clus>
<clus scale="   98.731">  5  6 -1 -1</clus>
<clus scale="  152.177">  1  9  2 -1</clus>
<clus scale="  274.257">  1  7  2 -1</clus>
<clus scale="  152.177">  1  5  2 -1</clus>
</clustering>
</event>
<event>
 9    1  0.1434065E-005  0.1242074E+03  0.7546771E-02  0.1237021E+00
         -1   -1    0    0    0  501 -0.00000000000E+00  0.00000000000E+00  0.92908792629E+02  0.92908792629E+02  0.00000000000E+00 0.  1.
          1   -1    0    0  502    0  0.00000000000E+00 -0.00000000000E+00 -0.29138273970E+03  0.29138273970E+03  0.00000000000E+00 0. -1.
         23    2    1    2    0    0  0.65397647341E+00 -0.72705103528E+02 -0.65950783255E+02  0.13218927458E+03  0.88532698698E+02 0.  0.
         23    2    1    2    0    0 -0.36763091374E+02  0.88312878982E+02 -0.15749559572E+03  0.20550726672E+03  0.90981781255E+02 0.  0.
        -11    1    3    3    0    0  0.36997852613E+02 -0.66800989586E+02 -0.34622397044E+02  0.83844640166E+02  0.00000000000E+00 0.  1.
         11    1    3    3    0    0 -0.36343876140E+02 -0.59041139421E+01 -0.31328386212E+02  0.48344634417E+02  0.00000000000E+00 0. -1.
        -13    1    4    4    0    0  0.26539262628E+02  0.86383353989E+01 -0.51464840232E+02  0.58545564131E+02  0.00000000000E+00 0.  1.
         13    1    4    4    0    0 -0.63302354002E+02  0.79674543583E+02 -0.10603075549E+03  0.14696170259E+03  0.00000000000E+00 0. -1.
         21    1    1    2  502  501  0.36109114900E+02 -0.15607775454E+02  0.24972431907E+02  0.46594991027E+02  0.00000000000E+00 0.  1.
<scales pt_clust_5="13000.00000" pt_clust_6="13000.00000" pt_clust_7="13000.00000" pt_clust_8="13000.00000" pt_clust_9="39.33791"></scales>
<clustering>
<clus scale="   39.338">  1  9  2 -1</clus>
<clus scale="   88.533">  5  6 -1 -1</clus>
<clus scale="   90.982">  7  8 -1 -1</clus>
<clus scale="  122.425">  1  5  2 -1</clus>
<clus scale="  124.207">  2  5  1 -1</clus>
</clustering>
</event>
<event>
 9    1  0.1434065E-005  0.1016982E+03  0.7546771E-02  0.1278625E+00
         -1   -1    0    0    0  501 -0.00000000000E+00  0.00000000000E+00  0.78475549051E+02  0.78475549051E+02  0.00000000000E+00 0.  1.
          1   -1    0    0  502    0  0.00000000000E+00 -0.00000000000E+00 -0.41359419898E+03  0.41359419898E+03  0.00000000000E+00 0. -1.
         23    2    1    2    0    0  0.21040652263E+02 -0.97807947839E+02 -0.12191523637E+03  0.18211091432E+03  0.91060180917E+02 0.  0.
         23    2    1    2    0    0 -0.21007375555E+02  0.34651707551E+01 -0.18902337707E+03  0.21256666329E+03  0.94875876951E+02 0.  0.
        -11    1    3    3    0    0 -0.24372207185E+02 -0.20372040436E+02 -0.13473511248E+01  0.31793708020E+02  0.00000000000E+00 0.  1.
         11    1    3    3    0    0  0.45412859448E+02 -0.77435907403E+02 -0.12056788524E+03  0.15031720630E+03  0.00000000000E+00 0. -1.
        -13    1    4    4    0    0  0.13880646340E+02  0.39652295479E+02 -0.12028116021E+03  0.12740696363E+03  0.00000000000E+00 0.  1.
         13    1    4    4    0    0 -0.34888021895E+02 -0.36187124724E+02 -0.68742216856E+02  0.85159699658E+02  0.00000000000E+00 0. -1.
         21    1    1    2  502  501 -0.33276707990E-01  0.94342777084E+02 -0.24180036497E+02  0.97392170425E+02  0.00000000000E+00 0.  1.
<scales pt_clust_5="13000.00000" pt_clust_6="13000.00000" pt_clust_7="13000.00000" pt_clust_8="13000.00000" pt_clust_9="94.34278"></scales>
<clustering>
<clus scale="   91.060">  5  6 -1 -1</clus>
<clus scale="   94.343">  1  9  2 -1</clus>
<clus scale="   94.876">  7  8 -1 -1</clus>
<clus scale="   98.148">  1  5  2 -1</clus>
<clus scale="  101.698">  2  5  1 -1</clus>
</clustering>
</event>
<event>
 9    1  0.1434065E-005  0.1549440E+03  0.7546771E-02  0.1194645E+00
          2   -1    0    0  502    0  0.00000000000E+00  0.00000000000E+00  0.15625481131E+03  0.15625481131E+03  0.00000000000E+00 0. -1.
         -2   -1    0    0    0  501 -0.00000000000E+00 -0.00000000000E+00 -0.22735930008E+03  0.22735930008E+03  0.00000000000E+00 0.  1.
         23    2    1    2    0    0  0.28317420474E+02 -0.14091930122E+03  0.17654517327E+01  0.17070895735E+03  0.92077714673E+02 0.  0.
         23    2    1    2    0    0 -0.37257920303E+02  0.10092037002E+03 -0.14952523427E+02  0.14195253440E+03  0.91399509599E+02 0.  0.
        -11    1    4    4    0    0 -0.46855143607E+02  0.13190489257E+02 -0.22002367992E+02  0.53418140051E+02  0.00000000000E+00 0. -1.
         11    1    4    4    0    0  0.95972233044E+01  0.87729880763E+02  0.70498445653E+01  0.88534394347E+02  0.00000000000E+00 0.  1.
        -13    1    3    3    0    0  0.56757753269E+02 -0.11174646565E+03  0.18446057967E+02  0.12668453811E+03  0.00000000000E+00 0.  1.
         13    1    3    3    0    0 -0.28440332795E+02 -0.29172835567E+02 -0.16680606234E+02  0.44024419233E+02  0.00000000000E+00 0. -1.
         21    1    1    2  502  501  0.89404998294E+01  0.39998931200E+02 -0.57917417079E+02  0.70952619652E+02  0.00000000000E+00 0. -1.
<scales pt_clust_5="13000.00000" pt_clust_6="13000.00000" pt_clust_7="13000.00000" pt_clust_8="13000.00000" pt_clust_9="40.98594"></scales>
<clustering>
<clus scale="   40.986">  2  9  1 -1</clus>
<clus scale="   91.400">  5  6 -1 -1</clus>
<clus scale="   92.078">  7  8 -1 -1</clus>
<clus scale="  154.542">  1  5  2 -1</clus>
<clus scale="  154.542">  1  5  2 -1</clus>
</clustering>
</event>
<event>
 9    1  0.1434065E-005  0.9292618E+02  0.7546771E-02  0.1297291E+00
          2   -1    0    0  502    0  0.00000000000E+00  0.00000000000E+00  0.41368101171E+03  0.41368101171E+03  0.00000000000E+00 0. -1.
         -2   -1    0    0    0  501 -0.00000000000E+00 -0.00000000000E+00 -0.35717908863E+02  0.35717908863E+02  0.00000000000E+00 0.  1.
         23    2    1    2    0    0 -0.30190183486E+01  0.27054171389E+01  0.16590828925E+03  0.19001192157E+03  0.92533972904E+02 0.  0.
         23    2    1    2    0    0 -0.80458628407E+01  0.16068766641E+02  0.21816536065E+03  0.23675427143E+03  0.90186025994E+02 0.  0.
        -13    1    3    3    0    0  0.30020863399E+02  0.28915239129E+02  0.42207402240E+02  0.59319542286E+02  0.00000000000E+00 0.  1.
         13    1    3    3    0    0 -0.33039881747E+02 -0.26209821991E+02  0.12370088701E+03  0.13069237928E+03  0.00000000000E+00 0. -1.
        -13    1    4    4    0    0  0.34044563730E+02  0.34577920755E+01  0.16130663059E+03  0.16489638480E+03  0.00000000000E+00 0.  1.
         13    1    4    4    0    0 -0.42090426571E+02  0.12610974565E+02  0.56858730059E+02  0.71857886640E+02  0.00000000000E+00 0. -1.
         21    1    1    2  502  501  0.11064881189E+02 -0.18774183780E+02 -0.61105470503E+01  0.22632727577E+02  0.00000000000E+00 0.  1.
<scales pt_clust_5="13000.00000" pt_clust_6="13000.00000" pt_clust_7="13000.00000" pt_clust_8="13000.00000" pt_clust_9="21.79224"></scales>
<clustering>
<clus scale="   21.792">  2  9  1 -1</clus>
<clus scale="   90.186">  7  8 -1 -1</clus>
<clus scale="   90.588">  1  7  2 -1</clus>
<clus scale="   92.534">  5  6 -1 -1</clus>
<clus scale="   90.588">  1  5  2 -1</clus>
</clustering>
</event>
<event>
 9    1  0.1434065E-005  0.1017134E+03  0.7546771E-02  0.1276979E+00
         -1   -1    0    0    0  501 -0.00000000000E+00  0.00000000000E+00  0.41488527727E+02  0.41488527727E+02  0.00000000000E+00 0.  1.
          1   -1    0    0  502    0  0.00000000000E+00 -0.00000000000E+00 -0.61555800578E+03  0.61555800578E+03  0.00000000000E+00 0. -1.
         23    2    1    2    0    0  0.25167024104E+02 -0.75767565359E+01 -0.19905273324E+03  0.22244524709E+03  0.95755475032E+02 0.  0.
         23    2    1    2    0    0 -0.38569796065E+02 -0.14896219922E+02 -0.39058666988E+03  0.40415310858E+03  0.95248422265E+02 0.  0.
        -11    1    4    4    0    0  0.26876725958E+02  0.13222859417E+02 -0.16126690772E+03  0.16402505277E+03  0.00000000000E+00 0.  1.
         11    1    4    4    0    0 -0.65446522023E+02 -0.28119079340E+02 -0.22931976216E+03  0.24012805581E+03  0.00000000000E+00 0. -1.
        -13    1    3    3    0    0 -0.27075652879E+02  0.14085226154E+02 -0.25055834527E+02  0.39487712246E+02  0.00000000000E+00 0. -1.
         13    1    3    3    0    0  0.52242676983E+02 -0.21661982690E+02 -0.17399689872E+03  0.18295753484E+03  0.00000000000E+00 0.  1.
         21    1    1    2  502  501  0.13402771961E+02  0.22472976458E+02  0.15569925074E+02  0.30448177843E+02  0.00000000000E+00 0.  1.
<scales pt_clust_5="13000.00000" pt_clust_6="13000.00000" pt_clust_7="13000.00000" pt_clust_8="13000.00000" pt_clust_9="26.16618"></scales>
<clustering>
<clus scale="   26.166">  1  9  2 -1</clus>
<clus scale="   95.248">  5  6 -1 -1</clus>
<clus scale="   95.755">  7  8 -1 -1</clus>
<clus scale="  101.236">  2  5  1 -1</clus>
<clus scale="  101.236">  2  5  1 -1</clus>
</clustering>
</event>
<event>
 9    1  0.1434065E-005  0.1016187E+03  0.7546771E-02  0.1279265E+00
          1   -1    0    0  502    0  0.00000000000E+00  0.00000000000E+00  0.12560384122E+03  0.12560384122E+03  0.00000000000E+00 0. -1.
         -1   -1    0    0    0  501 -0.00000000000E+00 -0.00000000000E+00 -0.16756765803E+03  0.16756765803E+03  0.00000000000E+00 0.  1.
         23    2    1    2    0    0 -0.10994655481E+02  0.43094660012E+02 -0.60541159887E+01  0.10199212600E+03  0.91584437949E+02 0.  0.
         23    2    1    2    0    0 -0.41349196548E+02 -0.14160513481E+02  0.21925802281E+02  0.10798076088E+03  0.96274751198E+02 0.  0.
        -13    1    3    3    0    0  0.28230151985E+02  0.13571312152E+02  0.28185810758E+02  0.42137417134E+02  0.00000000000E+00 0.  1.
         13    1    3    3    0    0 -0.39224807466E+02  0.29523347859E+02 -0.34239926747E+02  0.59854708864E+02  0.00000000000E+00 0. -1.
        -13    1    4    4    0    0 -0.53267604672E+02 -0.46825935485E+02  0.16038298747E+02  0.72714049318E+02  0.00000000000E+00 0. -1.
         13    1    4    4    0    0  0.11918408123E+02  0.32665422004E+02  0.58875035333E+01  0.35266711567E+02  0.00000000000E+00 0.  1.
         21    1    1    2  502  501  0.52343852029E+02 -0.28934146531E+02 -0.57835503108E+02  0.83198612371E+02  0.00000000000E+00 0.  1.
<scales pt_clust_5="13000.00000" pt_clust_6="13000.00000" pt_clust_7="13000.00000" pt_clust_8="13000.00000" pt_clust_9="59.80856"></scales>
<clustering>
<clus scale="   59.809">  2  9  1 -1</clus>
<clus scale="   91.584">  5  6 -1 -1</clus>
<clus scale="   96.275">  7  8 -1 -1</clus>
<clus scale="   97.187">  2  5  1 -1</clus>
<clus scale="  101.619">  1  5  2 -1</clus>
</clustering>
</event>
<event>
 9    1  0.1434065E-005  0.9712904E+02  0.7546771E-02  0.1286594E+00
         -1   -1    0    0    0  501 -0.00000000000E+00  0.00000000000E+00  0.34021508757E+03  0.34021508757E+03  0.00000000000E+00 0.  1.
          1   -1    0    0  502    0  0.00000000000E+00 -0.00000000000E+00 -0.38744927253E+02  0.38744927253E+02  0.00000000000E+00 0. -1.
         23    2    1    2    0    0 -0.33258703469E+02 -0.36982877573E+01  0.15196761897E+03  0.18057475676E+03  0.91614774325E+02 0.  0.
         23    2    1    2    0    0  0.23594282419E+02  0.23100394875E+02  0.82062259314E+02  0.12754717201E+03  0.91889870379E+02 0.  0.
        -11    1    4    4    0    0 -0.30465980597E+01  0.48131053913E+02  0.76698110088E+02  0.90600663362E+02  0.00000000000E+00 0.  1.
         11    1    4    4    0    0  0.26640880479E+02 -0.25030659038E+02  0.53641492269E+01  0.36946508651E+02  0.00000000000E+00 0. -1.
        -11    1    3    3    0    0 -0.30150796267E+02  0.34276483479E+02  0.12716704751E+03  0.13511256717E+03  0.00000000000E+00 0.  1.
         11    1    3    3    0    0 -0.31079072018E+01 -0.37974771236E+02  0.24800571467E+02  0.45462189595E+02  0.00000000000E+00 0. -1.
         21    1    1    2  502  501  0.96644210502E+01 -0.19402107118E+02  0.67440282030E+02  0.70838086050E+02  0.00000000000E+00 0.  1.
<scales pt_clust_5="13000.00000" pt_clust_6="13000.00000" pt_clust_7="13000.00000" pt_clust_8="13000.00000" pt_clust_9="21.67586"></scales>
<clustering>
<clus scale="   21.676">  1  9  2 -1</clus>
<clus scale="   91.615">  7  8 -1 -1</clus>
<clus scale="   91.890">  5  6 -1 -1</clus>
<clus scale="   96.869">  1  7  2 -1</clus>
<clus scale="   97.129">  2  5  1 -1</clus>
</clustering>
</event>
<event>
 9    1  0.1434065E-005  0.9580610E+02  0.7546771E-02  0.1289857E+00
         -3   -1    0    0    0  501 -0.00000000000E+00  0.00000000000E+00  0.56862142936E+02  0.56862142936E+02  0.00000000000E+00 0.  1.
          3   -1    0    0  502    0  0.00000000000E+00 -0.00000000000E+00 -0.41876506022E+03  0.41876506022E+03  0.00000000000E+00 0. -1.
         23    2    1    2    0    0 -0.30153330524E+02  0.41415804854E+02 -0.11154794799E+03  0.15270000357E+03  0.90828707776E+02 0.  0.
         23    2    1    2    0    0  0.15085663985E+02 -0.11456950841E+02 -0.26880044338E+03  0.28465445441E+03  0.91736803278E+02 0.  0.
        -11    1    3    3    0    0 -0.55804711159E+02  0.23629146508E+02 -0.34882420266E+02  0.69923426660E+02  0.00000000000E+00 0.  1.
         11    1    3    3    0    0  0.25651380635E+02  0.17786658346E+02 -0.76665527729E+02  0.82776576914E+02  0.00000000000E+00 0. -1.
        -13    1    4    4    0    0  0.53809319346E+02 -0.10162379519E+02 -0.16569197659E+03  0.17450658415E+03  0.00000000000E+00 0. -1.
         13    1    4    4    0    0 -0.38723655361E+02 -0.12945713219E+01 -0.10310846679E+03  0.11014787026E+03  0.00000000000E+00 0.  1.
         21    1    1    2  502  501  0.15067666539E+02 -0.29958854012E+02  0.18445474088E+02  0.38272745172E+02  0.00000000000E+00 0.  1.
<scales pt_clust_5="13000.00000" pt_clust_6="13000.00000" pt_clust_7="13000.00000" pt_clust_8="13000.00000" pt_clust_9="33.53457"></scales>
<clustering>
<clus scale="   33.535">  1  9  2 -1</clus>
<clus scale="   90.829">  5  6 -1 -1</clus>
<clus scale="   91.737">  7  8 -1 -1</clus>
<clus scale="   94.937">  1  5  2 -1</clus>
<clus scale="   95.806">  2  5  1 -1</clus>
</clustering>
</event>
<event>
 9    1  0.1434065E-005  0.9293376E+02  0.7546771E-02  0.1299225E+00
         -2   -1    0    0    0  501 -0.00000000000E+00  0.00000000000E+00  0.12050570171E+03  0.12050570171E+03  0.00000000000E+00 0.  1.
          2   -1    0    0  502    0  0.00000000000E+00 -0.00000000000E+00 -0.34356850556E+03  0.34356850556E+03  0.00000000000E+00 0. -1.
         23    2    1    2    0    0 -0.27272258600E+02 -0.21024282305E+02 -0.39564389551E+02  0.10179958133E+03  0.87246875599E+02 0.  0.
         23    2    1    2    0    0  0.78495096904E+01  0.31911001159E+02 -0.26429512938E+03  0.27846607632E+03  0.81311213539E+02 0.  0.
        -11    1    3    3    0    0 -0.34257478490E+02 -0.46357224715E+02 -0.42739264044E+01  0.57799944314E+02  0.00000000000E+00 0.  1.
         11    1    3    3    0    0  0.69852198894E+01  0.25332942410E+02 -0.35290463147E+02  0.43999637012E+02  0.00000000000E+00 0. -1.
        -13    1    4    4    0    0  0.39731833587E+02  0.34201114076E+02 -0.12495751695E+03  0.13550909876E+03  0.00000000000E+00 0. -1.
         13    1    4    4    0    0 -0.31882323897E+02 -0.22901129165E+01 -0.13933761244E+03  0.14295697756E+03  0.00000000000E+00 0.  1.
         21    1    1    2  502  501  0.19422748910E+02 -0.10886718854E+02  0.80796715087E+02  0.83808549632E+02  0.00000000000E+00 0.  1.
<scales pt_clust_5="13000.00000" pt_clust_6="13000.00000" pt_clust_7="13000.00000" pt_clust_8="13000.00000" pt_clust_9="22.26575"></scales>
<clustering>
<clus scale="   22.266">  1  9  2 -1</clus>
<clus scale="   81.311">  7  8 -1 -1</clus>
<clus scale="   87.247">  5  6 -1 -1</clus>
<clus scale="   87.385">  2  7  1 -1</clus>
<clus scale="   87.385">  2  5  1 -1</clus>
</clustering>
</event>
<event>
 9    1  0.1434065E-005  0.9473410E+02  0.7546771E-02  0.1293590E+00
         -1   -1    0    0    0  501 -0.00000000000E+00  0.00000000000E+00  0.12479592373E+03  0.12479592373E+03  0.00000000000E+00 0.  1.
          1   -1    0    0  502    0  0.00000000000E+00 -0.00000000000E+00 -0.21657040854E+03  0.21657040854E+03  0.00000000000E+00 0. -1.
         23    2    1    2    0    0  0.15958588570E+02  0.83843310341E+01  0.49755728624E+02  0.10498603576E+03  0.90672275905E+02 0.  0.
         23    2    1    2    0    0  0.17578558799E+02  0.23684104553E+01 -0.16736489595E+03  0.19270201216E+03  0.93853300412E+02 0.  0.
        -11    1    4    4    0    0  0.38768413060E+02 -0.14162676603E+02 -0.15942073865E+03  0.16467708758E+03  0.00000000000E+00 0. -1.
         11    1    4    4    0    0 -0.21189854261E+02  0.16531087059E+02 -0.79441572950E+01  0.28024924587E+02  0.00000000000E+00 0.  1.
        -13    1    3    3    0    0 -0.22808782106E+02 -0.22036710978E+01  0.59392276105E+02  0.63659556772E+02  0.00000000000E+00 0.  1.
         13    1    3    3    0    0  0.38767370676E+02  0.10588002132E+02 -0.96365474806E+01  0.41326478989E+02  0.00000000000E+00 0. -1.
         21    1    1    2  502  501 -0.33537147368E+02 -0.10752741489E+02  0.25834682506E+02  0.43678284345E+02  0.00000000000E+00 0.  1.
<scales pt_clust_5="13000.00000" pt_clust_6="13000.00000" pt_clust_7="13000.00000" pt_clust_8="13000.00000" pt_clust_9="35.21877"></scales>
<clustering>
<clus scale="   35.219">  1  9  2 -1</clus>
<clus scale="   90.672">  7  8 -1 -1</clus>
<clus scale="   91.584">  1  7  2 -1</clus>
<clus scale="   93.853">  5  6 -1 -1</clus>
<clus scale="   94.734">  2  5  1 -1</clus>
</clustering>
</event>
<event>
 9    1  0.1434065E-005  0.4703586E+03  0.7546771E-02  0.1021850E+00
          2   -1    0    0  502    0  0.00000000000E+00  0.00000000000E+00  0.15326864673E+04  0.15326864673E+04  0.00000000000E+00 0. -1.
         -2   -1    0    0    0  501 -0.00000000000E+00 -0.00000000000E+00 -0.58592569157E+03  0.58592569157E+03  0.00000000000E+00 0.  1.
         23    2    1    2    0    0  0.19512137263E+03  0.15857046658E+03 -0.23984088782E+03  0.35973363272E+03  0.93100440981E+02 0.  0.
         23    2    1    2    0    0 -0.39901668747E+03 -0.28801031600E+03  0.13681142670E+04  0.14567613316E+04  0.90844211170E+02 0.  0.
        -13    1    4    4    0    0 -0.37297562175E+03 -0.24012283978E+03  0.12575008986E+04  0.13334460254E+04  0.00000000000E+00 0. -1.
         13    1    4    4    0    0 -0.26041065726E+02 -0.47887476220E+02  0.11061336831E+03  0.12331530615E+03  0.00000000000E+00 0.  1.
        -13    1    3    3    0    0  0.18290974485E+03  0.12006965493E+03 -0.23141353793E+03  0.31847279685E+03  0.00000000000E+00 0.  1.
         13    1    3    3    0    0  0.12211627778E+02  0.38500811647E+02 -0.84273498942E+01  0.41260835870E+02  0.00000000000E+00 0. -1.
         21    1    1    2  502  501  0.20389531484E+03  0.12943984943E+03 -0.18151260344E+03  0.30211719455E+03  0.00000000000E+00 0.  1.
<scales pt_clust_5="13000.00000" pt_clust_6="13000.00000" pt_clust_7="13000.00000" pt_clust_8="13000.00000" pt_clust_9="241.51185"></scales>
<clustering>
<clus scale="   90.844">  5  6 -1 -1</clus>
<clus scale="   93.100">  7  8 -1 -1</clus>
<clus scale="  241.512">  2  9  1 -1</clus>
<clus scale="  469.917">  1  5  2 -1</clus>
<clus scale="  469.917">  1  5  2 -1</clus>
</clustering>
</event>
<event>
 9    1  0.1434065E-005  0.1023478E+03  0.7546771E-02  0.1278849E+00
          1   -1    0    0  502    0  0.00000000000E+00  0.00000000000E+00  0.65196995729E+03  0.65196995729E+03  0.00000000000E+00 0. -1.
         -1   -1    0    0    0  501 -0.00000000000E+00 -0.00000000000E+00 -0.20546673789E+02  0.20546673789E+02  0.00000000000E+00 0.  1.
         23    2    1    2    0    0  0.21713784692E+02  0.19683887055E+02  0.24751865554E+03  0.26793864679E+03  0.98319325400E+02 0.  0.
         23    2    1    2    0    0 -0.28321343756E+01 -0.30901627971E+02  0.35693288108E+03  0.36979538003E+03  0.91567515488E+02 0.  0.
        -11    1    4    4    0    0  0.41302715576E+02 -0.29209938191E+02  0.15342660127E+03  0.16155140600E+03  0.00000000000E+00 0.  1.
         11    1    4    4    0    0 -0.44134849951E+02 -0.16916897805E+01  0.20350627981E+03  0.20824397402E+03  0.00000000000E+00 0. -1.
        -11    1    3    3    0    0 -0.19931938132E+02  0.37894593269E+02  0.18927885098E+03  0.19406124236E+03  0.00000000000E+00 0. -1.
         11    1    3    3    0    0  0.41645722823E+02 -0.18210706215E+02  0.58239804559E+02  0.73877404430E+02  0.00000000000E+00 0.  1.
         21    1    1    2  502  501 -0.18881650316E+02  0.11217740916E+02  0.26971746875E+02  0.34782604264E+02  0.00000000000E+00 0. -1.
<scales pt_clust_5="13000.00000" pt_clust_6="13000.00000" pt_clust_7="13000.00000" pt_clust_8="13000.00000" pt_clust_9="21.96257"></scales>
<clustering>
<clus scale="   21.963">  2  9  1 -1</clus>
<clus scale="   91.568">  5  6 -1 -1</clus>
<clus scale="   95.880">  1  5  2 -1</clus>
<clus scale="   98.319">  7  8 -1 -1</clus>
<clus scale="   95.880">  1  5  2 -1</clus>
</clustering>
</event>
<event>
 9    1  0.1434065E-005  0.1078029E+03  0.7546771E-02  0.1264957E+00
          3   -1    0    0  502    0  0.00000000000E+00  0.00000000000E+00  0.14119475764E+03  0.14119475764E+03  0.00000000000E+00 0. -1.
         -3   -1    0    0    0  501 -0.00000000000E+00 -0.00000000000E+00 -0.24760326167E+03  0.24760326167E+03  0.00000000000E+00 0.  1.
         23    2    1    2    0    0 -0.65651407824E+01 -0.46158258957E+02 -0.28104982657E+02  0.10565710920E+03  0.90553016129E+02 0.  0.
         23    2    1    2    0    0 -0.15641030615E+02  0.61679953009E+02  0.70643448724E+02  0.13174990332E+03  0.91205711088E+02 0.  0.
        -11    1    3    3    0    0  0.22772125363E+02  0.71665811735E+01 -0.37116618769E+02  0.44131315051E+02  0.00000000000E+00 0.  1.
         11    1    3    3    0    0 -0.29337266145E+02 -0.53324840130E+02  0.90116361119E+01  0.61525794145E+02  0.00000000000E+00 0. -1.
        -13    1    4    4    0    0  0.30876801497E+02  0.40727690401E+02  0.92745897043E+01  0.51943619919E+02  0.00000000000E+00 0.  1.
         13    1    4    4    0    0 -0.46517832112E+02  0.20952262608E+02  0.61368859020E+02  0.79806283401E+02  0.00000000000E+00 0. -1.
         21    1    1    2  502  501  0.22206171397E+02 -0.15521694052E+02 -0.14894697010E+03  0.15139100679E+03  0.00000000000E+00 0. -1.
<scales pt_clust_5="13000.00000" pt_clust_6="13000.00000" pt_clust_7="13000.00000" pt_clust_8="13000.00000" pt_clust_9="27.09312"></scales>
<clustering>
<clus scale="   27.093">  2  9  1 -1</clus>
<clus scale="   90.553">  5  6 -1 -1</clus>
<clus scale="   91.206">  7  8 -1 -1</clus>
<clus scale="  107.251">  2  5  1 -1</clus>
<clus scale="  107.803">  1  5  2 -1</clus>
</clustering>
</event>
<event>
 9    1  0.1434065E-005  0.1277128E+03  0.7546771E-02  0.1232163E+00
         -2   -1    0    0    0  501 -0.00000000000E+00  0.00000000000E+00  0.71493644289E+02  0.71493644289E+02  0.00000000000E+00 0.  1.
          2   -1    0    0  502    0  0.00000000000E+00 -0.00000000000E+00 -0.32849724098E+03  0.32849724098E+03  0.00000000000E+00 0. -1.
         23    2    1    2    0    0  0.74049195046E+02 -0.57787159240E+02 -0.10136629964E+03  0.16294087173E+03  0.86324746836E+02 0.  0.
         23    2    1    2    0    0 -0.51105239617E+02  0.71788833005E+02 -0.16549374300E+03  0.20842098132E+03  0.91026064519E+02 0.  0.
        -11    1    4    4    0    0 -0.53257790945E+02  0.91748585024E+02 -0.14569001991E+03  0.18022146668E+03  0.00000000000E+00 0. -1.
         11    1    4    4    0    0  0.21525513272E+01 -0.19959752019E+02 -0.19803723093E+02  0.28199514645E+02  0.00000000000E+00 0.  1.
        -13    1    3    3    0    0  0.22583313327E+02  0.13142487746E+02 -0.61191505492E+02  0.66536691903E+02  0.00000000000E+00 0. -1.
         13    1    3    3    0    0  0.51465881719E+02 -0.70929646985E+02 -0.40174794146E+02  0.96404179823E+02  0.00000000000E+00 0.  1.
         21    1    1    2  502  501 -0.22943955429E+02 -0.14001673766E+02  0.98564459515E+01  0.28629032218E+02  0.00000000000E+00 0.  1.
<scales pt_clust_5="13000.00000" pt_clust_6="13000.00000" pt_clust_7="13000.00000" pt_clust_8="13000.00000" pt_clust_9="26.87884"></scales>
<clustering>
<clus scale="   26.879">  1  9  2 -1</clus>
<clus scale="   86.325">  7  8 -1 -1</clus>
<clus scale="   91.026">  5  6 -1 -1</clus>
<clus scale="  124.406">  1  7  2 -1</clus>
<clus scale="  127.713">  2  5  1 -1</clus>
</clustering>
</event>
<event>
 9    1  0.1434065E-005  0.1689007E+03  0.7546771E-02  0.1199858E+00
         -2   -1    0    0    0  501 -0.00000000000E+00  0.00000000000E+00  0.31702140907E+03  0.31702140907E+03  0.00000000000E+00 0.  1.
          2   -1    0    0  502    0  0.00000000000E+00 -0.00000000000E+00 -0.24217358869E+03  0.24217358869E+03  0.00000000000E+00 0. -1.
         23    2    1    2    0    0  0.13101037569E+03 -0.78206127400E+02  0.14715497116E+01  0.18077641264E+03  0.96943431988E+02 0.  0.
         23    2    1    2    0    0 -0.47160141941E+02 -0.29828783754E+02 -0.10773381692E+03  0.15147527158E+03  0.90688187017E+02 0.  0.
        -11    1    3    3    0    0 -0.85732597827E+01 -0.27508368045E+02  0.13431496819E+02  0.31790190352E+02  0.00000000000E+00 0.  1.
         11    1    3    3    0    0  0.13958363547E+03 -0.50697759355E+02 -0.11959947108E+02  0.14898622229E+03  0.00000000000E+00 0. -1.
        -11    1    4    4    0    0 -0.59364113330E+01 -0.52158114110E+02 -0.83677808803E+02  0.98780997834E+02  0.00000000000E+00 0. -1.
         11    1    4    4    0    0 -0.41223730608E+02  0.22329330356E+02 -0.24056008121E+02  0.52694273750E+02  0.00000000000E+00 0.  1.
         21    1    1    2  502  501 -0.83850233751E+02  0.10803491115E+03  0.18111008760E+03  0.22694331354E+03  0.00000000000E+00 0.  1.
<scales pt_clust_5="13000.00000" pt_clust_6="13000.00000" pt_clust_7="13000.00000" pt_clust_8="13000.00000" pt_clust_9="138.30917"></scales>
<clustering>
<clus scale="   90.688">  7  8 -1 -1</clus>
<clus scale="   96.943">  5  6 -1 -1</clus>
<clus scale="  106.481">  2  7  1 -1</clus>
<clus scale="  138.309">  1  9  2 -1</clus>
<clus scale="  106.481">  2  5  1 -1</clus>
</clustering>
</event>
<event>
 9    1  0.1434065E-005  0.1951933E+03  0.7546771E-02  0.1166284E+00
         -2   -1    0    0    0  501 -0.00000000000E+00  0.00000000000E+00  0.13000692632E+04  0.13000692632E+04  0.00000000000E+00 0.  1.
          2   -1    0    0  502    0  0.00000000000E+00 -0.00000000000E+00 -0.65902912782E+02  0.65902912782E+02  0.00000000000E+00 0. -1.
         23    2    1    2    0    0 -0.20132457657E+03  0.12862103001E+03  0.47599477400E+03  0.54047923364E+03  0.92042504468E+02 0.  0.
         23    2    1    2    0    0  0.10091979996E+03 -0.13533116423E+02  0.20601451901E+03  0.25260223456E+03  0.10487113806E+03 0.  0.
        -11    1    4    4    0    0  0.24611799141E+02  0.43353592535E+02  0.86278340681E+02  0.99645505234E+02  0.00000000000E+00 0. -1.
         11    1    4    4    0    0  0.76308000817E+02 -0.56886708958E+02  0.11973617833E+03  0.15295672932E+03  0.00000000000E+00 0.  1.
        -13    1    3    3    0    0 -0.12067731585E+03  0.33657819202E+02  0.17974974091E+03  0.21910233387E+03  0.00000000000E+00 0. -1.
         13    1    3    3    0    0 -0.80647260718E+02  0.94963210813E+02  0.29624503310E+03  0.32137689977E+03  0.00000000000E+00 0.  1.
         21    1    1    2  502  501  0.10040477661E+03 -0.11508791359E+03  0.55215705741E+03  0.57289070779E+03  0.00000000000E+00 0. -1.
<scales pt_clust_5="13000.00000" pt_clust_6="13000.00000" pt_clust_7="13000.00000" pt_clust_8="13000.00000" pt_clust_9="172.12966"></scales>
<clustering>
<clus scale="   92.043">  7  8 -1 -1</clus>
<clus scale="  104.871">  5  6 -1 -1</clus>
<clus scale="  146.171">  2  5  1 -1</clus>
<clus scale="  172.130">  1  9  2 -1</clus>
<clus scale="  146.171">  2  5  1 -1</clus>
</clustering>
</event>
<event>
 9    1  0.1434065E-005  0.1080289E+03  0.7546771E-02  0.1264477E+00
         -1   -1    0    0    0  501 -0.00000000000E+00  0.00000000000E+00  0.10631375613E+03  0.10631375613E+03  0.00000000000E+00 0.  1.
          1   -1    0    0  502    0  0.00000000000E+00 -0.00000000000E+00 -0.29583607647E+03  0.29583607647E+03  0.00000000000E+00 0. -1.
         23    2    1    2    0    0 -0.58948247440E+02  0.88059700425E+01  0.53507966508E+02  0.12181936629E+03  0.91784609483E+02 0.  0.
         23    2    1    2    0    0  0.32566009433E+02  0.25909176150E+01 -0.22746787734E+03  0.24764866526E+03  0.92309091423E+02 0.  0.
        -11    1    3    3    0    0 -0.71470455780E+02 -0.23138651328E+02  0.36200596186E+02  0.83390085735E+02  0.00000000000E+00 0.  1.
         11    1    3    3    0    0  0.12522208340E+02  0.31944621370E+02  0.17307370322E+02  0.38429280551E+02  0.00000000000E+00 0. -1.
        -13    1    4    4    0    0  0.50673654968E+02 -0.25956256576E+02 -0.18385035451E+03  0.19246428088E+03  0.00000000000E+00 0. -1.
         13    1    4    4    0    0 -0.18107645535E+02  0.28547174191E+02 -0.43617522832E+02  0.55184384377E+02  0.00000000000E+00 0.  1.
         21    1    1    2  502  501  0.26382238007E+02 -0.11396887657E+02 -0.15562409512E+02  0.32681801058E+02  0.00000000000E+00 0. -1.
<scales pt_clust_5="13000.00000" pt_clust_6="13000.00000" pt_clust_7="13000.00000" pt_clust_8="13000.00000" pt_clust_9="28.73868"></scales>
<clustering>
<clus scale="   28.739">  2  9  1 -1</clus>
<clus scale="   91.785">  5  6 -1 -1</clus>
<clus scale="   92.309">  7  8 -1 -1</clus>
<clus scale="  107.581">  1  5  2 -1</clus>
<clus scale="   28.739">  2  5  1 -1</clus>
</clustering>
</event>
<event>
 9    1  0.1434065E-005  0.1119187E+03  0.7546771E-02  0.1259768E+00
          2   -1    0    0  502    0  0.00000000000E+00  0.00000000000E+00  0.47493108990E+03  0.47493108990E+03  0.00000000000E+00 0. -1.
         -2   -1    0    0    0  501 -0.00000000000E+00 -0.00000000000E+00 -0.43542708942E+02  0.43542708942E+02  0.00000000000E+00 0.  1.
         23    2    1    2    0    0 -0.63690629467E+02  0.75292367203E+01  0.21873104541E+03  0.24534489189E+03  0.90761556093E+02 0.  0.
         23    2    1    2    0    0  0.37365429680E+02 -0.35100424074E+02  0.20714166337E+03  0.23461125963E+03  0.97501586312E+02 0.  0.
        -11    1    4    4    0    0  0.56772622061E+02 -0.56136872763E+02  0.16914176551E+03  0.18703854132E+03  0.00000000000E+00 0.  1.
         11    1    4    4    0    0 -0.19407192381E+02  0.21036448689E+02  0.37999897868E+02  0.47572718311E+02  0.00000000000E+00 0. -1.
        -13    1    3    3    0    0  0.15964029378E+02  0.23910664640E+02  0.43215751818E+02  0.51905407451E+02  0.00000000000E+00 0.  1.
         13    1    3    3    0    0 -0.79654658845E+02 -0.16381427920E+02  0.17551529359E+03  0.19343948444E+03  0.00000000000E+00 0. -1.
         21    1    1    2  502  501  0.26325199787E+02  0.27571187354E+02  0.55156721782E+01  0.38517647325E+02  0.00000000000E+00 0.  1.
<scales pt_clust_5="13000.00000" pt_clust_6="13000.00000" pt_clust_7="13000.00000" pt_clust_8="13000.00000" pt_clust_9="38.12068"></scales>
<clustering>
<clus scale="   38.121">  2  9  1 -1</clus>
<clus scale="   90.762">  7  8 -1 -1</clus>
<clus scale="   97.502">  5  6 -1 -1</clus>
<clus scale="  106.099">  2  7  1 -1</clus>
<clus scale="  111.919">  1  5  2 -1</clus>
</clustering>
</event>
<event>
 9    1  0.1550092E-005  0.1546368E+03  0.7546771E-02  0.1195043E+00
         -1   -1    0    0    0  501 -0.00000000000E+00  0.00000000000E+00  0.42176519526E+03  0.42176519526E+03  0.00000000000E+00 0.  1.
          1   -1    0    0  502    0  0.00000000000E+00 -0.00000000000E+00 -0.19897887023E+03  0.19897887023E+03  0.00000000000E+00 0. -1.
         23    2    1    2    0    0 -0.11920417325E+03 -0.72955471207E+02  0.33309995012E+03  0.37273531141E+03  0.91890695389E+02 0.  0.
         23    2    1    2    0    0  0.85700576391E+02  0.88582940668E+02 -0.13446592976E+03  0.20384946712E+03  0.91005454824E+02 0.  0.
        -11    1    4    4    0    0  0.10083405329E+03  0.73945347384E+02 -0.88200886630E+02  0.15301900897E+03  0.00000000000E+00 0. -1.
         11    1    4    4    0    0 -0.15133476901E+02  0.14637593284E+02 -0.46265043128E+02  0.50830458152E+02  0.00000000000E+00 0.  1.
        -13    1    3    3    0    0 -0.12600034202E+03 -0.38142282696E+02  0.26854154271E+03  0.29907437216E+03  0.00000000000E+00 0.  1.
         13    1    3    3    0    0  0.67961687665E+01 -0.34813188511E+02  0.64558407410E+02  0.73660939252E+02  0.00000000000E+00 0. -1.
         21    1    1    2  502  501  0.33503596861E+02 -0.15627469461E+02  0.24152304663E+02  0.44159286961E+02  0.00000000000E+00 0.  1.
<scales pt_clust_5="13000.00000" pt_clust_6="13000.00000" pt_clust_7="13000.00000" pt_clust_8="13000.00000" pt_clust_9="36.96902"></scales>
<clustering>
<clus scale="   36.969">  1  9  2 -1</clus>
<clus scale="   91.005">  5  6 -1 -1</clus>
<clus scale="   91.891">  7  8 -1 -1</clus>
<clus scale="  154.112">  2  5  1 -1</clus>
<clus scale="  154.112">  2  5  1 -1</clus>
</clustering>
</event>
<event>
 9    1  0.1434065E-005  0.1765925E+03  0.7546771E-02  0.1171363E+00
          2   -1    0    0  502    0  0.00000000000E+00  0.00000000000E+00  0.25549061454E+03  0.25549061454E+03  0.00000000000E+00 0. -1.
         -2   -1    0    0    0  501 -0.00000000000E+00 -0.00000000000E+00 -0.17883370736E+03  0.17883370736E+03  0.00000000000E+00 0.  1.
         23    2    1    2    0    0 -0.15588407228E+03  0.82632257315E+01 -0.15226199191E+02  0.18021906624E+03  0.88763448578E+02 0.  0.
         23    2    1    2    0    0  0.14881892996E+03 -0.28563838224E+02  0.12485123326E+03  0.21474882678E+03  0.86984259441E+02 0.  0.
        -13    1    4    4    0    0  0.50637043941E+02  0.21219691599E+02  0.10269493992E+02  0.55855599876E+02  0.00000000000E+00 0. -1.
         13    1    4    4    0    0  0.98181886014E+02 -0.49783529823E+02  0.11458173927E+03  0.15889322691E+03  0.00000000000E+00 0.  1.
        -13    1    3    3    0    0 -0.36833971370E+02 -0.28925333412E+02 -0.28447855045E+02  0.54796868675E+02  0.00000000000E+00 0.  1.
         13    1    3    3    0    0 -0.11905010091E+03  0.37188559144E+02  0.13221655853E+02  0.12542219756E+03  0.00000000000E+00 0. -1.
         21    1    1    2  502  501  0.70651423248E+01  0.20300612493E+02 -0.32968126887E+02  0.39356428879E+02  0.00000000000E+00 0. -1.
<scales pt_clust_5="13000.00000" pt_clust_6="13000.00000" pt_clust_7="13000.00000" pt_clust_8="13000.00000" pt_clust_9="21.49491"></scales>
<clustering>
<clus scale="   21.495">  2  9  1 -1</clus>
<clus scale="   86.984">  5  6 -1 -1</clus>
<clus scale="   88.763">  7  8 -1 -1</clus>
<clus scale="  175.705">  1  5  2 -1</clus>
<clus scale="  175.705">  1  5  2 -1</clus>
</clustering>
</event>
<event>
 9    1  0.1434065E-005  0.1046074E+03  0.7546771E-02  0.1271100E+00
         -1   -1    0    0    0  501 -0.00000000000E+00  0.00000000000E+00  0.54694033126E+02  0.54694033126E+02  0.00000000000E+00 0.  1.
          1   -1    0    0  502    0  0.00000000000E+00 -0.00000000000E+00 -0.34905793107E+03  0.34905793107E+03  0.00000000000E+00 0. -1.
         23    2    1    2    0    0  0.33513634921E+02 -0.79316746310E-01 -0.67582893952E+02  0.11803575071E+03  0.90784474856E+02 0.  0.
         23    2    1    2    0    0 -0.82268641866E+02 -0.21204748290E+01 -0.14109684971E+03  0.18710757248E+03  0.91259502704E+02 0.  0.
        -11    1    4    4    0    0 -0.57064578166E+02  0.35565416750E+02 -0.11897447702E+03  0.13666086174E+03  0.00000000000E+00 0.  1.
         11    1    4    4    0    0 -0.25204063700E+02 -0.37685891579E+02 -0.22122372693E+02  0.50446710742E+02  0.00000000000E+00 0. -1.
        -13    1    3    3    0    0  0.42895871947E+02 -0.26197372325E+02 -0.74090587939E+02  0.89530851487E+02  0.00000000000E+00 0. -1.
         13    1    3    3    0    0 -0.93822370258E+01  0.26118055579E+02  0.65076939877E+01  0.28504899226E+02  0.00000000000E+00 0.  1.
         21    1    1    2  502  501  0.48755006945E+02  0.21997915753E+01 -0.85684154286E+02  0.98608641005E+02  0.00000000000E+00 0. -1.
<scales pt_clust_5="13000.00000" pt_clust_6="13000.00000" pt_clust_7="13000.00000" pt_clust_8="13000.00000" pt_clust_9="48.80461"></scales>
<clustering>
<clus scale="   48.805">  2  9  1 -1</clus>
<clus scale="   90.784">  7  8 -1 -1</clus>
<clus scale="   91.260">  5  6 -1 -1</clus>
<clus scale="  104.193">  1  7  2 -1</clus>
<clus scale="   48.805">  2  5  1 -1</clus>
</clustering>
</event>
<event>
 9    1  0.1434065E-005  0.9400669E+02  0.7546771E-02  0.1295676E+00
         -1   -1    0    0    0  501 -0.00000000000E+00  0.00000000000E+00  0.39695252469E+02  0.39695252469E+02  0.00000000000E+00 0.  1.
          1   -1    0    0  502    0  0.00000000000E+00 -0.00000000000E+00 -0.62791731024E+03  0.62791731024E+03  0.00000000000E+00 0. -1.
         23    2    1    2    0    0  0.45429279903E+02 -0.15144802960E+02 -0.59779771715E+02  0.11942082957E+03  0.91621661745E+02 0.  0.
         23    2    1    2    0    0 -0.17712225112E+02 -0.11557351893E+01 -0.48989296133E+03  0.49799220019E+03  0.87670173115E+02 0.  0.
        -11    1    4    4    0    0  0.21864280835E+02  0.31049493622E+02 -0.18472929286E+03  0.18859223068E+03  0.00000000000E+00 0.  1.
         11    1    4    4    0    0 -0.39576505947E+02 -0.32205228812E+02 -0.30516366847E+03  0.30939996952E+03  0.00000000000E+00 0. -1.
        -13    1    3    3    0    0  0.57739389111E+02  0.23313112961E+02 -0.29236240312E+02  0.68790232144E+02  0.00000000000E+00 0.  1.
         13    1    3    3    0    0 -0.12310109208E+02 -0.38457915920E+02 -0.30543531403E+02  0.50630597431E+02  0.00000000000E+00 0. -1.
         21    1    1    2  502  501 -0.27717054790E+02  0.16300538149E+02 -0.38549324727E+02  0.50199532937E+02  0.00000000000E+00 0.  1.
<scales pt_clust_5="13000.00000" pt_clust_6="13000.00000" pt_clust_7="13000.00000" pt_clust_8="13000.00000" pt_clust_9="32.15498"></scales>
<clustering>
<clus scale="   32.155">  1  9  2 -1</clus>
<clus scale="   87.670">  5  6 -1 -1</clus>
<clus scale="   90.160">  2  5  1 -1</clus>
<clus scale="   91.622">  7  8 -1 -1</clus>
<clus scale="   90.160">  2  5  1 -1</clus>
</clustering>
</event>
<event>
 9    1  0.1434065E-005  0.1209854E+03  0.7546771E-02  0.1241754E+00
          2   -1    0    0  502    0  0.00000000000E+00  0.00000000000E+00  0.33342397008E+03  0.33342397008E+03  0.00000000000E+00 0. -1.
         -2   -1    0    0    0  501 -0.00000000000E+00 -0.00000000000E+00 -0.70490722770E+02  0.70490722770E+02  0.00000000000E+00 0.  1.
         23    2    1    2    0    0 -0.42422114458E+02 -0.41590982296E+02  0.63741618381E+02  0.12616549033E+03  0.91243034979E+02 0.  0.
         23    2    1    2    0    0  0.30754492041E+02  0.89175171698E+02  0.18417279504E+03  0.22650514077E+03  0.92124428540E+02 0.  0.
        -11    1    4    4    0    0 -0.22453601791E+02  0.64138323168E+02  0.12932692892E+03  0.14609361135E+03  0.00000000000E+00 0.  1.
         11    1    4    4    0    0  0.53208093832E+02  0.25036848530E+02  0.54845866117E+02  0.80411529420E+02  0.00000000000E+00 0. -1.
        -13    1    3    3    0    0  0.10695708730E+01  0.23638123629E+02  0.35846262540E+02  0.42951826604E+02  0.00000000000E+00 0. -1.
         13    1    3    3    0    0 -0.43491685331E+02 -0.65229105925E+02  0.27895355841E+02  0.83213663723E+02  0.00000000000E+00 0.  1.
         21    1    1    2  502  501  0.11667622417E+02 -0.47584189402E+02  0.15018833893E+02  0.51244061758E+02  0.00000000000E+00 0.  1.
<scales pt_clust_5="13000.00000" pt_clust_6="13000.00000" pt_clust_7="13000.00000" pt_clust_8="13000.00000" pt_clust_9="48.99376"></scales>
<clustering>
<clus scale="   48.994">  2  9  1 -1</clus>
<clus scale="   91.243">  7  8 -1 -1</clus>
<clus scale="   92.124">  5  6 -1 -1</clus>
<clus scale="  120.316">  2  7  1 -1</clus>
<clus scale="  120.985">  1  5  2 -1</clus>
</clustering>
</event>
<event>
 9    1  0.1434065E-005  0.1253017E+03  0.7546771E-02  0.1235746E+00
         -2   -1    0    0    0  501 -0.00000000000E+00  0.00000000000E+00  0.14047582510E+03  0.14047582510E+03  0.00000000000E+00 0.  1.
          2   -1    0    0  502    0  0.00000000000E+00 -0.00000000000E+00 -0.16684666373E+03  0.16684666373E+03  0.00000000000E+00 0. -1.
         23    2    1    2    0    0 -0.30285884919E+02 -0.63570343952E+02  0.10077925138E+02  0.11854443091E+03  0.94830343606E+02 0.  0.
         23    2    1    2    0    0  0.27060382300E+02  0.84489351814E+02 -0.73005566465E+02  0.14653579733E+03  0.90951703137E+02 0.  0.
        -11    1    4    4    0    0  0.13285692371E+01  0.93803709874E+02 -0.35938340831E+02  0.10046126330E+03  0.00000000000E+00 0. -1.
         11    1    4    4    0    0  0.25731813063E+02 -0.93143580598E+01 -0.37067225635E+02  0.46074534027E+02  0.00000000000E+00 0.  1.
        -13    1    3    3    0    0 -0.43115109008E+02 -0.82543340892E+02  0.16900695734E+02  0.94646443498E+02  0.00000000000E+00 0.  1.
         13    1    3    3    0    0  0.12829224089E+02  0.18972996940E+02 -0.68227705953E+01  0.23897987410E+02  0.00000000000E+00 0. -1.
         21    1    1    2  502  501  0.32255026184E+01 -0.20919007862E+02  0.36556802698E+02  0.42242260600E+02  0.00000000000E+00 0.  1.
<scales pt_clust_5="13000.00000" pt_clust_6="13000.00000" pt_clust_7="13000.00000" pt_clust_8="13000.00000" pt_clust_9="21.16622"></scales>
<clustering>
<clus scale="   21.166">  1  9  2 -1</clus>
<clus scale="   90.952">  5  6 -1 -1</clus>
<clus scale="   94.830">  7  8 -1 -1</clus>
<clus scale="  122.393">  2  5  1 -1</clus>
<clus scale="  122.393">  2  5  1 -1</clus>
</clustering>
</event>
<event>
 9    1  0.1434065E-005  0.9850232E+02  0.7546771E-02  0.1283838E+00
         -1   -1    0    0    0  501 -0.00000000000E+00  0.00000000000E+00  0.11055156594E+03  0.11055156594E+03  0.00000000000E+00 0.  1.
          1   -1    0    0  502    0  0.00000000000E+00 -0.00000000000E+00 -0.15216268040E+03  0.15216268040E+03  0.00000000000E+00 0. -1.
         23    2    1    2    0    0  0.11634757234E+02 -0.47912580330E+02  0.36715911338E+02  0.10860605678E+03  0.89533426682E+02 0.  0.
         23    2    1    2    0    0 -0.28477836452E+02  0.28328645520E+02 -0.82813310684E+02  0.12789089428E+03  0.88794915888E+02 0.  0.
        -11    1    3    3    0    0 -0.26958169809E+02 -0.45153265446E+02 -0.36201768423E+01  0.52713053224E+02  0.00000000000E+00 0. -1.
         11    1    3    3    0    0  0.38592927043E+02 -0.27593148843E+01  0.40336088180E+02  0.55893003552E+02  0.00000000000E+00 0.  1.
        -13    1    4    4    0    0 -0.43551137626E+02  0.52099292734E+02 -0.48172244655E+02  0.83256249297E+02  0.00000000000E+00 0. -1.
         13    1    4    4    0    0  0.15073301175E+02 -0.23770647213E+02 -0.34641066029E+02  0.44634644984E+02  0.00000000000E+00 0.  1.
         21    1    1    2  502  501  0.16843079218E+02  0.19583934810E+02  0.44862848849E+01  0.26217295288E+02  0.00000000000E+00 0.  1.
<scales pt_clust_5="13000.00000" pt_clust_6="13000.00000" pt_clust_7="13000.00000" pt_clust_8="13000.00000" pt_clust_9="25.83060"></scales>
<clustering>
<clus scale="   25.831">  1  9  2 -1</clus>
<clus scale="   88.795">  7  8 -1 -1</clus>
<clus scale="   89.533">  5  6 -1 -1</clus>
<clus scale="   97.832">  2  7  1 -1</clus>
<clus scale="   97.832">  2  5  1 -1</clus>
</clustering>
</event>
<event>
 9    1  0.1434065E-005  0.9068042E+02  0.7546771E-02  0.1302094E+00
          1   -1    0    0  502    0  0.00000000000E+00  0.00000000000E+00  0.25755690063E+03  0.25755690063E+03  0.00000000000E+00 0. -1.
         -1   -1    0    0    0  501 -0.00000000000E+00 -0.00000000000E+00 -0.77766688055E+02  0.77766688055E+02  0.00000000000E+00 0.  1.
         23    2    1    2    0    0  0.95959164866E+01  0.49241834227E+01 -0.49875394908E+01  0.86742054709E+02  0.85924264962E+02 0.  0.
         23    2    1    2    0    0 -0.99338055419E+00  0.36869416196E+02  0.18416524584E+03  0.20590737601E+03  0.84384056946E+02 0.  0.
        -11    1    4    4    0    0 -0.29886072470E+02  0.26542933758E+02  0.16490590086E+03  0.16968105610E+03  0.00000000000E+00 0. -1.
         11    1    4    4    0    0  0.28892691916E+02  0.10326482439E+02  0.19259344982E+02  0.36226319919E+02  0.00000000000E+00 0.  1.
        -13    1    3    3    0    0 -0.18677888656E+02 -0.29186513616E+02 -0.19943400902E+02  0.39980687104E+02  0.00000000000E+00 0.  1.
         13    1    3    3    0    0  0.28273805143E+02  0.34110697039E+02  0.14955861411E+02  0.46761367605E+02  0.00000000000E+00 0. -1.
         21    1    1    2  502  501 -0.86025359324E+01 -0.41793599619E+02  0.61250622378E+00  0.42674157958E+02  0.00000000000E+00 0.  1.
<scales pt_clust_5="13000.00000" pt_clust_6="13000.00000" pt_clust_7="13000.00000" pt_clust_8="13000.00000" pt_clust_9="42.66976"></scales>
<clustering>
<clus scale="   42.670">  2  9  1 -1</clus>
<clus scale="   84.384">  5  6 -1 -1</clus>
<clus scale="   85.924">  7  8 -1 -1</clus>
<clus scale="   89.222">  1  5  2 -1</clus>
<clus scale="   89.222">  1  5  2 -1</clus>
</clustering>
</event>
<event>
 9    1  0.1434065E-005  0.1436793E+03  0.7546771E-02  0.1209673E+00
          2   -1    0    0  502    0  0.00000000000E+00  0.00000000000E+00  0.36409440085E+03  0.36409440085E+03  0.00000000000E+00 0. -1.
         -2   -1    0    0    0  501 -0.00000000000E+00 -0.00000000000E+00 -0.17358511381E+03  0.17358511381E+03  0.00000000000E+00 0.  1.
         23    2    1    2    0    0  0.11758702224E+03 -0.48646670284E+02  0.46553504964E+02  0.16200043607E+03  0.88790236706E+02 0.  0.
         23    2    1    2    0    0 -0.77882857587E+02  0.68177694982E+02  0.23547641410E+03  0.27402324893E+03  0.94475720465E+02 0.  0.
        -11    1    3    3    0    0  0.79344478736E+02  0.12058852774E+01  0.57797459081E+02  0.98171007642E+02  0.00000000000E+00 0. -1.
         11    1    3    3    0    0  0.38242543505E+02 -0.49852555562E+02 -0.11243954117E+02  0.63829428432E+02  0.00000000000E+00 0.  1.
        -11    1    4    4    0    0  0.19247059006E+02  0.19220002527E+02  0.24270520938E+02  0.36454299665E+02  0.00000000000E+00 0.  1.
         11    1    4    4    0    0 -0.97129916593E+02  0.48957692455E+02  0.21120589316E+03  0.23756894926E+03  0.00000000000E+00 0. -1.
         21    1    1    2  502  501 -0.39704164653E+02 -0.19531024698E+02 -0.91520632025E+02  0.10165582966E+03  0.00000000000E+00 0.  1.
<scales pt_clust_5="13000.00000" pt_clust_6="13000.00000" pt_clust_7="13000.00000" pt_clust_8="13000.00000" pt_clust_9="44.24796"></scales>
<clustering>
<clus scale="   44.248">  2  9  1 -1</clus>
<clus scale="   88.790">  5  6 -1 -1</clus>
<clus scale="   94.476">  7  8 -1 -1</clus>
<clus scale="  140.006">  2  5  1 -1</clus>
<clus scale="  143.679">  1  5  2 -1</clus>
</clustering>
</event>
<event>
 9    1  0.2500376E-005  0.1018777E+03  0.7546771E-02  0.1278988E+00
          1   -1    0    0  502    0  0.00000000000E+00  0.00000000000E+00  0.23052406834E+03  0.23052406834E+03  0.00000000000E+00 0. -1.
         -1   -1    0    0    0  501 -0.00000000000E+00 -0.00000000000E+00 -0.15572375431E+03  0.15572375431E+03  0.00000000000E+00 0.  1.
         23    2    1    2    0    0 -0.12016114773E+01  0.18045947397E+02 -0.71036320145E+02  0.11641772048E+03  0.90442394784E+02 0.  0.
         23    2    1    2    0    0 -0.90479801800E+01 -0.36246442586E+02  0.19278253988E+03  0.21844693161E+03  0.95698922147E+02 0.  0.
        -13    1    3    3    0    0  0.10955973354E+02  0.46105546425E+02 -0.71564954328E+02  0.85832962499E+02  0.00000000000E+00 0.  1.
         13    1    3    3    0    0 -0.12157584832E+02 -0.28059599029E+02  0.52863418364E+00  0.30584757980E+02  0.00000000000E+00 0. -1.
        -13    1    4    4    0    0 -0.36011834439E+02 -0.57399505686E+02  0.13963687427E+03  0.15520957487E+03  0.00000000000E+00 0. -1.
         13    1    4    4    0    0  0.26963854259E+02  0.21153063100E+02  0.53145665608E+02  0.63237356743E+02  0.00000000000E+00 0.  1.
         21    1    1    2  502  501  0.10249591657E+02  0.18200495190E+02 -0.46945905712E+02  0.51383170566E+02  0.00000000000E+00 0.  1.
<scales pt_clust_5="13000.00000" pt_clust_6="13000.00000" pt_clust_7="13000.00000" pt_clust_8="13000.00000" pt_clust_9="20.88809"></scales>
<clustering>
<clus scale="   20.888">  2  9  1 -1</clus>
<clus scale="   90.442">  5  6 -1 -1</clus>
<clus scale="   95.699">  7  8 -1 -1</clus>
<clus scale="   96.957">  2  5  1 -1</clus>
<clus scale="  101.878">  1  5  2 -1</clus>
</clustering>
</event>
<event>
 9    1  0.1434065E-005  0.2206700E+03  0.7546771E-02  0.1133928E+00
          1   -1    0    0  502    0  0.00000000000E+00  0.00000000000E+00  0.32077802319E+03  0.32077802319E+03  0.00000000000E+00 0. -1.
         -1   -1    0    0    0  501 -0.00000000000E+00 -0.00000000000E+00 -0.20069856014E+03  0.20069856014E+03  0.00000000000E+00 0.  1.
         23    2    1    2    0    0  0.17945128471E+03 -0.40309169133E+02 -0.16516697928E+02  0.20848472217E+03  0.96775437842E+02 0.  0.
         23    2    1    2    0    0 -0.19962380870E+03  0.49322496415E+02  0.16386720793E+03  0.27789370173E+03  0.89944838497E+02 0.  0.
        -11    1    4    4    0    0 -0.17561227959E+03  0.50114371477E+02  0.17360385150E+03  0.25197107022E+03  0.00000000000E+00 0. -1.
         11    1    4    4    0    0 -0.24011529106E+02 -0.79187506176E+00 -0.97366435707E+01  0.25922631505E+02  0.00000000000E+00 0.  1.
        -13    1    3    3    0    0  0.25932113442E+02  0.28879344928E+02  0.31956033581E+01  0.38944870674E+02  0.00000000000E+00 0. -1.
         13    1    3    3    0    0  0.15351917127E+03 -0.69188514061E+02 -0.19712301286E+02  0.16953985150E+03  0.00000000000E+00 0.  1.
         21    1    1    2  502  501  0.20172523988E+02 -0.90133272825E+01 -0.27271046958E+02  0.35098159424E+02  0.00000000000E+00 0.  1.
<scales pt_clust_5="13000.00000" pt_clust_6="13000.00000" pt_clust_7="13000.00000" pt_clust_8="13000.00000" pt_clust_9="22.09459"></scales>
<clustering>
<clus scale="   22.095">  2  9  1 -1</clus>
<clus scale="   89.945">  5  6 -1 -1</clus>
<clus scale="   96.775">  7  8 -1 -1</clus>
<clus scale="  217.761">  1  5  2 -1</clus>
<clus scale="  217.761">  1  5  2 -1</clus>
</clustering>
</event>
<event>
 9    1  0.1434065E-005  0.1307848E+03  0.7546771E-02  0.1226325E+00
          2   -1    0    0  502    0  0.00000000000E+00  0.00000000000E+00  0.76525971868E+03  0.76525971868E+03  0.00000000000E+00 0. -1.
         -2   -1    0    0    0  501 -0.00000000000E+00 -0.00000000000E+00 -0.49011118465E+02  0.49011118465E+02  0.00000000000E+00 0.  1.
         23    2    1    2    0    0  0.11578994654E+02 -0.52761997185E+02  0.15630312798E+03  0.18784965663E+03  0.89100640928E+02 0.  0.
         23    2    1    2    0    0 -0.54441494377E+02  0.11399457995E+03  0.51833127951E+03  0.54087374274E+03  0.88985671330E+02 0.  0.
        -11    1    4    4    0    0 -0.16793683956E+02  0.88280280386E+02  0.44893776117E+03  0.45784336746E+03  0.00000000000E+00 0. -1.
         11    1    4    4    0    0 -0.37647810421E+02  0.25714299561E+02  0.69393518343E+02  0.83030375282E+02  0.00000000000E+00 0.  1.
        -13    1    3    3    0    0 -0.18667205342E+02  0.17296730049E+02  0.23266502435E+02  0.34481466924E+02  0.00000000000E+00 0. -1.
         13    1    3    3    0    0  0.30246199996E+02 -0.70058727234E+02  0.13303662555E+03  0.15336818970E+03  0.00000000000E+00 0.  1.
         21    1    1    2  502  501  0.42862499723E+02 -0.61232582762E+02  0.41614192728E+02  0.85547437780E+02  0.00000000000E+00 0. -1.
<scales pt_clust_5="13000.00000" pt_clust_6="13000.00000" pt_clust_7="13000.00000" pt_clust_8="13000.00000" pt_clust_9="74.74372"></scales>
<clustering>
<clus scale="   74.744">  2  9  1 -1</clus>
<clus scale="   88.986">  5  6 -1 -1</clus>
<clus scale="   89.101">  7  8 -1 -1</clus>
<clus scale="  130.707">  1  5  2 -1</clus>
<clus scale="  130.707">  1  5  2 -1</clus>
</clustering>
</event>
<event>
 9    1  0.1434065E-005  0.1877997E+03  0.7546771E-02  0.1160959E+00
         -2   -1    0    0    0  501 -0.00000000000E+00  0.00000000000E+00  0.46955320963E+03  0.46955320963E+03  0.00000000000E+00 0.  1.
          2   -1    0    0  502    0  0.00000000000E+00 -0.00000000000E+00 -0.42521025733E+03  0.42521025733E+03  0.00000000000E+00 0. -1.
         23    2    1    2    0    0 -0.12553728133E+03 -0.49056896971E+02  0.38517336156E+03  0.41906954940E+03  0.95365510733E+02 0.  0.
         23    2    1    2    0    0  0.14652506562E+03  0.72011972986E+02 -0.38129823169E+03  0.42465405807E+03  0.91035204365E+02 0.  0.
        -11    1    3    3    0    0 -0.75057947900E+02 -0.47390711595E+02  0.33970570312E+03  0.35111186226E+03  0.00000000000E+00 0.  1.
         11    1    3    3    0    0 -0.50479333434E+02 -0.16661853763E+01  0.45467658436E+02  0.67957687139E+02  0.00000000000E+00 0. -1.
        -13    1    4    4    0    0  0.77253793582E+02  0.86029769796E+02 -0.25322994949E+03  0.27837865801E+03  0.00000000000E+00 0. -1.
         13    1    4    4    0    0  0.69271272041E+02 -0.14017796810E+02 -0.12806828220E+03  0.14627540006E+03  0.00000000000E+00 0.  1.
         21    1    1    2  502  501 -0.20987784289E+02 -0.22955076015E+02  0.40467822432E+02  0.51039859488E+02  0.00000000000E+00 0. -1.
<scales pt_clust_5="13000.00000" pt_clust_6="13000.00000" pt_clust_7="13000.00000" pt_clust_8="13000.00000" pt_clust_9="31.10342"></scales>
<clustering>
<clus scale="   31.103">  1  9  2 -1</clus>
<clus scale="   91.035">  7  8 -1 -1</clus>
<clus scale="   95.366">  5  6 -1 -1</clus>
<clus scale="  185.638">  2  7  1 -1</clus>
<clus scale="  185.638">  2  5  1 -1</clus>
</clustering>
</event>
<event>
 9    1  0.1434065E-005  0.1350804E+03  0.7546771E-02  0.1220554E+00
         -1   -1    0    0    0  501 -0.00000000000E+00  0.00000000000E+00  0.94153235595E+02  0.94153235595E+02  0.00000000000E+00 0.  1.
          1   -1    0    0  502    0  0.00000000000E+00 -0.00000000000E+00 -0.30878587585E+03  0.30878587585E+03  0.00000000000E+00 0. -1.
         23    2    1    2    0    0 -0.52455087767E+02  0.90277097457E+02 -0.76994377199E+02  0.15893178727E+03  0.91813334143E+02 0.  0.
         23    2    1    2    0    0  0.32268122685E+02 -0.91147442083E+02 -0.16414829840E+03  0.21067486203E+03  0.89945237133E+02 0.  0.
        -11    1    3    3    0    0 -0.29036787970E+02  0.90825167127E+02 -0.20163227847E+02  0.97462309620E+02  0.00000000000E+00 0.  1.
         11    1    3    3    0    0 -0.23418299798E+02 -0.54806967003E+00 -0.56831149352E+02  0.61469477649E+02  0.00000000000E+00 0. -1.
        -13    1    4    4    0    0  0.50410918915E+02 -0.99903136538E+02 -0.13810267835E+03  0.17774770661E+03  0.00000000000E+00 0. -1.
         13    1    4    4    0    0 -0.18142796229E+02  0.87556944557E+01 -0.26045620051E+02  0.32927155423E+02  0.00000000000E+00 0.  1.
         21    1    1    2  502  501  0.20186965082E+02  0.87034462532E+00  0.26510035344E+02  0.33332462149E+02  0.00000000000E+00 0.  1.
<scales pt_clust_5="13000.00000" pt_clust_6="13000.00000" pt_clust_7="13000.00000" pt_clust_8="13000.00000" pt_clust_9="20.20572"></scales>
<clustering>
<clus scale="   20.206">  1  9  2 -1</clus>
<clus scale="   89.945">  7  8 -1 -1</clus>
<clus scale="   91.813">  5  6 -1 -1</clus>
<clus scale="  133.818">  2  7  1 -1</clus>
<clus scale="  133.818">  2  5  1 -1</clus>
</clustering>
</event>
<event>
 9    1  0.1434065E-005  0.2294218E+03  0.7546771E-02  0.1127160E+00
          2   -1    0    0  502    0  0.00000000000E+00  0.00000000000E+00  0.74026446625E+03  0.74026446625E+03  0.00000000000E+00 0. -1.
         -2   -1    0    0    0  501 -0.00000000000E+00 -0.00000000000E+00 -0.10459755626E+03  0.10459755626E+03  0.00000000000E+00 0.  1.
         23    2    1    2    0    0  0.15058884989E+03  0.17594930196E+03  0.19463639299E+03  0.31642227926E+03  0.92760847147E+02 0.  0.
         23    2    1    2    0    0 -0.16211850885E+03 -0.11966544754E+03  0.40250217935E+03  0.45926432778E+03  0.91178331542E+02 0.  0.
        -13    1    3    3    0    0  0.10578531159E+03  0.14811623906E+03  0.19056209416E+03  0.26352013994E+03  0.00000000000E+00 0. -1.
         13    1    3    3    0    0  0.44803538291E+02  0.27833062898E+02  0.40742988351E+01  0.52902139320E+02  0.00000000000E+00 0.  1.
        -13    1    4    4    0    0 -0.10269965338E+03 -0.11500293100E+03  0.23125886511E+03  0.27794523856E+03  0.00000000000E+00 0.  1.
         13    1    4    4    0    0 -0.59418855471E+02 -0.46625165398E+01  0.17124331424E+03  0.18131908922E+03  0.00000000000E+00 0. -1.
         21    1    1    2  502  501  0.11529658968E+02 -0.56283854419E+02  0.38528337658E+02  0.69175415481E+02  0.00000000000E+00 0.  1.
<scales pt_clust_5="13000.00000" pt_clust_6="13000.00000" pt_clust_7="13000.00000" pt_clust_8="13000.00000" pt_clust_9="57.45264"></scales>
<clustering>
<clus scale="   57.453">  2  9  1 -1</clus>
<clus scale="   91.178">  7  8 -1 -1</clus>
<clus scale="   92.761">  5  6 -1 -1</clus>
<clus scale="  228.786">  1  7  2 -1</clus>
<clus scale="  228.786">  1  5  2 -1</clus>
</clustering>
</event>
<event>
 9    1  0.1434065E-005  0.1175824E+03  0.7546771E-02  0.1250107E+00
         -2   -1    0    0    0  501 -0.00000000000E+00  0.00000000000E+00  0.10592263988E+03  0.10592263988E+03  0.00000000000E+00 0.  1.
          2   -1    0    0  502    0  0.00000000000E+00 -0.00000000000E+00 -0.18153775997E+03  0.18153775997E+03  0.00000000000E+00 0. -1.
         23    2    1    2    0    0 -0.52576755588E+02  0.63272784198E+02 -0.38506639580E+02  0.12320910508E+03  0.83246392314E+02 0.  0.
         23    2    1    2    0    0  0.22433031848E+02 -0.63829480889E+02 -0.57437959647E+02  0.12788865303E+03  0.92081186016E+02 0.  0.
        -13    1    3    3    0    0  0.19135620031E+02  0.76989328879E+01 -0.23470658752E+02  0.31246077255E+02  0.00000000000E+00 0.  1.
         13    1    3    3    0    0 -0.71712375619E+02  0.55573851311E+02 -0.15035980828E+02  0.91963027820E+02  0.00000000000E+00 0. -1.
        -13    1    4    4    0    0  0.51339476182E+02 -0.64824883931E+02 -0.29841728426E+02  0.87912093291E+02  0.00000000000E+00 0.  1.
         13    1    4    4    0    0 -0.28906444335E+02  0.99540304209E+00 -0.27596231221E+02  0.39976559743E+02  0.00000000000E+00 0. -1.
         21    1    1    2  502  501  0.30143723740E+02  0.55669669078E+00  0.20329479144E+02  0.36362641741E+02  0.00000000000E+00 0. -1.
<scales pt_clust_5="13000.00000" pt_clust_6="13000.00000" pt_clust_7="13000.00000" pt_clust_8="13000.00000" pt_clust_9="30.14886"></scales>
<clustering>
<clus scale="   30.149">  1  9  2 -1</clus>
<clus scale="   83.246">  5  6 -1 -1</clus>
<clus scale="   92.081">  7  8 -1 -1</clus>
<clus scale="  110.800">  1  5  2 -1</clus>
<clus scale="  117.582">  2  5  1 -1</clus>
</clustering>
</event>
<event>
 9    1  0.1434065E-005  0.3726358E+03  0.7546771E-02  0.1053750E+00
          1   -1    0    0  502    0  0.00000000000E+00  0.00000000000E+00  0.19373641725E+03  0.19373641725E+03  0.00000000000E+00 0. -1.
         -1   -1    0    0    0  501 -0.00000000000E+00 -0.00000000000E+00 -0.10660878396E+04  0.10660878396E+04  0.00000000000E+00 0.  1.
         23    2    1    2    0    0 -0.26100495214E+03 -0.22499109705E+03 -0.61615984117E+03  0.71168948052E+03  0.90024374572E+02 0.  0.
         23    2    1    2    0    0  0.28524795688E+03  0.23103604081E+03 -0.10220106696E+03  0.39213047160E+03  0.92613171914E+02 0.  0.
        -13    1    4    4    0    0  0.43858194348E+02  0.12100414911E+02  0.11588547643E+02  0.46949501478E+02  0.00000000000E+00 0.  1.
         13    1    4    4    0    0  0.24138976253E+03  0.21893562590E+03 -0.11378961461E+03  0.34518097013E+03  0.00000000000E+00 0. -1.
        -13    1    3    3    0    0 -0.25717791160E+03 -0.19056346981E+03 -0.53492722558E+03  0.62337954001E+03  0.00000000000E+00 0.  1.
         13    1    3    3    0    0 -0.38270405449E+01 -0.34427627242E+02 -0.81232615594E+02  0.88309940511E+02  0.00000000000E+00 0. -1.
         21    1    1    2  502  501 -0.24243004743E+02 -0.60449437628E+01 -0.15399051417E+03  0.15600430468E+03  0.00000000000E+00 0.  1.
<scales pt_clust_5="13000.00000" pt_clust_6="13000.00000" pt_clust_7="13000.00000" pt_clust_8="13000.00000" pt_clust_9="24.98529"></scales>
<clustering>
<clus scale="   24.985">  2  9  1 -1</clus>
<clus scale="   90.024">  7  8 -1 -1</clus>
<clus scale="   92.613">  5  6 -1 -1</clus>
<clus scale="  372.001">  2  7  1 -1</clus>
<clus scale="  372.636">  1  5  2 -1</clus>
</clustering>
</event>
<event>
 9    1  0.1434065E-005  0.1062469E+03  0.7546771E-02  0.1268964E+00
          3   -1    0    0  502    0  0.00000000000E+00  0.00000000000E+00  0.82708624436E+03  0.82708624436E+03  0.00000000000E+00 0. -1.
         -3   -1    0    0    0  501 -0.00000000000E+00 -0.00000000000E+00 -0.34297914188E+02  0.34297914188E+02  0.00000000000E+00 0.  1.
         23    2    1    2    0    0 -0.32148609886E+02 -0.32234950191E+02  0.14484548735E+03  0.17715038362E+03  0.91265645675E+02 0.  0.
         23    2    1    2    0    0 -0.18583453482E+02  0.10037185557E+03  0.40139148692E+03  0.42345810270E+03  0.88214425317E+02 0.  0.
        -11    1    4    4    0    0 -0.51188242137E+02  0.84149182353E+02  0.29354608910E+03  0.30962982326E+03  0.00000000000E+00 0.  1.
         11    1    4    4    0    0  0.32604788656E+02  0.16222673221E+02  0.10784539782E+03  0.11382827945E+03  0.00000000000E+00 0. -1.
        -13    1    3    3    0    0 -0.52641741861E+02 -0.23003195170E+02  0.40195894207E+02  0.70114263066E+02  0.00000000000E+00 0.  1.
         13    1    3    3    0    0  0.20493131974E+02 -0.92317550212E+01  0.10464959314E+03  0.10703612056E+03  0.00000000000E+00 0. -1.
         21    1    1    2  502  501  0.50732063368E+02 -0.68136905382E+02  0.24655135590E+03  0.26077567223E+03  0.00000000000E+00 0. -1.
<scales pt_clust_5="13000.00000" pt_clust_6="13000.00000" pt_clust_7="13000.00000" pt_clust_8="13000.00000" pt_clust_9="84.94928"></scales>
<clustering>
<clus scale="   84.949">  1  9  2 -1</clus>
<clus scale="   88.214">  5  6 -1 -1</clus>
<clus scale="   91.266">  7  8 -1 -1</clus>
<clus scale="  103.638">  1  5  2 -1</clus>
<clus scale="   84.949">  1  5  2 -1</clus>
</clustering>
</event>
<event>
 9    1  0.1434065E-005  0.1011516E+03  0.7546771E-02  0.1279391E+00
         -2   -1    0    0    0  501 -0.00000000000E+00  0.00000000000E+00  0.50762820040E+02  0.50762820040E+02  0.00000000000E+00 0.  1.
          2   -1    0    0  502    0  0.00000000000E+00 -0.00000000000E+00 -0.34352834034E+03  0.34352834034E+03  0.00000000000E+00 0. -1.
         23    2    1    2    0    0  0.35598283787E+02 -0.34939676027E+02 -0.88572402583E+02  0.13867149682E+03  0.94322291960E+02 0.  0.
         23    2    1    2    0    0 -0.32488749697E+02  0.59242918923E+01 -0.20458285809E+03  0.22643553061E+03  0.91259452156E+02 0.  0.
        -11    1    3    3    0    0  0.61876190571E+02 -0.55623737733E+01 -0.32447006070E+02  0.70088595110E+02  0.00000000000E+00 0.  1.
         11    1    3    3    0    0 -0.26277906785E+02 -0.29377302254E+02 -0.56125396513E+02  0.68582901706E+02  0.00000000000E+00 0. -1.
        -13    1    4    4    0    0 -0.19970064542E+02 -0.24774667956E+02 -0.18544422041E+03  0.18815458149E+03  0.00000000000E+00 0.  1.
         13    1    4    4    0    0 -0.12518685155E+02  0.30698959848E+02 -0.19138637678E+02  0.38280949125E+02  0.00000000000E+00 0. -1.
         21    1    1    2  502  501 -0.31095340901E+01  0.29015384135E+02  0.38974037044E+00  0.29184132955E+02  0.00000000000E+00 0. -1.
<scales pt_clust_5="13000.00000" pt_clust_6="13000.00000" pt_clust_7="13000.00000" pt_clust_8="13000.00000" pt_clust_9="29.18153"></scales>
<clustering>
<clus scale="   29.182">  1  9  2 -1</clus>
<clus scale="   91.259">  7  8 -1 -1</clus>
<clus scale="   94.322">  5  6 -1 -1</clus>
<clus scale="   98.302">  2  7  1 -1</clus>
<clus scale="   98.302">  2  5  1 -1</clus>
</clustering>
</event>
<event>
 9    1  0.1434065E-005  0.1149793E+03  0.7546771E-02  0.1254373E+00
          3   -1    0    0  502    0  0.00000000000E+00  0.00000000000E+00  0.18254856139E+03  0.18254856139E+03  0.00000000000E+00 0. -1.
         -3   -1    0    0    0  501 -0.00000000000E+00 -0.00000000000E+00 -0.17046073706E+03  0.17046073706E+03  0.00000000000E+00 0.  1.
         23    2    1    2    0    0 -0.77896282593E+02 -0.18867316724E+02 -0.86823029996E+02  0.15191570207E+03  0.95479503125E+02 0.  0.
         23    2    1    2    0    0  0.55995018975E+02  0.25665455901E+02  0.12601853525E+03  0.16558716865E+03  0.88001598954E+02 0.  0.
        -11    1    4    4    0    0  0.57641823355E+02  0.50935118884E+02  0.11408015071E+03  0.13759086787E+03  0.00000000000E+00 0. -1.
         11    1    4    4    0    0 -0.16468043799E+01 -0.25269662983E+02  0.11938384540E+02  0.27996300780E+02  0.00000000000E+00 0.  1.
        -13    1    3    3    0    0 -0.96604147014E+01  0.18107303053E+02  0.13880394990E+02  0.24776266892E+02  0.00000000000E+00 0. -1.
         13    1    3    3    0    0 -0.68235867892E+02 -0.36974619776E+02 -0.10070342499E+03  0.12713943518E+03  0.00000000000E+00 0.  1.
         21    1    1    2  502  501  0.21901263619E+02 -0.67981391771E+01 -0.27107680931E+02  0.35506427726E+02  0.00000000000E+00 0. -1.
<scales pt_clust_5="13000.00000" pt_clust_6="13000.00000" pt_clust_7="13000.00000" pt_clust_8="13000.00000" pt_clust_9="22.93207"></scales>
<clustering>
<clus scale="   22.932">  2  9  1 -1</clus>
<clus scale="   88.002">  5  6 -1 -1</clus>
<clus scale="   95.480">  7  8 -1 -1</clus>
<clus scale="  108.849">  1  5  2 -1</clus>
<clus scale="  108.849">  1  5  2 -1</clus>
</clustering>
</event>
<event>
 9    1  0.1434065E-005  0.1488677E+03  0.7546771E-02  0.1211933E+00
         -1   -1    0    0    0  501 -0.00000000000E+00  0.00000000000E+00  0.14118501452E+03  0.14118501452E+03  0.00000000000E+00 0.  1.
          1   -1    0    0  502    0  0.00000000000E+00 -0.00000000000E+00 -0.33396282381E+03  0.33396282381E+03  0.00000000000E+00 0. -1.
         23    2    1    2    0    0  0.72227305976E+02 -0.25543209186E+02  0.63087234909E+01  0.12011430811E+03  0.92295220663E+02 0.  0.
         23    2    1    2    0    0  0.86725747482E+02 -0.18270194610E+02 -0.10662676781E+03  0.16599783070E+03  0.91273527899E+02 0.  0.
        -11    1    3    3    0    0 -0.63637671562E+01 -0.38940090634E+02  0.84900156951E+01  0.40359739314E+02  0.00000000000E+00 0.  1.
         11    1    3    3    0    0  0.78591073132E+02  0.13396881448E+02 -0.21812922042E+01  0.79754568799E+02  0.00000000000E+00 0. -1.
        -13    1    4    4    0    0  0.23874224784E+02  0.20925311038E+02  0.48915608849E+01  0.32121248715E+02  0.00000000000E+00 0.  1.
         13    1    4    4    0    0  0.62851522697E+02 -0.39195505649E+02 -0.11151832869E+03  0.13387658198E+03  0.00000000000E+00 0. -1.
         21    1    1    2  502  501 -0.15895305346E+03  0.43813403796E+02 -0.92459764969E+02  0.18903569952E+03  0.00000000000E+00 0.  1.
<scales pt_clust_5="13000.00000" pt_clust_6="13000.00000" pt_clust_7="13000.00000" pt_clust_8="13000.00000" pt_clust_9="117.60420"></scales>
<clustering>
<clus scale="   91.274">  7  8 -1 -1</clus>
<clus scale="   92.295">  5  6 -1 -1</clus>
<clus scale="  119.949">  1  5  2 -1</clus>
<clus scale="  117.604">  1  9  2 -1</clus>
<clus scale="  148.868">  2  5  1 -1</clus>
</clustering>
</event>
<event>
 9    1  0.1434065E-005  0.2917742E+03  0.7546771E-02  0.1089597E+00
          1   -1    0    0  502    0  0.00000000000E+00  0.00000000000E+00  0.81694055063E+03  0.81694055063E+03  0.00000000000E+00 0. -1.
         -1   -1    0    0    0  501 -0.00000000000E+00 -0.00000000000E+00 -0.15511033662E+03  0.15511033662E+03  0.00000000000E+00 0.  1.
         23    2    1    2    0    0 -0.25587501876E+03  0.51251063035E+01  0.11616934284E+03  0.29426344868E+03  0.87162888163E+02 0.  0.
         23    2    1    2    0    0  0.28417871033E+03 -0.36936258306E+02  0.55760327142E+03  0.63356448897E+03  0.91437010012E+02 0.  0.
        -13    1    3    3    0    0 -0.12051176844E+03 -0.13766458266E+02  0.98893280009E+02  0.15650074292E+03  0.00000000000E+00 0.  1.
         13    1    3    3    0    0 -0.13536325033E+03  0.18891564570E+02  0.17276062831E+02  0.13776270576E+03  0.00000000000E+00 0. -1.
        -13    1    4    4    0    0  0.25334456469E+03 -0.47809023907E+01  0.43914022995E+03  0.50700144679E+03  0.00000000000E+00 0. -1.
         13    1    4    4    0    0  0.30834145644E+02 -0.32155355915E+02  0.11846304147E+03  0.12656304218E+03  0.00000000000E+00 0.  1.
         21    1    1    2  502  501 -0.28303691569E+02  0.31811152003E+02 -0.11942400249E+02  0.44222949606E+02  0.00000000000E+00 0. -1.
<scales pt_clust_5="13000.00000" pt_clust_6="13000.00000" pt_clust_7="13000.00000" pt_clust_8="13000.00000" pt_clust_9="42.57991"></scales>
<clustering>
<clus scale="   42.580">  2  9  1 -1</clus>
<clus scale="   87.163">  5  6 -1 -1</clus>
<clus scale="   91.437">  7  8 -1 -1</clus>
<clus scale="  290.463">  2  5  1 -1</clus>
<clus scale="  291.774">  1  5  2 -1</clus>
</clustering>
</event>
<event>
 9    1  0.1434065E-005  0.1123616E+03  0.7546771E-02  0.1259255E+00
         -2   -1    0    0    0  501 -0.00000000000E+00  0.00000000000E+00  0.15336119285E+03  0.15336119285E+03  0.00000000000E+00 0.  1.
          2   -1    0    0  502    0  0.00000000000E+00 -0.00000000000E+00 -0.16354421848E+03  0.16354421848E+03  0.00000000000E+00 0. -1.
         23    2    1    2    0    0 -0.23106973656E+02 -0.46236125311E+02  0.69142872157E+02  0.13151410010E+03  0.99214465882E+02 0.  0.
         23    2    1    2    0    0  0.41957218120E+02  0.33731162255E+02 -0.10612586429E+03  0.15032075346E+03  0.91844599138E+02 0.  0.
        -11    1    4    4    0    0 -0.18728355811E+02 -0.75327241137E+01 -0.60805897538E+02  0.64069106591E+02  0.00000000000E+00 0.  1.
         11    1    4    4    0    0  0.60685573931E+02  0.41263886368E+02 -0.45319966751E+02  0.86251646871E+02  0.00000000000E+00 0. -1.
        -13    1    3    3    0    0 -0.39020454527E+02  0.19458858403E+02  0.34237986447E+02  0.55439000331E+02  0.00000000000E+00 0.  1.
         13    1    3    3    0    0  0.15913480871E+02 -0.65694983714E+02  0.34904885711E+02  0.76075099771E+02  0.00000000000E+00 0. -1.
         21    1    1    2  502  501 -0.18850244464E+02  0.12504963057E+02  0.26799966499E+02  0.35070557762E+02  0.00000000000E+00 0.  1.
<scales pt_clust_5="13000.00000" pt_clust_6="13000.00000" pt_clust_7="13000.00000" pt_clust_8="13000.00000" pt_clust_9="22.62092"></scales>
<clustering>
<clus scale="   22.621">  1  9  2 -1</clus>
<clus scale="   91.845">  5  6 -1 -1</clus>
<clus scale="   99.214">  7  8 -1 -1</clus>
<clus scale="  105.911">  2  5  1 -1</clus>
<clus scale="  105.911">  2  5  1 -1</clus>
</clustering>
</event>
<event>
 9    1  0.1434065E-005  0.1303033E+03  0.7546771E-02  0.1227733E+00
          1   -1    0    0  502    0  0.00000000000E+00  0.00000000000E+00  0.54748626808E+03  0.54748626808E+03  0.00000000000E+00 0. -1.
         -1   -1    0    0    0  501 -0.00000000000E+00 -0.00000000000E+00 -0.85244988089E+02  0.85244988089E+02  0.00000000000E+00 0.  1.
         23    2    1    2    0    0  0.32275698338E+02  0.10477639319E+03  0.11408238491E+02  0.14389397846E+03  0.92496031570E+02 0.  0.
         23    2    1    2    0    0 -0.28245712411E+02 -0.81420566825E+02  0.44668867844E+03  0.46477670505E+03  0.95181306672E+02 0.  0.
        -11    1    3    3    0    0 -0.77743302230E+01  0.32784528563E+02  0.43896706715E+02  0.55337025434E+02  0.00000000000E+00 0. -1.
         11    1    3    3    0    0  0.40050028561E+02  0.71991864631E+02 -0.32488468224E+02  0.88556953021E+02  0.00000000000E+00 0.  1.
        -13    1    4    4    0    0 -0.19213517689E+02  0.19320747805E+02  0.92848903527E+02  0.96764505083E+02  0.00000000000E+00 0.  1.
         13    1    4    4    0    0 -0.90321947227E+01 -0.10074131463E+03  0.35383977491E+03  0.36801219997E+03  0.00000000000E+00 0. -1.
         21    1    1    2  502  501 -0.40299859270E+01 -0.23355826369E+02  0.41443630665E+01  0.24060572669E+02  0.00000000000E+00 0. -1.
<scales pt_clust_5="13000.00000" pt_clust_6="13000.00000" pt_clust_7="13000.00000" pt_clust_8="13000.00000" pt_clust_9="23.70096"></scales>
<clustering>
<clus scale="   23.701">  2  9  1 -1</clus>
<clus scale="   92.496">  5  6 -1 -1</clus>
<clus scale="   95.181">  7  8 -1 -1</clus>
<clus scale="  128.355">  2  5  1 -1</clus>
<clus scale="  130.303">  1  5  2 -1</clus>
</clustering>
</event>
<event>
 9    1  0.1434065E-005  0.1041839E+03  0.7546771E-02  0.1272154E+00
         -1   -1    0    0    0  501 -0.00000000000E+00  0.00000000000E+00  0.35138922408E+02  0.35138922408E+02  0.00000000000E+00 0.  1.
          1   -1    0    0  502    0  0.00000000000E+00 -0.00000000000E+00 -0.55485936477E+03  0.55485936477E+03  0.00000000000E+00 0. -1.
         23    2    1    2    0    0  0.58377505699E+02  0.27894790662E+02 -0.27688761943E+03  0.29831123634E+03  0.90204143017E+02 0.  0.
         23    2    1    2    0    0 -0.40284477560E+02  0.42429214975E+01 -0.23309293581E+03  0.25354185964E+03  0.91160936541E+02 0.  0.
        -11    1    4    4    0    0 -0.64161403378E+02 -0.15923216290E+02 -0.18215775900E+03  0.19378256801E+03  0.00000000000E+00 0.  1.
         11    1    4    4    0    0  0.23876925817E+02  0.20166137788E+02 -0.50935176812E+02  0.59759291634E+02  0.00000000000E+00 0. -1.
        -13    1    3    3    0    0  0.56647578108E+02 -0.12090560563E+02 -0.88863900349E+02  0.10607507976E+03  0.00000000000E+00 0.  1.
         13    1    3    3    0    0  0.17299275909E+01  0.39985351225E+02 -0.18802371908E+03  0.19223615659E+03  0.00000000000E+00 0. -1.
         21    1    1    2  502  501 -0.18093028139E+02 -0.32137712160E+02 -0.97398871233E+01  0.38145191195E+02  0.00000000000E+00 0.  1.
<scales pt_clust_5="13000.00000" pt_clust_6="13000.00000" pt_clust_7="13000.00000" pt_clust_8="13000.00000" pt_clust_9="36.88076"></scales>
<clustering>
<clus scale="   36.881">  1  9  2 -1</clus>
<clus scale="   90.204">  7  8 -1 -1</clus>
<clus scale="   91.161">  5  6 -1 -1</clus>
<clus scale="  103.348">  1  7  2 -1</clus>
<clus scale="  104.184">  2  5  1 -1</clus>
</clustering>
</event>
<event>
 9    1  0.1434065E-005  0.1152514E+03  0.7546771E-02  0.1251494E+00
          2   -1    0    0  502    0  0.00000000000E+00  0.00000000000E+00  0.37869862724E+03  0.37869862724E+03  0.00000000000E+00 0. -1.
         -2   -1    0    0    0  501 -0.00000000000E+00 -0.00000000000E+00 -0.20620235563E+03  0.20620235563E+03  0.00000000000E+00 0.  1.
         23    2    1    2    0    0  0.45442513145E+02  0.30614162605E+02  0.93581068102E+02  0.14174823700E+03  0.91284705353E+02 0.  0.
         23    2    1    2    0    0 -0.53123335226E+02 -0.56998021664E+02  0.24587894775E+03  0.27394283205E+03  0.92289517648E+02 0.  0.
        -11    1    3    3    0    0  0.55933242047E+02 -0.78549800921E+01  0.23620073805E+02  0.61222023526E+02  0.00000000000E+00 0. -1.
         11    1    3    3    0    0 -0.10490728902E+02  0.38469142697E+02  0.69960994297E+02  0.80526213470E+02  0.00000000000E+00 0.  1.
        -11    1    4    4    0    0 -0.49279433907E+02 -0.78999632793E+02  0.22442490080E+03  0.24297312750E+03  0.00000000000E+00 0.  1.
         11    1    4    4    0    0 -0.38439013184E+01  0.22001611128E+02  0.21454046945E+02  0.30969704550E+02  0.00000000000E+00 0. -1.
         21    1    1    2  502  501  0.76808220811E+01  0.26383859060E+02 -0.16696374423E+03  0.16920991382E+03  0.00000000000E+00 0.  1.
<scales pt_clust_5="13000.00000" pt_clust_6="13000.00000" pt_clust_7="13000.00000" pt_clust_8="13000.00000" pt_clust_9="27.47914"></scales>
<clustering>
<clus scale="   27.479">  2  9  1 -1</clus>
<clus scale="   91.285">  5  6 -1 -1</clus>
<clus scale="   92.290">  7  8 -1 -1</clus>
<clus scale="  114.448">  2  5  1 -1</clus>
<clus scale="  115.251">  1  5  2 -1</clus>
</clustering>
</event>
<event>
 9    1  0.1434065E-005  0.1349536E+03  0.7546771E-02  0.1220721E+00
         -2   -1    0    0    0  501 -0.00000000000E+00  0.00000000000E+00  0.28818926346E+02  0.28818926346E+02  0.00000000000E+00 0.  1.
          2   -1    0    0  502    0  0.00000000000E+00 -0.00000000000E+00 -0.95521407411E+03  0.95521407411E+03  0.00000000000E+00 0. -1.
         23    2    1    2    0    0 -0.12954506130E+01  0.12290820812E+03 -0.31896212529E+03  0.35308782620E+03  0.88465076881E+02 0.  0.
         23    2    1    2    0    0 -0.10418487611E+02 -0.69455767944E+02 -0.44823856748E+03  0.46260844561E+03  0.90311195251E+02 0.  0.
        -11    1    3    3    0    0  0.16178523952E+02  0.50807285719E+02 -0.23531807904E+03  0.24128349144E+03  0.00000000000E+00 0. -1.
         11    1    3    3    0    0 -0.17473974565E+02  0.72100922401E+02 -0.83644046249E+02  0.11180433476E+03  0.00000000000E+00 0.  1.
        -13    1    4    4    0    0  0.33560035027E+02 -0.13570011977E+02 -0.83616572392E+02  0.91116147607E+02  0.00000000000E+00 0.  1.
         13    1    4    4    0    0 -0.43978522638E+02 -0.55885755967E+02 -0.36462199509E+03  0.37149229800E+03  0.00000000000E+00 0. -1.
         21    1    1    2  502  501  0.11713938223E+02 -0.53452440175E+02 -0.15919445499E+03  0.16833672864E+03  0.00000000000E+00 0.  1.
<scales pt_clust_5="13000.00000" pt_clust_6="13000.00000" pt_clust_7="13000.00000" pt_clust_8="13000.00000" pt_clust_9="54.72093"></scales>
<clustering>
<clus scale="   54.721">  2  9  1 -1</clus>
<clus scale="   88.465">  5  6 -1 -1</clus>
<clus scale="   90.311">  7  8 -1 -1</clus>
<clus scale="  133.725">  1  5  2 -1</clus>
<clus scale="   54.721">  2  5  1 -1</clus>
</clustering>
</event>
<event>
 9    1  0.1434065E-005  0.1114962E+03  0.7546771E-02  0.1258078E+00
         -1   -1    0    0    0  501 -0.00000000000E+00  0.00000000000E+00  0.57323838727E+02  0.57323838727E+02  0.00000000000E+00 0.  1.
          1   -1    0    0  502    0  0.00000000000E+00 -0.00000000000E+00 -0.64102128498E+03  0.64102128498E+03  0.00000000000E+00 0. -1.
         23    2    1    2    0    0 -0.83166467671E+02 -0.13904015392E+02 -0.10980127630E+03  0.16561729745E+03  0.90899867713E+02 0.  0.
         23    2    1    2    0    0  0.60585267781E+02 -0.29602610911E+01 -0.48887149803E+03  0.50081270663E+03  0.90214675714E+02 0.  0.
        -13    1    4    4    0    0  0.41509347577E+02  0.41996340050E+02 -0.29789619590E+03  0.30369205133E+03  0.00000000000E+00 0. -1.
         13    1    4    4    0    0  0.19075920205E+02 -0.44956601141E+02 -0.19097530214E+03  0.19712065529E+03  0.00000000000E+00 0.  1.
        -13    1    3    3    0    0 -0.45700284841E+02 -0.21604297444E+02 -0.12943461120E+01  0.50566164918E+02  0.00000000000E+00 0.  1.
         13    1    3    3    0    0 -0.37466182830E+02  0.77002820521E+01 -0.10850693018E+03  0.11505113253E+03  0.00000000000E+00 0. -1.
         21    1    1    2  502  501  0.22581199889E+02  0.16864276483E+02  0.14975328076E+02  0.31915119626E+02  0.00000000000E+00 0.  1.
<scales pt_clust_5="13000.00000" pt_clust_6="13000.00000" pt_clust_7="13000.00000" pt_clust_8="13000.00000" pt_clust_9="28.18358"></scales>
<clustering>
<clus scale="   28.184">  1  9  2 -1</clus>
<clus scale="   90.215">  5  6 -1 -1</clus>
<clus scale="   90.900">  7  8 -1 -1</clus>
<clus scale="  110.938">  2  5  1 -1</clus>
<clus scale="  110.938">  2  5  1 -1</clus>
</clustering>
</event>
<event>
 9    1  0.1661127E-005  0.1017779E+03  0.7546771E-02  0.1277125E+00
         -2   -1    0    0    0  501 -0.00000000000E+00  0.00000000000E+00  0.89593561071E+02  0.89593561071E+02  0.00000000000E+00 0.  1.
          2   -1    0    0  502    0  0.00000000000E+00 -0.00000000000E+00 -0.36276490099E+03  0.36276490099E+03  0.00000000000E+00 0. -1.
         23    2    1    2    0    0  0.32960901092E+02 -0.37052256064E+02  0.33077894833E+02  0.10995215066E+03  0.92390679329E+02 0.  0.
         23    2    1    2    0    0 -0.39419588836E+02  0.15721630306E+02 -0.30373364307E+03  0.31997779286E+03  0.91272056770E+02 0.  0.
        -11    1    4    4    0    0 -0.45134804360E+01  0.50805468857E+02 -0.14513082867E+03  0.15383278129E+03  0.00000000000E+00 0. -1.
         11    1    4    4    0    0 -0.34906108400E+02 -0.35083838551E+02 -0.15860281441E+03  0.16614501157E+03  0.00000000000E+00 0.  1.
        -13    1    3    3    0    0  0.43678466713E+02 -0.55435532334E+02  0.46753766832E+02  0.84657081290E+02  0.00000000000E+00 0.  1.
         13    1    3    3    0    0 -0.10717565621E+02  0.18383276270E+02 -0.13675871999E+02  0.25295069365E+02  0.00000000000E+00 0. -1.
         21    1    1    2  502  501  0.64586877435E+01  0.21330625758E+02 -0.25155916805E+01  0.22428518545E+02  0.00000000000E+00 0.  1.
<scales pt_clust_5="13000.00000" pt_clust_6="13000.00000" pt_clust_7="13000.00000" pt_clust_8="13000.00000" pt_clust_9="22.28700"></scales>
<clustering>
<clus scale="   22.287">  1  9  2 -1</clus>
<clus scale="   91.272">  5  6 -1 -1</clus>
<clus scale="   92.391">  7  8 -1 -1</clus>
<clus scale="  100.764">  2  5  1 -1</clus>
<clus scale="  100.764">  2  5  1 -1</clus>
</clustering>
</event>
<event>
 9    1  0.1434065E-005  0.1007432E+03  0.7546771E-02  0.1278980E+00
          2   -1    0    0  502    0  0.00000000000E+00  0.00000000000E+00  0.21296816639E+03  0.21296816639E+03  0.00000000000E+00 0. -1.
         -2   -1    0    0    0  501 -0.00000000000E+00 -0.00000000000E+00 -0.93038661376E+02  0.93038661376E+02  0.00000000000E+00 0.  1.
         23    2    1    2    0    0 -0.26198993784E+02  0.14968056757E+02  0.18648578695E+02  0.96289896378E+02  0.89518404023E+02 0.  0.
         23    2    1    2    0    0  0.53864674158E+02 -0.19217430897E+00  0.13009335094E+03  0.16712735068E+03  0.90032390469E+02 0.  0.
        -11    1    3    3    0    0 -0.59101415722E+02  0.33534453963E+01  0.15871839706E+02  0.61287341531E+02  0.00000000000E+00 0. -1.
         11    1    3    3    0    0  0.32902421938E+02  0.11614611361E+02  0.27767389889E+01  0.35002554847E+02  0.00000000000E+00 0.  1.
        -11    1    4    4    0    0  0.44054897434E+02 -0.42660489906E+02  0.76763375883E+02  0.98251550950E+02  0.00000000000E+00 0. -1.
         11    1    4    4    0    0  0.98097767240E+01  0.42468315597E+02  0.53329975058E+02  0.68875799732E+02  0.00000000000E+00 0.  1.
         21    1    1    2  502  501 -0.27665680374E+02 -0.14775882448E+02 -0.28812424617E+02  0.42589580710E+02  0.00000000000E+00 0. -1.
<scales pt_clust_5="13000.00000" pt_clust_6="13000.00000" pt_clust_7="13000.00000" pt_clust_8="13000.00000" pt_clust_9="31.36426"></scales>
<clustering>
<clus scale="   31.364">  2  9  1 -1</clus>
<clus scale="   89.518">  5  6 -1 -1</clus>
<clus scale="   90.032">  7  8 -1 -1</clus>
<clus scale="  100.284">  2  5  1 -1</clus>
<clus scale="  100.743">  1  5  2 -1</clus>
</clustering>
</event>
<event>
 9    1  0.1434065E-005  0.1046519E+03  0.7546771E-02  0.1276082E+00
         -2   -1    0    0    0  501 -0.00000000000E+00  0.00000000000E+00  0.14571970648E+02  0.14571970648E+02  0.00000000000E+00 0.  1.
          2   -1    0    0  502    0  0.00000000000E+00 -0.00000000000E+00 -0.98293246454E+03  0.98293246454E+03  0.00000000000E+00 0. -1.
         23    2    1    2    0    0  0.57556437133E+01  0.30579091170E+02 -0.51289590884E+03  0.52401172891E+03  0.10275149868E+03 0.  0.
         23    2    1    2    0    0  0.85156292706E+00 -0.10033246236E+02 -0.43078272399E+03  0.44070580052E+03  0.92447045013E+02 0.  0.
        -11    1    3    3    0    0 -0.45560792928E+02  0.30132935986E+02 -0.30665088850E+03  0.31147800420E+03  0.00000000000E+00 0. -1.
         11    1    3    3    0    0  0.51316436641E+02  0.44615518385E+00 -0.20624502035E+03  0.21253372472E+03  0.00000000000E+00 0.  1.
        -11    1    4    4    0    0 -0.24576332626E+02  0.33352183629E+02 -0.15892956403E+03  0.16424058756E+03  0.00000000000E+00 0. -1.
         11    1    4    4    0    0  0.25427895553E+02 -0.43385429866E+02 -0.27185315996E+03  0.27646521296E+03  0.00000000000E+00 0.  1.
         21    1    1    2  502  501 -0.66072066404E+01 -0.20545844934E+02 -0.24681861050E+02  0.32786905748E+02  0.00000000000E+00 0. -1.
<scales pt_clust_5="13000.00000" pt_clust_6="13000.00000" pt_clust_7="13000.00000" pt_clust_8="13000.00000" pt_clust_9="21.58210"></scales>
<clustering>
<clus scale="   21.582">  1  9  2 -1</clus>
<clus scale="   92.447">  7  8 -1 -1</clus>
<clus scale="   94.555">  2  7  1 -1</clus>
<clus scale="  102.751">  5  6 -1 -1</clus>
<clus scale="   94.555">  2  5  1 -1</clus>
</clustering>
</event>
<event>
 9    1  0.1434065E-005  0.1208640E+03  0.7546771E-02  0.1246714E+00
         -1   -1    0    0    0  501 -0.00000000000E+00  0.00000000000E+00  0.60798057861E+02  0.60798057861E+02  0.00000000000E+00 0.  1.
          1   -1    0    0  502    0  0.00000000000E+00 -0.00000000000E+00 -0.39254310555E+03  0.39254310555E+03  0.00000000000E+00 0. -1.
         23    2    1    2    0    0 -0.26038579471E+02 -0.60847628678E+02 -0.11952711946E+03  0.16190435571E+03  0.86866832424E+02 0.  0.
         23    2    1    2    0    0  0.46743640320E+02  0.49228031906E+02 -0.23100702930E+03  0.26115901232E+03  0.10115045771E+03 0.  0.
        -13    1    3    3    0    0 -0.49293503246E+02 -0.63802670956E+01 -0.48808434834E+02  0.69662189037E+02  0.00000000000E+00 0.  1.
         13    1    3    3    0    0  0.23254923775E+02 -0.54467361582E+02 -0.70718684629E+02  0.92242166677E+02  0.00000000000E+00 0. -1.
        -13    1    4    4    0    0 -0.11495844270E+02  0.53013861594E+02 -0.62115725163E+02  0.82468098493E+02  0.00000000000E+00 0.  1.
         13    1    4    4    0    0  0.58239484590E+02 -0.37858296876E+01 -0.16889130414E+03  0.17869091383E+03  0.00000000000E+00 0. -1.
         21    1    1    2  502  501 -0.20705060849E+02  0.11619596772E+02  0.18789101071E+02  0.30277795378E+02  0.00000000000E+00 0.  1.
<scales pt_clust_5="13000.00000" pt_clust_6="13000.00000" pt_clust_7="13000.00000" pt_clust_8="13000.00000" pt_clust_9="23.74267"></scales>
<clustering>
<clus scale="   23.743">  1  9  2 -1</clus>
<clus scale="   86.867">  5  6 -1 -1</clus>
<clus scale="  101.150">  7  8 -1 -1</clus>
<clus scale="  109.190">  1  5  2 -1</clus>
<clus scale="  120.864">  2  5  1 -1</clus>
</clustering>
</event>
<event>
 9    1  0.1434065E-005  0.1573920E+03  0.7546771E-02  0.1194772E+00
          2   -1    0    0  502    0  0.00000000000E+00  0.00000000000E+00  0.70697471101E+03  0.70697471101E+03  0.00000000000E+00 0. -1.
         -2   -1    0    0    0  501 -0.00000000000E+00 -0.00000000000E+00 -0.48929529336E+02  0.48929529336E+02  0.00000000000E+00 0.  1.
         23    2    1    2    0    0  0.73494799531E+02 -0.13362639126E+03  0.34534880028E+03  0.38436368858E+03  0.72195243940E+02 0.  0.
         23    2    1    2    0    0 -0.71095073173E+02  0.80597328294E+02  0.26472265473E+03  0.29999113768E+03  0.91466715260E+02 0.  0.
        -11    1    4    4    0    0 -0.88912591521E+02  0.47121495935E+02  0.21565825812E+03  0.23797976511E+03  0.00000000000E+00 0. -1.
         11    1    4    4    0    0  0.17817518348E+02  0.33475832359E+02  0.49064396617E+02  0.62011372567E+02  0.00000000000E+00 0.  1.
        -13    1    3    3    0    0  0.39668781695E+02 -0.93313820483E+02  0.29336431103E+03  0.31039281615E+03  0.00000000000E+00 0.  1.
         13    1    3    3    0    0  0.33826017836E+02 -0.40312570779E+02  0.51984489249E+02  0.73970872429E+02  0.00000000000E+00 0. -1.
         21    1    1    2  502  501 -0.23997263579E+01  0.53029062968E+02  0.47973726668E+02  0.71549414088E+02  0.00000000000E+00 0. -1.
<scales pt_clust_5="13000.00000" pt_clust_6="13000.00000" pt_clust_7="13000.00000" pt_clust_8="13000.00000" pt_clust_9="53.08333"></scales>
<clustering>
<clus scale="   53.083">  2  9  1 -1</clus>
<clus scale="   72.195">  7  8 -1 -1</clus>
<clus scale="   91.467">  5  6 -1 -1</clus>
<clus scale="  147.031">  2  7  1 -1</clus>
<clus scale="  157.392">  1  5  2 -1</clus>
</clustering>
</event>
<event>
 9    1  0.1434065E-005  0.1073666E+03  0.7546771E-02  0.1265919E+00
          1   -1    0    0  502    0  0.00000000000E+00  0.00000000000E+00  0.92000572060E+03  0.92000572060E+03  0.00000000000E+00 0. -1.
         -1   -1    0    0    0  501 -0.00000000000E+00 -0.00000000000E+00 -0.15995166188E+02  0.15995166188E+02  0.00000000000E+00 0.  1.
         23    2    1    2    0    0 -0.22170968098E+02 -0.43772673310E+02  0.30159215925E+03  0.31902643956E+03  0.91719353811E+02 0.  0.
         23    2    1    2    0    0  0.38355409524E+02  0.55594865595E+02  0.51776931657E+03  0.52998498303E+03  0.90758418532E+02 0.  0.
        -11    1    3    3    0    0 -0.34763972236E+02 -0.67759893824E+02  0.20431456874E+03  0.21804673805E+03  0.00000000000E+00 0.  1.
         11    1    3    3    0    0  0.12593004139E+02  0.23987220514E+02  0.97277590506E+02  0.10097970150E+03  0.00000000000E+00 0. -1.
        -13    1    4    4    0    0  0.65482666857E+02  0.22468510956E+02  0.28312776793E+03  0.29146894623E+03  0.00000000000E+00 0. -1.
         13    1    4    4    0    0 -0.27127257334E+02  0.33126354639E+02  0.23464154864E+03  0.23851603679E+03  0.00000000000E+00 0.  1.
         21    1    1    2  502  501 -0.16184441426E+02 -0.11822192285E+02  0.84649078605E+02  0.86989464209E+02  0.00000000000E+00 0.  1.
<scales pt_clust_5="13000.00000" pt_clust_6="13000.00000" pt_clust_7="13000.00000" pt_clust_8="13000.00000" pt_clust_9="20.04246"></scales>
<clustering>
<clus scale="   20.042">  1  9  2 -1</clus>
<clus scale="   90.758">  7  8 -1 -1</clus>
<clus scale="   91.719">  5  6 -1 -1</clus>
<clus scale="  106.547">  1  7  2 -1</clus>
<clus scale="   20.042">  1  5  2 -1</clus>
</clustering>
</event>
<event>
 9    1  0.1434065E-005  0.9458209E+02  0.7546771E-02  0.1292705E+00
         -1   -1    0    0    0  501 -0.00000000000E+00  0.00000000000E+00  0.19242994144E+03  0.19242994144E+03  0.00000000000E+00 0.  1.
          1   -1    0    0  502    0  0.00000000000E+00 -0.00000000000E+00 -0.97910734333E+02  0.97910734333E+02  0.00000000000E+00 0. -1.
         23    2    1    2    0    0 -0.32792382047E+02 -0.21569747788E+02  0.61397296145E+02  0.11760270619E+03  0.92304789629E+02 0.  0.
         23    2    1    2    0    0 -0.32676405216E+02  0.16350269563E+02 -0.18857131076E+01  0.98313922386E+02  0.91252356947E+02 0.  0.
        -11    1    3    3    0    0  0.61433224871E+01 -0.38357718806E+02  0.64277450130E+02  0.75104231561E+02  0.00000000000E+00 0.  1.
         11    1    3    3    0    0 -0.38935704534E+02  0.16787971018E+02 -0.28801539853E+01  0.42498474625E+02  0.00000000000E+00 0. -1.
        -13    1    4    4    0    0 -0.40514735378E+02 -0.22044785214E+02  0.23356732339E+02  0.51700612021E+02  0.00000000000E+00 0.  1.
         13    1    4    4    0    0  0.78383301621E+01  0.38395054777E+02 -0.25242445446E+02  0.46613310365E+02  0.00000000000E+00 0. -1.
         21    1    1    2  502  501  0.65468787263E+02  0.52194782252E+01  0.35007624069E+02  0.74424047200E+02  0.00000000000E+00 0.  1.
<scales pt_clust_5="13000.00000" pt_clust_6="13000.00000" pt_clust_7="13000.00000" pt_clust_8="13000.00000" pt_clust_9="65.67652"></scales>
<clustering>
<clus scale="   65.677">  1  9  2 -1</clus>
<clus scale="   91.252">  7  8 -1 -1</clus>
<clus scale="   92.305">  5  6 -1 -1</clus>
<clus scale="   93.555">  2  7  1 -1</clus>
<clus scale="   93.555">  2  5  1 -1</clus>
</clustering>
</event>
<event>
 9    1  0.1434065E-005  0.1041103E+03  0.7546771E-02  0.1272393E+00
          1   -1    0    0  502    0  0.00000000000E+00  0.00000000000E+00  0.19700835408E+02  0.19700835408E+02  0.00000000000E+00 0. -1.
         -1   -1    0    0    0  501 -0.00000000000E+00 -0.00000000000E+00 -0.90449904734E+03  0.90449904734E+03  0.00000000000E+00 0.  1.
         23    2    1    2    0    0 -0.13288991643E+02 -0.31483543456E+02 -0.43938782365E+03  0.45009888869E+03  0.91430515800E+02 0.  0.
         23    2    1    2    0    0  0.47693393465E+02  0.57661451784E+02 -0.33563585083E+03  0.35612050914E+03  0.92579100585E+02 0.  0.
        -11    1    4    4    0    0  0.71074265018E+02  0.43531354643E+02 -0.18336076349E+03  0.20141424868E+03  0.00000000000E+00 0. -1.
         11    1    4    4    0    0 -0.23380871553E+02  0.14130097141E+02 -0.15227508735E+03  0.15470626046E+03  0.00000000000E+00 0.  1.
        -11    1    3    3    0    0 -0.52034800083E+02 -0.25007099143E+02 -0.28528548443E+03  0.29106834773E+03  0.00000000000E+00 0.  1.
         11    1    3    3    0    0  0.38745808440E+02 -0.64764443126E+01 -0.15410233922E+03  0.15903054095E+03  0.00000000000E+00 0. -1.
         21    1    1    2  502  501 -0.34404401822E+02 -0.26177908328E+02 -0.10977453745E+03  0.11798048492E+03  0.00000000000E+00 0. -1.
<scales pt_clust_5="13000.00000" pt_clust_6="13000.00000" pt_clust_7="13000.00000" pt_clust_8="13000.00000" pt_clust_9="43.23131"></scales>
<clustering>
<clus scale="   43.231">  1  9  2 -1</clus>
<clus scale="   91.431">  7  8 -1 -1</clus>
<clus scale="   92.579">  5  6 -1 -1</clus>
<clus scale="  103.090">  2  7  1 -1</clus>
<clus scale="   43.231">  1  5  2 -1</clus>
</clustering>
</event>
<event>
 9    1  0.1434065E-005  0.1186354E+03  0.7546771E-02  0.1252536E+00
          1   -1    0    0  502    0  0.00000000000E+00  0.00000000000E+00  0.58469270452E+03  0.58469270452E+03  0.00000000000E+00 0. -1.
         -1   -1    0    0    0  501 -0.00000000000E+00 -0.00000000000E+00 -0.73392508553E+02  0.73392508553E+02  0.00000000000E+00 0.  1.
         23    2    1    2    0    0 -0.18729698537E+02 -0.24102847632E+02  0.31638186955E+02  0.11495201057E+03  0.10621318651E+03 0.  0.
         23    2    1    2    0    0  0.25076151615E+02  0.49858106286E+02  0.49932929076E+03  0.51011180359E+03  0.88145716871E+02 0.  0.
        -11    1    4    4    0    0 -0.26845563583E+02  0.44101198861E+02  0.22432311964E+03  0.23018788419E+03  0.00000000000E+00 0.  1.
         11    1    4    4    0    0  0.51921715197E+02  0.57569074243E+01  0.27500617112E+03  0.27992391939E+03  0.00000000000E+00 0. -1.
        -13    1    3    3    0    0 -0.47838642859E+02 -0.38601561346E+02 -0.98319419457E+01  0.62251774042E+02  0.00000000000E+00 0.  1.
         13    1    3    3    0    0  0.29108944323E+02  0.14498713715E+02  0.41470128900E+02  0.52700236527E+02  0.00000000000E+00 0. -1.
         21    1    1    2  502  501 -0.63464530782E+01 -0.25755258654E+02 -0.19667281750E+02  0.33021398917E+02  0.00000000000E+00 0.  1.
<scales pt_clust_5="13000.00000" pt_clust_6="13000.00000" pt_clust_7="13000.00000" pt_clust_8="13000.00000" pt_clust_9="26.52566"></scales>
<clustering>
<clus scale="   26.526">  2  9  1 -1</clus>
<clus scale="   88.146">  5  6 -1 -1</clus>
<clus scale="  102.775">  1  5  2 -1</clus>
<clus scale="  106.213">  7  8 -1 -1</clus>
<clus scale="  102.775">  1  5  2 -1</clus>
</clustering>
</event>
<event>
 9    1  0.1434065E-005  0.1116317E+03  0.7546771E-02  0.1258172E+00
         -2   -1    0    0    0  501 -0.00000000000E+00  0.00000000000E+00  0.46465848769E+02  0.46465848769E+02  0.00000000000E+00 0.  1.
          2   -1    0    0  502    0  0.00000000000E+00 -0.00000000000E+00 -0.53045661328E+03  0.53045661328E+03  0.00000000000E+00 0. -1.
         23    2    1    2    0    0  0.42199626963E+02  0.11098166673E+02 -0.72807753147E+02  0.13226808566E+03  0.10143914307E+03 0.  0.
         23    2    1    2    0    0 -0.34798975587E+02 -0.33807967377E+02 -0.40500751930E+03  0.41998371788E+03  0.10000642596E+03 0.  0.
        -11    1    3    3    0    0 -0.24811560197E+02  0.30108586456E+02 -0.37748157624E+02  0.54286866752E+02  0.00000000000E+00 0. -1.
         11    1    3    3    0    0  0.67011187159E+02 -0.19010419783E+02 -0.35059595523E+02  0.77981218913E+02  0.00000000000E+00 0.  1.
        -11    1    4    4    0    0  0.15389881343E+02  0.27027806115E+02 -0.88795186621E+02  0.94084727338E+02  0.00000000000E+00 0.  1.
         11    1    4    4    0    0 -0.50188856930E+02 -0.60835773493E+02 -0.31621233268E+03  0.32589899054E+03  0.00000000000E+00 0. -1.
         21    1    1    2  502  501 -0.74006513759E+01  0.22709800704E+02 -0.61754920615E+01  0.24670658504E+02  0.00000000000E+00 0. -1.
<scales pt_clust_5="13000.00000" pt_clust_6="13000.00000" pt_clust_7="13000.00000" pt_clust_8="13000.00000" pt_clust_9="23.88524"></scales>
<clustering>
<clus scale="   23.885">  1  9  2 -1</clus>
<clus scale="  100.006">  7  8 -1 -1</clus>
<clus scale="  101.439">  5  6 -1 -1</clus>
<clus scale="  110.331">  2  7  1 -1</clus>
<clus scale="  110.331">  2  5  1 -1</clus>
</clustering>
</event>
<event>
 9    1  0.1434065E-005  0.1085224E+03  0.7546771E-02  0.1263797E+00
          2   -1    0    0  502    0  0.00000000000E+00  0.00000000000E+00  0.48227233492E+03  0.48227233492E+03  0.00000000000E+00 0. -1.
         -2   -1    0    0    0  501 -0.00000000000E+00 -0.00000000000E+00 -0.36046161138E+02  0.36046161138E+02  0.00000000000E+00 0.  1.
         23    2    1    2    0    0  0.56183366883E+01 -0.35619716049E+02  0.18979248524E+03  0.21638190341E+03  0.97465946843E+02 0.  0.
         23    2    1    2    0    0 -0.21561688974E+02  0.54683284200E+02  0.25275222697E+03  0.27681362960E+03  0.96368715326E+02 0.  0.
        -13    1    4    4    0    0  0.15175938350E+02  0.71050647418E+02  0.16102196903E+03  0.17665383696E+03  0.00000000000E+00 0. -1.
         13    1    4    4    0    0 -0.36737627324E+02 -0.16367363218E+02  0.91730257939E+02  0.10015979264E+03  0.00000000000E+00 0.  1.
        -13    1    3    3    0    0  0.27315346402E+02  0.25326488562E+02  0.90585049824E+02  0.97944935671E+02  0.00000000000E+00 0. -1.
         13    1    3    3    0    0 -0.21697009713E+02 -0.60946204611E+02  0.99207435414E+02  0.11843696774E+03  0.00000000000E+00 0.  1.
         21    1    1    2  502  501  0.15943352285E+02 -0.19063568152E+02  0.36814615778E+01  0.25122963044E+02  0.00000000000E+00 0.  1.
<scales pt_clust_5="13000.00000" pt_clust_6="13000.00000" pt_clust_7="13000.00000" pt_clust_8="13000.00000" pt_clust_9="24.85176"></scales>
<clustering>
<clus scale="   24.852">  2  9  1 -1</clus>
<clus scale="   96.369">  5  6 -1 -1</clus>
<clus scale="   97.466">  7  8 -1 -1</clus>
<clus scale="  107.538">  1  5  2 -1</clus>
<clus scale="  107.538">  1  5  2 -1</clus>
</clustering>
</event>
<event>
 9    1  0.1434065E-005  0.1178154E+03  0.7546771E-02  0.1246814E+00
          1   -1    0    0  502    0  0.00000000000E+00  0.00000000000E+00  0.53448831312E+03  0.53448831312E+03  0.00000000000E+00 0. -1.
         -1   -1    0    0    0  501 -0.00000000000E+00 -0.00000000000E+00 -0.65598370350E+02  0.65598370350E+02  0.00000000000E+00 0.  1.
         23    2    1    2    0    0 -0.64800547462E+02 -0.47367721971E+02  0.81767927833E+02  0.14694956316E+03  0.92007434773E+02 0.  0.
         23    2    1    2    0    0  0.70597954194E+02  0.17535503415E+02  0.40235166370E+03  0.41914427710E+03  0.92214417122E+02 0.  0.
        -11    1    3    3    0    0 -0.66170732802E+01  0.24624227126E+02  0.35122847450E+01  0.25738577359E+02  0.00000000000E+00 0.  1.
         11    1    3    3    0    0 -0.58183474182E+02 -0.71991949097E+02  0.78255643088E+02  0.12121098580E+03  0.00000000000E+00 0. -1.
        -13    1    4    4    0    0  0.30119077720E+02 -0.37696775590E+02  0.18962575274E+03  0.19566842320E+03  0.00000000000E+00 0. -1.
         13    1    4    4    0    0  0.40478876474E+02  0.55232279005E+02  0.21272591096E+03  0.22347585390E+03  0.00000000000E+00 0.  1.
         21    1    1    2  502  501 -0.57974067315E+01  0.29832218556E+02 -0.15229648760E+02  0.33992843219E+02  0.00000000000E+00 0.  1.
<scales pt_clust_5="13000.00000" pt_clust_6="13000.00000" pt_clust_7="13000.00000" pt_clust_8="13000.00000" pt_clust_9="30.39031"></scales>
<clustering>
<clus scale="   30.390">  2  9  1 -1</clus>
<clus scale="   92.007">  5  6 -1 -1</clus>
<clus scale="   92.214">  7  8 -1 -1</clus>
<clus scale="  117.653">  2  5  1 -1</clus>
<clus scale="  117.815">  1  5  2 -1</clus>
</clustering>
</event>
<event>
 9    1  0.1434065E-005  0.1198195E+03  0.7546771E-02  0.1243815E+00
         -1   -1    0    0    0  501 -0.00000000000E+00  0.00000000000E+00  0.38715752931E+03  0.38715752931E+03  0.00000000000E+00 0.  1.
          1   -1    0    0  502    0  0.00000000000E+00 -0.00000000000E+00 -0.48207598760E+02  0.48207598760E+02  0.00000000000E+00 0. -1.
         23    2    1    2    0    0  0.56485739431E+02 -0.31129553744E+02  0.20828406442E+03  0.23576051238E+03  0.89672068274E+02 0.  0.
         23    2    1    2    0    0 -0.69557904122E+02  0.50106651640E+02  0.94504881614E+02  0.15672538371E+03  0.91009310987E+02 0.  0.
        -11    1    4    4    0    0 -0.10963230143E+02 -0.18663404874E+02  0.53100013350E+02  0.57342187911E+02  0.00000000000E+00 0.  1.
         11    1    4    4    0    0 -0.58594673979E+02  0.68770056514E+02  0.41404868263E+02  0.99383195800E+02  0.00000000000E+00 0. -1.
        -11    1    3    3    0    0 -0.22138928572E+01 -0.47276638552E+02  0.11511104824E+03  0.12446097903E+03  0.00000000000E+00 0.  1.
         11    1    3    3    0    0  0.58699632289E+02  0.16147084807E+02  0.93173016179E+02  0.11129953334E+03  0.00000000000E+00 0. -1.
         21    1    1    2  502  501  0.13072164690E+02 -0.18977097895E+02  0.36160984511E+02  0.42879231978E+02  0.00000000000E+00 0.  1.
<scales pt_clust_5="13000.00000" pt_clust_6="13000.00000" pt_clust_7="13000.00000" pt_clust_8="13000.00000" pt_clust_9="23.04369"></scales>
<clustering>
<clus scale="   23.044">  1  9  2 -1</clus>
<clus scale="   89.672">  7  8 -1 -1</clus>
<clus scale="   91.009">  5  6 -1 -1</clus>
<clus scale="  118.807">  1  7  2 -1</clus>
<clus scale="  119.820">  2  5  1 -1</clus>
</clustering>
</event>
<event>
 9    1  0.1434065E-005  0.1201836E+03  0.7546771E-02  0.1244646E+00
          1   -1    0    0  502    0  0.00000000000E+00  0.00000000000E+00  0.18740417591E+03  0.18740417591E+03  0.00000000000E+00 0. -1.
         -1   -1    0    0    0  501 -0.00000000000E+00 -0.00000000000E+00 -0.19204179707E+03  0.19204179707E+03  0.00000000000E+00 0.  1.
         23    2    1    2    0    0 -0.69285679402E+02  0.71208413865E+02  0.22620835394E+01  0.13295708896E+03  0.88325120481E+02 0.  0.
         23    2    1    2    0    0  0.52035050649E+02 -0.38438459713E+02  0.88323428703E+02  0.14431795263E+03  0.94029153521E+02 0.  0.
        -11    1    3    3    0    0 -0.13253096133E+02  0.30739566184E+02 -0.39831292659E+02  0.52029773795E+02  0.00000000000E+00 0.  1.
         11    1    3    3    0    0 -0.56032583268E+02  0.40468847681E+02  0.42093376198E+02  0.80927315167E+02  0.00000000000E+00 0. -1.
        -13    1    4    4    0    0  0.28939578839E+02 -0.69466278020E+02  0.54231152283E+02  0.92758184994E+02  0.00000000000E+00 0.  1.
         13    1    4    4    0    0  0.23095471809E+02  0.31027818308E+02  0.34092276419E+02  0.51559767634E+02  0.00000000000E+00 0. -1.
         21    1    1    2  502  501  0.17250628753E+02 -0.32769954152E+02 -0.95223133396E+02  0.10217093139E+03  0.00000000000E+00 0.  1.
<scales pt_clust_5="13000.00000" pt_clust_6="13000.00000" pt_clust_7="13000.00000" pt_clust_8="13000.00000" pt_clust_9="37.03315"></scales>
<clustering>
<clus scale="   37.033">  2  9  1 -1</clus>
<clus scale="   88.325">  5  6 -1 -1</clus>
<clus scale="   94.029">  7  8 -1 -1</clus>
<clus scale="  115.775">  2  5  1 -1</clus>
<clus scale="  120.184">  1  5  2 -1</clus>
</clustering>
</event>
<event>
 9    1  0.1434065E-005  0.1017187E+03  0.7546771E-02  0.1277504E+00
         -3   -1    0    0    0  501 -0.00000000000E+00  0.00000000000E+00  0.38833975774E+03  0.38833975774E+03  0.00000000000E+00 0.  1.
          3   -1    0    0  502    0  0.00000000000E+00 -0.00000000000E+00 -0.10341824934E+03  0.10341824934E+03  0.00000000000E+00 0. -1.
         23    2    1    2    0    0 -0.26007516528E+02 -0.65177297965E+02  0.14068090816E+03  0.18254731586E+03  0.92778949786E+02 0.  0.
         23    2    1    2    0    0  0.18929307312E+02  0.31303288193E+02 -0.51194467760E+02  0.11073546509E+03  0.91122199120E+02 0.  0.
        -11    1    3    3    0    0 -0.54309769595E+02 -0.43029271551E+02  0.12586087176E+03  0.14367333894E+03  0.00000000000E+00 0.  1.
         11    1    3    3    0    0  0.28302253067E+02 -0.22148026414E+02  0.14820036399E+02  0.38873976920E+02  0.00000000000E+00 0. -1.
        -13    1    4    4    0    0  0.46772825916E+02  0.66085846398E+01 -0.55940951648E+02  0.73217215916E+02  0.00000000000E+00 0.  1.
         13    1    4    4    0    0 -0.27843518604E+02  0.24694703553E+02  0.47464838878E+01  0.37518249174E+02  0.00000000000E+00 0. -1.
         21    1    1    2  502  501  0.70782092156E+01  0.33874009772E+02  0.19543506800E+03  0.19847522613E+03  0.00000000000E+00 0.  1.
<scales pt_clust_5="13000.00000" pt_clust_6="13000.00000" pt_clust_7="13000.00000" pt_clust_8="13000.00000" pt_clust_9="34.60563"></scales>
<clustering>
<clus scale="   34.606">  1  9  2 -1</clus>
<clus scale="   91.122">  7  8 -1 -1</clus>
<clus scale="   92.779">  5  6 -1 -1</clus>
<clus scale="  100.210">  2  7  1 -1</clus>
<clus scale="  100.210">  2  5  1 -1</clus>
</clustering>
</event>
<event>
 9    1  0.1434065E-005  0.1525106E+03  0.7546771E-02  0.1197431E+00
          2   -1    0    0  502    0  0.00000000000E+00  0.00000000000E+00  0.28799281211E+03  0.28799281211E+03  0.00000000000E+00 0. -1.
         -2   -1    0    0    0  501 -0.00000000000E+00 -0.00000000000E+00 -0.12951731474E+03  0.12951731474E+03  0.00000000000E+00 0.  1.
         23    2    1    2    0    0  0.10397237311E+03 -0.31411413280E+02  0.34716130732E+01  0.14190681955E+03  0.91260955959E+02 0.  0.
         23    2    1    2    0    0 -0.13218404699E+03 -0.23912017080E+02  0.13227375159E+03  0.20947283458E+03  0.91313286148E+02 0.  0.
        -11    1    3    3    0    0  0.59942566789E+02 -0.69391964762E+01  0.46083576959E+02  0.75927332537E+02  0.00000000000E+00 0. -1.
         11    1    3    3    0    0  0.44029806317E+02 -0.24472216804E+02 -0.42611963886E+02  0.65979487008E+02  0.00000000000E+00 0.  1.
        -13    1    4    4    0    0 -0.15715622939E+02  0.14177824609E+02 -0.85249044564E+01  0.22818096130E+02  0.00000000000E+00 0. -1.
         13    1    4    4    0    0 -0.11646842405E+03 -0.38089841690E+02  0.14079865605E+03  0.18665473845E+03  0.00000000000E+00 0.  1.
         21    1    1    2  502  501  0.28211673881E+02  0.55323430361E+02  0.22730132715E+02  0.66130472728E+02  0.00000000000E+00 0. -1.
<scales pt_clust_5="13000.00000" pt_clust_6="13000.00000" pt_clust_7="13000.00000" pt_clust_8="13000.00000" pt_clust_9="62.10137"></scales>
<clustering>
<clus scale="   62.101">  2  9  1 -1</clus>
<clus scale="   91.261">  5  6 -1 -1</clus>
<clus scale="   91.313">  7  8 -1 -1</clus>
<clus scale="  152.479">  2  5  1 -1</clus>
<clus scale="  152.511">  1  5  2 -1</clus>
</clustering>
</event>
<event>
 9    1  0.1434065E-005  0.2638822E+03  0.7546771E-02  0.1104939E+00
          2   -1    0    0  502    0  0.00000000000E+00  0.00000000000E+00  0.19996603480E+03  0.19996603480E+03  0.00000000000E+00 0. -1.
         -2   -1    0    0    0  501 -0.00000000000E+00 -0.00000000000E+00 -0.53904572658E+03  0.53904572658E+03  0.00000000000E+00 0.  1.
         23    2    1    2    0    0  0.36967908172E+02  0.25510926278E+03 -0.14969263784E+03  0.31206049581E+03  0.92339076369E+02 0.  0.
         23    2    1    2    0    0 -0.21619560647E+02 -0.23994725685E+03 -0.22036500704E+02  0.25821577475E+03  0.90264541738E+02 0.  0.
        -11    1    4    4    0    0 -0.10547692877E+01 -0.23247303481E+03 -0.31071918502E+02  0.23454272228E+03  0.00000000000E+00 0.  1.
         11    1    4    4    0    0 -0.20564791359E+02 -0.74742220358E+01  0.90354177982E+01  0.23673052475E+02  0.00000000000E+00 0. -1.
        -11    1    3    3    0    0 -0.27022647427E+02  0.33771059218E+02 -0.19835366373E+02  0.47583081803E+02  0.00000000000E+00 0.  1.
         11    1    3    3    0    0  0.63990555599E+02  0.22133820357E+03 -0.12985727147E+03  0.26447741400E+03  0.00000000000E+00 0. -1.
         21    1    1    2  502  501 -0.15348347525E+02 -0.15162005933E+02 -0.16735055323E+03  0.16873549082E+03  0.00000000000E+00 0. -1.
<scales pt_clust_5="13000.00000" pt_clust_6="13000.00000" pt_clust_7="13000.00000" pt_clust_8="13000.00000" pt_clust_9="21.57448"></scales>
<clustering>
<clus scale="   21.574">  2  9  1 -1</clus>
<clus scale="   90.265">  5  6 -1 -1</clus>
<clus scale="   92.339">  7  8 -1 -1</clus>
<clus scale="  263.163">  1  5  2 -1</clus>
<clus scale="  263.163">  1  5  2 -1</clus>
</clustering>
</event>
<event>
 9    1  0.1434065E-005  0.9445341E+02  0.7546771E-02  0.1293421E+00
          1   -1    0    0  502    0  0.00000000000E+00  0.00000000000E+00  0.39640961226E+03  0.39640961226E+03  0.00000000000E+00 0. -1.
         -1   -1    0    0    0  501 -0.00000000000E+00 -0.00000000000E+00 -0.37241271115E+02  0.37241271115E+02  0.00000000000E+00 0.  1.
         23    2    1    2    0    0  0.23051170105E+02  0.16237392600E+02  0.68736898255E+02  0.11863834374E+03  0.92494789380E+02 0.  0.
         23    2    1    2    0    0 -0.15200140235E+01 -0.18488127612E+02  0.26927043224E+03  0.28473969930E+03  0.90697350412E+02 0.  0.
        -11    1    4    4    0    0 -0.41477429060E+02 -0.27228674941E+02  0.11731782754E+03  0.12737837540E+03  0.00000000000E+00 0. -1.
         11    1    4    4    0    0  0.39957415036E+02  0.87405473291E+01  0.15195260470E+03  0.15736132390E+03  0.00000000000E+00 0.  1.
        -13    1    3    3    0    0  0.54591267993E+01  0.52602774900E+02  0.54143946712E+02  0.75686332704E+02  0.00000000000E+00 0. -1.
         13    1    3    3    0    0  0.17592043306E+02 -0.36365382300E+02  0.14592951543E+02  0.42952011038E+02  0.00000000000E+00 0.  1.
         21    1    1    2  502  501 -0.21531156082E+02  0.22507350116E+01  0.21161010650E+02  0.30272840336E+02  0.00000000000E+00 0.  1.
<scales pt_clust_5="13000.00000" pt_clust_6="13000.00000" pt_clust_7="13000.00000" pt_clust_8="13000.00000" pt_clust_9="21.64848"></scales>
<clustering>
<clus scale="   21.648">  2  9  1 -1</clus>
<clus scale="   90.697">  5  6 -1 -1</clus>
<clus scale="   92.495">  7  8 -1 -1</clus>
<clus scale="   92.694">  1  5  2 -1</clus>
<clus scale="   92.694">  1  5  2 -1</clus>
</clustering>
</event>
<event>
 9    1  0.1434065E-005  0.1014074E+03  0.7546771E-02  0.1278254E+00
          4   -1    0    0  502    0  0.00000000000E+00  0.00000000000E+00  0.35696843771E+03  0.35696843771E+03  0.00000000000E+00 0. -1.
         -4   -1    0    0    0  501 -0.00000000000E+00 -0.00000000000E+00 -0.62825116507E+02  0.62825116507E+02  0.00000000000E+00 0.  1.
         23    2    1    2    0    0 -0.43005644051E+02  0.43225549192E+01  0.11064185968E+03  0.15027777688E+03  0.92052263469E+02 0.  0.
         23    2    1    2    0    0  0.28935017533E+02 -0.37940604695E+02  0.20372364494E+03  0.22783733562E+03  0.90165421702E+02 0.  0.
        -11    1    3    3    0    0 -0.40010245476E+02 -0.21618040804E+02  0.11512591398E+03  0.12378261389E+03  0.00000000000E+00 0. -1.
         11    1    3    3    0    0 -0.29953985751E+01  0.25940595723E+02 -0.44840542996E+01  0.26495162994E+02  0.00000000000E+00 0.  1.
        -11    1    4    4    0    0 -0.24417407807E+02 -0.23576571031E+02  0.13732189960E+03  0.14145447542E+03  0.00000000000E+00 0. -1.
         11    1    4    4    0    0  0.53352425341E+02 -0.14364033664E+02  0.66401745343E+02  0.86382860206E+02  0.00000000000E+00 0.  1.
         21    1    1    2  502  501  0.14070626518E+02  0.33618049776E+02 -0.20222183420E+02  0.41678441713E+02  0.00000000000E+00 0.  1.
<scales pt_clust_5="13000.00000" pt_clust_6="13000.00000" pt_clust_7="13000.00000" pt_clust_8="13000.00000" pt_clust_9="36.44387"></scales>
<clustering>
<clus scale="   36.444">  2  9  1 -1</clus>
<clus scale="   90.165">  7  8 -1 -1</clus>
<clus scale="   92.052">  5  6 -1 -1</clus>
<clus scale="   99.698">  1  7  2 -1</clus>
<clus scale="   99.698">  1  5  2 -1</clus>
</clustering>
</event>
<event>
 9    1  0.1434065E-005  0.9470761E+02  0.7546771E-02  0.1292659E+00
         -1   -1    0    0    0  501 -0.00000000000E+00  0.00000000000E+00  0.33186875498E+03  0.33186875498E+03  0.00000000000E+00 0.  1.
          1   -1    0    0  502    0  0.00000000000E+00 -0.00000000000E+00 -0.47292433193E+02  0.47292433193E+02  0.00000000000E+00 0. -1.
         23    2    1    2    0    0  0.20757579066E+02  0.71743412639E+01  0.19217807520E+03  0.21399286202E+03  0.91532421286E+02 0.  0.
         23    2    1    2    0    0 -0.21154863339E+02  0.18429454121E+02  0.32038486418E+02  0.99601468515E+02  0.90037852575E+02 0.  0.
        -13    1    4    4    0    0 -0.10146605211E+02  0.55096739219E+02  0.18857298502E+02  0.59111775279E+02  0.00000000000E+00 0.  1.
         13    1    4    4    0    0 -0.11008258128E+02 -0.36667285098E+02  0.13181187916E+02  0.40489693236E+02  0.00000000000E+00 0. -1.
        -13    1    3    3    0    0  0.33976181045E+02 -0.24511061913E+02  0.16491301807E+03  0.17015133430E+03  0.00000000000E+00 0.  1.
         13    1    3    3    0    0 -0.13218601978E+02  0.31685403177E+02  0.27265057134E+02  0.43841527725E+02  0.00000000000E+00 0. -1.
         21    1    1    2  502  501  0.39728427310E+00 -0.25603795385E+02  0.60359760164E+02  0.65566857634E+02  0.00000000000E+00 0.  1.
<scales pt_clust_5="13000.00000" pt_clust_6="13000.00000" pt_clust_7="13000.00000" pt_clust_8="13000.00000" pt_clust_9="25.60688"></scales>
<clustering>
<clus scale="   25.607">  1  9  2 -1</clus>
<clus scale="   90.038">  5  6 -1 -1</clus>
<clus scale="   91.532">  7  8 -1 -1</clus>
<clus scale="   93.264">  2  5  1 -1</clus>
<clus scale="   93.264">  2  5  1 -1</clus>
</clustering>
</event>
<event>
 9    1  0.1434065E-005  0.9214988E+02  0.7546771E-02  0.1299080E+00
          1   -1    0    0  502    0  0.00000000000E+00  0.00000000000E+00  0.16000368851E+03  0.16000368851E+03  0.00000000000E+00 0. -1.
         -1   -1    0    0    0  501 -0.00000000000E+00 -0.00000000000E+00 -0.12760397836E+03  0.12760397836E+03  0.00000000000E+00 0.  1.
         23    2    1    2    0    0  0.38892582018E+01 -0.17581940880E+02 -0.78440386261E+02  0.12224295665E+03  0.92011930097E+02 0.  0.
         23    2    1    2    0    0  0.61399495873E+01 -0.90854109337E+00  0.11276155352E+03  0.14424185695E+03  0.89733053640E+02 0.  0.
        -11    1    3    3    0    0 -0.33677779301E+02  0.19689303471E+02 -0.21640212806E+02  0.44611212717E+02  0.00000000000E+00 0. -1.
         11    1    3    3    0    0  0.37567037502E+02 -0.37271244351E+02 -0.56800173456E+02  0.77631743937E+02  0.00000000000E+00 0.  1.
        -13    1    4    4    0    0 -0.33700146508E+02 -0.21120362810E+02  0.78296178035E+02  0.87818341449E+02  0.00000000000E+00 0. -1.
         13    1    4    4    0    0  0.39840096095E+02  0.20211821717E+02  0.34465375487E+02  0.56423515500E+02  0.00000000000E+00 0.  1.
         21    1    1    2  502  501 -0.10029207789E+02  0.18490481973E+02 -0.19214571142E+01  0.21122853262E+02  0.00000000000E+00 0.  1.
<scales pt_clust_5="13000.00000" pt_clust_6="13000.00000" pt_clust_7="13000.00000" pt_clust_8="13000.00000" pt_clust_9="21.03528"></scales>
<clustering>
<clus scale="   21.035">  2  9  1 -1</clus>
<clus scale="   89.733">  7  8 -1 -1</clus>
<clus scale="   89.874">  1  7  2 -1</clus>
<clus scale="   92.012">  5  6 -1 -1</clus>
<clus scale="   89.874">  1  5  2 -1</clus>
</clustering>
</event>
<event>
 9    1  0.1434065E-005  0.1211950E+03  0.7546771E-02  0.1242874E+00
         -1   -1    0    0    0  501 -0.00000000000E+00  0.00000000000E+00  0.10092125830E+03  0.10092125830E+03  0.00000000000E+00 0.  1.
          1   -1    0    0  502    0  0.00000000000E+00 -0.00000000000E+00 -0.22393439439E+03  0.22393439439E+03  0.00000000000E+00 0. -1.
         23    2    1    2    0    0  0.62593248147E+02  0.16736643113E+02 -0.22876639035E+02  0.11870285580E+03  0.96793581533E+02 0.  0.
         23    2    1    2    0    0 -0.61787930487E+02 -0.49830624903E+02 -0.11751048778E+03  0.16876676044E+03  0.91502268591E+02 0.  0.
        -11    1    4    4    0    0 -0.71658690493E+02 -0.67913528354E+02 -0.10717545489E+03  0.14571819855E+03  0.00000000000E+00 0. -1.
         11    1    4    4    0    0  0.98707600061E+01  0.18082903451E+02 -0.10335032892E+02  0.23048561890E+02  0.00000000000E+00 0.  1.
        -13    1    3    3    0    0  0.27414125883E+02  0.47201273496E+02  0.17260098067E+02  0.57248628830E+02  0.00000000000E+00 0.  1.
         13    1    3    3    0    0  0.35179122264E+02 -0.30464630384E+02 -0.40136737102E+02  0.61454226973E+02  0.00000000000E+00 0. -1.
         21    1    1    2  502  501 -0.80531765996E+00  0.33093981790E+02  0.17373990729E+02  0.37386036445E+02  0.00000000000E+00 0.  1.
<scales pt_clust_5="13000.00000" pt_clust_6="13000.00000" pt_clust_7="13000.00000" pt_clust_8="13000.00000" pt_clust_9="33.10378"></scales>
<clustering>
<clus scale="   33.104">  1  9  2 -1</clus>
<clus scale="   91.502">  5  6 -1 -1</clus>
<clus scale="   96.794">  7  8 -1 -1</clus>
<clus scale="  117.012">  2  5  1 -1</clus>
<clus scale="  117.012">  2  5  1 -1</clus>
</clustering>
</event>
<event>
 9    1  0.1511123E-005  0.1689102E+03  0.7546771E-02  0.1179944E+00
         -3   -1    0    0    0  501 -0.00000000000E+00  0.00000000000E+00  0.29040865568E+03  0.29040865568E+03  0.00000000000E+00 0.  1.
          3   -1    0    0  502    0  0.00000000000E+00 -0.00000000000E+00 -0.29423298703E+03  0.29423298703E+03  0.00000000000E+00 0. -1.
         23    2    1    2    0    0 -0.11903433036E+03 -0.51163947607E+01  0.21248189719E+03  0.25784271656E+03  0.84492369787E+02 0.  0.
         23    2    1    2    0    0  0.14293773809E+03  0.23867422752E+02 -0.23524593649E+03  0.29099827686E+03  0.91315363797E+02 0.  0.
        -11    1    3    3    0    0 -0.28484942567E+02 -0.37854734162E+02  0.49310105217E+02  0.68380255396E+02  0.00000000000E+00 0. -1.
         11    1    3    3    0    0 -0.90549387789E+02  0.32738339401E+02  0.16317179197E+03  0.18946246116E+03  0.00000000000E+00 0.  1.
        -13    1    4    4    0    0  0.51351222604E+02  0.49545313246E+02 -0.67845503157E+02  0.98461659677E+02  0.00000000000E+00 0.  1.
         13    1    4    4    0    0  0.91586515481E+02 -0.25677890495E+02 -0.16740043333E+03  0.19253661719E+03  0.00000000000E+00 0. -1.
         21    1    1    2  502  501 -0.23903407730E+02 -0.18751027991E+02  0.18939707960E+02  0.35800649288E+02  0.00000000000E+00 0.  1.
<scales pt_clust_5="13000.00000" pt_clust_6="13000.00000" pt_clust_7="13000.00000" pt_clust_8="13000.00000" pt_clust_9="30.38049"></scales>
<clustering>
<clus scale="   30.380">  1  9  2 -1</clus>
<clus scale="   84.492">  5  6 -1 -1</clus>
<clus scale="   91.315">  7  8 -1 -1</clus>
<clus scale="  165.321">  1  5  2 -1</clus>
<clus scale="  168.910">  2  5  1 -1</clus>
</clustering>
</event>
<event>
 9    1  0.1434065E-005  0.9989001E+02  0.7546771E-02  0.1282862E+00
         -1   -1    0    0    0  501 -0.00000000000E+00  0.00000000000E+00  0.20123198476E+03  0.20123198476E+03  0.00000000000E+00 0.  1.
          1   -1    0    0  502    0  0.00000000000E+00 -0.00000000000E+00 -0.12424064693E+03  0.12424064693E+03  0.00000000000E+00 0. -1.
         23    2    1    2    0    0  0.12945960721E+02  0.58502089163E+02  0.54155193036E+02  0.12113863328E+03  0.90286716661E+02 0.  0.
         23    2    1    2    0    0 -0.35840684219E+02  0.33936684784E+02  0.25239872321E+01  0.10696008487E+03  0.94856923962E+02 0.  0.
        -11    1    3    3    0    0 -0.32380625154E+02  0.12023932242E+01  0.30084243016E+02  0.44215521174E+02  0.00000000000E+00 0.  1.
         11    1    3    3    0    0  0.45326585874E+02  0.57299695939E+02  0.24070950020E+02  0.76923112109E+02  0.00000000000E+00 0. -1.
        -13    1    4    4    0    0 -0.56940193936E+02  0.36722099117E+02 -0.24954077406E+02  0.72203907292E+02  0.00000000000E+00 0.  1.
         13    1    4    4    0    0  0.21099509717E+02 -0.27854143331E+01  0.27478064638E+02  0.34756177574E+02  0.00000000000E+00 0. -1.
         21    1    1    2  502  501  0.22894723499E+02 -0.92438773947E+02  0.20312157560E+02  0.97373913538E+02  0.00000000000E+00 0. -1.
<scales pt_clust_5="13000.00000" pt_clust_6="13000.00000" pt_clust_7="13000.00000" pt_clust_8="13000.00000" pt_clust_9="95.23180"></scales>
<clustering>
<clus scale="   90.287">  5  6 -1 -1</clus>
<clus scale="   94.857">  7  8 -1 -1</clus>
<clus scale="   95.232">  2  9  1 -1</clus>
<clus scale="   95.561">  1  5  2 -1</clus>
<clus scale="   95.232">  2  5  1 -1</clus>
</clustering>
</event>
<event>
 9    1  0.1434065E-005  0.1399918E+03  0.7546771E-02  0.1215782E+00
         -2   -1    0    0    0  501 -0.00000000000E+00  0.00000000000E+00  0.54506743812E+02  0.54506743812E+02  0.00000000000E+00 0.  1.
          2   -1    0    0  502    0  0.00000000000E+00 -0.00000000000E+00 -0.58315616445E+03  0.58315616445E+03  0.00000000000E+00 0. -1.
         23    2    1    2    0    0  0.29882614399E+02  0.77424496778E+02 -0.71854664107E+02  0.13540788356E+03  0.79275966286E+02 0.  0.
         23    2    1    2    0    0 -0.32215354609E+02 -0.11111499541E+03 -0.44125097793E+03  0.46507841340E+03  0.90615306702E+02 0.  0.
        -11    1    4    4    0    0 -0.59663117949E+02 -0.96182473887E+02 -0.37714343626E+03  0.39376125690E+03  0.00000000000E+00 0. -1.
         11    1    4    4    0    0  0.27447763340E+02 -0.14932521524E+02 -0.64107541676E+02  0.71317156500E+02  0.00000000000E+00 0.  1.
        -13    1    3    3    0    0  0.38755992721E+02  0.19667839532E+02 -0.62656442934E+02  0.76254053825E+02  0.00000000000E+00 0.  1.
         13    1    3    3    0    0 -0.88733783215E+01  0.57756657246E+02 -0.91982211729E+01  0.59153829731E+02  0.00000000000E+00 0. -1.
         21    1    1    2  502  501  0.23327402098E+01  0.33690498633E+02 -0.15543778602E+02  0.37176611307E+02  0.00000000000E+00 0.  1.
<scales pt_clust_5="13000.00000" pt_clust_6="13000.00000" pt_clust_7="13000.00000" pt_clust_8="13000.00000" pt_clust_9="33.77116"></scales>
<clustering>
<clus scale="   33.771">  1  9  2 -1</clus>
<clus scale="   79.276">  7  8 -1 -1</clus>
<clus scale="   90.615">  5  6 -1 -1</clus>
<clus scale="  132.933">  1  7  2 -1</clus>
<clus scale="  139.992">  2  5  1 -1</clus>
</clustering>
</event>
<event>
 9    1  0.2122384E-005  0.1826275E+03  0.7546771E-02  0.1165355E+00
          1   -1    0    0  502    0  0.00000000000E+00  0.00000000000E+00  0.63259085049E+03  0.63259085049E+03  0.00000000000E+00 0. -1.
         -1   -1    0    0    0  501 -0.00000000000E+00 -0.00000000000E+00 -0.16583220416E+03  0.16583220416E+03  0.00000000000E+00 0.  1.
         23    2    1    2    0    0  0.13694735750E+03  0.89155686305E+02 -0.79188526007E+02  0.20347834876E+03  0.91811222816E+02 0.  0.
         23    2    1    2    0    0 -0.78761912451E+02 -0.84729184697E+02  0.49826533653E+03  0.51958757352E+03  0.91216376687E+02 0.  0.
        -11    1    3    3    0    0  0.88925159424E+02  0.70535230359E+02 -0.55809449963E+01  0.11364000021E+03  0.00000000000E+00 0.  1.
         11    1    3    3    0    0  0.48022198077E+02  0.18620455947E+02 -0.73607581010E+02  0.89838348549E+02  0.00000000000E+00 0. -1.
        -13    1    4    4    0    0 -0.94331201343E+02 -0.57515601564E+02  0.43720165727E+03  0.45094535045E+03  0.00000000000E+00 0. -1.
         13    1    4    4    0    0  0.15569288892E+02 -0.27213583133E+02  0.61063679262E+02  0.68642223074E+02  0.00000000000E+00 0.  1.
         21    1    1    2  502  501 -0.58185445050E+02 -0.44265016083E+01  0.47681835803E+02  0.75357132361E+02  0.00000000000E+00 0. -1.
<scales pt_clust_5="13000.00000" pt_clust_6="13000.00000" pt_clust_7="13000.00000" pt_clust_8="13000.00000" pt_clust_9="58.35358"></scales>
<clustering>
<clus scale="   58.354">  1  9  2 -1</clus>
<clus scale="   91.216">  7  8 -1 -1</clus>
<clus scale="   91.811">  5  6 -1 -1</clus>
<clus scale="  182.329">  1  7  2 -1</clus>
<clus scale="   58.354">  1  5  2 -1</clus>
</clustering>
</event>
<event>
 9    1  0.1434065E-005  0.1273024E+03  0.7546771E-02  0.1231630E+00
         -1   -1    0    0    0  501 -0.00000000000E+00  0.00000000000E+00  0.58190088401E+02  0.58190088401E+02  0.00000000000E+00 0.  1.
          1   -1    0    0  502    0  0.00000000000E+00 -0.00000000000E+00 -0.62691829866E+03  0.62691829866E+03  0.00000000000E+00 0. -1.
         23    2    1    2    0    0  0.46075621289E+00  0.10248349242E+03 -0.62368452645E+02  0.15073368132E+03  0.91256453376E+02 0.  0.
         23    2    1    2    0    0  0.17450396675E+02 -0.84834267716E+02 -0.48622218184E+03  0.50215939124E+03  0.90833225053E+02 0.  0.
        -11    1    4    4    0    0 -0.20336680133E+02 -0.84112768143E+02 -0.36825157840E+03  0.37828265004E+03  0.00000000000E+00 0. -1.
         11    1    4    4    0    0  0.37787076808E+02 -0.72149957278E+00 -0.11797060344E+03  0.12387674120E+03  0.00000000000E+00 0.  1.
        -13    1    3    3    0    0  0.34151306662E+02  0.35492439737E+02  0.55440006589E+01  0.49565723726E+02  0.00000000000E+00 0.  1.
         13    1    3    3    0    0 -0.33690550449E+02  0.66991052687E+02 -0.67912453304E+02  0.10116795759E+03  0.00000000000E+00 0. -1.
         21    1    1    2  502  501 -0.17911152888E+02 -0.17649224709E+02 -0.20137575780E+02  0.32215314509E+02  0.00000000000E+00 0. -1.
<scales pt_clust_5="13000.00000" pt_clust_6="13000.00000" pt_clust_7="13000.00000" pt_clust_8="13000.00000" pt_clust_9="25.14567"></scales>
<clustering>
<clus scale="   25.146">  1  9  2 -1</clus>
<clus scale="   90.833">  5  6 -1 -1</clus>
<clus scale="   91.256">  7  8 -1 -1</clus>
<clus scale="  126.999">  2  5  1 -1</clus>
<clus scale="  126.999">  2  5  1 -1</clus>
</clustering>
</event>
<event>
 9    1  0.1434065E-005  0.1524056E+03  0.7546771E-02  0.1198157E+00
         -2   -1    0    0    0  501 -0.00000000000E+00  0.00000000000E+00  0.27190616310E+03  0.27190616310E+03  0.00000000000E+00 0.  1.
          2   -1    0    0  502    0  0.00000000000E+00 -0.00000000000E+00 -0.35762979957E+03  0.35762979957E+03  0.00000000000E+00 0. -1.
         23    2    1    2    0    0 -0.87474012922E+02  0.27815820885E+02  0.20950621849E+03  0.24587347790E+03  0.90196944066E+02 0.  0.
         23    2    1    2    0    0  0.10263609505E+03 -0.67665971047E+02 -0.30321009865E+03  0.34028498494E+03  0.93512862254E+02 0.  0.
        -11    1    4    4    0    0  0.82192612549E+02 -0.92657651246E+01 -0.11145180238E+03  0.13879115323E+03  0.00000000000E+00 0. -1.
         11    1    4    4    0    0  0.20443482498E+02 -0.58400205923E+02 -0.19175829627E+03  0.20149383171E+03  0.00000000000E+00 0.  1.
        -13    1    3    3    0    0 -0.67051004596E+02  0.18107057964E+01  0.20076203285E+03  0.21167075780E+03  0.00000000000E+00 0.  1.
         13    1    3    3    0    0 -0.20423008326E+02  0.26005115088E+02  0.87441856447E+01  0.34202720103E+02  0.00000000000E+00 0. -1.
         21    1    1    2  502  501 -0.15162082126E+02  0.39850150163E+02  0.79802436922E+01  0.43377499833E+02  0.00000000000E+00 0.  1.
<scales pt_clust_5="13000.00000" pt_clust_6="13000.00000" pt_clust_7="13000.00000" pt_clust_8="13000.00000" pt_clust_9="42.63711"></scales>
<clustering>
<clus scale="   42.637">  1  9  2 -1</clus>
<clus scale="   90.197">  7  8 -1 -1</clus>
<clus scale="   93.513">  5  6 -1 -1</clus>
<clus scale="  150.394">  1  7  2 -1</clus>
<clus scale="  152.406">  2  5  1 -1</clus>
</clustering>
</event>
<event>
 9    1  0.1434065E-005  0.1018486E+03  0.7546771E-02  0.1277018E+00
         -1   -1    0    0    0  501 -0.00000000000E+00  0.00000000000E+00  0.49027055773E+02  0.49027055773E+02  0.00000000000E+00 0.  1.
          1   -1    0    0  502    0  0.00000000000E+00 -0.00000000000E+00 -0.65148747902E+03  0.65148747902E+03  0.00000000000E+00 0. -1.
         23    2    1    2    0    0 -0.12044575961E+02 -0.34433680006E+02 -0.37606170317E+02  0.10451315785E+03  0.90432438812E+02 0.  0.
         23    2    1    2    0    0  0.32480955868E+02  0.32539384043E+02 -0.56622350295E+03  0.57543176764E+03  0.91645184899E+02 0.  0.
        -13    1    4    4    0    0 -0.24592495097E+02 -0.13837516681E+02 -0.12728659938E+03  0.13037693839E+03  0.00000000000E+00 0.  1.
         13    1    4    4    0    0  0.57073450965E+02  0.46376900724E+02 -0.43893690357E+03  0.44505482925E+03  0.00000000000E+00 0. -1.
        -13    1    3    3    0    0 -0.43043115260E+02 -0.22489477148E+02 -0.49388503601E+02  0.69265508311E+02  0.00000000000E+00 0. -1.
         13    1    3    3    0    0  0.30998539299E+02 -0.11944202858E+02  0.11782333284E+02  0.35247649541E+02  0.00000000000E+00 0.  1.
         21    1    1    2  502  501 -0.20436379907E+02  0.18942959631E+01  0.13692500213E+01  0.20569609294E+02  0.00000000000E+00 0.  1.
<scales pt_clust_5="13000.00000" pt_clust_6="13000.00000" pt_clust_7="13000.00000" pt_clust_8="13000.00000" pt_clust_9="20.52399"></scales>
<clustering>
<clus scale="   20.524">  1  9  2 -1</clus>
<clus scale="   90.432">  7  8 -1 -1</clus>
<clus scale="   91.645">  5  6 -1 -1</clus>
<clus scale="  100.759">  1  7  2 -1</clus>
<clus scale="  101.849">  2  5  1 -1</clus>
</clustering>
</event>
<event>
 9    1  0.1434065E-005  0.1057916E+03  0.7546771E-02  0.1269049E+00
         -1   -1    0    0    0  501 -0.00000000000E+00  0.00000000000E+00  0.10121887727E+03  0.10121887727E+03  0.00000000000E+00 0.  1.
          1   -1    0    0  502    0  0.00000000000E+00 -0.00000000000E+00 -0.19204590460E+03  0.19204590460E+03  0.00000000000E+00 0. -1.
         23    2    1    2    0    0  0.29972611794E+01  0.33217841391E+02 -0.22150040980E+02  0.10023996571E+03  0.91896778234E+02 0.  0.
         23    2    1    2    0    0 -0.45887416148E+02 -0.70348448428E+02 -0.47029101758E+02  0.13230514653E+03  0.90765391141E+02 0.  0.
        -11    1    3    3    0    0  0.36931075360E+02  0.44934923670E+02 -0.20552008104E+00  0.58164369944E+02  0.00000000000E+00 0.  1.
         11    1    3    3    0    0 -0.33933814181E+02 -0.11717082279E+02 -0.21944520899E+02  0.42075595771E+02  0.00000000000E+00 0. -1.
        -13    1    4    4    0    0 -0.35573812090E+02 -0.32366813152E+02 -0.71345368319E+02  0.86042247070E+02  0.00000000000E+00 0. -1.
         13    1    4    4    0    0 -0.10313604058E+02 -0.37981635277E+02  0.24316266561E+02  0.46262899459E+02  0.00000000000E+00 0.  1.
         21    1    1    2  502  501  0.42890154969E+02  0.37130607037E+02 -0.21647884591E+02  0.60719669626E+02  0.00000000000E+00 0.  1.
<scales pt_clust_5="13000.00000" pt_clust_6="13000.00000" pt_clust_7="13000.00000" pt_clust_8="13000.00000" pt_clust_9="56.72960"></scales>
<clustering>
<clus scale="   56.730">  2  9  1 -1</clus>
<clus scale="   90.765">  7  8 -1 -1</clus>
<clus scale="   91.897">  5  6 -1 -1</clus>
<clus scale="  104.810">  2  7  1 -1</clus>
<clus scale="   56.730">  2  5  1 -1</clus>
</clustering>
</event>
<event>
 9    1  0.1434065E-005  0.1318300E+03  0.7546771E-02  0.1226124E+00
         -2   -1    0    0    0  501 -0.00000000000E+00  0.00000000000E+00  0.45384498953E+02  0.45384498953E+02  0.00000000000E+00 0. -1.
          2   -1    0    0  502    0  0.00000000000E+00 -0.00000000000E+00 -0.92760091174E+03  0.92760091174E+03  0.00000000000E+00 0.  1.
         23    2    1    2    0    0  0.12619101023E+02  0.10749398991E+03 -0.18405193248E+03  0.23362895221E+03  0.94832346203E+02 0.  0.
         23    2    1    2    0    0 -0.75680228426E+01 -0.87537813971E+02 -0.70619110651E+03  0.71726145730E+03  0.89654756526E+02 0.  0.
        -13    1    3    3    0    0  0.92767025046E+01  0.85955166462E+02 -0.54373377305E+02  0.10213134686E+03  0.00000000000E+00 0. -1.
         13    1    3    3    0    0  0.33423985184E+01  0.21538823448E+02 -0.12967855517E+03  0.13149760536E+03  0.00000000000E+00 0.  1.
        -13    1    4    4    0    0 -0.25755158788E+02  0.89451395112E+01 -0.14287209647E+03  0.14545026529E+03  0.00000000000E+00 0. -1.
         13    1    4    4    0    0  0.18187135945E+02 -0.96482953482E+02 -0.56331901005E+03  0.57181119201E+03  0.00000000000E+00 0.  1.
         21    1    1    2  502  501 -0.50510781803E+01 -0.19956175939E+02  0.80266262031E+01  0.22095001179E+02  0.00000000000E+00 0. -1.
<scales pt_clust_5="13000.00000" pt_clust_6="13000.00000" pt_clust_7="13000.00000" pt_clust_8="13000.00000" pt_clust_9="20.58549"></scales>
<clustering>
<clus scale="   20.585">  1  9  2 -1</clus>
<clus scale="   89.655">  7  8 -1 -1</clus>
<clus scale="   94.832">  5  6 -1 -1</clus>
<clus scale="  128.156">  2  7  1 -1</clus>
<clus scale="  128.156">  2  5  1 -1</clus>
</clustering>
</event>
<event>
 9    1  0.1434065E-005  0.9998744E+02  0.7546771E-02  0.1281992E+00
         -1   -1    0    0    0  501 -0.00000000000E+00  0.00000000000E+00  0.38751627254E+02  0.38751627254E+02  0.00000000000E+00 0.  1.
          1   -1    0    0  502    0  0.00000000000E+00 -0.00000000000E+00 -0.34695489523E+03  0.34695489523E+03  0.00000000000E+00 0. -1.
         23    2    1    2    0    0 -0.23172716073E+02  0.74702414994E+01 -0.10260447875E+03  0.13779778376E+03  0.88700455871E+02 0.  0.
         23    2    1    2    0    0  0.49965482358E+02 -0.65355004708E+01 -0.18949922185E+03  0.21663699212E+03  0.92099777840E+02 0.  0.
        -11    1    3    3    0    0 -0.17818809049E+02 -0.23709569026E+02  0.79220229741E+00  0.29669533259E+02  0.00000000000E+00 0.  1.
         11    1    3    3    0    0 -0.53539070240E+01  0.31179810526E+02 -0.10339668105E+03  0.10812825050E+03  0.00000000000E+00 0. -1.
        -13    1    4    4    0    0  0.75468409276E+02 -0.35300222831E+01 -0.16340989400E+03  0.18002981785E+03  0.00000000000E+00 0. -1.
         13    1    4    4    0    0 -0.25502926918E+02 -0.30054781878E+01 -0.26089327845E+02  0.36607174269E+02  0.00000000000E+00 0.  1.
         21    1    1    2  502  501 -0.26792766284E+02 -0.93474102857E+00 -0.16099567371E+02  0.31271746601E+02  0.00000000000E+00 0.  1.
<scales pt_clust_5="13000.00000" pt_clust_6="13000.00000" pt_clust_7="13000.00000" pt_clust_8="13000.00000" pt_clust_9="26.80907"></scales>
<clustering>
<clus scale="   26.809">  1  9  2 -1</clus>
<clus scale="   88.700">  5  6 -1 -1</clus>
<clus scale="   92.100">  7  8 -1 -1</clus>
<clus scale="   96.865">  1  5  2 -1</clus>
<clus scale="   99.987">  2  5  1 -1</clus>
</clustering>
</event>
<event>
 9    1  0.1434065E-005  0.9777158E+02  0.7546771E-02  0.1285852E+00
         -1   -1    0    0    0  501 -0.00000000000E+00  0.00000000000E+00  0.19931560377E+02  0.19931560377E+02  0.00000000000E+00 0.  1.
          1   -1    0    0  502    0  0.00000000000E+00 -0.00000000000E+00 -0.72547081687E+03  0.72547081687E+03  0.00000000000E+00 0. -1.
         23    2    1    2    0    0  0.17391821408E+02 -0.33480380593E+02 -0.21675873724E+03  0.23818924988E+03  0.91248875347E+02 0.  0.
         23    2    1    2    0    0  0.29177116838E+01  0.35611390815E+02 -0.46882533625E+03  0.47866093537E+03  0.89679490098E+02 0.  0.
        -11    1    4    4    0    0 -0.20473723328E+00  0.64921171600E+02 -0.36517296143E+03  0.37089903235E+03  0.00000000000E+00 0. -1.
         11    1    4    4    0    0  0.31224489171E+01 -0.29309780786E+02 -0.10365237482E+03  0.10776190302E+03  0.00000000000E+00 0.  1.
        -13    1    3    3    0    0 -0.36293235899E+02 -0.18461935271E+01 -0.84763550318E+02  0.92225088046E+02  0.00000000000E+00 0. -1.
         13    1    3    3    0    0  0.53685057307E+02 -0.31634187066E+02 -0.13199518692E+03  0.14596416183E+03  0.00000000000E+00 0.  1.
         21    1    1    2  502  501 -0.20309533092E+02 -0.21310102218E+01 -0.19955183001E+02  0.28552191993E+02  0.00000000000E+00 0.  1.
<scales pt_clust_5="13000.00000" pt_clust_6="13000.00000" pt_clust_7="13000.00000" pt_clust_8="13000.00000" pt_clust_9="20.42103"></scales>
<clustering>
<clus scale="   20.421">  1  9  2 -1</clus>
<clus scale="   89.679">  5  6 -1 -1</clus>
<clus scale="   91.249">  7  8 -1 -1</clus>
<clus scale="   96.309">  2  5  1 -1</clus>
<clus scale="   96.309">  2  5  1 -1</clus>
</clustering>
</event>
<event>
 9    1  0.1434065E-005  0.1640336E+03  0.7546771E-02  0.1184675E+00
         -2   -1    0    0    0  501 -0.00000000000E+00  0.00000000000E+00  0.61773126809E+03  0.61773126809E+03  0.00000000000E+00 0.  1.
          2   -1    0    0  502    0  0.00000000000E+00 -0.00000000000E+00 -0.83535509517E+02  0.83535509517E+02  0.00000000000E+00 0. -1.
         23    2    1    2    0    0  0.57488537146E+02 -0.15261904421E+03  0.28811664346E+03  0.34344764797E+03  0.91365103316E+02 0.  0.
         23    2    1    2    0    0 -0.67785283686E+02  0.10788397772E+03  0.60133951024E+02  0.16629144701E+03  0.88334341840E+02 0.  0.
        -11    1    4    4    0    0 -0.14396231477E+02  0.14505999510E+02 -0.22688940984E+02  0.30536266069E+02  0.00000000000E+00 0. -1.
         11    1    4    4    0    0 -0.53389052209E+02  0.93377978212E+02  0.82822892008E+02  0.13575518094E+03  0.00000000000E+00 0.  1.
        -13    1    3    3    0    0  0.74386988568E+02 -0.10391193849E+03  0.24464268129E+03  0.27600934139E+03  0.00000000000E+00 0. -1.
         13    1    3    3    0    0 -0.16898451422E+02 -0.48707105715E+02  0.43473962170E+02  0.67438306580E+02  0.00000000000E+00 0.  1.
         21    1    1    2  502  501  0.10296746540E+02  0.44735066487E+02  0.18594516410E+03  0.19152768263E+03  0.00000000000E+00 0.  1.
<scales pt_clust_5="13000.00000" pt_clust_6="13000.00000" pt_clust_7="13000.00000" pt_clust_8="13000.00000" pt_clust_9="45.90478"></scales>
<clustering>
<clus scale="   45.905">  1  9  2 -1</clus>
<clus scale="   88.334">  5  6 -1 -1</clus>
<clus scale="   91.365">  7  8 -1 -1</clus>
<clus scale="  162.365">  2  5  1 -1</clus>
<clus scale="  162.365">  2  5  1 -1</clus>
</clustering>
</event>
<event>
 9    1  0.1434065E-005  0.1709502E+03  0.7546771E-02  0.1178201E+00
         -1   -1    0    0    0  501 -0.00000000000E+00  0.00000000000E+00  0.11823849459E+03  0.11823849459E+03  0.00000000000E+00 0.  1.
          1   -1    0    0  502    0  0.00000000000E+00 -0.00000000000E+00 -0.42181195578E+03  0.42181195578E+03  0.00000000000E+00 0. -1.
         23    2    1    2    0    0  0.85060588921E+02 -0.14369581814E+03 -0.22080428780E+02  0.18680503171E+03  0.80776126427E+02 0.  0.
         23    2    1    2    0    0 -0.60210582502E+02  0.12505485722E+03 -0.27556099014E+03  0.32161952153E+03  0.90781197318E+02 0.  0.
        -11    1    3    3    0    0  0.47045104591E+02 -0.13178970011E+03 -0.36198427854E+02  0.14454097378E+03  0.00000000000E+00 0.  1.
         11    1    3    3    0    0  0.38015484331E+02 -0.11906118026E+02  0.14117999074E+02  0.42264057936E+02  0.00000000000E+00 0. -1.
        -13    1    4    4    0    0  0.22887898530E+02  0.44012311141E+02 -0.76048883829E+02  0.90798525114E+02  0.00000000000E+00 0.  1.
         13    1    4    4    0    0 -0.83098481032E+02  0.81042546075E+02 -0.19951210631E+03  0.23082099642E+03  0.00000000000E+00 0. -1.
         21    1    1    2  502  501 -0.24850006419E+02  0.18640960921E+02 -0.59320422708E+01  0.31625897119E+02  0.00000000000E+00 0.  1.
<scales pt_clust_5="13000.00000" pt_clust_6="13000.00000" pt_clust_7="13000.00000" pt_clust_8="13000.00000" pt_clust_9="31.06458"></scales>
<clustering>
<clus scale="   31.065">  1  9  2 -1</clus>
<clus scale="   80.776">  5  6 -1 -1</clus>
<clus scale="   90.781">  7  8 -1 -1</clus>
<clus scale="  165.854">  1  5  2 -1</clus>
<clus scale="  170.950">  2  5  1 -1</clus>
</clustering>
</event>
<event>
 9    1  0.1434065E-005  0.1003113E+03  0.7546771E-02  0.1281094E+00
          1   -1    0    0  502    0  0.00000000000E+00  0.00000000000E+00  0.77398307749E+02  0.77398307749E+02  0.00000000000E+00 0. -1.
         -1   -1    0    0    0  501 -0.00000000000E+00 -0.00000000000E+00 -0.19780753394E+03  0.19780753394E+03  0.00000000000E+00 0.  1.
         23    2    1    2    0    0  0.18400024229E+02 -0.50520234038E+02 -0.69162806147E+02  0.12608382541E+03  0.90679558542E+02 0.  0.
         23    2    1    2    0    0 -0.70116363069E+01  0.25594236243E+02 -0.76157262275E+01  0.97598835199E+02  0.93612527867E+02 0.  0.
        -11    1    3    3    0    0 -0.36527177291E+02 -0.27018566962E+02 -0.34141000440E+02  0.56831730157E+02  0.00000000000E+00 0. -1.
         11    1    3    3    0    0  0.54927201520E+02 -0.23501667076E+02 -0.35021805706E+02  0.69252095254E+02  0.00000000000E+00 0.  1.
        -11    1    4    4    0    0  0.24228720608E+02  0.16359212828E+02  0.33940841026E+02  0.44795484552E+02  0.00000000000E+00 0. -1.
         11    1    4    4    0    0 -0.31240356915E+02  0.92350234154E+01 -0.41556567254E+02  0.52803350647E+02  0.00000000000E+00 0.  1.
         21    1    1    2  502  501 -0.11388387922E+02  0.24925997795E+02 -0.43630693817E+02  0.51523181079E+02  0.00000000000E+00 0. -1.
<scales pt_clust_5="13000.00000" pt_clust_6="13000.00000" pt_clust_7="13000.00000" pt_clust_8="13000.00000" pt_clust_9="27.40439"></scales>
<clustering>
<clus scale="   27.404">  2  9  1 -1</clus>
<clus scale="   90.680">  5  6 -1 -1</clus>
<clus scale="   93.613">  7  8 -1 -1</clus>
<clus scale="   97.580">  2  5  1 -1</clus>
<clus scale="  100.311">  1  5  2 -1</clus>
</clustering>
</event>
<event>
 9    1  0.1434065E-005  0.1062444E+03  0.7546771E-02  0.1268102E+00
         -1   -1    0    0    0  501 -0.00000000000E+00  0.00000000000E+00  0.39980826232E+02  0.39980826232E+02  0.00000000000E+00 0.  1.
          1   -1    0    0  502    0  0.00000000000E+00 -0.00000000000E+00 -0.47167663564E+03  0.47167663564E+03  0.00000000000E+00 0. -1.
         23    2    1    2    0    0 -0.66688322070E+02  0.61976864603E+01 -0.20675349004E+03  0.23439936110E+03  0.87808377848E+02 0.  0.
         23    2    1    2    0    0  0.50739296600E+02  0.17005380556E+02 -0.22644587653E+03  0.24906210076E+03  0.88828688218E+02 0.  0.
        -13    1    3    3    0    0  0.35542115859E+01  0.32866422947E+02 -0.86517433112E+02  0.92618035013E+02  0.00000000000E+00 0.  1.
         13    1    3    3    0    0 -0.70242533656E+02 -0.26668736487E+02 -0.12023605693E+03  0.14178132608E+03  0.00000000000E+00 0. -1.
        -13    1    4    4    0    0  0.28766417290E+02  0.49622227842E+02 -0.87230768757E+02  0.10439865554E+03  0.00000000000E+00 0.  1.
         13    1    4    4    0    0  0.21972879310E+02 -0.32616847286E+02 -0.13921510777E+03  0.14466344523E+03  0.00000000000E+00 0. -1.
         21    1    1    2  502  501  0.15949025471E+02 -0.23203067016E+02  0.15035571671E+01  0.28196000010E+02  0.00000000000E+00 0. -1.
<scales pt_clust_5="13000.00000" pt_clust_6="13000.00000" pt_clust_7="13000.00000" pt_clust_8="13000.00000" pt_clust_9="28.15588"></scales>
<clustering>
<clus scale="   28.156">  1  9  2 -1</clus>
<clus scale="   87.808">  5  6 -1 -1</clus>
<clus scale="   88.829">  7  8 -1 -1</clus>
<clus scale="  105.393">  1  5  2 -1</clus>
<clus scale="  106.244">  2  5  1 -1</clus>
</clustering>
</event>
<event>
 9    1  0.1434065E-005  0.1943417E+03  0.7546771E-02  0.1154613E+00
         -1   -1    0    0    0  501 -0.00000000000E+00  0.00000000000E+00  0.62912362378E+03  0.62912362378E+03  0.00000000000E+00 0.  1.
          1   -1    0    0  502    0  0.00000000000E+00 -0.00000000000E+00 -0.12725337854E+03  0.12725337854E+03  0.00000000000E+00 0. -1.
         23    2    1    2    0    0 -0.15638621784E+03 -0.10180723576E+03  0.33480765224E+03  0.39422630108E+03  0.92178360181E+02 0.  0.
         23    2    1    2    0    0  0.15205115690E+03  0.70119047133E+02 -0.97867192761E+00  0.19109281404E+03  0.92082955514E+02 0.  0.
        -11    1    3    3    0    0 -0.65940817248E+02 -0.32316483032E+02  0.22189888036E+03  0.23373416430E+03  0.00000000000E+00 0.  1.
         11    1    3    3    0    0 -0.90445400589E+02 -0.69490752730E+02  0.11290877187E+03  0.16049213678E+03  0.00000000000E+00 0. -1.
        -13    1    4    4    0    0 -0.65023595409E+01  0.23789528297E+02 -0.75094179957E+01  0.25780102692E+02  0.00000000000E+00 0. -1.
         13    1    4    4    0    0  0.15855351644E+03  0.46329518836E+02  0.65307460681E+01  0.16531271135E+03  0.00000000000E+00 0.  1.
         21    1    1    2  502  501  0.43350609406E+01  0.31688188629E+02  0.16804126493E+03  0.17105788719E+03  0.00000000000E+00 0.  1.
<scales pt_clust_5="13000.00000" pt_clust_6="13000.00000" pt_clust_7="13000.00000" pt_clust_8="13000.00000" pt_clust_9="31.98334"></scales>
<clustering>
<clus scale="   31.983">  1  9  2 -1</clus>
<clus scale="   92.083">  7  8 -1 -1</clus>
<clus scale="   92.178">  5  6 -1 -1</clus>
<clus scale="  194.296">  2  7  1 -1</clus>
<clus scale="  194.296">  2  5  1 -1</clus>
</clustering>
</event>
<event>
 9    1  0.1434065E-005  0.2529891E+03  0.7546771E-02  0.1111603E+00
          2   -1    0    0  502    0  0.00000000000E+00  0.00000000000E+00  0.40408464711E+03  0.40408464711E+03  0.00000000000E+00 0. -1.
         -2   -1    0    0    0  501 -0.00000000000E+00 -0.00000000000E+00 -0.20973964919E+03  0.20973964919E+03  0.00000000000E+00 0.  1.
         23    2    1    2    0    0 -0.11689379075E+03  0.20831532306E+03  0.75745985059E+02  0.26763593819E+03  0.93979301014E+02 0.  0.
         23    2    1    2    0    0  0.13043540976E+03 -0.19237121391E+03  0.16231692488E+03  0.29772346470E+03  0.90952719941E+02 0.  0.
        -11    1    4    4    0    0 -0.11303025465E+02 -0.38197490502E+02  0.20522600844E+02  0.44810532363E+02  0.00000000000E+00 0.  1.
         11    1    4    4    0    0  0.14173843523E+03 -0.15417372341E+03  0.14179432404E+03  0.25291293233E+03  0.00000000000E+00 0. -1.
        -13    1    3    3    0    0 -0.42964454260E+02  0.16337211386E+03  0.37491368225E+02  0.17303755260E+03  0.00000000000E+00 0.  1.
         13    1    3    3    0    0 -0.73929336493E+02  0.44943209198E+02  0.38254616834E+02  0.94598385591E+02  0.00000000000E+00 0. -1.
         21    1    1    2  502  501 -0.13541619010E+02 -0.15944109144E+02 -0.43717912022E+02  0.48464893412E+02  0.00000000000E+00 0. -1.
<scales pt_clust_5="13000.00000" pt_clust_6="13000.00000" pt_clust_7="13000.00000" pt_clust_8="13000.00000" pt_clust_9="20.91865"></scales>
<clustering>
<clus scale="   20.919">  2  9  1 -1</clus>
<clus scale="   90.953">  5  6 -1 -1</clus>
<clus scale="   93.979">  7  8 -1 -1</clus>
<clus scale="  251.880">  1  5  2 -1</clus>
<clus scale="  251.880">  1  5  2 -1</clus>
</clustering>
</event>
<event>
 9    1  0.1434065E-005  0.9675648E+02  0.7546771E-02  0.1287337E+00
          1   -1    0    0  502    0  0.00000000000E+00  0.00000000000E+00  0.85261811313E+02  0.85261811313E+02  0.00000000000E+00 0. -1.
         -1   -1    0    0    0  501 -0.00000000000E+00 -0.00000000000E+00 -0.15900501214E+03  0.15900501214E+03  0.00000000000E+00 0.  1.
         23    2    1    2    0    0 -0.10076523115E+02  0.13521548307E+02 -0.59757866415E+02  0.11027391778E+03  0.91131584848E+02 0.  0.
         23    2    1    2    0    0  0.23279795827E+02 -0.33548955166E+02  0.97881958639E+01  0.10022007373E+03  0.90998753365E+02 0.  0.
        -13    1    4    4    0    0 -0.20763470809E+02  0.16687126551E+02  0.19082110794E+02  0.32767497080E+02  0.00000000000E+00 0. -1.
         13    1    4    4    0    0  0.44043266636E+02 -0.50236081717E+02 -0.92939149298E+01  0.67452576652E+02  0.00000000000E+00 0.  1.
        -13    1    3    3    0    0 -0.27919194680E+02  0.46932420561E+02 -0.31763912531E+02  0.63174992446E+02  0.00000000000E+00 0. -1.
         13    1    3    3    0    0  0.17842671565E+02 -0.33410872254E+02 -0.27993953884E+02  0.47098925332E+02  0.00000000000E+00 0.  1.
         21    1    1    2  502  501 -0.13203272712E+02  0.20027406859E+02 -0.23773530280E+02  0.33772831948E+02  0.00000000000E+00 0. -1.
<scales pt_clust_5="13000.00000" pt_clust_6="13000.00000" pt_clust_7="13000.00000" pt_clust_8="13000.00000" pt_clust_9="23.98799"></scales>
<clustering>
<clus scale="   23.988">  2  9  1 -1</clus>
<clus scale="   90.999">  5  6 -1 -1</clus>
<clus scale="   91.132">  7  8 -1 -1</clus>
<clus scale="   96.631">  1  5  2 -1</clus>
<clus scale="   96.631">  1  5  2 -1</clus>
</clustering>
</event>
<event>
 9    1  0.1434065E-005  0.2042627E+03  0.7546771E-02  0.1146326E+00
         -2   -1    0    0    0  501 -0.00000000000E+00  0.00000000000E+00  0.17983586372E+03  0.17983586372E+03  0.00000000000E+00 0.  1.
          2   -1    0    0  502    0  0.00000000000E+00 -0.00000000000E+00 -0.42339931703E+03  0.42339931703E+03  0.00000000000E+00 0. -1.
         23    2    1    2    0    0  0.67008979348E+02  0.15359284562E+03  0.63107124665E+02  0.20051725204E+03  0.90242415981E+02 0.  0.
         23    2    1    2    0    0 -0.84170750572E+02 -0.16595278003E+03 -0.31726204397E+03  0.37906473607E+03  0.91705120539E+02 0.  0.
        -11    1    4    4    0    0 -0.32324682943E+02 -0.13960594227E+03 -0.18061516660E+03  0.23055702690E+03  0.00000000000E+00 0.  1.
         11    1    4    4    0    0 -0.51846067629E+02 -0.26346837762E+02 -0.13664687737E+03  0.14850770917E+03  0.00000000000E+00 0. -1.
        -11    1    3    3    0    0  0.27253027759E+02  0.11404421435E+03  0.15753677836E+01  0.11726590354E+03  0.00000000000E+00 0. -1.
         11    1    3    3    0    0  0.39755951589E+02  0.39548631271E+02  0.61531756882E+02  0.83251348500E+02  0.00000000000E+00 0.  1.
         21    1    1    2  502  501  0.17161771224E+02  0.12359934412E+02  0.10591465997E+02  0.23653192642E+02  0.00000000000E+00 0.  1.
<scales pt_clust_5="13000.00000" pt_clust_6="13000.00000" pt_clust_7="13000.00000" pt_clust_8="13000.00000" pt_clust_9="21.14933"></scales>
<clustering>
<clus scale="   21.149">  1  9  2 -1</clus>
<clus scale="   90.242">  7  8 -1 -1</clus>
<clus scale="   91.705">  5  6 -1 -1</clus>
<clus scale="  203.610">  1  7  2 -1</clus>
<clus scale="  204.263">  2  5  1 -1</clus>
</clustering>
</event>
<event>
 9    1  0.1434065E-005  0.1378209E+03  0.7546771E-02  0.1234874E+00
          1   -1    0    0  502    0  0.00000000000E+00  0.00000000000E+00  0.18595104130E+03  0.18595104130E+03  0.00000000000E+00 0. -1.
         -1   -1    0    0    0  501 -0.00000000000E+00 -0.00000000000E+00 -0.19762520358E+03  0.19762520358E+03  0.00000000000E+00 0.  1.
         23    2    1    2    0    0  0.81797671446E+02  0.80562808618E+02 -0.23348234600E+02  0.14904363071E+03  0.92128381135E+02 0.  0.
         23    2    1    2    0    0  0.97173509768E+00 -0.28182536906E+02  0.73209680546E+02  0.11885591555E+03  0.89285338556E+02 0.  0.
        -11    1    3    3    0    0  0.23198192407E+02  0.36147195261E+02  0.34816476341E+02  0.55289808111E+02  0.00000000000E+00 0. -1.
         11    1    3    3    0    0  0.58599479039E+02  0.44415613357E+02 -0.58164710941E+02  0.93753822601E+02  0.00000000000E+00 0.  1.
        -13    1    4    4    0    0 -0.34680024351E+02 -0.42674436801E+02  0.46452371830E+02  0.71983571000E+02  0.00000000000E+00 0.  1.
         13    1    4    4    0    0  0.35651759449E+02  0.14491899895E+02  0.26757308716E+02  0.46872344555E+02  0.00000000000E+00 0. -1.
         21    1    1    2  502  501 -0.82769406543E+02 -0.52380271712E+02 -0.61535608223E+02  0.11567669862E+03  0.00000000000E+00 0.  1.
<scales pt_clust_5="13000.00000" pt_clust_6="13000.00000" pt_clust_7="13000.00000" pt_clust_8="13000.00000" pt_clust_9="102.50346"></scales>
<clustering>
<clus scale="   89.285">  7  8 -1 -1</clus>
<clus scale="   92.128">  5  6 -1 -1</clus>
<clus scale="   93.633">  1  7  2 -1</clus>
<clus scale="  102.503">  2  9  1 -1</clus>
<clus scale="   93.633">  1  5  2 -1</clus>
</clustering>
</event>
<event>
 9    1  0.1434065E-005  0.1692714E+03  0.7546771E-02  0.1178914E+00
         -2   -1    0    0    0  501 -0.00000000000E+00  0.00000000000E+00  0.53543894412E+02  0.53543894412E+02  0.00000000000E+00 0.  1.
          2   -1    0    0  502    0  0.00000000000E+00 -0.00000000000E+00 -0.79994378602E+03  0.79994378602E+03  0.00000000000E+00 0. -1.
         23    2    1    2    0    0 -0.26042049648E+02  0.13801507144E+03 -0.29370457400E+03  0.33847246868E+03  0.92600685584E+02 0.  0.
         23    2    1    2    0    0 -0.40996983416E+02 -0.14444873046E+03 -0.36026799989E+03  0.40065423509E+03  0.90468756880E+02 0.  0.
        -11    1    3    3    0    0  0.20612563454E+02  0.11073811854E+03 -0.21899147775E+03  0.24626220984E+03  0.00000000000E+00 0. -1.
         11    1    3    3    0    0 -0.46654613102E+02  0.27276952900E+02 -0.74713096246E+02  0.92210258832E+02  0.00000000000E+00 0.  1.
        -13    1    4    4    0    0 -0.17879349105E+02 -0.55139033640E+02 -0.48676084170E+02  0.75692439024E+02  0.00000000000E+00 0.  1.
         13    1    4    4    0    0 -0.23117634312E+02 -0.89309696821E+02 -0.31159191572E+03  0.32496179606E+03  0.00000000000E+00 0. -1.
         21    1    1    2  502  501  0.67039033064E+02  0.64336590255E+01 -0.92427317723E+02  0.11436097667E+03  0.00000000000E+00 0. -1.
<scales pt_clust_5="13000.00000" pt_clust_6="13000.00000" pt_clust_7="13000.00000" pt_clust_8="13000.00000" pt_clust_9="67.34704"></scales>
<clustering>
<clus scale="   67.347">  1  9  2 -1</clus>
<clus scale="   90.469">  7  8 -1 -1</clus>
<clus scale="   92.601">  5  6 -1 -1</clus>
<clus scale="  168.115">  2  7  1 -1</clus>
<clus scale="  168.115">  2  5  1 -1</clus>
</clustering>
</event>
<event>
 9    1  0.1434065E-005  0.2792889E+03  0.7546771E-02  0.1096105E+00
          1   -1    0    0  502    0  0.00000000000E+00  0.00000000000E+00  0.90633851620E+03  0.90633851620E+03  0.00000000000E+00 0. -1.
         -1   -1    0    0    0  501 -0.00000000000E+00 -0.00000000000E+00 -0.10595762716E+03  0.10595762716E+03  0.00000000000E+00 0.  1.
         23    2    1    2    0    0  0.13054515206E+03  0.24420196445E+03  0.26435414894E+03  0.39367949079E+03  0.91781203120E+02 0.  0.
         23    2    1    2    0    0 -0.12432208029E+03 -0.22467805998E+03  0.53174761566E+03  0.59768293875E+03  0.92375095303E+02 0.  0.
        -11    1    4    4    0    0 -0.57166280458E+01 -0.21612403666E+02  0.13210745273E+03  0.13398565183E+03  0.00000000000E+00 0.  1.
         11    1    4    4    0    0 -0.11860545225E+03 -0.20306565631E+03  0.39964016293E+03  0.46369728692E+03  0.00000000000E+00 0. -1.
        -13    1    3    3    0    0  0.10566344777E+03  0.16077852250E+03  0.12521346923E+03  0.22954936368E+03  0.00000000000E+00 0.  1.
         13    1    3    3    0    0  0.24881704281E+02  0.83423441951E+02  0.13914067971E+03  0.16413012711E+03  0.00000000000E+00 0. -1.
         21    1    1    2  502  501 -0.62230717618E+01 -0.19523904470E+02  0.42791244365E+01  0.20933713809E+02  0.00000000000E+00 0. -1.
<scales pt_clust_5="13000.00000" pt_clust_6="13000.00000" pt_clust_7="13000.00000" pt_clust_8="13000.00000" pt_clust_9="20.49169"></scales>
<clustering>
<clus scale="   20.492">  2  9  1 -1</clus>
<clus scale="   91.781">  7  8 -1 -1</clus>
<clus scale="   92.375">  5  6 -1 -1</clus>
<clus scale="  279.093">  2  7  1 -1</clus>
<clus scale="  279.289">  1  5  2 -1</clus>
</clustering>
</event>
<event>
 9    1  0.1434065E-005  0.9964400E+02  0.7546771E-02  0.1283109E+00
         -1   -1    0    0    0  501 -0.00000000000E+00  0.00000000000E+00  0.29470019351E+03  0.29470019351E+03  0.00000000000E+00 0.  1.
          1   -1    0    0  502    0  0.00000000000E+00 -0.00000000000E+00 -0.15616640715E+03  0.15616640715E+03  0.00000000000E+00 0. -1.
         23    2    1    2    0    0 -0.72647477027E+01  0.30803596313E+02  0.21226737204E+03  0.23291289149E+03  0.90494970486E+02 0.  0.
         23    2    1    2    0    0 -0.67125883924E+02 -0.38730697491E+02 -0.74471534751E+02  0.14313827243E+03  0.94533614788E+02 0.  0.
        -11    1    4    4    0    0  0.17706783797E+02  0.11159444913E+02 -0.22175055809E+01  0.21047107502E+02  0.00000000000E+00 0.  1.
         11    1    4    4    0    0 -0.84832667721E+02 -0.49890142404E+02 -0.72254029170E+02  0.12209116493E+03  0.00000000000E+00 0. -1.
        -11    1    3    3    0    0 -0.18101637127E+02  0.57973541923E+02  0.10090378360E+03  0.11777170448E+03  0.00000000000E+00 0.  1.
         11    1    3    3    0    0  0.10836889424E+02 -0.27169945610E+02  0.11136358844E+03  0.11514118701E+03  0.00000000000E+00 0. -1.
         21    1    1    2  502  501  0.74390631627E+02  0.79271011782E+01  0.73794906789E+00  0.74815436748E+02  0.00000000000E+00 0.  1.
<scales pt_clust_5="13000.00000" pt_clust_6="13000.00000" pt_clust_7="13000.00000" pt_clust_8="13000.00000" pt_clust_9="74.81180"></scales>
<clustering>
<clus scale="   74.812">  2  9  1 -1</clus>
<clus scale="   90.495">  7  8 -1 -1</clus>
<clus scale="   94.534">  5  6 -1 -1</clus>
<clus scale="   95.821">  1  7  2 -1</clus>
<clus scale="   74.812">  2  5  1 -1</clus>
</clustering>
</event>
<event>
 9    1  0.1434065E-005  0.1022370E+03  0.7546771E-02  0.1281460E+00
          2   -1    0    0  502    0  0.00000000000E+00  0.00000000000E+00  0.62004274883E+02  0.62004274883E+02  0.00000000000E+00 0. -1.
         -2   -1    0    0    0  501 -0.00000000000E+00 -0.00000000000E+00 -0.41717312446E+03  0.41717312446E+03  0.00000000000E+00 0.  1.
         23    2    1    2    0    0 -0.13632258388E+02 -0.55845714952E+02 -0.23815134387E+03  0.26130268855E+03  0.90876015035E+02 0.  0.
         23    2    1    2    0    0  0.10146800715E+02 -0.15845804530E+02 -0.35598563078E+02  0.10933501022E+03  0.10165057640E+03 0.  0.
        -11    1    4    4    0    0  0.36302810136E+02 -0.46684505970E+02 -0.64536871840E+01  0.59489387286E+02  0.00000000000E+00 0. -1.
         11    1    4    4    0    0 -0.26156009420E+02  0.30838701439E+02 -0.29144875894E+02  0.49845622939E+02  0.00000000000E+00 0.  1.
        -11    1    3    3    0    0 -0.41616193274E+02  0.36530105955E+01 -0.91390363855E+02  0.10048607184E+03  0.00000000000E+00 0.  1.
         11    1    3    3    0    0  0.27983934886E+02 -0.59498725548E+02 -0.14676098002E+03  0.16081661671E+03  0.00000000000E+00 0. -1.
         21    1    1    2  502  501  0.34854576728E+01  0.71691519483E+02 -0.81418942629E+02  0.10853970057E+03  0.00000000000E+00 0.  1.
<scales pt_clust_5="13000.00000" pt_clust_6="13000.00000" pt_clust_7="13000.00000" pt_clust_8="13000.00000" pt_clust_9="71.77620"></scales>
<clustering>
<clus scale="   71.776">  2  9  1 -1</clus>
<clus scale="   90.876">  7  8 -1 -1</clus>
<clus scale="   91.531">  2  7  1 -1</clus>
<clus scale="  101.651">  5  6 -1 -1</clus>
<clus scale="  102.237">  1  5  2 -1</clus>
</clustering>
</event>
<event>
 9    1  0.1434065E-005  0.2479775E+03  0.7546771E-02  0.1144382E+00
         -1   -1    0    0    0  501 -0.00000000000E+00  0.00000000000E+00  0.30293656726E+03  0.30293656726E+03  0.00000000000E+00 0.  1.
          1   -1    0    0  502    0  0.00000000000E+00 -0.00000000000E+00 -0.35723399040E+03  0.35723399040E+03  0.00000000000E+00 0. -1.
         23    2    1    2    0    0 -0.96037821299E+02  0.18654365834E+03  0.76351325387E+02  0.24186221073E+03  0.92983893790E+02 0.  0.
         23    2    1    2    0    0  0.15291823730E+02  0.75968759698E+02 -0.65585263937E+02  0.13605678754E+03  0.90581070132E+02 0.  0.
        -11    1    4    4    0    0 -0.21880754594E+02  0.33921277304E+01  0.10522327245E+02  0.24515165160E+02  0.00000000000E+00 0.  1.
         11    1    4    4    0    0  0.37172578324E+02  0.72576631967E+02 -0.76107591183E+02  0.11154162238E+03  0.00000000000E+00 0. -1.
        -13    1    3    3    0    0 -0.16142415485E+02  0.13058527232E+03  0.50640001189E+02  0.14098759039E+03  0.00000000000E+00 0. -1.
         13    1    3    3    0    0 -0.79895405815E+02  0.55958386022E+02  0.25711324198E+02  0.10087462034E+03  0.00000000000E+00 0.  1.
         21    1    1    2  502  501  0.80745997570E+02 -0.26251241804E+03 -0.65063484594E+02  0.28225155939E+03  0.00000000000E+00 0.  1.
<scales pt_clust_5="13000.00000" pt_clust_6="13000.00000" pt_clust_7="13000.00000" pt_clust_8="13000.00000" pt_clust_9="229.88442"></scales>
<clustering>
<clus scale="   90.581">  5  6 -1 -1</clus>
<clus scale="   92.984">  7  8 -1 -1</clus>
<clus scale="  119.206">  2  5  1 -1</clus>
<clus scale="  229.884">  2  9  1 -1</clus>
<clus scale="  119.206">  2  5  1 -1</clus>
</clustering>
</event>
<event>
 9    1  0.1434065E-005  0.1004344E+03  0.7546771E-02  0.1280406E+00
          2   -1    0    0  502    0  0.00000000000E+00  0.00000000000E+00  0.78377325849E+02  0.78377325849E+02  0.00000000000E+00 0. -1.
         -2   -1    0    0    0  501 -0.00000000000E+00 -0.00000000000E+00 -0.21714312975E+03  0.21714312975E+03  0.00000000000E+00 0.  1.
         23    2    1    2    0    0  0.31167336346E+02  0.50352120992E+02 -0.11210659830E+03  0.15457008219E+03  0.88415394488E+02 0.  0.
         23    2    1    2    0    0 -0.23126979015E+02 -0.30402665257E+02  0.96349148976E+01  0.98761615274E+02  0.90564042828E+02 0.  0.
        -13    1    4    4    0    0  0.11804513819E+02 -0.43618741749E+02 -0.21589706617E+02  0.50080501296E+02  0.00000000000E+00 0.  1.
         13    1    4    4    0    0 -0.34931492834E+02  0.13216076492E+02  0.31224621514E+02  0.48681113979E+02  0.00000000000E+00 0. -1.
        -13    1    3    3    0    0  0.38391784719E+02  0.45813270571E+01 -0.99200256636E+02  0.10646881519E+03  0.00000000000E+00 0. -1.
         13    1    3    3    0    0 -0.72244483728E+01  0.45770793935E+02 -0.12906341664E+02  0.48101266998E+02  0.00000000000E+00 0.  1.
         21    1    1    2  502  501 -0.80403573313E+01 -0.19949455735E+02 -0.36294120494E+02  0.42188758131E+02  0.00000000000E+00 0. -1.
<scales pt_clust_5="13000.00000" pt_clust_6="13000.00000" pt_clust_7="13000.00000" pt_clust_8="13000.00000" pt_clust_9="21.50879"></scales>
<clustering>
<clus scale="   21.509">  2  9  1 -1</clus>
<clus scale="   88.415">  7  8 -1 -1</clus>
<clus scale="   90.564">  5  6 -1 -1</clus>
<clus scale="   98.501">  2  7  1 -1</clus>
<clus scale="  100.434">  1  5  2 -1</clus>
</clustering>
</event>
<event>
 9    1  0.1434065E-005  0.2163741E+03  0.7546771E-02  0.1136758E+00
         -1   -1    0    0    0  501 -0.00000000000E+00  0.00000000000E+00  0.15535340107E+03  0.15535340107E+03  0.00000000000E+00 0.  1.
          1   -1    0    0  502    0  0.00000000000E+00 -0.00000000000E+00 -0.43449531324E+03  0.43449531324E+03  0.00000000000E+00 0. -1.
         23    2    1    2    0    0 -0.14347903087E+03  0.14046142542E+03 -0.13224922540E+03  0.25708543544E+03  0.91035263319E+02 0.  0.
         23    2    1    2    0    0  0.15255377763E+03 -0.11885366603E+03 -0.18888297160E+03  0.28467554328E+03  0.89244265849E+02 0.  0.
        -11    1    3    3    0    0 -0.11292692594E+03  0.13907392475E+03 -0.79248749838E+02  0.19589387815E+03  0.00000000000E+00 0. -1.
         11    1    3    3    0    0 -0.30552104933E+02  0.13875006700E+01 -0.53000475559E+02  0.61191557289E+02  0.00000000000E+00 0.  1.
        -13    1    4    4    0    0  0.11104540426E+03 -0.80080204313E+02 -0.71918586618E+02  0.15464864704E+03  0.00000000000E+00 0.  1.
         13    1    4    4    0    0  0.41508373368E+02 -0.38773461715E+02 -0.11696438498E+03  0.13002689624E+03  0.00000000000E+00 0. -1.
         21    1    1    2  502  501 -0.90747467580E+01 -0.21607759389E+02  0.41990284822E+02  0.48087735588E+02  0.00000000000E+00 0.  1.
<scales pt_clust_5="13000.00000" pt_clust_6="13000.00000" pt_clust_7="13000.00000" pt_clust_8="13000.00000" pt_clust_9="23.43600"></scales>
<clustering>
<clus scale="   23.436">  1  9  2 -1</clus>
<clus scale="   89.244">  7  8 -1 -1</clus>
<clus scale="   91.035">  5  6 -1 -1</clus>
<clus scale="  215.627">  2  7  1 -1</clus>
<clus scale="  215.627">  2  5  1 -1</clus>
</clustering>
</event>
<event>
 9    1  0.1434065E-005  0.9515124E+02  0.7546771E-02  0.1297031E+00
          1   -1    0    0  502    0  0.00000000000E+00  0.00000000000E+00  0.48325202633E+02  0.48325202633E+02  0.00000000000E+00 0. -1.
         -1   -1    0    0    0  501 -0.00000000000E+00 -0.00000000000E+00 -0.28609418688E+03  0.28609418688E+03  0.00000000000E+00 0.  1.
         23    2    1    2    0    0 -0.25025448895E+01  0.12525754230E+01 -0.10043805223E+03  0.13637962247E+03  0.92215873979E+02 0.  0.
         23    2    1    2    0    0 -0.42490393680E+02  0.13572643754E+02 -0.72969854488E+02  0.11812418692E+03  0.81480510915E+02 0.  0.
        -11    1    4    4    0    0 -0.19182563479E+02 -0.31839271583E+02 -0.13015972418E+02  0.39384330571E+02  0.00000000000E+00 0.  1.
         11    1    4    4    0    0 -0.23307830200E+02  0.45411915337E+02 -0.59953882070E+02  0.78739856353E+02  0.00000000000E+00 0. -1.
        -13    1    3    3    0    0  0.32022854342E+02  0.23877640514E+02 -0.81915767159E+02  0.91136149940E+02  0.00000000000E+00 0. -1.
         13    1    3    3    0    0 -0.34525399232E+02 -0.22625065091E+02 -0.18522285072E+02  0.45243472532E+02  0.00000000000E+00 0.  1.
         21    1    1    2  502  501  0.44992938569E+02 -0.14825219177E+02 -0.64361077527E+02  0.79915580115E+02  0.00000000000E+00 0.  1.
<scales pt_clust_5="13000.00000" pt_clust_6="13000.00000" pt_clust_7="13000.00000" pt_clust_8="13000.00000" pt_clust_9="47.37248"></scales>
<clustering>
<clus scale="   47.372">  2  9  1 -1</clus>
<clus scale="   81.481">  5  6 -1 -1</clus>
<clus scale="   84.788">  1  5  2 -1</clus>
<clus scale="   92.216">  7  8 -1 -1</clus>
<clus scale="   84.788">  1  5  2 -1</clus>
</clustering>
</event>
<event>
 9    1  0.1434065E-005  0.9214778E+02  0.7546771E-02  0.1297955E+00
          1   -1    0    0  502    0  0.00000000000E+00  0.00000000000E+00  0.43194466629E+03  0.43194466629E+03  0.00000000000E+00 0. -1.
         -1   -1    0    0    0  501 -0.00000000000E+00 -0.00000000000E+00 -0.50829611322E+02  0.50829611322E+02  0.00000000000E+00 0.  1.
         23    2    1    2    0    0  0.28296354932E+02  0.17222867890E+02  0.60294542115E+02  0.11493171709E+03  0.92068218751E+02 0.  0.
         23    2    1    2    0    0  0.10229117793E+02  0.77119931419E+00  0.31073453097E+03  0.32414215396E+03  0.91689463074E+02 0.  0.
        -11    1    3    3    0    0 -0.56338978931E+01  0.36504428215E+02  0.65860099806E+02  0.75510706733E+02  0.00000000000E+00 0.  1.
         11    1    3    3    0    0  0.33930252825E+02 -0.19281560325E+02 -0.55655576912E+01  0.39421010359E+02  0.00000000000E+00 0. -1.
        -13    1    4    4    0    0  0.45457250372E+02 -0.10177980094E+02  0.10148173400E+03  0.11166241635E+03  0.00000000000E+00 0. -1.
         13    1    4    4    0    0 -0.35228132579E+02  0.10949179409E+02  0.20925279697E+03  0.21247973760E+03  0.00000000000E+00 0.  1.
         21    1    1    2  502  501 -0.38525472725E+02 -0.17994067204E+02  0.10085981890E+02  0.43700406564E+02  0.00000000000E+00 0. -1.
<scales pt_clust_5="13000.00000" pt_clust_6="13000.00000" pt_clust_7="13000.00000" pt_clust_8="13000.00000" pt_clust_9="42.52057"></scales>
<clustering>
<clus scale="   42.521">  2  9  1 -1</clus>
<clus scale="   91.689">  7  8 -1 -1</clus>
<clus scale="   91.769">  1  7  2 -1</clus>
<clus scale="   92.068">  5  6 -1 -1</clus>
<clus scale="   91.769">  1  5  2 -1</clus>
</clustering>
</event>
<event>
 9    1  0.1434065E-005  0.1038052E+03  0.7546771E-02  0.1272533E+00
         -2   -1    0    0    0  501 -0.00000000000E+00  0.00000000000E+00  0.34198688266E+02  0.34198688266E+02  0.00000000000E+00 0.  1.
          2   -1    0    0  502    0  0.00000000000E+00 -0.00000000000E+00 -0.60159670214E+03  0.60159670214E+03  0.00000000000E+00 0. -1.
         23    2    1    2    0    0  0.15349271196E+02  0.39017659110E+02 -0.14046751684E+03  0.17252840375E+03  0.90977738826E+02 0.  0.
         23    2    1    2    0    0  0.86108833807E+01 -0.54231935480E+02 -0.42106259275E+03  0.43428431057E+03  0.91070880380E+02 0.  0.
        -11    1    3    3    0    0 -0.12884844249E+02 -0.24376229935E+02 -0.61518116629E+02  0.67414378813E+02  0.00000000000E+00 0. -1.
         11    1    3    3    0    0  0.28234115445E+02  0.63393889044E+02 -0.78949400215E+02  0.10511402493E+03  0.00000000000E+00 0.  1.
        -13    1    4    4    0    0 -0.17968547692E+02  0.19962335977E+02 -0.87021657906E+02  0.91072128055E+02  0.00000000000E+00 0. -1.
         13    1    4    4    0    0  0.26579431073E+02 -0.74194271457E+02 -0.33404093484E+03  0.34321218251E+03  0.00000000000E+00 0.  1.
         21    1    1    2  502  501 -0.23960154577E+02  0.15214276370E+02 -0.58679042782E+01  0.28982676092E+02  0.00000000000E+00 0.  1.
<scales pt_clust_5="13000.00000" pt_clust_6="13000.00000" pt_clust_7="13000.00000" pt_clust_8="13000.00000" pt_clust_9="28.38245"></scales>
<clustering>
<clus scale="   28.382">  1  9  2 -1</clus>
<clus scale="   90.978">  5  6 -1 -1</clus>
<clus scale="   91.071">  7  8 -1 -1</clus>
<clus scale="  103.724">  1  5  2 -1</clus>
<clus scale="  103.805">  2  5  1 -1</clus>
</clustering>
</event>
<event>
 9    1  0.1434065E-005  0.1263546E+03  0.7546771E-02  0.1233636E+00
          2   -1    0    0  502    0  0.00000000000E+00  0.00000000000E+00  0.24760495878E+03  0.24760495878E+03  0.00000000000E+00 0. -1.
         -2   -1    0    0    0  501 -0.00000000000E+00 -0.00000000000E+00 -0.11264632762E+03  0.11264632762E+03  0.00000000000E+00 0.  1.
         23    2    1    2    0    0 -0.66952102762E+02  0.34709256957E+02 -0.11109653209E+02  0.11819721675E+03  0.90331838627E+02 0.  0.
         23    2    1    2    0    0  0.70569254828E+02 -0.55474387415E+02  0.16786864278E+03  0.21173031562E+03  0.92695296210E+02 0.  0.
        -11    1    3    3    0    0 -0.62810434738E+02  0.63021592090E+02 -0.64917276485E+01  0.89213307916E+02  0.00000000000E+00 0.  1.
         11    1    3    3    0    0 -0.41416680237E+01 -0.28312335133E+02 -0.46179255609E+01  0.28983908832E+02  0.00000000000E+00 0. -1.
        -13    1    4    4    0    0  0.64358081783E+01 -0.45657434208E+02  0.12685194811E+03  0.13497198845E+03  0.00000000000E+00 0. -1.
         13    1    4    4    0    0  0.64133446650E+02 -0.98169532073E+01  0.41016694664E+02  0.76758327174E+02  0.00000000000E+00 0.  1.
         21    1    1    2  502  501 -0.36171520662E+01  0.20765130458E+02 -0.21800358409E+02  0.30323754035E+02  0.00000000000E+00 0.  1.
<scales pt_clust_5="13000.00000" pt_clust_6="13000.00000" pt_clust_7="13000.00000" pt_clust_8="13000.00000" pt_clust_9="21.07782"></scales>
<clustering>
<clus scale="   21.078">  2  9  1 -1</clus>
<clus scale="   90.332">  5  6 -1 -1</clus>
<clus scale="   92.695">  7  8 -1 -1</clus>
<clus scale="  124.631">  2  5  1 -1</clus>
<clus scale="  126.355">  1  5  2 -1</clus>
</clustering>
</event>
<event>
 9    1  0.1434065E-005  0.9287904E+02  0.7546771E-02  0.1297037E+00
          2   -1    0    0  502    0  0.00000000000E+00  0.00000000000E+00  0.23445308541E+03  0.23445308541E+03  0.00000000000E+00 0. -1.
         -2   -1    0    0    0  501 -0.00000000000E+00 -0.00000000000E+00 -0.58605640601E+02  0.58605640601E+02  0.00000000000E+00 0.  1.
         23    2    1    2    0    0 -0.18506794392E+02  0.70373905910E+01  0.80819375179E+02  0.12265955913E+03  0.90119752202E+02 0.  0.
         23    2    1    2    0    0 -0.43309950075E+01 -0.16666470285E+02  0.10766948851E+03  0.14257670703E+03  0.91863321738E+02 0.  0.
        -13    1    3    3    0    0  0.17672456475E+02 -0.32913083742E+02  0.24326021882E+02  0.44579615743E+02  0.00000000000E+00 0.  1.
         13    1    3    3    0    0 -0.36179250867E+02  0.39950474333E+02  0.56493353297E+02  0.78079943388E+02  0.00000000000E+00 0. -1.
        -13    1    4    4    0    0  0.38491786003E+02 -0.14680370410E+02  0.84118801285E+02  0.93664847167E+02  0.00000000000E+00 0.  1.
         13    1    4    4    0    0 -0.42822781011E+02 -0.19860998748E+01  0.23550687228E+02  0.48911859862E+02  0.00000000000E+00 0. -1.
         21    1    1    2  502  501  0.22837789400E+02  0.96290796941E+01 -0.12641418888E+02  0.27822459847E+02  0.00000000000E+00 0.  1.
<scales pt_clust_5="13000.00000" pt_clust_6="13000.00000" pt_clust_7="13000.00000" pt_clust_8="13000.00000" pt_clust_9="24.78475"></scales>
<clustering>
<clus scale="   24.785">  2  9  1 -1</clus>
<clus scale="   90.120">  5  6 -1 -1</clus>
<clus scale="   91.155">  2  5  1 -1</clus>
<clus scale="   91.863">  7  8 -1 -1</clus>
<clus scale="   92.879">  1  5  2 -1</clus>
</clustering>
</event>
<event>
 9    1  0.1434065E-005  0.9579914E+02  0.7546771E-02  0.1290345E+00
         -3   -1    0    0    0  501 -0.00000000000E+00  0.00000000000E+00  0.64605945214E+02  0.64605945214E+02  0.00000000000E+00 0.  1.
          3   -1    0    0  502    0  0.00000000000E+00 -0.00000000000E+00 -0.40048265361E+03  0.40048265361E+03  0.00000000000E+00 0. -1.
         23    2    1    2    0    0  0.70345682478E+02 -0.41194736690E+02 -0.47751383056E+02  0.13033145092E+03  0.89780683569E+02 0.  0.
         23    2    1    2    0    0 -0.13956645835E+02  0.84983663819E+01 -0.22733267469E+03  0.24562509722E+03  0.91567096758E+02 0.  0.
        -11    1    3    3    0    0  0.23296776772E+02 -0.62684404925E+02 -0.40287215656E+02  0.78071340286E+02  0.00000000000E+00 0.  1.
         11    1    3    3    0    0  0.47048905707E+02  0.21489668234E+02 -0.74641673998E+01  0.52260110639E+02  0.00000000000E+00 0. -1.
        -13    1    4    4    0    0  0.20269995960E+01  0.48902140710E+02 -0.10621374673E+03  0.11694822824E+03  0.00000000000E+00 0.  1.
         13    1    4    4    0    0 -0.15983645431E+02 -0.40403774328E+02 -0.12111892796E+03  0.12867686898E+03  0.00000000000E+00 0. -1.
         21    1    1    2  502  501 -0.56389036644E+02  0.32696370309E+02 -0.60792650643E+02  0.89132050673E+02  0.00000000000E+00 0.  1.
<scales pt_clust_5="13000.00000" pt_clust_6="13000.00000" pt_clust_7="13000.00000" pt_clust_8="13000.00000" pt_clust_9="65.18264"></scales>
<clustering>
<clus scale="   65.183">  1  9  2 -1</clus>
<clus scale="   89.781">  5  6 -1 -1</clus>
<clus scale="   91.567">  7  8 -1 -1</clus>
<clus scale="   94.093">  1  5  2 -1</clus>
<clus scale="   95.799">  2  5  1 -1</clus>
</clustering>
</event>
<event>
 9    1  0.1434065E-005  0.1135064E+03  0.7546771E-02  0.1261020E+00
         -1   -1    0    0    0  501 -0.00000000000E+00  0.00000000000E+00  0.19393069790E+02  0.19393069790E+02  0.00000000000E+00 0.  1.
          1   -1    0    0  502    0  0.00000000000E+00 -0.00000000000E+00 -0.83103559549E+03  0.83103559549E+03  0.00000000000E+00 0. -1.
         23    2    1    2    0    0  0.50731209768E+02  0.53695557061E+02 -0.26197509097E+03  0.28736657778E+03  0.92150600886E+02 0.  0.
         23    2    1    2    0    0 -0.26259857446E+02 -0.51056438186E+02 -0.36666487022E+03  0.37841174049E+03  0.73864594330E+02 0.  0.
        -11    1    4    4    0    0  0.15323391325E+01 -0.63060562810E+02 -0.23587781534E+03  0.24416659562E+03  0.00000000000E+00 0.  1.
         11    1    4    4    0    0 -0.27792196578E+02  0.12004124624E+02 -0.13078705488E+03  0.13424514488E+03  0.00000000000E+00 0. -1.
        -13    1    3    3    0    0  0.71185502356E+02  0.15414671801E+02 -0.13847705804E+03  0.15646368095E+03  0.00000000000E+00 0. -1.
         13    1    3    3    0    0 -0.20454292587E+02  0.38280885259E+02 -0.12349803293E+03  0.13090289683E+03  0.00000000000E+00 0.  1.
         21    1    1    2  502  501 -0.24471352323E+02 -0.26391188750E+01 -0.18300256451E+03  0.18465034701E+03  0.00000000000E+00 0.  1.
<scales pt_clust_5="13000.00000" pt_clust_6="13000.00000" pt_clust_7="13000.00000" pt_clust_8="13000.00000" pt_clust_9="24.61325"></scales>
<clustering>
<clus scale="   24.613">  2  9  1 -1</clus>
<clus scale="   73.865">  5  6 -1 -1</clus>
<clus scale="   92.151">  7  8 -1 -1</clus>
<clus scale="   99.237">  2  5  1 -1</clus>
<clus scale="   24.613">  2  5  1 -1</clus>
</clustering>
</event>
<event>
 9    1  0.1434065E-005  0.1279957E+03  0.7546771E-02  0.1234124E+00
         -1   -1    0    0    0  501 -0.00000000000E+00  0.00000000000E+00  0.12750823151E+03  0.12750823151E+03  0.00000000000E+00 0.  1.
          1   -1    0    0  502    0  0.00000000000E+00 -0.00000000000E+00 -0.18803162087E+03  0.18803162087E+03  0.00000000000E+00 0. -1.
         23    2    1    2    0    0  0.63185800160E+02  0.18149584590E+02  0.48703475244E+02  0.13323334456E+03  0.10515342524E+03 0.  0.
         23    2    1    2    0    0 -0.64572661391E+02 -0.39502926770E+02 -0.10648929699E+03  0.16073377312E+03  0.93622997307E+02 0.  0.
        -11    1    3    3    0    0  0.73261480321E+02 -0.83597539637E+01  0.66879559135E+02  0.99549010117E+02  0.00000000000E+00 0. -1.
         11    1    3    3    0    0 -0.10075680161E+02  0.26509338553E+02 -0.18176083891E+02  0.33684334443E+02  0.00000000000E+00 0.  1.
        -11    1    4    4    0    0 -0.10409971502E+02 -0.24693734932E+02  0.12190675949E+02  0.29440798761E+02  0.00000000000E+00 0.  1.
         11    1    4    4    0    0 -0.54162689890E+02 -0.14809191838E+02 -0.11867997294E+03  0.13129297435E+03  0.00000000000E+00 0. -1.
         21    1    1    2  502  501  0.13868612316E+01  0.21353342180E+02 -0.27375676173E+01  0.21572734709E+02  0.00000000000E+00 0. -1.
<scales pt_clust_5="13000.00000" pt_clust_6="13000.00000" pt_clust_7="13000.00000" pt_clust_8="13000.00000" pt_clust_9="21.39833"></scales>
<clustering>
<clus scale="   21.398">  1  9  2 -1</clus>
<clus scale="   93.623">  7  8 -1 -1</clus>
<clus scale="  105.153">  5  6 -1 -1</clus>
<clus scale="  118.705">  2  7  1 -1</clus>
<clus scale="  118.705">  2  5  1 -1</clus>
</clustering>
</event>
<event>
 9    1  0.1434065E-005  0.1050539E+03  0.7546771E-02  0.1270647E+00
          1   -1    0    0  502    0  0.00000000000E+00  0.00000000000E+00  0.22048772860E+02  0.22048772860E+02  0.00000000000E+00 0. -1.
         -1   -1    0    0    0  501 -0.00000000000E+00 -0.00000000000E+00 -0.63705521367E+03  0.63705521367E+03  0.00000000000E+00 0.  1.
         23    2    1    2    0    0 -0.77736492336E+01  0.38608702749E+02 -0.28421236871E+03  0.30116665306E+03  0.91507490613E+02 0.  0.
         23    2    1    2    0    0  0.20105806380E+02 -0.58698244718E+02 -0.23359592302E+03  0.25792157480E+03  0.90037526147E+02 0.  0.
        -13    1    4    4    0    0  0.20699039679E+01 -0.77911524826E+02 -0.13518237041E+03  0.15604090321E+03  0.00000000000E+00 0.  1.
         13    1    4    4    0    0  0.18035902412E+02  0.19213280108E+02 -0.98413552606E+02  0.10188067160E+03  0.00000000000E+00 0. -1.
        -13    1    3    3    0    0  0.41890473447E+02  0.20272873184E+02 -0.14105577667E+03  0.14853461982E+03  0.00000000000E+00 0.  1.
         13    1    3    3    0    0 -0.49664122680E+02  0.18335829565E+02 -0.14315659204E+03  0.15263203324E+03  0.00000000000E+00 0. -1.
         21    1    1    2  502  501 -0.12332157147E+02  0.20089541968E+02 -0.97198149080E+02  0.10001575866E+03  0.00000000000E+00 0.  1.
<scales pt_clust_5="13000.00000" pt_clust_6="13000.00000" pt_clust_7="13000.00000" pt_clust_8="13000.00000" pt_clust_9="23.57269"></scales>
<clustering>
<clus scale="   23.573">  2  9  1 -1</clus>
<clus scale="   90.038">  5  6 -1 -1</clus>
<clus scale="   91.507">  7  8 -1 -1</clus>
<clus scale="  103.776">  1  5  2 -1</clus>
<clus scale="  103.776">  1  5  2 -1</clus>
</clustering>
</event>
<event>
 9    1  0.1434065E-005  0.1320625E+03  0.7546771E-02  0.1226003E+00
          1   -1    0    0  502    0  0.00000000000E+00  0.00000000000E+00  0.40790639526E+03  0.40790639526E+03  0.00000000000E+00 0. -1.
         -1   -1    0    0    0  501 -0.00000000000E+00 -0.00000000000E+00 -0.20785887668E+03  0.20785887668E+03  0.00000000000E+00 0.  1.
         23    2    1    2    0    0  0.48068714457E+02  0.52099466853E+02  0.26344822005E+02  0.11490422387E+03  0.86509972034E+02 0.  0.
         23    2    1    2    0    0 -0.10928239614E+03  0.14809779480E+01  0.31034615183E+03  0.34183459507E+03  0.92689379271E+02 0.  0.
        -11    1    4    4    0    0 -0.38710945987E+02 -0.13391677225E+02  0.26074415361E+02  0.48556662720E+02  0.00000000000E+00 0.  1.
         11    1    4    4    0    0 -0.70571450149E+02  0.14872655173E+02  0.28427173646E+03  0.29327793235E+03  0.00000000000E+00 0. -1.
        -13    1    3    3    0    0  0.38543471841E+01  0.59158331550E+02 -0.61198150693E+01  0.59598794623E+02  0.00000000000E+00 0. -1.
         13    1    3    3    0    0  0.44214367273E+02 -0.70588646968E+01  0.32464637074E+02  0.55305429250E+02  0.00000000000E+00 0.  1.
         21    1    1    2  502  501  0.61213681680E+02 -0.53580444801E+02 -0.13664345526E+03  0.15902645300E+03  0.00000000000E+00 0.  1.
<scales pt_clust_5="13000.00000" pt_clust_6="13000.00000" pt_clust_7="13000.00000" pt_clust_8="13000.00000" pt_clust_9="81.35096"></scales>
<clustering>
<clus scale="   81.351">  2  9  1 -1</clus>
<clus scale="   86.510">  7  8 -1 -1</clus>
<clus scale="   92.689">  5  6 -1 -1</clus>
<clus scale="  127.801">  2  7  1 -1</clus>
<clus scale="  132.063">  1  5  2 -1</clus>
</clustering>
</event>
<event>
 9    1  0.1434065E-005  0.1758754E+03  0.7546771E-02  0.1172192E+00
          1   -1    0    0  502    0  0.00000000000E+00  0.00000000000E+00  0.33312954306E+03  0.33312954306E+03  0.00000000000E+00 0. -1.
         -1   -1    0    0    0  501 -0.00000000000E+00 -0.00000000000E+00 -0.16010256832E+03  0.16010256832E+03  0.00000000000E+00 0.  1.
         23    2    1    2    0    0 -0.14676368919E+03 -0.46842114565E+02  0.74698347222E+02  0.19366134908E+03  0.90504756169E+02 0.  0.
         23    2    1    2    0    0  0.11631339115E+03  0.95170527269E+02  0.14274782110E+03  0.22721109892E+03  0.93068301909E+02 0.  0.
        -11    1    4    4    0    0  0.83860560577E+02  0.54688580001E+02  0.14391480861E+03  0.17531373746E+03  0.00000000000E+00 0.  1.
         11    1    4    4    0    0  0.32452830571E+02  0.40481947268E+02 -0.11669875099E+01  0.51897361460E+02  0.00000000000E+00 0. -1.
        -13    1    3    3    0    0 -0.44233184926E+02 -0.48205618331E+02  0.62358084938E+02  0.90381895557E+02  0.00000000000E+00 0. -1.
         13    1    3    3    0    0 -0.10253050427E+03  0.13635037658E+01  0.12340262284E+02  0.10327945353E+03  0.00000000000E+00 0.  1.
         21    1    1    2  502  501  0.30450298044E+02 -0.48328412704E+02 -0.44419193590E+02  0.72359663381E+02  0.00000000000E+00 0. -1.
<scales pt_clust_5="13000.00000" pt_clust_6="13000.00000" pt_clust_7="13000.00000" pt_clust_8="13000.00000" pt_clust_9="57.12142"></scales>
<clustering>
<clus scale="   57.121">  2  9  1 -1</clus>
<clus scale="   90.505">  7  8 -1 -1</clus>
<clus scale="   93.068">  5  6 -1 -1</clus>
<clus scale="  174.532">  2  7  1 -1</clus>
<clus scale="  175.875">  1  5  2 -1</clus>
</clustering>
</event>
<event>
 9    1  0.1434065E-005  0.2070730E+03  0.7546771E-02  0.1144032E+00
         -1   -1    0    0    0  501 -0.00000000000E+00  0.00000000000E+00  0.30809646561E+03  0.30809646561E+03  0.00000000000E+00 0.  1.
          1   -1    0    0  502    0  0.00000000000E+00 -0.00000000000E+00 -0.43939009318E+03  0.43939009318E+03  0.00000000000E+00 0. -1.
         23    2    1    2    0    0 -0.23721046282E+03 -0.25397319346E+02  0.97434077584E+02  0.27319307234E+03  0.90704067155E+02 0.  0.
         23    2    1    2    0    0  0.17417255449E+03  0.32401746898E+02 -0.31150491249E+03  0.37001066934E+03  0.92122923212E+02 0.  0.
        -11    1    4    4    0    0  0.39871839027E+02  0.46749389843E+02 -0.12977547202E+03  0.14358600954E+03  0.00000000000E+00 0.  1.
         11    1    4    4    0    0  0.13430071546E+03 -0.14347642945E+02 -0.18172944047E+03  0.22642465980E+03  0.00000000000E+00 0. -1.
        -13    1    3    3    0    0 -0.19553711266E+03  0.84514602474E+01  0.51111639948E+02  0.20228343814E+03  0.00000000000E+00 0. -1.
         13    1    3    3    0    0 -0.41673350156E+02 -0.33848779593E+02  0.46322437636E+02  0.70909634195E+02  0.00000000000E+00 0.  1.
         21    1    1    2  502  501  0.63037908328E+02 -0.70044275524E+01  0.82777207329E+02  0.10428281711E+03  0.00000000000E+00 0.  1.
<scales pt_clust_5="13000.00000" pt_clust_6="13000.00000" pt_clust_7="13000.00000" pt_clust_8="13000.00000" pt_clust_9="63.42586"></scales>
<clustering>
<clus scale="   63.426">  1  9  2 -1</clus>
<clus scale="   90.704">  7  8 -1 -1</clus>
<clus scale="   92.123">  5  6 -1 -1</clus>
<clus scale="  206.446">  1  7  2 -1</clus>
<clus scale="  207.073">  2  5  1 -1</clus>
</clustering>
</event>
<event>
 9    1  0.1434065E-005  0.1858666E+03  0.7546771E-02  0.1163407E+00
         -1   -1    0    0    0  501 -0.00000000000E+00  0.00000000000E+00  0.95842520691E+02  0.95842520691E+02  0.00000000000E+00 0.  1.
          1   -1    0    0  502    0  0.00000000000E+00 -0.00000000000E+00 -0.54616089867E+03  0.54616089867E+03  0.00000000000E+00 0. -1.
         23    2    1    2    0    0  0.20627435800E+02  0.14365642367E+03 -0.13703311524E+03  0.21534088742E+03  0.80814379617E+02 0.  0.
         23    2    1    2    0    0  0.24778013007E+01 -0.17419790960E+03 -0.33054936561E+03  0.38465439474E+03  0.91351349622E+02 0.  0.
        -11    1    3    3    0    0  0.29346289237E+02  0.96095779351E+02 -0.13318500052E+03  0.16683479213E+03  0.00000000000E+00 0. -1.
         11    1    3    3    0    0 -0.87188534373E+01  0.47560644322E+02 -0.38481147177E+01  0.48506095292E+02  0.00000000000E+00 0.  1.
        -13    1    4    4    0    0  0.64640285011E+01 -0.11477294534E+03 -0.29172994119E+03  0.31356175027E+03  0.00000000000E+00 0.  1.
         13    1    4    4    0    0 -0.39862272004E+01 -0.59424964265E+02 -0.38819424418E+02  0.71092644467E+02  0.00000000000E+00 0. -1.
         21    1    1    2  502  501 -0.23105237101E+02  0.30541485930E+02  0.17264102860E+02  0.42008137210E+02  0.00000000000E+00 0.  1.
<scales pt_clust_5="13000.00000" pt_clust_6="13000.00000" pt_clust_7="13000.00000" pt_clust_8="13000.00000" pt_clust_9="38.29666"></scales>
<clustering>
<clus scale="   38.297">  1  9  2 -1</clus>
<clus scale="   80.814">  5  6 -1 -1</clus>
<clus scale="   91.351">  7  8 -1 -1</clus>
<clus scale="  180.921">  1  5  2 -1</clus>
<clus scale="  185.867">  2  5  1 -1</clus>
</clustering>
</event>
<event>
 9    1  0.1434065E-005  0.9189569E+02  0.7546771E-02  0.1298939E+00
          1   -1    0    0  502    0  0.00000000000E+00  0.00000000000E+00  0.13584387080E+03  0.13584387080E+03  0.00000000000E+00 0. -1.
         -1   -1    0    0    0  501 -0.00000000000E+00 -0.00000000000E+00 -0.19844608518E+03  0.19844608518E+03  0.00000000000E+00 0.  1.
         23    2    1    2    0    0 -0.18916719745E+02  0.10134111065E+02 -0.13922682480E+02  0.94172744753E+02  0.90631795050E+02 0.  0.
         23    2    1    2    0    0 -0.30811595019E+02  0.80280210626E+01  0.64692089676E+02  0.11499370060E+03  0.89580584956E+02 0.  0.
        -11    1    4    4    0    0 -0.35562757708E+02  0.35218163763E+02  0.63497800088E+01  0.50451446964E+02  0.00000000000E+00 0.  1.
         11    1    4    4    0    0  0.47511626883E+01 -0.27190142701E+02  0.58342309667E+02  0.64542253635E+02  0.00000000000E+00 0. -1.
        -13    1    3    3    0    0 -0.49940660742E+02 -0.51682476920E+01 -0.27221285758E+02  0.57111984538E+02  0.00000000000E+00 0. -1.
         13    1    3    3    0    0  0.31023940998E+02  0.15302358757E+02  0.13298603278E+02  0.37060760215E+02  0.00000000000E+00 0.  1.
         21    1    1    2  502  501  0.49728314764E+02 -0.18162132128E+02 -0.11337162157E+03  0.12512351063E+03  0.00000000000E+00 0.  1.
<scales pt_clust_5="13000.00000" pt_clust_6="13000.00000" pt_clust_7="13000.00000" pt_clust_8="13000.00000" pt_clust_9="52.94118"></scales>
<clustering>
<clus scale="   52.941">  2  9  1 -1</clus>
<clus scale="   89.581">  5  6 -1 -1</clus>
<clus scale="   90.632">  7  8 -1 -1</clus>
<clus scale="   90.859">  1  5  2 -1</clus>
<clus scale="   90.859">  1  5  2 -1</clus>
</clustering>
</event>
<event>
 9    1  0.1434065E-005  0.9365006E+02  0.7546771E-02  0.1294656E+00
         -1   -1    0    0    0  501 -0.00000000000E+00  0.00000000000E+00  0.67356542980E+02  0.67356542980E+02  0.00000000000E+00 0.  1.
          1   -1    0    0  502    0  0.00000000000E+00 -0.00000000000E+00 -0.18943050700E+03  0.18943050700E+03  0.00000000000E+00 0. -1.
         23    2    1    2    0    0 -0.56665658839E+01 -0.10684475347E+02 -0.18703406678E+02  0.94109875213E+02  0.91436224817E+02 0.  0.
         23    2    1    2    0    0  0.27002206121E+02 -0.79680442937E-01 -0.10139157707E+03  0.13869816400E+03  0.90707239580E+02 0.  0.
        -11    1    3    3    0    0 -0.16789944055E+02 -0.42462775030E+02  0.13401471205E+02  0.47587697098E+02  0.00000000000E+00 0.  1.
         11    1    3    3    0    0  0.11123378171E+02  0.31778299683E+02 -0.32104877884E+02  0.46522178115E+02  0.00000000000E+00 0. -1.
        -13    1    4    4    0    0 -0.64451232928E+01 -0.19761866935E+02 -0.97504264327E+02  0.99695298590E+02  0.00000000000E+00 0. -1.
         13    1    4    4    0    0  0.33447329414E+02  0.19682186492E+02 -0.38873127448E+01  0.39002865412E+02  0.00000000000E+00 0.  1.
         21    1    1    2  502  501 -0.21335640237E+02  0.10764155790E+02 -0.19789802676E+01  0.23979010761E+02  0.00000000000E+00 0.  1.
<scales pt_clust_5="13000.00000" pt_clust_6="13000.00000" pt_clust_7="13000.00000" pt_clust_8="13000.00000" pt_clust_9="23.89721"></scales>
<clustering>
<clus scale="   23.897">  1  9  2 -1</clus>
<clus scale="   90.707">  7  8 -1 -1</clus>
<clus scale="   91.436">  5  6 -1 -1</clus>
<clus scale="   92.938">  2  7  1 -1</clus>
<clus scale="   92.938">  2  5  1 -1</clus>
</clustering>
</event>
<event>
 9    1  0.1434065E-005  0.1283158E+03  0.7546771E-02  0.1231476E+00
          2   -1    0    0  502    0  0.00000000000E+00  0.00000000000E+00  0.95237014900E+02  0.95237014900E+02  0.00000000000E+00 0. -1.
         -2   -1    0    0    0  501 -0.00000000000E+00 -0.00000000000E+00 -0.31650629607E+03  0.31650629607E+03  0.00000000000E+00 0.  1.
         23    2    1    2    0    0  0.88682215313E+02  0.19569814425E+02 -0.13816709124E+03  0.18613661656E+03  0.85493754001E+02 0.  0.
         23    2    1    2    0    0 -0.66282752085E+02 -0.67645438646E+02 -0.53787562071E+01  0.13151135049E+03  0.91087846043E+02 0.  0.
        -11    1    4    4    0    0 -0.44699027016E+02 -0.54197879930E+02  0.39008167766E+02  0.80355773641E+02  0.00000000000E+00 0. -1.
         11    1    4    4    0    0 -0.21583725069E+02 -0.13447558717E+02 -0.44386923973E+02  0.51155576852E+02  0.00000000000E+00 0.  1.
        -13    1    3    3    0    0  0.89782872453E+02  0.44170095080E+02 -0.10893275207E+03  0.14791317034E+03  0.00000000000E+00 0.  1.
         13    1    3    3    0    0 -0.11006571408E+01 -0.24600280656E+02 -0.29234339166E+02  0.38223446220E+02  0.00000000000E+00 0. -1.
         21    1    1    2  502  501 -0.22399463228E+02  0.48075624222E+02 -0.77723433726E+02  0.94095343920E+02  0.00000000000E+00 0.  1.
<scales pt_clust_5="13000.00000" pt_clust_6="13000.00000" pt_clust_7="13000.00000" pt_clust_8="13000.00000" pt_clust_9="53.03774"></scales>
<clustering>
<clus scale="   53.038">  2  9  1 -1</clus>
<clus scale="   85.494">  7  8 -1 -1</clus>
<clus scale="   91.088">  5  6 -1 -1</clus>
<clus scale="  124.407">  2  7  1 -1</clus>
<clus scale="  128.316">  1  5  2 -1</clus>
</clustering>
</event>
<event>
 9    1  0.1434065E-005  0.1054578E+03  0.7546771E-02  0.1269675E+00
         -2   -1    0    0    0  501 -0.00000000000E+00  0.00000000000E+00  0.91832443537E+02  0.91832443537E+02  0.00000000000E+00 0.  1.
          2   -1    0    0  502    0  0.00000000000E+00 -0.00000000000E+00 -0.18451486301E+03  0.18451486301E+03  0.00000000000E+00 0. -1.
         23    2    1    2    0    0 -0.21765314877E+02  0.27175812861E+02  0.43079099070E+00  0.97671860209E+02  0.91254331182E+02 0.  0.
         23    2    1    2    0    0  0.40142078915E+02 -0.46622785912E+02 -0.10305847776E+03  0.15013076980E+03  0.90183854074E+02 0.  0.
        -11    1    4    4    0    0  0.45177261336E+02  0.14234407805E+02 -0.36458618776E+02  0.59773189562E+02  0.00000000000E+00 0.  1.
         11    1    4    4    0    0 -0.50351824204E+01 -0.60857193717E+02 -0.66599858989E+02  0.90357580238E+02  0.00000000000E+00 0. -1.
        -13    1    3    3    0    0 -0.36705992257E+02 -0.23317919137E+02 -0.83679169680E+01  0.44284051925E+02  0.00000000000E+00 0. -1.
         13    1    3    3    0    0  0.14940677380E+02  0.50493731998E+02  0.87987079587E+01  0.53387808284E+02  0.00000000000E+00 0.  1.
         21    1    1    2  502  501 -0.18376764038E+02  0.19446973051E+02  0.99452672966E+01  0.28544676543E+02  0.00000000000E+00 0. -1.
<scales pt_clust_5="13000.00000" pt_clust_6="13000.00000" pt_clust_7="13000.00000" pt_clust_8="13000.00000" pt_clust_9="26.75612"></scales>
<clustering>
<clus scale="   26.756">  1  9  2 -1</clus>
<clus scale="   90.184">  5  6 -1 -1</clus>
<clus scale="   91.254">  7  8 -1 -1</clus>
<clus scale="  104.533">  2  5  1 -1</clus>
<clus scale="  104.533">  2  5  1 -1</clus>
</clustering>
</event>
<event>
 9    1  0.1434065E-005  0.1774442E+03  0.7546771E-02  0.1170423E+00
         -1   -1    0    0    0  501 -0.00000000000E+00  0.00000000000E+00  0.40263003045E+02  0.40263003045E+02  0.00000000000E+00 0.  1.
          1   -1    0    0  502    0  0.00000000000E+00 -0.00000000000E+00 -0.13623604447E+04  0.13623604447E+04  0.00000000000E+00 0. -1.
         23    2    1    2    0    0  0.71183702777E+02  0.13670091882E+03 -0.43062460160E+03  0.46646061384E+03  0.91617116386E+02 0.  0.
         23    2    1    2    0    0 -0.14831136059E+01 -0.15692076167E+03 -0.79525815891E+03  0.81564611704E+03  0.90646146395E+02 0.  0.
        -11    1    4    4    0    0 -0.30079803340E+02 -0.12586848318E+03 -0.69363184581E+03  0.70560102548E+03  0.00000000000E+00 0. -1.
         11    1    4    4    0    0  0.28596689735E+02 -0.31052278487E+02 -0.10162631310E+03  0.11004509157E+03  0.00000000000E+00 0.  1.
        -13    1    3    3    0    0 -0.10951561234E+02  0.76953344300E+02 -0.18783284221E+03  0.20328042332E+03  0.00000000000E+00 0.  1.
         13    1    3    3    0    0  0.82135264011E+02  0.59747574518E+02 -0.24279175939E+03  0.26318019052E+03  0.00000000000E+00 0. -1.
         21    1    1    2  502  501 -0.69700589171E+02  0.20219842852E+02 -0.96214681132E+02  0.12051671685E+03  0.00000000000E+00 0. -1.
<scales pt_clust_5="13000.00000" pt_clust_6="13000.00000" pt_clust_7="13000.00000" pt_clust_8="13000.00000" pt_clust_9="72.57420"></scales>
<clustering>
<clus scale="   72.574">  1  9  2 -1</clus>
<clus scale="   90.646">  5  6 -1 -1</clus>
<clus scale="   91.617">  7  8 -1 -1</clus>
<clus scale="  176.945">  2  5  1 -1</clus>
<clus scale="  176.945">  2  5  1 -1</clus>
</clustering>
</event>
<event>
 9    1  0.1434065E-005  0.1426371E+03  0.7546771E-02  0.1210199E+00
          2   -1    0    0  502    0  0.00000000000E+00  0.00000000000E+00  0.23548566567E+03  0.23548566567E+03  0.00000000000E+00 0. -1.
         -2   -1    0    0    0  501 -0.00000000000E+00 -0.00000000000E+00 -0.15056741934E+03  0.15056741934E+03  0.00000000000E+00 0.  1.
         23    2    1    2    0    0 -0.28359264914E+02 -0.74278797254E+02 -0.52176102089E+02  0.13234505721E+03  0.92039561656E+02 0.  0.
         23    2    1    2    0    0  0.56349025573E+02  0.10489338228E+03  0.14852769694E+03  0.21068011854E+03  0.90265171924E+02 0.  0.
        -11    1    4    4    0    0  0.38554622975E+02  0.37161070036E+02  0.12633842839E+03  0.13721808397E+03  0.00000000000E+00 0. -1.
         11    1    4    4    0    0  0.17794402598E+02  0.67732312240E+02  0.22189268546E+02  0.73462034574E+02  0.00000000000E+00 0.  1.
        -13    1    3    3    0    0 -0.51938601921E+02 -0.76616311953E+02 -0.56234482213E+02  0.10830509968E+03  0.00000000000E+00 0.  1.
         13    1    3    3    0    0  0.23579337007E+02  0.23375146989E+01  0.40583801238E+01  0.24039957527E+02  0.00000000000E+00 0. -1.
         21    1    1    2  502  501 -0.27989760659E+02 -0.30614585022E+02 -0.11433348514E+02  0.43027909269E+02  0.00000000000E+00 0.  1.
<scales pt_clust_5="13000.00000" pt_clust_6="13000.00000" pt_clust_7="13000.00000" pt_clust_8="13000.00000" pt_clust_9="41.48107"></scales>
<clustering>
<clus scale="   41.481">  2  9  1 -1</clus>
<clus scale="   90.265">  5  6 -1 -1</clus>
<clus scale="   92.040">  7  8 -1 -1</clus>
<clus scale="  141.499">  1  5  2 -1</clus>
<clus scale="  141.499">  1  5  2 -1</clus>
</clustering>
</event>
<event>
 9    1  0.1434065E-005  0.2420643E+03  0.7546771E-02  0.1119619E+00
         -1   -1    0    0    0  501 -0.00000000000E+00  0.00000000000E+00  0.58447479251E+02  0.58447479251E+02  0.00000000000E+00 0.  1.
          1   -1    0    0  502    0  0.00000000000E+00 -0.00000000000E+00 -0.16158546948E+04  0.16158546948E+04  0.00000000000E+00 0. -1.
         23    2    1    2    0    0  0.10247107242E+02 -0.20187938503E+03 -0.58550265450E+03  0.62615695118E+03  0.91645402358E+02 0.  0.
         23    2    1    2    0    0 -0.19794012196E+02  0.22656791339E+03 -0.98631271576E+03  0.10180078417E+04  0.10863871373E+03 0.  0.
        -11    1    4    4    0    0  0.43222963354E+02  0.61296458787E+02 -0.31079621393E+03  0.31971826193E+03  0.00000000000E+00 0. -1.
         11    1    4    4    0    0 -0.63016975550E+02  0.16527145460E+03 -0.67551650183E+03  0.69828957973E+03  0.00000000000E+00 0.  1.
        -11    1    3    3    0    0 -0.31662442944E+02 -0.25607546938E+02 -0.11192640345E+03  0.11910405762E+03  0.00000000000E+00 0.  1.
         11    1    3    3    0    0  0.41909550186E+02 -0.17627183809E+03 -0.47357625105E+03  0.50705289355E+03  0.00000000000E+00 0. -1.
         21    1    1    2  502  501  0.95469049540E+01 -0.24688528358E+02  0.14408154682E+02  0.30137381240E+02  0.00000000000E+00 0.  1.
<scales pt_clust_5="13000.00000" pt_clust_6="13000.00000" pt_clust_7="13000.00000" pt_clust_8="13000.00000" pt_clust_9="26.47011"></scales>
<clustering>
<clus scale="   26.470">  1  9  2 -1</clus>
<clus scale="   91.645">  7  8 -1 -1</clus>
<clus scale="  108.639">  5  6 -1 -1</clus>
<clus scale="  234.929">  1  7  2 -1</clus>
<clus scale="  242.064">  2  5  1 -1</clus>
</clustering>
</event>
<event>
 9    1  0.1434065E-005  0.1053798E+03  0.7546771E-02  0.1269969E+00
          4   -1    0    0  502    0  0.00000000000E+00  0.00000000000E+00  0.14599716912E+03  0.14599716912E+03  0.00000000000E+00 0. -1.
         -4   -1    0    0    0  501 -0.00000000000E+00 -0.00000000000E+00 -0.43967670900E+03  0.43967670900E+03  0.00000000000E+00 0.  1.
         23    2    1    2    0    0 -0.22422954096E+02  0.76594996753E+02 -0.31883004979E+02  0.12428703295E+03  0.89783952660E+02 0.  0.
         23    2    1    2    0    0  0.34392105310E+02 -0.30896645147E+02  0.71501909190E+02  0.12475729692E+03  0.91183554045E+02 0.  0.
        -13    1    3    3    0    0 -0.10279595435E+02  0.93284468924E+02 -0.40119066700E+02  0.10206469388E+03  0.00000000000E+00 0.  1.
         13    1    3    3    0    0 -0.12143358661E+02 -0.16689472171E+02  0.82360617211E+01  0.22222339067E+02  0.00000000000E+00 0. -1.
        -13    1    4    4    0    0 -0.19441597887E+02 -0.10913547709E+02  0.62848594292E+02  0.66686033444E+02  0.00000000000E+00 0. -1.
         13    1    4    4    0    0  0.53833703197E+02 -0.19983097438E+02  0.86533148979E+01  0.58071263477E+02  0.00000000000E+00 0.  1.
         21    1    1    2  502  501 -0.11969151214E+02 -0.45698351606E+02 -0.33329844409E+03  0.33662954825E+03  0.00000000000E+00 0.  1.
<scales pt_clust_5="13000.00000" pt_clust_6="13000.00000" pt_clust_7="13000.00000" pt_clust_8="13000.00000" pt_clust_9="47.23981"></scales>
<clustering>
<clus scale="   47.240">  2  9  1 -1</clus>
<clus scale="   89.784">  5  6 -1 -1</clus>
<clus scale="   91.184">  7  8 -1 -1</clus>
<clus scale="  104.171">  2  5  1 -1</clus>
<clus scale="  105.380">  1  5  2 -1</clus>
</clustering>
</event>
<event>
 9    1  0.1434065E-005  0.1275194E+03  0.7546771E-02  0.1232819E+00
          1   -1    0    0  502    0  0.00000000000E+00  0.00000000000E+00  0.45298301301E+03  0.45298301301E+03  0.00000000000E+00 0. -1.
         -1   -1    0    0    0  501 -0.00000000000E+00 -0.00000000000E+00 -0.56671059114E+02  0.56671059114E+02  0.00000000000E+00 0.  1.
         23    2    1    2    0    0  0.43952349523E+02  0.65023588422E+02  0.74321407554E+02  0.13992082466E+03  0.88849814142E+02 0.  0.
         23    2    1    2    0    0 -0.78898330293E+02 -0.45419990018E+02  0.29041347574E+03  0.31871723008E+03  0.94619045847E+02 0.  0.
        -11    1    3    3    0    0  0.60390186866E+02  0.29564190172E+02  0.75135268985E+02  0.10082819375E+03  0.00000000000E+00 0. -1.
         11    1    3    3    0    0 -0.16437837343E+02  0.35459398250E+02 -0.81386143162E+00  0.39092630906E+02  0.00000000000E+00 0.  1.
        -13    1    4    4    0    0 -0.20455754925E+02  0.24567176747E+02  0.13314030797E+03  0.13692452552E+03  0.00000000000E+00 0.  1.
         13    1    4    4    0    0 -0.58442575368E+02 -0.69987166765E+02  0.15727316777E+03  0.18179270455E+03  0.00000000000E+00 0. -1.
         21    1    1    2  502  501  0.34945980771E+02 -0.19603598405E+02  0.31577070595E+02  0.51016017385E+02  0.00000000000E+00 0. -1.
<scales pt_clust_5="13000.00000" pt_clust_6="13000.00000" pt_clust_7="13000.00000" pt_clust_8="13000.00000" pt_clust_9="40.06897"></scales>
<clustering>
<clus scale="   40.069">  2  9  1 -1</clus>
<clus scale="   88.850">  5  6 -1 -1</clus>
<clus scale="   94.619">  7  8 -1 -1</clus>
<clus scale="  123.299">  2  5  1 -1</clus>
<clus scale="  127.519">  1  5  2 -1</clus>
</clustering>
</event>
<event>
 9    1  0.1434065E-005  0.1060983E+03  0.7546771E-02  0.1270600E+00
          1   -1    0    0  502    0  0.00000000000E+00  0.00000000000E+00  0.33617195281E+03  0.33617195281E+03  0.00000000000E+00 0. -1.
         -1   -1    0    0    0  501 -0.00000000000E+00 -0.00000000000E+00 -0.44570421758E+02  0.44570421758E+02  0.00000000000E+00 0.  1.
         23    2    1    2    0    0  0.52259082831E+01 -0.54187270774E+02  0.15208648580E+03  0.18863551670E+03  0.97414005995E+02 0.  0.
         23    2    1    2    0    0 -0.68804649546E+01  0.31029823555E+02  0.13820859296E+03  0.16885364869E+03  0.91650143260E+02 0.  0.
        -11    1    4    4    0    0 -0.48920375108E+02  0.22535632099E+02  0.70834585498E+02  0.88986495141E+02  0.00000000000E+00 0. -1.
         11    1    4    4    0    0  0.42039910154E+02  0.84941914553E+01  0.67374007466E+02  0.79867153550E+02  0.00000000000E+00 0.  1.
        -13    1    3    3    0    0  0.44567273366E+02 -0.49459427683E+02  0.65415856142E+02  0.93336547380E+02  0.00000000000E+00 0.  1.
         13    1    3    3    0    0 -0.39341365083E+02 -0.47278430908E+01  0.86670629660E+02  0.95298969315E+02  0.00000000000E+00 0. -1.
         21    1    1    2  502  501  0.16545566715E+01  0.23157447220E+02  0.13064522834E+01  0.23253209178E+02  0.00000000000E+00 0.  1.
<scales pt_clust_5="13000.00000" pt_clust_6="13000.00000" pt_clust_7="13000.00000" pt_clust_8="13000.00000" pt_clust_9="23.21648"></scales>
<clustering>
<clus scale="   23.216">  2  9  1 -1</clus>
<clus scale="   91.650">  5  6 -1 -1</clus>
<clus scale="   97.414">  7  8 -1 -1</clus>
<clus scale="  100.832">  1  5  2 -1</clus>
<clus scale="  100.832">  1  5  2 -1</clus>
</clustering>
</event>
<event>
 9    1  0.1434065E-005  0.1135123E+03  0.7546771E-02  0.1255456E+00
          1   -1    0    0  502    0  0.00000000000E+00  0.00000000000E+00  0.25542413724E+03  0.25542413724E+03  0.00000000000E+00 0. -1.
         -1   -1    0    0    0  501 -0.00000000000E+00 -0.00000000000E+00 -0.98739530952E+02  0.98739530952E+02  0.00000000000E+00 0.  1.
         23    2    1    2    0    0  0.49694756801E+01 -0.63495152449E+02  0.70014539229E+02  0.13383734958E+03  0.94625949751E+02 0.  0.
         23    2    1    2    0    0  0.24412710859E+02  0.60002533126E+02  0.12766197078E+03  0.16977092873E+03  0.91259547591E+02 0.  0.
        -13    1    3    3    0    0  0.38344802700E+02 -0.85921973055E+01  0.66898828309E+00  0.39301365039E+02  0.00000000000E+00 0.  1.
         13    1    3    3    0    0 -0.33375327020E+02 -0.54902955143E+02  0.69345550946E+02  0.94535984541E+02  0.00000000000E+00 0. -1.
        -13    1    4    4    0    0  0.44123299691E+02  0.32071317300E+02  0.12390365718E+03  0.13537928657E+03  0.00000000000E+00 0.  1.
         13    1    4    4    0    0 -0.19710588831E+02  0.27931215826E+02  0.37583135975E+01  0.34391642163E+02  0.00000000000E+00 0. -1.
         21    1    1    2  502  501 -0.29382186539E+02  0.34926193226E+01 -0.40991903719E+02  0.50555389881E+02  0.00000000000E+00 0. -1.
<scales pt_clust_5="13000.00000" pt_clust_6="13000.00000" pt_clust_7="13000.00000" pt_clust_8="13000.00000" pt_clust_9="29.58904"></scales>
<clustering>
<clus scale="   29.589">  2  9  1 -1</clus>
<clus scale="   91.260">  7  8 -1 -1</clus>
<clus scale="   94.626">  5  6 -1 -1</clus>
<clus scale="  110.722">  1  7  2 -1</clus>
<clus scale="  110.722">  1  5  2 -1</clus>
</clustering>
</event>
<event>
 9    1  0.1434065E-005  0.9974702E+02  0.7546771E-02  0.1282828E+00
          1   -1    0    0  502    0  0.00000000000E+00  0.00000000000E+00  0.16787054750E+03  0.16787054750E+03  0.00000000000E+00 0. -1.
         -1   -1    0    0    0  501 -0.00000000000E+00 -0.00000000000E+00 -0.30892377256E+03  0.30892377256E+03  0.00000000000E+00 0.  1.
         23    2    1    2    0    0 -0.60846099373E+01 -0.56776250305E+02 -0.11969364026E+03  0.16069660119E+03  0.90753870663E+02 0.  0.
         23    2    1    2    0    0  0.33970198322E+02 -0.15311935361E+02  0.11857095335E+03  0.15623881839E+03  0.94673479155E+02 0.  0.
        -11    1    3    3    0    0  0.37011824942E+02 -0.68607183903E+01 -0.64592786407E+02  0.74760769780E+02  0.00000000000E+00 0. -1.
         11    1    3    3    0    0 -0.43096434879E+02 -0.49915531915E+02 -0.55100853852E+02  0.85935831415E+02  0.00000000000E+00 0.  1.
        -11    1    4    4    0    0 -0.27326941278E+02 -0.27149550870E+02  0.36008036469E+02  0.52729863668E+02  0.00000000000E+00 0.  1.
         11    1    4    4    0    0  0.61297139600E+02  0.11837615509E+02  0.82562916879E+02  0.10350895472E+03  0.00000000000E+00 0. -1.
         21    1    1    2  502  501 -0.27885588385E+02  0.72088185667E+02 -0.13993053815E+03  0.15985890047E+03  0.00000000000E+00 0.  1.
<scales pt_clust_5="13000.00000" pt_clust_6="13000.00000" pt_clust_7="13000.00000" pt_clust_8="13000.00000" pt_clust_9="77.29368"></scales>
<clustering>
<clus scale="   77.294">  2  9  1 -1</clus>
<clus scale="   90.754">  5  6 -1 -1</clus>
<clus scale="   94.673">  7  8 -1 -1</clus>
<clus scale="   96.035">  2  5  1 -1</clus>
<clus scale="   99.747">  1  5  2 -1</clus>
</clustering>
</event>
<event>
 9    1  0.1434065E-005  0.1935837E+03  0.7546771E-02  0.1155827E+00
          4   -1    0    0  502    0  0.00000000000E+00  0.00000000000E+00  0.12346771375E+03  0.12346771375E+03  0.00000000000E+00 0. -1.
         -4   -1    0    0    0  501 -0.00000000000E+00 -0.00000000000E+00 -0.41901983987E+03  0.41901983987E+03  0.00000000000E+00 0.  1.
         23    2    1    2    0    0  0.56726362038E+02 -0.14581139966E+03 -0.14119557305E+03  0.22755969494E+03  0.85839271261E+02 0.  0.
         23    2    1    2    0    0 -0.99556228762E+02  0.15342093624E+03 -0.63273751035E+02  0.21399035645E+03  0.91317461212E+02 0.  0.
        -11    1    4    4    0    0 -0.84238071949E+02  0.11182647532E+03 -0.41107376537E+01  0.14006466904E+03  0.00000000000E+00 0. -1.
         11    1    4    4    0    0 -0.15318156813E+02  0.41594460916E+02 -0.59163013381E+02  0.73925687412E+02  0.00000000000E+00 0.  1.
        -13    1    3    3    0    0  0.31071822101E+02 -0.21135116818E+02 -0.75460477709E+02  0.84299673711E+02  0.00000000000E+00 0. -1.
         13    1    3    3    0    0  0.25654539937E+02 -0.12467628284E+03 -0.65735095338E+02  0.14326002123E+03  0.00000000000E+00 0.  1.
         21    1    1    2  502  501  0.42829866724E+02 -0.76095365820E+01 -0.91082802032E+02  0.10093750223E+03  0.00000000000E+00 0. -1.
<scales pt_clust_5="13000.00000" pt_clust_6="13000.00000" pt_clust_7="13000.00000" pt_clust_8="13000.00000" pt_clust_9="43.50060"></scales>
<clustering>
<clus scale="   43.501">  2  9  1 -1</clus>
<clus scale="   85.839">  7  8 -1 -1</clus>
<clus scale="   91.317">  5  6 -1 -1</clus>
<clus scale="  191.061">  2  7  1 -1</clus>
<clus scale="  193.584">  1  5  2 -1</clus>
</clustering>
</event>
<event>
 9    1  0.1434065E-005  0.9306867E+02  0.7546771E-02  0.1295735E+00
          1   -1    0    0  502    0  0.00000000000E+00  0.00000000000E+00  0.32496568619E+03  0.32496568619E+03  0.00000000000E+00 0. -1.
         -1   -1    0    0    0  501 -0.00000000000E+00 -0.00000000000E+00 -0.53497238164E+02  0.53497238164E+02  0.00000000000E+00 0.  1.
         23    2    1    2    0    0  0.90731379862E+01  0.44219055595E+01  0.45713339412E+02  0.10377485564E+03  0.92615528837E+02 0.  0.
         23    2    1    2    0    0  0.84622730833E+01  0.69036868559E+01  0.23419295314E+03  0.25217236519E+03  0.92872447528E+02 0.  0.
        -11    1    3    3    0    0  0.41853877097E+02  0.52653933613E+01  0.55353947987E+02  0.69595480838E+02  0.00000000000E+00 0. -1.
         11    1    3    3    0    0 -0.32780739111E+02 -0.84348780177E+00 -0.96406085751E+01  0.34179374804E+02  0.00000000000E+00 0.  1.
        -13    1    4    4    0    0  0.47994262075E+02 -0.10163030737E+02  0.14615147201E+03  0.15416546032E+03  0.00000000000E+00 0. -1.
         13    1    4    4    0    0 -0.39531988992E+02  0.17066717593E+02  0.88041481128E+02  0.98006904870E+02  0.00000000000E+00 0.  1.
         21    1    1    2  502  501 -0.17535411069E+02 -0.11325592415E+02 -0.84378445210E+01  0.22515703522E+02  0.00000000000E+00 0.  1.
<scales pt_clust_5="13000.00000" pt_clust_6="13000.00000" pt_clust_7="13000.00000" pt_clust_8="13000.00000" pt_clust_9="20.87486"></scales>
<clustering>
<clus scale="   20.875">  2  9  1 -1</clus>
<clus scale="   92.616">  5  6 -1 -1</clus>
<clus scale="   92.812">  2  5  1 -1</clus>
<clus scale="   92.872">  7  8 -1 -1</clus>
<clus scale="   93.069">  1  5  2 -1</clus>
</clustering>
</event>
<event>
 9    1  0.1434065E-005  0.9973643E+02  0.7546771E-02  0.1281460E+00
          2   -1    0    0  502    0  0.00000000000E+00  0.00000000000E+00  0.21774822587E+03  0.21774822587E+03  0.00000000000E+00 0. -1.
         -2   -1    0    0    0  501 -0.00000000000E+00 -0.00000000000E+00 -0.16404384556E+03  0.16404384556E+03  0.00000000000E+00 0.  1.
         23    2    1    2    0    0 -0.31260413267E+02 -0.39211233820E+02 -0.27143655587E+02  0.10924612491E+03  0.93183708197E+02 0.  0.
         23    2    1    2    0    0  0.26777647555E+02  0.19178500217E+02  0.16181898432E+03  0.18901331762E+03  0.91955387395E+02 0.  0.
        -13    1    3    3    0    0 -0.40812307361E+02  0.19584159160E+02 -0.19126754671E+02  0.49142817038E+02  0.00000000000E+00 0.  1.
         13    1    3    3    0    0  0.95518940940E+01 -0.58795392981E+02 -0.80169009155E+01  0.60103307870E+02  0.00000000000E+00 0. -1.
        -13    1    4    4    0    0 -0.74631371318E+01  0.47788727062E+02  0.11277019630E+03  0.12270524856E+03  0.00000000000E+00 0.  1.
         13    1    4    4    0    0  0.34240784687E+02 -0.28610226845E+02  0.49048788017E+02  0.66308069057E+02  0.00000000000E+00 0. -1.
         21    1    1    2  502  501  0.44827657117E+01  0.20032733604E+02 -0.80970948419E+02  0.83532628905E+02  0.00000000000E+00 0.  1.
<scales pt_clust_5="13000.00000" pt_clust_6="13000.00000" pt_clust_7="13000.00000" pt_clust_8="13000.00000" pt_clust_9="20.52817"></scales>
<clustering>
<clus scale="   20.528">  2  9  1 -1</clus>
<clus scale="   91.955">  7  8 -1 -1</clus>
<clus scale="   93.184">  5  6 -1 -1</clus>
<clus scale="   98.590">  1  7  2 -1</clus>
<clus scale="   98.590">  1  5  2 -1</clus>
</clustering>
</event>
<event>
 9    1  0.1434065E-005  0.2337955E+03  0.7546771E-02  0.1124095E+00
          1   -1    0    0  502    0  0.00000000000E+00  0.00000000000E+00  0.79574828466E+02  0.79574828466E+02  0.00000000000E+00 0. -1.
         -1   -1    0    0    0  501 -0.00000000000E+00 -0.00000000000E+00 -0.88144601067E+03  0.88144601067E+03  0.00000000000E+00 0.  1.
         23    2    1    2    0    0 -0.19958371772E+03 -0.10304636182E+03 -0.54086641509E+03  0.59246683741E+03  0.89600565849E+02 0.  0.
         23    2    1    2    0    0  0.19399111718E+03  0.83807598675E+02 -0.20184733011E+03  0.30609593947E+03  0.91082997015E+02 0.  0.
        -11    1    3    3    0    0 -0.14207637498E+03 -0.11485043032E+03 -0.39369279398E+03  0.43401651317E+03  0.00000000000E+00 0.  1.
         11    1    3    3    0    0 -0.57507342736E+02  0.11804068506E+02 -0.14717362111E+03  0.15845032424E+03  0.00000000000E+00 0. -1.
        -13    1    4    4    0    0  0.38616789084E+02  0.16141893124E+02 -0.99929711700E+02  0.10834096360E+03  0.00000000000E+00 0.  1.
         13    1    4    4    0    0  0.15537432809E+03  0.67665705551E+02 -0.10191761841E+03  0.19775497587E+03  0.00000000000E+00 0. -1.
         21    1    1    2  502  501  0.55926005411E+01  0.19238763142E+02 -0.59157437003E+02  0.62458062256E+02  0.00000000000E+00 0. -1.
<scales pt_clust_5="13000.00000" pt_clust_6="13000.00000" pt_clust_7="13000.00000" pt_clust_8="13000.00000" pt_clust_9="20.03515"></scales>
<clustering>
<clus scale="   20.035">  2  9  1 -1</clus>
<clus scale="   89.601">  5  6 -1 -1</clus>
<clus scale="   91.083">  7  8 -1 -1</clus>
<clus scale="  233.222">  2  5  1 -1</clus>
<clus scale="  233.795">  1  5  2 -1</clus>
</clustering>
</event>
<event>
 9    1  0.1434065E-005  0.1168026E+03  0.7546771E-02  0.1248957E+00
         -1   -1    0    0    0  501 -0.00000000000E+00  0.00000000000E+00  0.79378774802E+02  0.79378774802E+02  0.00000000000E+00 0.  1.
          1   -1    0    0  502    0  0.00000000000E+00 -0.00000000000E+00 -0.33777802583E+03  0.33777802583E+03  0.00000000000E+00 0. -1.
         23    2    1    2    0    0  0.37444416830E+02 -0.57325245816E+02  0.50768060380E+01  0.11538367027E+03  0.92732676259E+02 0.  0.
         23    2    1    2    0    0 -0.58204469787E+02  0.58186864315E+02 -0.19770198246E+03  0.23279522755E+03  0.91291142074E+02 0.  0.
        -11    1    4    4    0    0 -0.21917204317E+02  0.17803405397E+02 -0.16907862984E+03  0.17142026764E+03  0.00000000000E+00 0. -1.
         11    1    4    4    0    0 -0.36287265469E+02  0.40383458918E+02 -0.28623352621E+02  0.61374959916E+02  0.00000000000E+00 0.  1.
        -13    1    3    3    0    0  0.21992687523E+02 -0.81891677646E+02  0.11752397772E+02  0.85603995383E+02  0.00000000000E+00 0.  1.
         13    1    3    3    0    0  0.15451729308E+02  0.24566431830E+02 -0.66755917344E+01  0.29779674888E+02  0.00000000000E+00 0. -1.
         21    1    1    2  502  501  0.20760052956E+02 -0.86161849898E+00 -0.65774074612E+02  0.68977902811E+02  0.00000000000E+00 0.  1.
<scales pt_clust_5="13000.00000" pt_clust_6="13000.00000" pt_clust_7="13000.00000" pt_clust_8="13000.00000" pt_clust_9="20.77793"></scales>
<clustering>
<clus scale="   20.778">  2  9  1 -1</clus>
<clus scale="   91.291">  5  6 -1 -1</clus>
<clus scale="   92.733">  7  8 -1 -1</clus>
<clus scale="  115.661">  2  5  1 -1</clus>
<clus scale="   20.778">  2  5  1 -1</clus>
</clustering>
</event>
<event>
 9    1  0.1434065E-005  0.1132698E+03  0.7546771E-02  0.1255552E+00
          2   -1    0    0  502    0  0.00000000000E+00  0.00000000000E+00  0.28717652472E+03  0.28717652472E+03  0.00000000000E+00 0. -1.
         -2   -1    0    0    0  501 -0.00000000000E+00 -0.00000000000E+00 -0.14122843304E+03  0.14122843304E+03  0.00000000000E+00 0.  1.
         23    2    1    2    0    0 -0.49211271468E+02  0.11341445106E+02 -0.49764375752E+02  0.11530741683E+03  0.90933655294E+02 0.  0.
         23    2    1    2    0    0  0.39591906233E+02  0.60514795724E+02  0.20834239504E+03  0.23950836642E+03  0.93424538940E+02 0.  0.
        -11    1    3    3    0    0 -0.47397031250E+02  0.34941276624E+02 -0.64570646413E+02  0.87388441809E+02  0.00000000000E+00 0.  1.
         11    1    3    3    0    0 -0.18142402176E+01 -0.23599831519E+02  0.14806270662E+02  0.27918975020E+02  0.00000000000E+00 0. -1.
        -11    1    4    4    0    0  0.64151410098E+02  0.55772790148E+02  0.19102643918E+03  0.20908636494E+03  0.00000000000E+00 0. -1.
         11    1    4    4    0    0 -0.24559503865E+02  0.47420055765E+01  0.17315955858E+02  0.30422001483E+02  0.00000000000E+00 0.  1.
         21    1    1    2  502  501  0.96193652347E+01 -0.71856240830E+02 -0.12629927599E+02  0.73589174509E+02  0.00000000000E+00 0. -1.
<scales pt_clust_5="13000.00000" pt_clust_6="13000.00000" pt_clust_7="13000.00000" pt_clust_8="13000.00000" pt_clust_9="72.49725"></scales>
<clustering>
<clus scale="   72.497">  2  9  1 -1</clus>
<clus scale="   90.934">  5  6 -1 -1</clus>
<clus scale="   93.425">  7  8 -1 -1</clus>
<clus scale="  111.224">  2  5  1 -1</clus>
<clus scale="  113.270">  1  5  2 -1</clus>
</clustering>
</event>
<event>
 9    1  0.1434065E-005  0.9198606E+02  0.7546771E-02  0.1298214E+00
         -1   -1    0    0    0  501 -0.00000000000E+00  0.00000000000E+00  0.34718298989E+03  0.34718298989E+03  0.00000000000E+00 0.  1.
          1   -1    0    0  502    0  0.00000000000E+00 -0.00000000000E+00 -0.42892381909E+02  0.42892381909E+02  0.00000000000E+00 0. -1.
         23    2    1    2    0    0 -0.12117092926E+01  0.10588194043E+01  0.11066202894E+03  0.14309648376E+03  0.90707936124E+02 0.  0.
         23    2    1    2    0    0 -0.26670835546E+02 -0.15280166169E+01  0.63186025309E+02  0.11358879742E+03  0.90533269031E+02 0.  0.
        -11    1    4    4    0    0  0.22021776825E+01 -0.41038126128E+02  0.46092704133E+02  0.61753661891E+02  0.00000000000E+00 0.  1.
         11    1    4    4    0    0 -0.28873013229E+02  0.39510109511E+02  0.17093321177E+02  0.51835135529E+02  0.00000000000E+00 0. -1.
        -11    1    3    3    0    0 -0.17463055706E+02  0.17388225666E+02  0.11670537567E+03  0.11927888924E+03  0.00000000000E+00 0.  1.
         11    1    3    3    0    0  0.16251346413E+02 -0.16329406261E+02 -0.60433467294E+01  0.23817594521E+02  0.00000000000E+00 0. -1.
         21    1    1    2  502  501  0.27882544839E+02  0.46919721265E+00  0.13044255373E+03  0.13339009062E+03  0.00000000000E+00 0. -1.
<scales pt_clust_5="13000.00000" pt_clust_6="13000.00000" pt_clust_7="13000.00000" pt_clust_8="13000.00000" pt_clust_9="27.88649"></scales>
<clustering>
<clus scale="   27.886">  1  9  2 -1</clus>
<clus scale="   90.533">  5  6 -1 -1</clus>
<clus scale="   90.708">  7  8 -1 -1</clus>
<clus scale="   91.814">  2  5  1 -1</clus>
<clus scale="   91.814">  2  5  1 -1</clus>
</clustering>
</event>
<event>
 9    1  0.1434065E-005  0.9771052E+02  0.7546771E-02  0.1285921E+00
          3   -1    0    0  502    0  0.00000000000E+00  0.00000000000E+00  0.14336540451E+03  0.14336540451E+03  0.00000000000E+00 0. -1.
         -3   -1    0    0    0  501 -0.00000000000E+00 -0.00000000000E+00 -0.20457156114E+03  0.20457156114E+03  0.00000000000E+00 0.  1.
         23    2    1    2    0    0  0.29232392750E+02  0.18223740633E+02 -0.12702729833E+03  0.15958272284E+03  0.90244520061E+02 0.  0.
         23    2    1    2    0    0  0.15415380964E+02 -0.63707132530E+02  0.40065908764E+02  0.11961200935E+03  0.91681639548E+02 0.  0.
        -11    1    3    3    0    0  0.59658740532E+02  0.93541527067E+01 -0.10452072238E+03  0.12071141993E+03  0.00000000000E+00 0.  1.
         11    1    3    3    0    0 -0.30426347783E+02  0.88695879258E+01 -0.22506575954E+02  0.38871302918E+02  0.00000000000E+00 0. -1.
        -11    1    4    4    0    0 -0.12502682309E+02 -0.20116137867E+02  0.59717185531E+02  0.64242651839E+02  0.00000000000E+00 0. -1.
         11    1    4    4    0    0  0.27918063273E+02 -0.43590994663E+02 -0.19651276767E+02  0.55369357512E+02  0.00000000000E+00 0.  1.
         21    1    1    2  502  501 -0.44647773714E+02  0.45483391898E+02  0.25755232937E+02  0.68742233451E+02  0.00000000000E+00 0. -1.
<scales pt_clust_5="13000.00000" pt_clust_6="13000.00000" pt_clust_7="13000.00000" pt_clust_8="13000.00000" pt_clust_9="63.73510"></scales>
<clustering>
<clus scale="   63.735">  1  9  2 -1</clus>
<clus scale="   90.245">  5  6 -1 -1</clus>
<clus scale="   91.682">  7  8 -1 -1</clus>
<clus scale="   96.363">  2  5  1 -1</clus>
<clus scale="   63.735">  1  5  2 -1</clus>
</clustering>
</event>
<event>
 9    1  0.1434065E-005  0.9982315E+02  0.7546771E-02  0.1282690E+00
         -3   -1    0    0    0  501 -0.00000000000E+00  0.00000000000E+00  0.32209322090E+03  0.32209322090E+03  0.00000000000E+00 0.  1.
          3   -1    0    0  502    0  0.00000000000E+00 -0.00000000000E+00 -0.21292037109E+03  0.21292037109E+03  0.00000000000E+00 0. -1.
         23    2    1    2    0    0 -0.35358340743E+02 -0.80615727202E+01  0.84989617847E+02  0.13193594853E+03  0.94173553382E+02 0.  0.
         23    2    1    2    0    0  0.27355969756E+02 -0.20279870636E+02 -0.17603797360E+03  0.20070223361E+03  0.90179799244E+02 0.  0.
        -11    1    3    3    0    0 -0.39976805490E+02  0.37636554945E+02  0.48859333175E+02  0.73497548828E+02  0.00000000000E+00 0.  1.
         11    1    3    3    0    0  0.46184647478E+01 -0.45698127665E+02  0.36130284672E+02  0.58438399698E+02  0.00000000000E+00 0. -1.
        -13    1    4    4    0    0 -0.71571214381E+01  0.21617810877E+02 -0.80354293565E+01  0.24147924535E+02  0.00000000000E+00 0.  1.
         13    1    4    4    0    0  0.34513091194E+02 -0.41897681513E+02 -0.16800254425E+03  0.17655430907E+03  0.00000000000E+00 0. -1.
         21    1    1    2  502  501  0.80023709869E+01  0.28341443356E+02  0.20022120557E+03  0.20237540985E+03  0.00000000000E+00 0.  1.
<scales pt_clust_5="13000.00000" pt_clust_6="13000.00000" pt_clust_7="13000.00000" pt_clust_8="13000.00000" pt_clust_9="29.44954"></scales>
<clustering>
<clus scale="   29.450">  1  9  2 -1</clus>
<clus scale="   90.180">  7  8 -1 -1</clus>
<clus scale="   94.174">  5  6 -1 -1</clus>
<clus scale="   96.065">  2  7  1 -1</clus>
<clus scale="   96.065">  2  5  1 -1</clus>
</clustering>
</event>
<event>
 9    1  0.1434065E-005  0.9490851E+02  0.7546771E-02  0.1291923E+00
          1   -1    0    0  502    0  0.00000000000E+00  0.00000000000E+00  0.12025847773E+03  0.12025847773E+03  0.00000000000E+00 0. -1.
         -1   -1    0    0    0  501 -0.00000000000E+00 -0.00000000000E+00 -0.18050851487E+03  0.18050851487E+03  0.00000000000E+00 0.  1.
         23    2    1    2    0    0  0.36507176353E+02  0.25965384663E+02 -0.10717885411E+03  0.14724969630E+03  0.90488624517E+02 0.  0.
         23    2    1    2    0    0  0.30430474482E+01 -0.24811903187E+02  0.59557479016E+02  0.11198376975E+03  0.91478853863E+02 0.  0.
        -11    1    3    3    0    0 -0.24492642169E+02  0.21705689490E+02 -0.65582182752E+02  0.73294264245E+02  0.00000000000E+00 0. -1.
         11    1    3    3    0    0  0.60999818523E+02  0.42596951729E+01 -0.41596671355E+02  0.73955432056E+02  0.00000000000E+00 0.  1.
        -13    1    4    4    0    0  0.13871159698E+02  0.32741629999E+02  0.29247601747E+02  0.46041781180E+02  0.00000000000E+00 0. -1.
         13    1    4    4    0    0 -0.10828112249E+02 -0.57553533185E+02  0.30309877269E+02  0.65941988574E+02  0.00000000000E+00 0.  1.
         21    1    1    2  502  501 -0.39550223802E+02 -0.11534814764E+01 -0.12628662042E+02  0.41533526545E+02  0.00000000000E+00 0. -1.
<scales pt_clust_5="13000.00000" pt_clust_6="13000.00000" pt_clust_7="13000.00000" pt_clust_8="13000.00000" pt_clust_9="39.56704"></scales>
<clustering>
<clus scale="   39.567">  2  9  1 -1</clus>
<clus scale="   90.489">  5  6 -1 -1</clus>
<clus scale="   91.479">  7  8 -1 -1</clus>
<clus scale="   93.954">  2  5  1 -1</clus>
<clus scale="   94.909">  1  5  2 -1</clus>
</clustering>
</event>
<event>
 9    1  0.1434065E-005  0.1027581E+03  0.7546771E-02  0.1275181E+00
          2   -1    0    0  502    0  0.00000000000E+00  0.00000000000E+00  0.14099165067E+03  0.14099165067E+03  0.00000000000E+00 0. -1.
         -2   -1    0    0    0  501 -0.00000000000E+00 -0.00000000000E+00 -0.19166407446E+03  0.19166407446E+03  0.00000000000E+00 0.  1.
         23    2    1    2    0    0  0.19774668940E+02  0.41018446198E+02 -0.17992815998E+02  0.10266431424E+03  0.90236741582E+02 0.  0.
         23    2    1    2    0    0 -0.56922210384E+02 -0.19926941447E+01  0.59571462615E+02  0.12315878876E+03  0.91516223841E+02 0.  0.
        -11    1    3    3    0    0  0.38488237784E+02  0.54952578711E+02  0.81968105367E+01  0.67589333904E+02  0.00000000000E+00 0.  1.
         11    1    3    3    0    0 -0.18713568843E+02 -0.13934132513E+02 -0.26189626535E+02  0.35074980339E+02  0.00000000000E+00 0. -1.
        -13    1    4    4    0    0 -0.53252262654E+02  0.29248072841E+02  0.60211538952E+01  0.61053317165E+02  0.00000000000E+00 0.  1.
         13    1    4    4    0    0 -0.36699477302E+01 -0.31240766986E+02  0.53550308720E+02  0.62105471596E+02  0.00000000000E+00 0. -1.
         21    1    1    2  502  501  0.37147541444E+02 -0.39025752054E+02 -0.92251070407E+02  0.10683262212E+03  0.00000000000E+00 0. -1.
<scales pt_clust_5="13000.00000" pt_clust_6="13000.00000" pt_clust_7="13000.00000" pt_clust_8="13000.00000" pt_clust_9="53.87902"></scales>
<clustering>
<clus scale="   53.879">  2  9  1 -1</clus>
<clus scale="   90.237">  5  6 -1 -1</clus>
<clus scale="   91.516">  7  8 -1 -1</clus>
<clus scale="  101.620">  2  5  1 -1</clus>
<clus scale="  102.758">  1  5  2 -1</clus>
</clustering>
</event>
<event>
 9    1  0.1434065E-005  0.9706897E+02  0.7546771E-02  0.1287789E+00
         -1   -1    0    0    0  501 -0.00000000000E+00  0.00000000000E+00  0.18494132266E+03  0.18494132266E+03  0.00000000000E+00 0.  1.
          1   -1    0    0  502    0  0.00000000000E+00 -0.00000000000E+00 -0.13447012682E+03  0.13447012682E+03  0.00000000000E+00 0. -1.
         23    2    1    2    0    0  0.88321888565E+00  0.43115341484E+02 -0.19428765954E+02  0.10208361602E+03  0.90464771961E+02 0.  0.
         23    2    1    2    0    0  0.41425888437E+02  0.25917511942E+01 -0.24229065523E+02  0.10445856099E+03  0.92745468574E+02 0.  0.
        -11    1    4    4    0    0 -0.82763597673E+01 -0.36973118285E+02 -0.12189439210E+02  0.39800653700E+02  0.00000000000E+00 0.  1.
         11    1    4    4    0    0  0.49702248204E+02  0.39564869479E+02 -0.12039626313E+02  0.64657907290E+02  0.00000000000E+00 0. -1.
        -11    1    3    3    0    0 -0.25967071449E+02 -0.18588024981E+02  0.37927170351E+00  0.31936614087E+02  0.00000000000E+00 0.  1.
         11    1    3    3    0    0  0.26850290334E+02  0.61703366465E+02 -0.19808037658E+02  0.70147001931E+02  0.00000000000E+00 0. -1.
         21    1    1    2  502  501 -0.42309107322E+02 -0.45707092678E+02  0.94129027323E+02  0.11286927247E+03  0.00000000000E+00 0.  1.
<scales pt_clust_5="13000.00000" pt_clust_6="13000.00000" pt_clust_7="13000.00000" pt_clust_8="13000.00000" pt_clust_9="62.28322"></scales>
<clustering>
<clus scale="   62.283">  1  9  2 -1</clus>
<clus scale="   90.465">  7  8 -1 -1</clus>
<clus scale="   92.745">  5  6 -1 -1</clus>
<clus scale="   94.892">  1  7  2 -1</clus>
<clus scale="   97.069">  2  5  1 -1</clus>
</clustering>
</event>
<event>
 9    1  0.1434065E-005  0.1044454E+03  0.7546771E-02  0.1273841E+00
         -4   -1    0    0    0  501 -0.00000000000E+00  0.00000000000E+00  0.10579306654E+03  0.10579306654E+03  0.00000000000E+00 0.  1.
          4   -1    0    0  502    0  0.00000000000E+00 -0.00000000000E+00 -0.14696973441E+03  0.14696973441E+03  0.00000000000E+00 0. -1.
         23    2    1    2    0    0 -0.15723957399E+02  0.26112770379E+02  0.12990475313E+01  0.99518365097E+02  0.94726436932E+02 0.  0.
         23    2    1    2    0    0  0.89632168634E+01 -0.52041029378E+02 -0.61488975825E+02  0.12038889904E+03  0.89016767348E+02 0.  0.
        -13    1    3    3    0    0  0.27659727264E+02  0.36759116541E+02  0.21153872394E+02  0.50633778038E+02  0.00000000000E+00 0.  1.
         13    1    3    3    0    0 -0.43383684663E+02 -0.10646346162E+02 -0.19854824862E+02  0.48884587058E+02  0.00000000000E+00 0. -1.
        -13    1    4    4    0    0 -0.31716399488E+02  0.50562841943E+01 -0.10826784113E+02  0.33892702173E+02  0.00000000000E+00 0. -1.
         13    1    4    4    0    0  0.40679616351E+02 -0.57097313573E+02 -0.50662191712E+02  0.86496196869E+02  0.00000000000E+00 0.  1.
         21    1    1    2  502  501  0.67607405361E+01  0.25928258999E+02  0.19013260423E+02  0.32855536812E+02  0.00000000000E+00 0. -1.
<scales pt_clust_5="13000.00000" pt_clust_6="13000.00000" pt_clust_7="13000.00000" pt_clust_8="13000.00000" pt_clust_9="26.79519"></scales>
<clustering>
<clus scale="   26.795">  1  9  2 -1</clus>
<clus scale="   89.017">  7  8 -1 -1</clus>
<clus scale="   94.726">  5  6 -1 -1</clus>
<clus scale="   99.296">  2  7  1 -1</clus>
<clus scale="   99.296">  2  5  1 -1</clus>
</clustering>
</event>
<event>
 9    1  0.1434065E-005  0.9305119E+02  0.7546771E-02  0.1296458E+00
          1   -1    0    0  502    0  0.00000000000E+00  0.00000000000E+00  0.75911538073E+02  0.75911538073E+02  0.00000000000E+00 0. -1.
         -1   -1    0    0    0  501 -0.00000000000E+00 -0.00000000000E+00 -0.15840871265E+03  0.15840871265E+03  0.00000000000E+00 0.  1.
         23    2    1    2    0    0 -0.59548903903E+01 -0.82100085872E+01 -0.25887601631E+02  0.93818904580E+02  0.89604430570E+02 0.  0.
         23    2    1    2    0    0  0.29009902815E+02  0.73108642398E+01 -0.21082249422E+02  0.98139420134E+02  0.91059658172E+02 0.  0.
        -13    1    3    3    0    0 -0.40229041046E+02 -0.22396976330E+02  0.39513560589E+01  0.46212698546E+02  0.00000000000E+00 0. -1.
         13    1    3    3    0    0  0.34274150656E+02  0.14186967743E+02 -0.29838957690E+02  0.47606206034E+02  0.00000000000E+00 0.  1.
        -13    1    4    4    0    0  0.38686153809E+02  0.43294842580E+02 -0.17823201685E+02  0.60734902724E+02  0.00000000000E+00 0.  1.
         13    1    4    4    0    0 -0.96762509949E+01 -0.35983978340E+02 -0.32590477372E+01  0.37404517410E+02  0.00000000000E+00 0. -1.
         21    1    1    2  502  501 -0.23055012424E+02  0.89914434735E+00 -0.35527323523E+02  0.42361926008E+02  0.00000000000E+00 0.  1.
<scales pt_clust_5="13000.00000" pt_clust_6="13000.00000" pt_clust_7="13000.00000" pt_clust_8="13000.00000" pt_clust_9="23.07254"></scales>
<clustering>
<clus scale="   23.073">  2  9  1 -1</clus>
<clus scale="   89.604">  5  6 -1 -1</clus>
<clus scale="   91.060">  7  8 -1 -1</clus>
<clus scale="   91.628">  2  5  1 -1</clus>
<clus scale="   93.051">  1  5  2 -1</clus>
</clustering>
</event>
<event>
 9    1  0.1434065E-005  0.1253013E+03  0.7546771E-02  0.1235771E+00
         -1   -1    0    0    0  501 -0.00000000000E+00  0.00000000000E+00  0.51319856468E+02  0.51319856468E+02  0.00000000000E+00 0.  1.
          1   -1    0    0  502    0  0.00000000000E+00 -0.00000000000E+00 -0.45117163827E+03  0.45117163827E+03  0.00000000000E+00 0. -1.
         23    2    1    2    0    0  0.63311491825E+02 -0.10398406865E+02 -0.12460993141E+03  0.16675230266E+03  0.90345025182E+02 0.  0.
         23    2    1    2    0    0 -0.94544997527E+02  0.17777797165E+02 -0.27192792240E+03  0.30347513470E+03  0.94326856042E+02 0.  0.
        -11    1    3    3    0    0  0.85143072183E+02  0.20955483897E+01 -0.89340643259E+02  0.12343210523E+03  0.00000000000E+00 0.  1.
         11    1    3    3    0    0 -0.21831580359E+02 -0.12493955255E+02 -0.35269288151E+02  0.43320197432E+02  0.00000000000E+00 0. -1.
        -13    1    4    4    0    0 -0.62495358962E+02  0.54568504668E+02 -0.13903247457E+03  0.16190559156E+03  0.00000000000E+00 0.  1.
         13    1    4    4    0    0 -0.32049638565E+02 -0.36790707503E+02 -0.13289544783E+03  0.14156954314E+03  0.00000000000E+00 0. -1.
         21    1    1    2  502  501  0.31233505702E+02 -0.73793903001E+01 -0.33139279944E+01  0.32264057377E+02  0.00000000000E+00 0. -1.
<scales pt_clust_5="13000.00000" pt_clust_6="13000.00000" pt_clust_7="13000.00000" pt_clust_8="13000.00000" pt_clust_9="32.09341"></scales>
<clustering>
<clus scale="   32.093">  1  9  2 -1</clus>
<clus scale="   90.345">  5  6 -1 -1</clus>
<clus scale="   94.327">  7  8 -1 -1</clus>
<clus scale="  122.332">  1  5  2 -1</clus>
<clus scale="  125.301">  2  5  1 -1</clus>
</clustering>
</event>
<event>
 9    1  0.1434065E-005  0.9779405E+02  0.7546771E-02  0.1285847E+00
          2   -1    0    0  502    0  0.00000000000E+00  0.00000000000E+00  0.50921246497E+03  0.50921246497E+03  0.00000000000E+00 0. -1.
         -2   -1    0    0    0  501 -0.00000000000E+00 -0.00000000000E+00 -0.52275044096E+02  0.52275044096E+02  0.00000000000E+00 0.  1.
         23    2    1    2    0    0 -0.64150138657E+01  0.34943458855E+02  0.11438136992E+03  0.15051730199E+03  0.91160093754E+02 0.  0.
         23    2    1    2    0    0 -0.21888262182E+02 -0.24605181014E+02  0.36197250006E+03  0.37512395316E+03  0.92786736571E+02 0.  0.
        -13    1    3    3    0    0  0.47730913617E+01 -0.30777353905E+02  0.38075374967E+02  0.49191077375E+02  0.00000000000E+00 0. -1.
         13    1    3    3    0    0 -0.11188105227E+02  0.65720812759E+02  0.76305994955E+02  0.10132622461E+03  0.00000000000E+00 0.  1.
        -13    1    4    4    0    0 -0.20313315919E+02  0.32739999500E+02  0.18897634041E+03  0.19286418954E+03  0.00000000000E+00 0.  1.
         13    1    4    4    0    0 -0.15749462632E+01 -0.57345180513E+02  0.17299615965E+03  0.18225976363E+03  0.00000000000E+00 0. -1.
         21    1    1    2  502  501  0.28303276048E+02 -0.10338277841E+02 -0.19416449107E+02  0.35846253914E+02  0.00000000000E+00 0.  1.
<scales pt_clust_5="13000.00000" pt_clust_6="13000.00000" pt_clust_7="13000.00000" pt_clust_8="13000.00000" pt_clust_9="30.13230"></scales>
<clustering>
<clus scale="   30.132">  2  9  1 -1</clus>
<clus scale="   91.160">  5  6 -1 -1</clus>
<clus scale="   92.787">  7  8 -1 -1</clus>
<clus scale="   96.252">  2  5  1 -1</clus>
<clus scale="   97.794">  1  5  2 -1</clus>
</clustering>
</event>
<event>
 9    1  0.1434065E-005  0.1162110E+03  0.7546771E-02  0.1250230E+00
          1   -1    0    0  502    0  0.00000000000E+00  0.00000000000E+00  0.27389222324E+03  0.27389222324E+03  0.00000000000E+00 0. -1.
         -1   -1    0    0    0  501 -0.00000000000E+00 -0.00000000000E+00 -0.85362462973E+02  0.85362462973E+02  0.00000000000E+00 0.  1.
         23    2    1    2    0    0  0.53761395264E+02 -0.83210924378E+02  0.11360883232E+03  0.17674418371E+03  0.92288645766E+02 0.  0.
         23    2    1    2    0    0 -0.54433926113E+00  0.47696924416E+02  0.52802274397E+02  0.11481608562E+03  0.90107493760E+02 0.  0.
        -13    1    3    3    0    0 -0.12474199735E+02 -0.63737653147E+02  0.67812670225E+02  0.93897030468E+02  0.00000000000E+00 0. -1.
         13    1    3    3    0    0  0.66235595000E+02 -0.19473271231E+02  0.45796162091E+02  0.82847153238E+02  0.00000000000E+00 0.  1.
        -13    1    4    4    0    0 -0.26573310316E+02  0.54750702981E+02  0.61459200656E+02  0.86492853134E+02  0.00000000000E+00 0. -1.
         13    1    4    4    0    0  0.26028971055E+02 -0.70537785647E+01 -0.86569262586E+01  0.28323232486E+02  0.00000000000E+00 0.  1.
         21    1    1    2  502  501 -0.53217056003E+02  0.35513999962E+02  0.22118653560E+02  0.67694416891E+02  0.00000000000E+00 0. -1.
<scales pt_clust_5="13000.00000" pt_clust_6="13000.00000" pt_clust_7="13000.00000" pt_clust_8="13000.00000" pt_clust_9="63.97890"></scales>
<clustering>
<clus scale="   63.979">  2  9  1 -1</clus>
<clus scale="   90.107">  7  8 -1 -1</clus>
<clus scale="   92.289">  5  6 -1 -1</clus>
<clus scale="  114.486">  1  7  2 -1</clus>
<clus scale="  114.486">  1  5  2 -1</clus>
</clustering>
</event>
<event>
 9    1  0.1434065E-005  0.1094661E+03  0.7546771E-02  0.1262899E+00
         -2   -1    0    0    0  501 -0.00000000000E+00  0.00000000000E+00  0.30219518029E+02  0.30219518029E+02  0.00000000000E+00 0.  1.
          2   -1    0    0  502    0  0.00000000000E+00 -0.00000000000E+00 -0.49980960383E+03  0.49980960383E+03  0.00000000000E+00 0. -1.
         23    2    1    2    0    0 -0.40776291881E+02  0.52918756017E+02 -0.21821497363E+03  0.24541047241E+03  0.90252005710E+02 0.  0.
         23    2    1    2    0    0  0.41602574938E+02 -0.26612712571E+02 -0.21602874677E+03  0.24054988259E+03  0.93577859935E+02 0.  0.
        -11    1    3    3    0    0  0.84488874684E+01  0.61676356272E+02 -0.12414962884E+03  0.13888299739E+03  0.00000000000E+00 0.  1.
         11    1    3    3    0    0 -0.49225179350E+02 -0.87576002550E+01 -0.94065344788E+02  0.10652747502E+03  0.00000000000E+00 0. -1.
        -11    1    4    4    0    0  0.65714493289E+02 -0.40711766488E+02 -0.14706311109E+03  0.16614271336E+03  0.00000000000E+00 0. -1.
         11    1    4    4    0    0 -0.24111918350E+02  0.14099053917E+02 -0.68965635682E+02  0.74407169231E+02  0.00000000000E+00 0.  1.
         21    1    1    2  502  501 -0.82628305661E+00 -0.26306043446E+02 -0.35346365401E+02  0.44068766860E+02  0.00000000000E+00 0. -1.
<scales pt_clust_5="13000.00000" pt_clust_6="13000.00000" pt_clust_7="13000.00000" pt_clust_8="13000.00000" pt_clust_9="26.31902"></scales>
<clustering>
<clus scale="   26.319">  1  9  2 -1</clus>
<clus scale="   90.252">  5  6 -1 -1</clus>
<clus scale="   93.578">  7  8 -1 -1</clus>
<clus scale="  106.637">  1  5  2 -1</clus>
<clus scale="  109.466">  2  5  1 -1</clus>
</clustering>
</event>
<event>
 9    1  0.1434065E-005  0.1040620E+03  0.7546771E-02  0.1272815E+00
         -3   -1    0    0    0  501 -0.00000000000E+00  0.00000000000E+00  0.31639238990E+03  0.31639238990E+03  0.00000000000E+00 0.  1.
          3   -1    0    0  502    0  0.00000000000E+00 -0.00000000000E+00 -0.18243761096E+03  0.18243761096E+03  0.00000000000E+00 0. -1.
         23    2    1    2    0    0  0.19658230809E+02  0.16759518248E+02  0.10250874321E+03  0.14022176468E+03  0.92123685150E+02 0.  0.
         23    2    1    2    0    0 -0.40876946043E+02 -0.31300588920E+02 -0.14606331269E+03  0.17924479122E+03  0.90241632760E+02 0.  0.
        -13    1    4    4    0    0 -0.26213425146E+02  0.29811060303E+02 -0.71019990727E+02  0.81361428559E+02  0.00000000000E+00 0.  1.
         13    1    4    4    0    0 -0.14663520897E+02 -0.61111649222E+02 -0.75043321959E+02  0.97883362664E+02  0.00000000000E+00 0. -1.
        -13    1    3    3    0    0  0.13989290249E+02 -0.37712226708E+02  0.51814254641E+02  0.65594430167E+02  0.00000000000E+00 0.  1.
         13    1    3    3    0    0  0.56689405601E+01  0.54471744955E+02  0.50694488571E+02  0.74627334517E+02  0.00000000000E+00 0. -1.
         21    1    1    2  502  501  0.21218715234E+02  0.14541070672E+02  0.17750934841E+03  0.17936344495E+03  0.00000000000E+00 0.  1.
<scales pt_clust_5="13000.00000" pt_clust_6="13000.00000" pt_clust_7="13000.00000" pt_clust_8="13000.00000" pt_clust_9="25.72308"></scales>
<clustering>
<clus scale="   25.723">  1  9  2 -1</clus>
<clus scale="   90.242">  5  6 -1 -1</clus>
<clus scale="   92.124">  7  8 -1 -1</clus>
<clus scale="  102.400">  2  5  1 -1</clus>
<clus scale="  102.400">  2  5  1 -1</clus>
</clustering>
</event>
<event>
 9    1  0.1434065E-005  0.1459002E+03  0.7546771E-02  0.1205711E+00
          1   -1    0    0  502    0  0.00000000000E+00  0.00000000000E+00  0.48731501380E+03  0.48731501380E+03  0.00000000000E+00 0. -1.
         -1   -1    0    0    0  501 -0.00000000000E+00 -0.00000000000E+00 -0.14746688157E+03  0.14746688157E+03  0.00000000000E+00 0.  1.
         23    2    1    2    0    0  0.81633994921E+02  0.43865689189E+02 -0.60729450058E+02  0.14353598724E+03  0.91248044982E+02 0.  0.
         23    2    1    2    0    0 -0.92388259889E+02 -0.71056138798E+02  0.42700976726E+03  0.45182972913E+03  0.90709411655E+02 0.  0.
        -11    1    4    4    0    0 -0.10205453418E+03 -0.31489655230E+02  0.31829084592E+03  0.33573172166E+03  0.00000000000E+00 0.  1.
         11    1    4    4    0    0  0.96662742905E+01 -0.39566483568E+02  0.10871892134E+03  0.11609800747E+03  0.00000000000E+00 0. -1.
        -11    1    3    3    0    0 -0.19658551487E+02  0.14072215500E+02 -0.76251371017E+01  0.25350120541E+02  0.00000000000E+00 0. -1.
         11    1    3    3    0    0  0.10129254641E+03  0.29793473689E+02 -0.53104312956E+02  0.11818586670E+03  0.00000000000E+00 0.  1.
         21    1    1    2  502  501  0.10754264969E+02  0.27190449609E+02 -0.26432184977E+02  0.39416179008E+02  0.00000000000E+00 0.  1.
<scales pt_clust_5="13000.00000" pt_clust_6="13000.00000" pt_clust_7="13000.00000" pt_clust_8="13000.00000" pt_clust_9="29.23995"></scales>
<clustering>
<clus scale="   29.240">  2  9  1 -1</clus>
<clus scale="   90.709">  5  6 -1 -1</clus>
<clus scale="   91.248">  7  8 -1 -1</clus>
<clus scale="  145.564">  1  5  2 -1</clus>
<clus scale="  145.564">  1  5  2 -1</clus>
</clustering>
</event>
<event>
 9    1  0.1434065E-005  0.1631300E+03  0.7546771E-02  0.1204938E+00
          1   -1    0    0  502    0  0.00000000000E+00  0.00000000000E+00  0.62709378805E+03  0.62709378805E+03  0.00000000000E+00 0. -1.
         -1   -1    0    0    0  501 -0.00000000000E+00 -0.00000000000E+00 -0.87605133515E+02  0.87605133515E+02  0.00000000000E+00 0.  1.
         23    2    1    2    0    0  0.42532510750E+02 -0.88265749483E+02  0.33657842211E+03  0.36043278155E+03  0.83826599487E+02 0.  0.
         23    2    1    2    0    0  0.23341862599E+02 -0.48004718662E+02  0.16856101753E+03  0.19906001218E+03  0.91448216262E+02 0.  0.
        -11    1    3    3    0    0 -0.18744202323E+02 -0.34999473214E+02  0.58175381086E+02  0.70432117748E+02  0.00000000000E+00 0.  1.
         11    1    3    3    0    0  0.61276713073E+02 -0.53266276269E+02  0.27840304103E+03  0.29000066380E+03  0.00000000000E+00 0. -1.
        -11    1    4    4    0    0  0.54514371936E+02 -0.41652061872E+02  0.14165720973E+03  0.15739592140E+03  0.00000000000E+00 0. -1.
         11    1    4    4    0    0 -0.31172509336E+02 -0.63526567897E+01  0.26903807797E+02  0.41664090781E+02  0.00000000000E+00 0.  1.
         21    1    1    2  502  501 -0.65874373349E+02  0.13627046815E+03  0.34349214895E+02  0.15520612783E+03  0.00000000000E+00 0.  1.
<scales pt_clust_5="13000.00000" pt_clust_6="13000.00000" pt_clust_7="13000.00000" pt_clust_8="13000.00000" pt_clust_9="139.94464"></scales>
<clustering>
<clus scale="   83.827">  5  6 -1 -1</clus>
<clus scale="   91.448">  7  8 -1 -1</clus>
<clus scale="  105.887">  1  7  2 -1</clus>
<clus scale="  139.945">  2  9  1 -1</clus>
<clus scale="  105.887">  1  5  2 -1</clus>
</clustering>
</event>
<event>
 9    1  0.1434065E-005  0.9433144E+02  0.7546771E-02  0.1293023E+00
         -1   -1    0    0    0  501 -0.00000000000E+00  0.00000000000E+00  0.17838597962E+03  0.17838597962E+03  0.00000000000E+00 0.  1.
          1   -1    0    0  502    0  0.00000000000E+00 -0.00000000000E+00 -0.92303210167E+02  0.92303210167E+02  0.00000000000E+00 0. -1.
         23    2    1    2    0    0 -0.21713856198E+01  0.72524044685E+01  0.29289073249E+02  0.93168888217E+02  0.88120824064E+02 0.  0.
         23    2    1    2    0    0 -0.35066545350E+02 -0.46303127309E+02  0.10785091133E+02  0.10660898937E+03  0.88744105282E+02 0.  0.
        -11    1    3    3    0    0 -0.43499022463E+02  0.67700421543E+01  0.28700699897E+01  0.44116161752E+02  0.00000000000E+00 0.  1.
         11    1    3    3    0    0  0.41327636843E+02  0.48236231420E+00  0.26419003259E+02  0.49052726465E+02  0.00000000000E+00 0. -1.
        -13    1    4    4    0    0 -0.58118580601E+02 -0.49592714808E+02  0.23685396537E+02  0.79988779102E+02  0.00000000000E+00 0.  1.
         13    1    4    4    0    0  0.23052035252E+02  0.32895874989E+01 -0.12900305404E+02  0.26620210268E+02  0.00000000000E+00 0. -1.
         21    1    1    2  502  501  0.37237930969E+02  0.39050722840E+02  0.46008605067E+02  0.70911312197E+02  0.00000000000E+00 0. -1.
<scales pt_clust_5="13000.00000" pt_clust_6="13000.00000" pt_clust_7="13000.00000" pt_clust_8="13000.00000" pt_clust_9="53.95945"></scales>
<clustering>
<clus scale="   53.959">  1  9  2 -1</clus>
<clus scale="   88.121">  5  6 -1 -1</clus>
<clus scale="   88.744">  7  8 -1 -1</clus>
<clus scale="   93.745">  1  5  2 -1</clus>
<clus scale="   94.331">  2  5  1 -1</clus>
</clustering>
</event>
<event>
 9    1  0.1434065E-005  0.2513849E+03  0.7546771E-02  0.1153093E+00
          2   -1    0    0  502    0  0.00000000000E+00  0.00000000000E+00  0.51973358488E+03  0.51973358488E+03  0.00000000000E+00 0. -1.
         -2   -1    0    0    0  501 -0.00000000000E+00 -0.00000000000E+00 -0.22440813242E+03  0.22440813242E+03  0.00000000000E+00 0.  1.
         23    2    1    2    0    0  0.22400370984E+03 -0.93753636737E+02  0.23551076978E+03  0.35049498689E+03  0.91727895035E+02 0.  0.
         23    2    1    2    0    0 -0.60366929513E+01  0.15831909596E+02  0.12250422188E+03  0.15383139660E+03  0.91486191185E+02 0.  0.
        -11    1    3    3    0    0  0.14746053319E+03 -0.10643438887E+03  0.15989075188E+03  0.24215272149E+03  0.00000000000E+00 0. -1.
         11    1    3    3    0    0  0.76543176643E+02  0.12680752138E+02  0.75620017898E+02  0.10834226540E+03  0.00000000000E+00 0.  1.
        -13    1    4    4    0    0 -0.40615524640E+02  0.24578903315E+02  0.33950218842E+02  0.58364035924E+02  0.00000000000E+00 0.  1.
         13    1    4    4    0    0  0.34578831689E+02 -0.87469937182E+01  0.88554003036E+02  0.95467360672E+02  0.00000000000E+00 0. -1.
         21    1    1    2  502  501 -0.21796701689E+03  0.77921727141E+02 -0.62689539203E+02  0.23981533382E+03  0.00000000000E+00 0.  1.
<scales pt_clust_5="13000.00000" pt_clust_6="13000.00000" pt_clust_7="13000.00000" pt_clust_8="13000.00000" pt_clust_9="234.05204"></scales>
<clustering>
<clus scale="   91.486">  7  8 -1 -1</clus>
<clus scale="   91.728">  5  6 -1 -1</clus>
<clus scale="   93.042">  1  7  2 -1</clus>
<clus scale="  234.052">  2  9  1 -1</clus>
<clus scale="   93.042">  1  5  2 -1</clus>
</clustering>
</event>
<event>
 9    1  0.1434065E-005  0.9373485E+02  0.7546771E-02  0.1294209E+00
          4   -1    0    0  502    0  0.00000000000E+00  0.00000000000E+00  0.32312313480E+03  0.32312313480E+03  0.00000000000E+00 0. -1.
         -4   -1    0    0    0  501 -0.00000000000E+00 -0.00000000000E+00 -0.12458117128E+03  0.12458117128E+03  0.00000000000E+00 0.  1.
         23    2    1    2    0    0 -0.35067984459E+02  0.11114134864E+02  0.11957791266E+03  0.15474163486E+03  0.91064860593E+02 0.  0.
         23    2    1    2    0    0  0.11553626393E+02  0.10268982152E+02  0.17160756602E+03  0.19501889331E+03  0.91346996425E+02 0.  0.
        -11    1    3    3    0    0  0.79152329209E+01  0.43304514333E+02  0.61621677034E+02  0.75730858666E+02  0.00000000000E+00 0.  1.
         11    1    3    3    0    0 -0.42983217380E+02 -0.32190379469E+02  0.57956235630E+02  0.79010776196E+02  0.00000000000E+00 0. -1.
        -13    1    4    4    0    0  0.21537574874E+02 -0.25646983231E+02  0.20246849685E+02  0.39135275679E+02  0.00000000000E+00 0.  1.
         13    1    4    4    0    0 -0.99839484813E+01  0.35915965384E+02  0.15136071633E+03  0.15588361763E+03  0.00000000000E+00 0. -1.
         21    1    1    2  502  501  0.23514358066E+02 -0.21383117016E+02 -0.92643515166E+02  0.97943777908E+02  0.00000000000E+00 0.  1.
<scales pt_clust_5="13000.00000" pt_clust_6="13000.00000" pt_clust_7="13000.00000" pt_clust_8="13000.00000" pt_clust_9="31.78306"></scales>
<clustering>
<clus scale="   31.783">  2  9  1 -1</clus>
<clus scale="   91.065">  5  6 -1 -1</clus>
<clus scale="   91.347">  7  8 -1 -1</clus>
<clus scale="   93.460">  2  5  1 -1</clus>
<clus scale="   93.735">  1  5  2 -1</clus>
</clustering>
</event>
<event>
 9    1  0.1434065E-005  0.1030027E+03  0.7546771E-02  0.1274250E+00
         -1   -1    0    0    0  501 -0.00000000000E+00  0.00000000000E+00  0.15337295837E+03  0.15337295837E+03  0.00000000000E+00 0.  1.
          1   -1    0    0  502    0  0.00000000000E+00 -0.00000000000E+00 -0.11205179619E+03  0.11205179619E+03  0.00000000000E+00 0. -1.
         23    2    1    2    0    0  0.11525831441E+02  0.45014647510E+02  0.74044840114E+02  0.12738493146E+03  0.92655917968E+02 0.  0.
         23    2    1    2    0    0  0.12218343354E+02 -0.44412898724E+02 -0.43468366448E+02  0.11197075581E+03  0.92337196118E+02 0.  0.
        -11    1    4    4    0    0 -0.38130578646E+02 -0.14116397976E+02 -0.32818921217E+02  0.52252227795E+02  0.00000000000E+00 0. -1.
         11    1    4    4    0    0  0.50348922001E+02 -0.30296500748E+02 -0.10649445231E+02  0.59718528012E+02  0.00000000000E+00 0.  1.
        -13    1    3    3    0    0  0.21865377205E+02 -0.24354612932E+02  0.31080008236E+02  0.45135449520E+02  0.00000000000E+00 0.  1.
         13    1    3    3    0    0 -0.10339545765E+02  0.69369260443E+02  0.42964831878E+02  0.82249481939E+02  0.00000000000E+00 0. -1.
         21    1    1    2  502  501 -0.23744174795E+02 -0.60174878602E+00  0.10744688511E+02  0.26069067293E+02  0.00000000000E+00 0. -1.
<scales pt_clust_5="13000.00000" pt_clust_6="13000.00000" pt_clust_7="13000.00000" pt_clust_8="13000.00000" pt_clust_9="23.75180"></scales>
<clustering>
<clus scale="   23.752">  1  9  2 -1</clus>
<clus scale="   92.337">  5  6 -1 -1</clus>
<clus scale="   92.656">  7  8 -1 -1</clus>
<clus scale="  102.716">  2  5  1 -1</clus>
<clus scale="  102.716">  2  5  1 -1</clus>
</clustering>
</event>
<event>
 9    1  0.1434065E-005  0.1065282E+03  0.7546771E-02  0.1268068E+00
          2   -1    0    0  502    0  0.00000000000E+00  0.00000000000E+00  0.32653675287E+03  0.32653675287E+03  0.00000000000E+00 0. -1.
         -2   -1    0    0    0  501 -0.00000000000E+00 -0.00000000000E+00 -0.49178425126E+02  0.49178425126E+02  0.00000000000E+00 0.  1.
         23    2    1    2    0    0 -0.43411650374E+02 -0.28830047883E+02  0.55932950331E+02  0.12274069336E+03  0.96026245499E+02 0.  0.
         23    2    1    2    0    0  0.21656056274E+02  0.25644398858E+02  0.19058227888E+03  0.21509637801E+03  0.93905414347E+02 0.  0.
        -11    1    3    3    0    0 -0.51820030871E+02 -0.58615041656E+02  0.42035094477E+02  0.88814344987E+02  0.00000000000E+00 0.  1.
         11    1    3    3    0    0  0.84083804973E+01  0.29784993772E+02  0.13897855854E+02  0.33926348373E+02  0.00000000000E+00 0. -1.
        -13    1    4    4    0    0  0.28150085260E+02 -0.95815744716E+01  0.17236354683E+03  0.17490976573E+03  0.00000000000E+00 0.  1.
         13    1    4    4    0    0 -0.64940289857E+01  0.35225973330E+02  0.18218732049E+02  0.40186612286E+02  0.00000000000E+00 0. -1.
         21    1    1    2  502  501  0.21755594100E+02  0.31856490251E+01  0.30843098528E+02  0.37878106620E+02  0.00000000000E+00 0. -1.
<scales pt_clust_5="13000.00000" pt_clust_6="13000.00000" pt_clust_7="13000.00000" pt_clust_8="13000.00000" pt_clust_9="21.98759"></scales>
<clustering>
<clus scale="   21.988">  1  9  2 -1</clus>
<clus scale="   93.905">  7  8 -1 -1</clus>
<clus scale="   96.026">  5  6 -1 -1</clus>
<clus scale="  104.621">  1  7  2 -1</clus>
<clus scale="   21.988">  1  5  2 -1</clus>
</clustering>
</event>
<event>
 9    1  0.1434065E-005  0.9169103E+02  0.7546771E-02  0.1298884E+00
         -1   -1    0    0    0  501 -0.00000000000E+00  0.00000000000E+00  0.14526421347E+03  0.14526421347E+03  0.00000000000E+00 0.  1.
          1   -1    0    0  502    0  0.00000000000E+00 -0.00000000000E+00 -0.10671150531E+03  0.10671150531E+03  0.00000000000E+00 0. -1.
         23    2    1    2    0    0 -0.17164359672E+02 -0.40199792704E+00  0.49241098044E+01  0.92725927944E+02  0.90989417024E+02 0.  0.
         23    2    1    2    0    0  0.50913700740E+00  0.11753550829E+02 -0.26673061911E+02  0.95668784035E+02  0.91118926845E+02 0.  0.
        -11    1    4    4    0    0 -0.37458181589E+01  0.41763427603E+02  0.14654206491E+02  0.44418023445E+02  0.00000000000E+00 0.  1.
         11    1    4    4    0    0  0.42549551663E+01 -0.30009876774E+02 -0.41327268402E+02  0.51250760590E+02  0.00000000000E+00 0. -1.
        -13    1    3    3    0    0 -0.29583262962E+02 -0.40635632596E+02  0.58948449233E+01  0.50608035732E+02  0.00000000000E+00 0. -1.
         13    1    3    3    0    0  0.12418903290E+02  0.40233634669E+02 -0.97073511887E+00  0.42117892211E+02  0.00000000000E+00 0.  1.
         21    1    1    2  502  501  0.16655222664E+02 -0.11351552902E+02  0.60301660265E+02  0.63581006802E+02  0.00000000000E+00 0. -1.
<scales pt_clust_5="13000.00000" pt_clust_6="13000.00000" pt_clust_7="13000.00000" pt_clust_8="13000.00000" pt_clust_9="20.15575"></scales>
<clustering>
<clus scale="   20.156">  1  9  2 -1</clus>
<clus scale="   90.989">  7  8 -1 -1</clus>
<clus scale="   91.119">  5  6 -1 -1</clus>
<clus scale="   91.562">  1  7  2 -1</clus>
<clus scale="   91.691">  2  5  1 -1</clus>
</clustering>
</event>
<event>
 9    1  0.1434065E-005  0.1258464E+03  0.7546771E-02  0.1236063E+00
         -1   -1    0    0    0  501 -0.00000000000E+00  0.00000000000E+00  0.37279469796E+03  0.37279469796E+03  0.00000000000E+00 0.  1.
          1   -1    0    0  502    0  0.00000000000E+00 -0.00000000000E+00 -0.84965036767E+02  0.84965036767E+02  0.00000000000E+00 0. -1.
         23    2    1    2    0    0 -0.43132918082E+02 -0.50047140596E+02  0.25800529918E+03  0.28387591416E+03  0.98252915127E+02 0.  0.
         23    2    1    2    0    0  0.33142234907E+02  0.74624999828E+02 -0.13820679481E+02  0.12280765625E+03  0.90683024418E+02 0.  0.
        -11    1    3    3    0    0 -0.22031369033E+02  0.28410445940E+02  0.98805015906E+02  0.10514259759E+03  0.00000000000E+00 0. -1.
         11    1    3    3    0    0 -0.21101549049E+02 -0.78457586535E+02  0.15920028327E+03  0.17873331657E+03  0.00000000000E+00 0.  1.
        -11    1    4    4    0    0  0.64035525038E+02  0.41179958632E+02 -0.13225854533E+02  0.77273932784E+02  0.00000000000E+00 0.  1.
         11    1    4    4    0    0 -0.30893290130E+02  0.33445041195E+02 -0.59482494757E+00  0.45533723462E+02  0.00000000000E+00 0. -1.
         21    1    1    2  502  501  0.99906831749E+01 -0.24577859232E+02  0.43645041495E+02  0.51076164321E+02  0.00000000000E+00 0. -1.
<scales pt_clust_5="13000.00000" pt_clust_6="13000.00000" pt_clust_7="13000.00000" pt_clust_8="13000.00000" pt_clust_9="26.53083"></scales>
<clustering>
<clus scale="   26.531">  1  9  2 -1</clus>
<clus scale="   90.683">  7  8 -1 -1</clus>
<clus scale="   98.253">  5  6 -1 -1</clus>
<clus scale="  120.030">  2  7  1 -1</clus>
<clus scale="  120.030">  2  5  1 -1</clus>
</clustering>
</event>
<event>
 9    1  0.1434065E-005  0.1487206E+03  0.7546771E-02  0.1202776E+00
          2   -1    0    0  502    0  0.00000000000E+00  0.00000000000E+00  0.35122291758E+03  0.35122291758E+03  0.00000000000E+00 0. -1.
         -2   -1    0    0    0  501 -0.00000000000E+00 -0.00000000000E+00 -0.23780035650E+03  0.23780035650E+03  0.00000000000E+00 0.  1.
         23    2    1    2    0    0  0.82254104506E+02  0.10401949588E+03  0.61994647296E+02  0.17156867544E+03  0.89480058499E+02 0.  0.
         23    2    1    2    0    0 -0.64151877712E+02 -0.88355504389E+02  0.21149043397E+03  0.25561189224E+03  0.93204491449E+02 0.  0.
        -11    1    4    4    0    0  0.10757913054E+02 -0.59879118244E+02  0.11569266675E+03  0.13071355949E+03  0.00000000000E+00 0.  1.
         11    1    4    4    0    0 -0.74909790766E+02 -0.28476386145E+02  0.95797767223E+02  0.12489833276E+03  0.00000000000E+00 0. -1.
        -11    1    3    3    0    0  0.75619897440E+02  0.36069986781E+02  0.60388434170E+02  0.10327717955E+03  0.00000000000E+00 0. -1.
         11    1    3    3    0    0  0.66342070661E+01  0.67949509099E+02  0.16062131261E+01  0.68291495890E+02  0.00000000000E+00 0.  1.
         21    1    1    2  502  501 -0.18102226795E+02 -0.15663991492E+02 -0.16006252019E+03  0.16184270639E+03  0.00000000000E+00 0.  1.
<scales pt_clust_5="13000.00000" pt_clust_6="13000.00000" pt_clust_7="13000.00000" pt_clust_8="13000.00000" pt_clust_9="23.93849"></scales>
<clustering>
<clus scale="   23.938">  2  9  1 -1</clus>
<clus scale="   89.480">  7  8 -1 -1</clus>
<clus scale="   93.204">  5  6 -1 -1</clus>
<clus scale="  146.415">  2  7  1 -1</clus>
<clus scale="  148.721">  1  5  2 -1</clus>
</clustering>
</event>
<event>
 9    1  0.1434065E-005  0.9188393E+02  0.7546771E-02  0.1301888E+00
          1   -1    0    0  502    0  0.00000000000E+00  0.00000000000E+00  0.11524435905E+03  0.11524435905E+03  0.00000000000E+00 0. -1.
         -1   -1    0    0    0  501 -0.00000000000E+00 -0.00000000000E+00 -0.23561214217E+03  0.23561214217E+03  0.00000000000E+00 0.  1.
         23    2    1    2    0    0 -0.17020506509E+01 -0.16583117609E+02 -0.18883906870E+03  0.21024053981E+03  0.90901011803E+02 0.  0.
         23    2    1    2    0    0 -0.43149697048E+01 -0.13465361939E+02  0.68280718285E+02  0.10997037489E+03  0.85037003290E+02 0.  0.
        -13    1    4    4    0    0 -0.76736974838E+01 -0.46420868704E+02  0.19335418321E+02  0.50868861654E+02  0.00000000000E+00 0. -1.
         13    1    4    4    0    0  0.33587277790E+01  0.32955506765E+02  0.48945299963E+02  0.59101513237E+02  0.00000000000E+00 0.  1.
        -13    1    3    3    0    0 -0.19464108748E+02  0.12549207050E+02 -0.55659043557E+01  0.23818342055E+02  0.00000000000E+00 0. -1.
         13    1    3    3    0    0  0.17762058097E+02 -0.29132324659E+02 -0.18327316434E+03  0.18642219775E+03  0.00000000000E+00 0.  1.
         21    1    1    2  502  501  0.60170203558E+01  0.30048479548E+02  0.19056728902E+00  0.30645586517E+02  0.00000000000E+00 0.  1.
<scales pt_clust_5="13000.00000" pt_clust_6="13000.00000" pt_clust_7="13000.00000" pt_clust_8="13000.00000" pt_clust_9="30.64499"></scales>
<clustering>
<clus scale="   30.645">  1  9  2 -1</clus>
<clus scale="   85.037">  5  6 -1 -1</clus>
<clus scale="   86.087">  1  5  2 -1</clus>
<clus scale="   90.901">  7  8 -1 -1</clus>
<clus scale="   30.645">  1  5  2 -1</clus>
</clustering>
</event>
<event>
 9    1  0.1434065E-005  0.1046395E+03  0.7546771E-02  0.1271521E+00
         -2   -1    0    0    0  501 -0.00000000000E+00  0.00000000000E+00  0.19883395254E+02  0.19883395254E+02  0.00000000000E+00 0.  1.
          2   -1    0    0  502    0  0.00000000000E+00 -0.00000000000E+00 -0.86795470681E+03  0.86795470681E+03  0.00000000000E+00 0. -1.
         23    2    1    2    0    0 -0.34150757624E+02  0.33646431435E+02 -0.39329748932E+03  0.40673965759E+03  0.91955844581E+02 0.  0.
         23    2    1    2    0    0  0.49858574764E+02 -0.19830542067E+02 -0.44633079760E+03  0.45853965499E+03  0.90378683513E+02 0.  0.
        -13    1    3    3    0    0 -0.52906665974E+02 -0.10242420416E+02 -0.24860050670E+03  0.25437420154E+03  0.00000000000E+00 0.  1.
         13    1    3    3    0    0  0.18755908350E+02  0.43888851851E+02 -0.14469698262E+03  0.15236545604E+03  0.00000000000E+00 0. -1.
        -13    1    4    4    0    0 -0.19643096545E+02 -0.28921991564E+02 -0.14186974312E+03  0.14611419114E+03  0.00000000000E+00 0.  1.
         13    1    4    4    0    0  0.69501671309E+02  0.90914494968E+01 -0.30446105448E+03  0.31242546385E+03  0.00000000000E+00 0. -1.
         21    1    1    2  502  501 -0.15707817140E+02 -0.13815889368E+02 -0.84430246375E+01  0.22558789492E+02  0.00000000000E+00 0.  1.
<scales pt_clust_5="13000.00000" pt_clust_6="13000.00000" pt_clust_7="13000.00000" pt_clust_8="13000.00000" pt_clust_9="20.91923"></scales>
<clustering>
<clus scale="   20.919">  1  9  2 -1</clus>
<clus scale="   90.379">  7  8 -1 -1</clus>
<clus scale="   91.956">  5  6 -1 -1</clus>
<clus scale="  103.256">  2  7  1 -1</clus>
<clus scale="  103.256">  2  5  1 -1</clus>
</clustering>
</event>
<event>
 9    1  0.1434065E-005  0.9733502E+02  0.7546771E-02  0.1289064E+00
         -2   -1    0    0    0  501 -0.00000000000E+00  0.00000000000E+00  0.14430167540E+03  0.14430167540E+03  0.00000000000E+00 0.  1.
          2   -1    0    0  502    0  0.00000000000E+00 -0.00000000000E+00 -0.13409645804E+03  0.13409645804E+03  0.00000000000E+00 0. -1.
         23    2    1    2    0    0  0.30068169426E+02  0.10960326608E+02  0.43746073472E+01  0.95496295661E+02  0.89867578824E+02 0.  0.
         23    2    1    2    0    0 -0.13057039210E+02  0.91338035826E+01 -0.58729286325E+02  0.11318001311E+03  0.95428893184E+02 0.  0.
        -13    1    3    3    0    0  0.41777206437E+02  0.31423465307E+02 -0.24904373937E+02  0.57905068783E+02  0.00000000000E+00 0. -1.
         13    1    3    3    0    0 -0.11709037011E+02 -0.20463138699E+02  0.29278981284E+02  0.37591226878E+02  0.00000000000E+00 0.  1.
        -13    1    4    4    0    0  0.91185292064E+01 -0.37650628840E+02 -0.58560462559E+01  0.39179212660E+02  0.00000000000E+00 0.  1.
         13    1    4    4    0    0 -0.22175568416E+02  0.46784432422E+02 -0.52873240069E+02  0.74000800449E+02  0.00000000000E+00 0. -1.
         21    1    1    2  502  501 -0.17011130216E+02 -0.20094130191E+02  0.64559896340E+02  0.69721824666E+02  0.00000000000E+00 0.  1.
<scales pt_clust_5="13000.00000" pt_clust_6="13000.00000" pt_clust_7="13000.00000" pt_clust_8="13000.00000" pt_clust_9="26.32779"></scales>
<clustering>
<clus scale="   26.328">  1  9  2 -1</clus>
<clus scale="   89.868">  5  6 -1 -1</clus>
<clus scale="   91.889">  1  5  2 -1</clus>
<clus scale="   95.429">  7  8 -1 -1</clus>
<clus scale="   97.335">  2  5  1 -1</clus>
</clustering>
</event>
<event>
 9    1  0.1434065E-005  0.2089054E+03  0.7546771E-02  0.1155632E+00
         -2   -1    0    0    0  501 -0.00000000000E+00  0.00000000000E+00  0.32972291690E+03  0.32972291690E+03  0.00000000000E+00 0.  1.
          2   -1    0    0  502    0  0.00000000000E+00 -0.00000000000E+00 -0.53426822418E+03  0.53426822418E+03  0.00000000000E+00 0. -1.
         23    2    1    2    0    0 -0.15561229607E+03 -0.26062698649E+02  0.40597210913E+02  0.18703632458E+03  0.91869484757E+02 0.  0.
         23    2    1    2    0    0 -0.53717737572E+02  0.11703902763E+03 -0.38160073083E+03  0.41102888843E+03  0.82109074029E+02 0.  0.
        -11    1    3    3    0    0 -0.48245712111E+02  0.29122381722E+02 -0.79691577501E+01  0.56914579234E+02  0.00000000000E+00 0.  1.
         11    1    3    3    0    0 -0.10736658396E+03 -0.55185080371E+02  0.48566368663E+02  0.13012174534E+03  0.00000000000E+00 0. -1.
        -11    1    4    4    0    0 -0.27408514994E+02  0.10200046383E+03 -0.35606818992E+03  0.37140258102E+03  0.00000000000E+00 0. -1.
         11    1    4    4    0    0 -0.26309222578E+02  0.15038563802E+02 -0.25532540910E+02  0.39626307413E+02  0.00000000000E+00 0.  1.
         21    1    1    2  502  501  0.20933003364E+03 -0.90976328983E+02  0.13645821264E+03  0.26592592806E+03  0.00000000000E+00 0.  1.
<scales pt_clust_5="13000.00000" pt_clust_6="13000.00000" pt_clust_7="13000.00000" pt_clust_8="13000.00000" pt_clust_9="187.62050"></scales>
<clustering>
<clus scale="   82.109">  7  8 -1 -1</clus>
<clus scale="   91.869">  5  6 -1 -1</clus>
<clus scale="  152.727">  2  7  1 -1</clus>
<clus scale="  187.620">  1  9  2 -1</clus>
<clus scale="  152.727">  2  5  1 -1</clus>
</clustering>
</event>
<event>
 9    1  0.3499364E-005  0.1537907E+03  0.7546771E-02  0.1197512E+00
         -1   -1    0    0    0  501 -0.00000000000E+00  0.00000000000E+00  0.43271296615E+03  0.43271296615E+03  0.00000000000E+00 0.  1.
          1   -1    0    0  502    0  0.00000000000E+00 -0.00000000000E+00 -0.36546893789E+03  0.36546893789E+03  0.00000000000E+00 0. -1.
         23    2    1    2    0    0  0.38689581078E+02 -0.12889546957E+03  0.36620647973E+03  0.40054205944E+03  0.90641214833E+02 0.  0.
         23    2    1    2    0    0 -0.45948471745E+02  0.10741547937E+03 -0.32727088152E+03  0.36137072985E+03  0.99162630253E+02 0.  0.
        -11    1    4    4    0    0  0.75285512205E+00  0.10489582959E+03 -0.20118248043E+03  0.22688784077E+03  0.00000000000E+00 0. -1.
         11    1    4    4    0    0 -0.46701326867E+02  0.25196497721E+01 -0.12608840110E+03  0.13448288909E+03  0.00000000000E+00 0.  1.
        -13    1    3    3    0    0  0.25073959005E+02 -0.28154222729E+02  0.21538309487E+03  0.21865781768E+03  0.00000000000E+00 0. -1.
         13    1    3    3    0    0  0.13615622073E+02 -0.10074124685E+03  0.15082338485E+03  0.18188424176E+03  0.00000000000E+00 0.  1.
         21    1    1    2  502  501  0.72588906670E+01  0.21479990208E+02  0.28308430052E+02  0.36269114755E+02  0.00000000000E+00 0. -1.
<scales pt_clust_5="13000.00000" pt_clust_6="13000.00000" pt_clust_7="13000.00000" pt_clust_8="13000.00000" pt_clust_9="22.67336"></scales>
<clustering>
<clus scale="   22.673">  1  9  2 -1</clus>
<clus scale="   90.641">  7  8 -1 -1</clus>
<clus scale="   99.163">  5  6 -1 -1</clus>
<clus scale="  148.439">  1  7  2 -1</clus>
<clus scale="  153.791">  2  5  1 -1</clus>
</clustering>
</event>
<event>
 9    1  0.1434065E-005  0.1010467E+03  0.7546771E-02  0.1278936E+00
         -1   -1    0    0    0  501 -0.00000000000E+00  0.00000000000E+00  0.10521376564E+03  0.10521376564E+03  0.00000000000E+00 0.  1.
          1   -1    0    0  502    0  0.00000000000E+00 -0.00000000000E+00 -0.20506631177E+03  0.20506631177E+03  0.00000000000E+00 0. -1.
         23    2    1    2    0    0 -0.38745587420E+02 -0.50760033712E+01 -0.52233561792E+01  0.10071156579E+03  0.92674428405E+02 0.  0.
         23    2    1    2    0    0  0.24926316943E+02  0.36905474841E+02 -0.12678212087E+03  0.16226208015E+03  0.90950212389E+02 0.  0.
        -13    1    4    4    0    0 -0.29529385298E+02  0.75985410437E+01 -0.77184123217E+02  0.82988621502E+02  0.00000000000E+00 0. -1.
         13    1    4    4    0    0  0.54455702241E+02  0.29306933797E+02 -0.49597997651E+02  0.79273458649E+02  0.00000000000E+00 0.  1.
        -13    1    3    3    0    0 -0.65596794585E+02 -0.19403248855E+02 -0.12204914243E+02  0.69486584731E+02  0.00000000000E+00 0.  1.
         13    1    3    3    0    0  0.26851207165E+02  0.14327245484E+02  0.69815580642E+01  0.31224981063E+02  0.00000000000E+00 0. -1.
         21    1    1    2  502  501  0.13819270476E+02 -0.31829471470E+02  0.32152930917E+02  0.47306431456E+02  0.00000000000E+00 0.  1.
<scales pt_clust_5="13000.00000" pt_clust_6="13000.00000" pt_clust_7="13000.00000" pt_clust_8="13000.00000" pt_clust_9="34.69996"></scales>
<clustering>
<clus scale="   34.700">  1  9  2 -1</clus>
<clus scale="   90.950">  5  6 -1 -1</clus>
<clus scale="   92.674">  7  8 -1 -1</clus>
<clus scale="   99.468">  2  5  1 -1</clus>
<clus scale="   99.468">  2  5  1 -1</clus>
</clustering>
</event>
<event>
 9    1  0.1434065E-005  0.1154712E+03  0.7546771E-02  0.1253219E+00
         -2   -1    0    0    0  501 -0.00000000000E+00  0.00000000000E+00  0.56509357078E+02  0.56509357078E+02  0.00000000000E+00 0.  1.
          2   -1    0    0  502    0  0.00000000000E+00 -0.00000000000E+00 -0.32838642871E+03  0.32838642871E+03  0.00000000000E+00 0. -1.
         23    2    1    2    0    0  0.27623298966E+02  0.54187971847E+02 -0.73892269299E+02  0.13082958840E+03  0.89201630033E+02 0.  0.
         23    2    1    2    0    0  0.27573060430E+01 -0.69584438446E+02 -0.18007559115E+03  0.21558539452E+03  0.95917917979E+02 0.  0.
        -11    1    3    3    0    0 -0.19000144310E+02 -0.15039373449E+02 -0.20584429175E+02  0.31794763122E+02  0.00000000000E+00 0. -1.
         11    1    3    3    0    0  0.46623443276E+02  0.69227345296E+02 -0.53307840123E+02  0.99034825280E+02  0.00000000000E+00 0.  1.
        -11    1    4    4    0    0  0.40126908316E+02 -0.17219400538E+02 -0.31990206820E+02  0.54129934955E+02  0.00000000000E+00 0.  1.
         11    1    4    4    0    0 -0.37369602273E+02 -0.52365037907E+02 -0.14808538433E+03  0.16145545956E+03  0.00000000000E+00 0. -1.
         21    1    1    2  502  501 -0.30380605009E+02  0.15396466599E+02 -0.17909211181E+02  0.38480802871E+02  0.00000000000E+00 0. -1.
<scales pt_clust_5="13000.00000" pt_clust_6="13000.00000" pt_clust_7="13000.00000" pt_clust_8="13000.00000" pt_clust_9="34.05925"></scales>
<clustering>
<clus scale="   34.059">  1  9  2 -1</clus>
<clus scale="   89.202">  5  6 -1 -1</clus>
<clus scale="   95.918">  7  8 -1 -1</clus>
<clus scale="  109.956">  1  5  2 -1</clus>
<clus scale="  115.471">  2  5  1 -1</clus>
</clustering>
</event>
<event>
 9    1  0.1434065E-005  0.9302176E+02  0.7546771E-02  0.1296743E+00
         -2   -1    0    0    0  501 -0.00000000000E+00  0.00000000000E+00  0.41472444857E+02  0.41472444857E+02  0.00000000000E+00 0.  1.
          2   -1    0    0  502    0  0.00000000000E+00 -0.00000000000E+00 -0.40492651340E+03  0.40492651340E+03  0.00000000000E+00 0. -1.
         23    2    1    2    0    0  0.21682784817E+02 -0.31059286376E+01 -0.73862593416E+02  0.11909933944E+03  0.90824996551E+02 0.  0.
         23    2    1    2    0    0 -0.11593897294E+02 -0.19941444188E+02 -0.28774473397E+03  0.30207309510E+03  0.88989006107E+02 0.  0.
        -11    1    3    3    0    0  0.22312591405E+02 -0.28996302669E+02  0.42237241214E+01  0.36830383505E+02  0.00000000000E+00 0.  1.
         11    1    3    3    0    0 -0.62980658824E+00  0.25890374032E+02 -0.78086317537E+02  0.82268955933E+02  0.00000000000E+00 0. -1.
        -11    1    4    4    0    0 -0.48335772559E+02 -0.56545285009E+01 -0.20072691333E+03  0.20654204012E+03  0.00000000000E+00 0.  1.
         11    1    4    4    0    0  0.36741875264E+02 -0.14286915687E+02 -0.87017820638E+02  0.95531054984E+02  0.00000000000E+00 0. -1.
         21    1    1    2  502  501 -0.10088887523E+02  0.23047372826E+02 -0.18467411555E+01  0.25226523711E+02  0.00000000000E+00 0.  1.
<scales pt_clust_5="13000.00000" pt_clust_6="13000.00000" pt_clust_7="13000.00000" pt_clust_8="13000.00000" pt_clust_9="25.15884"></scales>
<clustering>
<clus scale="   25.159">  1  9  2 -1</clus>
<clus scale="   88.989">  7  8 -1 -1</clus>
<clus scale="   90.825">  5  6 -1 -1</clus>
<clus scale="   91.230">  2  7  1 -1</clus>
<clus scale="   91.230">  2  5  1 -1</clus>
</clustering>
</event>
<event>
 9    1  0.1434065E-005  0.9195726E+02  0.7546771E-02  0.1300326E+00
          2   -1    0    0  502    0  0.00000000000E+00  0.00000000000E+00  0.43422955348E+03  0.43422955348E+03  0.00000000000E+00 0. -1.
         -2   -1    0    0    0  501 -0.00000000000E+00 -0.00000000000E+00 -0.56681795553E+02  0.56681795553E+02  0.00000000000E+00 0.  1.
         23    2    1    2    0    0  0.40641514475E+02 -0.41919451844E+02  0.73747960075E+02  0.12842835697E+03  0.87442027178E+02 0.  0.
         23    2    1    2    0    0  0.26346049770E+02 -0.27550645322E+01  0.24520426285E+03  0.26290095102E+03  0.91049847918E+02 0.  0.
        -13    1    4    4    0    0  0.23872535857E+02  0.40403759862E+02  0.16784591598E+03  0.17428314116E+03  0.00000000000E+00 0.  1.
         13    1    4    4    0    0  0.24735139133E+01 -0.43158824395E+02  0.77358346872E+02  0.88617809863E+02  0.00000000000E+00 0. -1.
        -13    1    3    3    0    0  0.13477516114E+02 -0.52583589495E+02  0.59398549099E+01  0.54607318201E+02  0.00000000000E+00 0.  1.
         13    1    3    3    0    0  0.27163998361E+02  0.10664137651E+02  0.67808105165E+02  0.73821038769E+02  0.00000000000E+00 0. -1.
         21    1    1    2  502  501 -0.66987564245E+02  0.44674516376E+02  0.58595534998E+02  0.99582041044E+02  0.00000000000E+00 0. -1.
<scales pt_clust_5="13000.00000" pt_clust_6="13000.00000" pt_clust_7="13000.00000" pt_clust_8="13000.00000" pt_clust_9="80.51799"></scales>
<clustering>
<clus scale="   80.518">  2  9  1 -1</clus>
<clus scale="   87.442">  7  8 -1 -1</clus>
<clus scale="   88.386">  2  7  1 -1</clus>
<clus scale="   91.050">  5  6 -1 -1</clus>
<clus scale="   91.957">  1  5  2 -1</clus>
</clustering>
</event>
<event>
 9    1  0.1434065E-005  0.1095552E+03  0.7546771E-02  0.1262680E+00
         -1   -1    0    0    0  501 -0.00000000000E+00  0.00000000000E+00  0.38511000539E+02  0.38511000539E+02  0.00000000000E+00 0.  1.
          1   -1    0    0  502    0  0.00000000000E+00 -0.00000000000E+00 -0.50130289790E+03  0.50130289790E+03  0.00000000000E+00 0. -1.
         23    2    1    2    0    0  0.42089344768E+02 -0.23294945102E+02 -0.85346938786E+02  0.13153509414E+03  0.87767953263E+02 0.  0.
         23    2    1    2    0    0 -0.45739729389E+02  0.48011713453E+02 -0.36148779371E+03  0.37863297734E+03  0.91061841928E+02 0.  0.
        -11    1    4    4    0    0 -0.71205269220E+02  0.20782047623E+02 -0.21338759622E+03  0.22591226193E+03  0.00000000000E+00 0. -1.
         11    1    4    4    0    0  0.25465539831E+02  0.27229665830E+02 -0.14810019749E+03  0.15272071542E+03  0.00000000000E+00 0.  1.
        -11    1    3    3    0    0  0.48345319649E+02  0.21673539224E+02 -0.33800479094E+02  0.62844925185E+02  0.00000000000E+00 0.  1.
         11    1    3    3    0    0 -0.62559748811E+01 -0.44968484326E+02 -0.51546459692E+02  0.68690168955E+02  0.00000000000E+00 0. -1.
         21    1    1    2  502  501  0.36503846210E+01 -0.24716768351E+02 -0.15957164867E+02  0.29645826961E+02  0.00000000000E+00 0.  1.
<scales pt_clust_5="13000.00000" pt_clust_6="13000.00000" pt_clust_7="13000.00000" pt_clust_8="13000.00000" pt_clust_9="24.98487"></scales>
<clustering>
<clus scale="   24.985">  1  9  2 -1</clus>
<clus scale="   87.768">  7  8 -1 -1</clus>
<clus scale="   91.062">  5  6 -1 -1</clus>
<clus scale="  106.833">  1  7  2 -1</clus>
<clus scale="  109.555">  2  5  1 -1</clus>
</clustering>
</event>
<event>
 9    1  0.1434065E-005  0.1047631E+03  0.7546771E-02  0.1271183E+00
         -1   -1    0    0    0  501 -0.00000000000E+00  0.00000000000E+00  0.14019118352E+03  0.14019118352E+03  0.00000000000E+00 0.  1.
          1   -1    0    0  502    0  0.00000000000E+00 -0.00000000000E+00 -0.12286579423E+03  0.12286579423E+03  0.00000000000E+00 0. -1.
         23    2    1    2    0    0 -0.30256891049E+02 -0.62705351747E+01  0.29007206267E+02  0.10120848918E+03  0.91907242371E+02 0.  0.
         23    2    1    2    0    0  0.61354340275E+02 -0.25614138530E+02 -0.25555645378E+02  0.11519908471E+03  0.90538936062E+02 0.  0.
        -11    1    4    4    0    0  0.73605826775E+01  0.26704453155E+02  0.13120881001E+02  0.30650669061E+02  0.00000000000E+00 0.  1.
         11    1    4    4    0    0  0.53993757598E+02 -0.52318591684E+02 -0.38676526379E+02  0.84548415645E+02  0.00000000000E+00 0. -1.
        -13    1    3    3    0    0  0.46693398389E+01 -0.44516151497E+02  0.18085051531E+02  0.48275869412E+02  0.00000000000E+00 0. -1.
         13    1    3    3    0    0 -0.34926230888E+02  0.38245616322E+02  0.10922154736E+02  0.52932619772E+02  0.00000000000E+00 0.  1.
         21    1    1    2  502  501 -0.31097449226E+02  0.31884673704E+02  0.13873828403E+02  0.46649403856E+02  0.00000000000E+00 0. -1.
<scales pt_clust_5="13000.00000" pt_clust_6="13000.00000" pt_clust_7="13000.00000" pt_clust_8="13000.00000" pt_clust_9="44.53856"></scales>
<clustering>
<clus scale="   44.539">  1  9  2 -1</clus>
<clus scale="   90.539">  5  6 -1 -1</clus>
<clus scale="   91.907">  7  8 -1 -1</clus>
<clus scale="  103.565">  2  5  1 -1</clus>
<clus scale="  103.565">  2  5  1 -1</clus>
</clustering>
</event>
<event>
 9    1  0.1434065E-005  0.1012364E+03  0.7546771E-02  0.1279063E+00
          1   -1    0    0  502    0  0.00000000000E+00  0.00000000000E+00  0.41847261689E+03  0.41847261689E+03  0.00000000000E+00 0. -1.
         -1   -1    0    0    0  501 -0.00000000000E+00 -0.00000000000E+00 -0.37817468954E+02  0.37817468954E+02  0.00000000000E+00 0.  1.
         23    2    1    2    0    0 -0.39926193392E+02  0.22290702362E+02  0.12375853873E+03  0.15966479027E+03  0.89920481607E+02 0.  0.
         23    2    1    2    0    0  0.48969340819E+02 -0.20008415561E+00  0.25357321893E+03  0.27252511194E+03  0.87020244232E+02 0.  0.
        -11    1    3    3    0    0 -0.52544170766E+02  0.48253096009E+02  0.79399677546E+02  0.10674061996E+03  0.00000000000E+00 0.  1.
         11    1    3    3    0    0  0.12617977374E+02 -0.25962393647E+02  0.44358861187E+02  0.52924170307E+02  0.00000000000E+00 0. -1.
        -11    1    4    4    0    0 -0.23554460204E+02  0.11066198730E+02  0.78080678476E+02  0.82303497503E+02  0.00000000000E+00 0.  1.
         11    1    4    4    0    0  0.72523801023E+02 -0.11266282886E+02  0.17549254045E+03  0.19022161444E+03  0.00000000000E+00 0. -1.
         21    1    1    2  502  501 -0.90431474269E+01 -0.22090618206E+02  0.33233902725E+01  0.24100183630E+02  0.00000000000E+00 0.  1.
<scales pt_clust_5="13000.00000" pt_clust_6="13000.00000" pt_clust_7="13000.00000" pt_clust_8="13000.00000" pt_clust_9="23.86994"></scales>
<clustering>
<clus scale="   23.870">  2  9  1 -1</clus>
<clus scale="   87.020">  7  8 -1 -1</clus>
<clus scale="   89.920">  5  6 -1 -1</clus>
<clus scale="   98.669">  1  7  2 -1</clus>
<clus scale="   98.669">  1  5  2 -1</clus>
</clustering>
</event>
<event>
 9    1  0.1434065E-005  0.2672989E+03  0.7546771E-02  0.1102886E+00
         -1   -1    0    0    0  501 -0.00000000000E+00  0.00000000000E+00  0.29680746058E+03  0.29680746058E+03  0.00000000000E+00 0.  1.
          1   -1    0    0  502    0  0.00000000000E+00 -0.00000000000E+00 -0.32093043096E+03  0.32093043096E+03  0.00000000000E+00 0. -1.
         23    2    1    2    0    0 -0.20121389302E+03 -0.16858985250E+03  0.10234526429E+03  0.29647322557E+03  0.92261862358E+02 0.  0.
         23    2    1    2    0    0  0.18101424487E+03  0.16709008134E+03 -0.13923673642E+03  0.29732077874E+03  0.91255271477E+02 0.  0.
        -11    1    4    4    0    0  0.59030617598E+02  0.69591913512E+01 -0.47571746647E+02  0.76132222070E+02  0.00000000000E+00 0.  1.
         11    1    4    4    0    0  0.12198362727E+03  0.16013088999E+03 -0.91664989771E+02  0.22118855667E+03  0.00000000000E+00 0. -1.
        -13    1    3    3    0    0 -0.13812422057E+03 -0.11638430905E+03  0.11425428254E+03  0.21372329957E+03  0.00000000000E+00 0.  1.
         13    1    3    3    0    0 -0.63089672450E+02 -0.52205543451E+02 -0.11909018249E+02  0.82749925997E+02  0.00000000000E+00 0. -1.
         21    1    1    2  502  501  0.20199648151E+02  0.14997711616E+01  0.12768501750E+02  0.23943887234E+02  0.00000000000E+00 0.  1.
<scales pt_clust_5="13000.00000" pt_clust_6="13000.00000" pt_clust_7="13000.00000" pt_clust_8="13000.00000" pt_clust_9="20.25525"></scales>
<clustering>
<clus scale="   20.255">  1  9  2 -1</clus>
<clus scale="   91.255">  5  6 -1 -1</clus>
<clus scale="   92.262">  7  8 -1 -1</clus>
<clus scale="  266.953">  2  5  1 -1</clus>
<clus scale="  266.953">  2  5  1 -1</clus>
</clustering>
</event>
<event>
 9    1  0.1434065E-005  0.1298593E+03  0.7546771E-02  0.1228955E+00
          1   -1    0    0  502    0  0.00000000000E+00  0.00000000000E+00  0.30305660020E+03  0.30305660020E+03  0.00000000000E+00 0. -1.
         -1   -1    0    0    0  501 -0.00000000000E+00 -0.00000000000E+00 -0.15305385247E+03  0.15305385247E+03  0.00000000000E+00 0.  1.
         23    2    1    2    0    0 -0.10493255143E+03  0.29134160618E+01 -0.56208350873E+02  0.14706301023E+03  0.86306557837E+02 0.  0.
         23    2    1    2    0    0  0.88004304764E+02 -0.21970554486E+02  0.23663830417E+03  0.26935418232E+03  0.91249797868E+02 0.  0.
        -13    1    3    3    0    0 -0.56114480945E+02 -0.40960832820E+02 -0.20993603016E+02  0.72576553822E+02  0.00000000000E+00 0. -1.
         13    1    3    3    0    0 -0.48818070488E+02  0.43874248882E+02 -0.35214747857E+02  0.74486456405E+02  0.00000000000E+00 0.  1.
        -13    1    4    4    0    0  0.36110559916E+02  0.24730507979E+02  0.35215523051E+02  0.56175649761E+02  0.00000000000E+00 0.  1.
         13    1    4    4    0    0  0.51893744848E+02 -0.46701062465E+02  0.20142278112E+03  0.21317853256E+03  0.00000000000E+00 0. -1.
         21    1    1    2  502  501  0.16928246670E+02  0.19057138424E+02 -0.30427205574E+02  0.39693260124E+02  0.00000000000E+00 0.  1.
<scales pt_clust_5="13000.00000" pt_clust_6="13000.00000" pt_clust_7="13000.00000" pt_clust_8="13000.00000" pt_clust_9="25.49000"></scales>
<clustering>
<clus scale="   25.490">  2  9  1 -1</clus>
<clus scale="   86.307">  5  6 -1 -1</clus>
<clus scale="   91.250">  7  8 -1 -1</clus>
<clus scale="  126.435">  2  5  1 -1</clus>
<clus scale="  129.859">  1  5  2 -1</clus>
</clustering>
</event>
<event>
 9    1  0.1434065E-005  0.9683260E+02  0.7546771E-02  0.1289137E+00
          2   -1    0    0  502    0  0.00000000000E+00  0.00000000000E+00  0.12139990044E+03  0.12139990044E+03  0.00000000000E+00 0. -1.
         -2   -1    0    0    0  501 -0.00000000000E+00 -0.00000000000E+00 -0.15108269364E+03  0.15108269364E+03  0.00000000000E+00 0.  1.
         23    2    1    2    0    0 -0.55925867937E+02  0.29019620460E+02 -0.45690993838E+02  0.11810083789E+03  0.88827360185E+02 0.  0.
         23    2    1    2    0    0  0.13537280814E+02 -0.60450483564E+01  0.38218739363E+02  0.10129756539E+03  0.92632198151E+02 0.  0.
        -11    1    4    4    0    0  0.27285141582E+02 -0.35171333496E+02 -0.77347054306E+01  0.45181050442E+02  0.00000000000E+00 0.  1.
         11    1    4    4    0    0 -0.13747860768E+02  0.29126285139E+02  0.45953444793E+02  0.56116514949E+02  0.00000000000E+00 0. -1.
        -11    1    3    3    0    0 -0.26318853401E+02 -0.31013063734E+02 -0.26204226942E+02  0.48385469680E+02  0.00000000000E+00 0.  1.
         11    1    3    3    0    0 -0.29607014536E+02  0.60032684194E+02 -0.19486766897E+02  0.69715368215E+02  0.00000000000E+00 0. -1.
         21    1    1    2  502  501  0.42388587123E+02 -0.22974572104E+02 -0.22210538732E+02  0.53084190795E+02  0.00000000000E+00 0.  1.
<scales pt_clust_5="13000.00000" pt_clust_6="13000.00000" pt_clust_7="13000.00000" pt_clust_8="13000.00000" pt_clust_9="48.21435"></scales>
<clustering>
<clus scale="   48.214">  2  9  1 -1</clus>
<clus scale="   88.827">  7  8 -1 -1</clus>
<clus scale="   92.632">  5  6 -1 -1</clus>
<clus scale="   93.199">  2  7  1 -1</clus>
<clus scale="   96.833">  1  5  2 -1</clus>
</clustering>
</event>
<event>
 9    1  0.1434065E-005  0.1202280E+03  0.7546771E-02  0.1243604E+00
          1   -1    0    0  502    0  0.00000000000E+00  0.00000000000E+00  0.18369627814E+03  0.18369627814E+03  0.00000000000E+00 0. -1.
         -1   -1    0    0    0  501 -0.00000000000E+00 -0.00000000000E+00 -0.48807425833E+03  0.48807425833E+03  0.00000000000E+00 0.  1.
         23    2    1    2    0    0  0.42609325973E+02  0.66440331112E+02 -0.43527082142E+03  0.45164549399E+03  0.91066415363E+02 0.  0.
         23    2    1    2    0    0 -0.97122971579E+01 -0.76383924987E+02  0.14194819542E+03  0.18402365165E+03  0.88241608507E+02 0.  0.
        -11    1    3    3    0    0  0.36196451681E+02  0.89478006736E+02 -0.35506540009E+03  0.36795099557E+03  0.00000000000E+00 0. -1.
         11    1    3    3    0    0  0.64128742918E+01 -0.23037675624E+02 -0.80205421328E+02  0.83694498417E+02  0.00000000000E+00 0.  1.
        -11    1    4    4    0    0  0.38004310637E+02 -0.46968999730E+02  0.83201118978E+02  0.10282431989E+03  0.00000000000E+00 0. -1.
         11    1    4    4    0    0 -0.47716607795E+02 -0.29414925257E+02  0.58747076439E+02  0.81199331755E+02  0.00000000000E+00 0.  1.
         21    1    1    2  502  501 -0.32897028815E+02  0.99435938753E+01 -0.11055354194E+02  0.36101390837E+02  0.00000000000E+00 0. -1.
<scales pt_clust_5="13000.00000" pt_clust_6="13000.00000" pt_clust_7="13000.00000" pt_clust_8="13000.00000" pt_clust_9="34.36698"></scales>
<clustering>
<clus scale="   34.367">  1  9  2 -1</clus>
<clus scale="   88.242">  7  8 -1 -1</clus>
<clus scale="   91.066">  5  6 -1 -1</clus>
<clus scale="  118.103">  1  7  2 -1</clus>
<clus scale="   34.367">  1  5  2 -1</clus>
</clustering>
</event>
<event>
 9    1  0.1434065E-005  0.1004203E+03  0.7546771E-02  0.1280942E+00
         -2   -1    0    0    0  501 -0.00000000000E+00  0.00000000000E+00  0.88874494749E+02  0.88874494749E+02  0.00000000000E+00 0.  1.
          2   -1    0    0  502    0  0.00000000000E+00 -0.00000000000E+00 -0.15757940955E+03  0.15757940955E+03  0.00000000000E+00 0. -1.
         23    2    1    2    0    0 -0.21071489135E+02 -0.12277533182E+02 -0.31070363428E+02  0.10185487154E+03  0.93884513619E+02 0.  0.
         23    2    1    2    0    0  0.35566489708E+02  0.27973852537E+02 -0.56475980143E+02  0.11611256368E+03  0.90802420098E+02 0.  0.
        -11    1    4    4    0    0  0.22562775691E+02  0.80714152987E+01  0.22964906555E+02  0.33190563793E+02  0.00000000000E+00 0.  1.
         11    1    4    4    0    0  0.13003714017E+02  0.19902437238E+02 -0.79440886698E+02  0.82921999889E+02  0.00000000000E+00 0. -1.
        -13    1    3    3    0    0 -0.18449213958E+02 -0.45744883395E+02  0.84043805834E+01  0.50036001693E+02  0.00000000000E+00 0.  1.
         13    1    3    3    0    0 -0.26222751772E+01  0.33467350213E+02 -0.39474744011E+02  0.51818869846E+02  0.00000000000E+00 0. -1.
         21    1    1    2  502  501 -0.14495000572E+02 -0.15696319355E+02  0.18841428765E+02  0.28486469083E+02  0.00000000000E+00 0. -1.
<scales pt_clust_5="13000.00000" pt_clust_6="13000.00000" pt_clust_7="13000.00000" pt_clust_8="13000.00000" pt_clust_9="21.36538"></scales>
<clustering>
<clus scale="   21.365">  1  9  2 -1</clus>
<clus scale="   90.802">  5  6 -1 -1</clus>
<clus scale="   93.885">  7  8 -1 -1</clus>
<clus scale="   97.545">  2  5  1 -1</clus>
<clus scale="   97.545">  2  5  1 -1</clus>
</clustering>
</event>
<event>
 9    1  0.1434065E-005  0.1868712E+03  0.7546771E-02  0.1161563E+00
         -1   -1    0    0    0  501 -0.00000000000E+00  0.00000000000E+00  0.77451450675E+02  0.77451450675E+02  0.00000000000E+00 0.  1.
          1   -1    0    0  502    0  0.00000000000E+00 -0.00000000000E+00 -0.95176525835E+03  0.95176525835E+03  0.00000000000E+00 0. -1.
         23    2    1    2    0    0  0.57008129583E+02  0.13857997781E+03 -0.70503192998E+02  0.18999003252E+03  0.93119144880E+02 0.  0.
         23    2    1    2    0    0 -0.84133164124E+02 -0.14140668177E+03 -0.78207114853E+03  0.80435029278E+03  0.90938843014E+02 0.  0.
        -11    1    4    4    0    0 -0.92060977961E+02 -0.98441838466E+02 -0.68148388235E+03  0.69468431761E+03  0.00000000000E+00 0. -1.
         11    1    4    4    0    0  0.79278138373E+01 -0.42964843302E+02 -0.10058726618E+03  0.10966597517E+03  0.00000000000E+00 0.  1.
        -13    1    3    3    0    0  0.50243435084E+02  0.41752342287E+02  0.71077673426E+01  0.65712869456E+02  0.00000000000E+00 0. -1.
         13    1    3    3    0    0  0.67646944987E+01  0.96827635527E+02 -0.77610960341E+02  0.12427716306E+03  0.00000000000E+00 0.  1.
         21    1    1    2  502  501  0.27125034541E+02  0.28267039541E+01 -0.21739466146E+02  0.34876383734E+02  0.00000000000E+00 0.  1.
<scales pt_clust_5="13000.00000" pt_clust_6="13000.00000" pt_clust_7="13000.00000" pt_clust_8="13000.00000" pt_clust_9="27.27192"></scales>
<clustering>
<clus scale="   27.272">  1  9  2 -1</clus>
<clus scale="   90.939">  5  6 -1 -1</clus>
<clus scale="   93.119">  7  8 -1 -1</clus>
<clus scale="  185.794">  2  5  1 -1</clus>
<clus scale="  185.794">  2  5  1 -1</clus>
</clustering>
</event>
<event>
 9    1  0.1434065E-005  0.9976673E+02  0.7546771E-02  0.1283275E+00
         -2   -1    0    0    0  501 -0.00000000000E+00  0.00000000000E+00  0.75883983184E+02  0.75883983184E+02  0.00000000000E+00 0.  1.
          2   -1    0    0  502    0  0.00000000000E+00 -0.00000000000E+00 -0.49845145338E+03  0.49845145338E+03  0.00000000000E+00 0. -1.
         23    2    1    2    0    0 -0.50256021916E+02  0.19954924327E+02 -0.89782343734E+02  0.13805429142E+03  0.89856838294E+02 0.  0.
         23    2    1    2    0    0  0.25381896900E+02  0.13559470053E+02 -0.36836709115E+03  0.38143579040E+03  0.94714562956E+02 0.  0.
        -11    1    4    4    0    0 -0.98148238344E+01  0.45947607124E+02 -0.12787576033E+03  0.13623407594E+03  0.00000000000E+00 0. -1.
         11    1    4    4    0    0  0.35196720735E+02 -0.32388137071E+02 -0.24049133082E+03  0.24520171446E+03  0.00000000000E+00 0.  1.
        -13    1    3    3    0    0  0.42806404246E+01 -0.22131277379E+02  0.27354471774E+01  0.22706826994E+02  0.00000000000E+00 0.  1.
         13    1    3    3    0    0 -0.54536662341E+02  0.42086201706E+02 -0.92517790912E+02  0.11534746442E+03  0.00000000000E+00 0. -1.
         21    1    1    2  502  501  0.24874125016E+02 -0.33514394380E+02  0.35581964692E+02  0.54845354747E+02  0.00000000000E+00 0.  1.
<scales pt_clust_5="13000.00000" pt_clust_6="13000.00000" pt_clust_7="13000.00000" pt_clust_8="13000.00000" pt_clust_9="41.73652"></scales>
<clustering>
<clus scale="   41.737">  1  9  2 -1</clus>
<clus scale="   89.857">  7  8 -1 -1</clus>
<clus scale="   94.715">  5  6 -1 -1</clus>
<clus scale="   95.167">  1  7  2 -1</clus>
<clus scale="   99.767">  2  5  1 -1</clus>
</clustering>
</event>
<event>
 9    1  0.1434065E-005  0.9271589E+02  0.7546771E-02  0.1297270E+00
          1   -1    0    0  502    0  0.00000000000E+00  0.00000000000E+00  0.61693882211E+03  0.61693882211E+03  0.00000000000E+00 0. -1.
         -1   -1    0    0    0  501 -0.00000000000E+00 -0.00000000000E+00 -0.30612126628E+02  0.30612126628E+02  0.00000000000E+00 0.  1.
         23    2    1    2    0    0  0.44675722480E+01  0.31480768359E+01  0.22347381536E+03  0.24163244712E+03  0.91737798973E+02 0.  0.
         23    2    1    2    0    0  0.85057999980E+01  0.23528599044E+02  0.36437292862E+03  0.37621557295E+03  0.90247341295E+02 0.  0.
        -13    1    3    3    0    0  0.46236324835E+02 -0.11409968497E+02  0.11959285857E+03  0.12872620921E+03  0.00000000000E+00 0.  1.
         13    1    3    3    0    0 -0.41768752587E+02  0.14558045333E+02  0.10388095679E+03  0.11290623792E+03  0.00000000000E+00 0. -1.
        -13    1    4    4    0    0  0.49412079381E+02  0.93289295338E+01  0.18875845798E+03  0.19534159305E+03  0.00000000000E+00 0.  1.
         13    1    4    4    0    0 -0.40906279383E+02  0.14199669510E+02  0.17561447064E+03  0.18087397990E+03  0.00000000000E+00 0. -1.
         21    1    1    2  502  501 -0.12973372246E+02 -0.26676675880E+02 -0.15200485098E+01  0.29702928659E+02  0.00000000000E+00 0.  1.
<scales pt_clust_5="13000.00000" pt_clust_6="13000.00000" pt_clust_7="13000.00000" pt_clust_8="13000.00000" pt_clust_9="29.66401"></scales>
<clustering>
<clus scale="   29.664">  2  9  1 -1</clus>
<clus scale="   90.247">  7  8 -1 -1</clus>
<clus scale="   91.241">  1  7  2 -1</clus>
<clus scale="   91.738">  5  6 -1 -1</clus>
<clus scale="   91.241">  1  5  2 -1</clus>
</clustering>
</event>
<event>
 9    1  0.1434065E-005  0.1538908E+03  0.7546771E-02  0.1196967E+00
         -2   -1    0    0    0  501 -0.00000000000E+00  0.00000000000E+00  0.11791483179E+03  0.11791483179E+03  0.00000000000E+00 0. -1.
          2   -1    0    0  502    0  0.00000000000E+00 -0.00000000000E+00 -0.29375182538E+03  0.29375182538E+03  0.00000000000E+00 0.  1.
         23    2    1    2    0    0 -0.10041016803E+03 -0.70139272674E+02 -0.89872459105E+02  0.17705788141E+03  0.90943471718E+02 0.  0.
         23    2    1    2    0    0  0.63618259745E+02  0.10285331434E+03 -0.98429534133E+02  0.18382266295E+03  0.97346345498E+02 0.  0.
        -11    1    4    4    0    0  0.89276563244E+02  0.81508151511E+02 -0.85320625486E+02  0.14796449791E+03  0.00000000000E+00 0.  1.
         11    1    4    4    0    0 -0.25658303499E+02  0.21345162828E+02 -0.13108908647E+02  0.35858165046E+02  0.00000000000E+00 0. -1.
        -13    1    3    3    0    0 -0.73566097727E+02 -0.40964341136E+02 -0.61545355894E+01  0.84427047134E+02  0.00000000000E+00 0. -1.
         13    1    3    3    0    0 -0.26844070307E+02 -0.29174931537E+02 -0.83717923516E+02  0.92630834276E+02  0.00000000000E+00 0.  1.
         21    1    1    2  502  501  0.36791908290E+02 -0.32714041665E+02  0.12464999655E+02  0.50786112807E+02  0.00000000000E+00 0. -1.
<scales pt_clust_5="13000.00000" pt_clust_6="13000.00000" pt_clust_7="13000.00000" pt_clust_8="13000.00000" pt_clust_9="49.23264"></scales>
<clustering>
<clus scale="   49.233">  1  9  2 -1</clus>
<clus scale="   90.943">  7  8 -1 -1</clus>
<clus scale="   97.346">  5  6 -1 -1</clus>
<clus scale="  149.923">  1  7  2 -1</clus>
<clus scale="  153.891">  2  5  1 -1</clus>
</clustering>
</event>
<event>
 9    1  0.1434065E-005  0.1080508E+03  0.7546771E-02  0.1265896E+00
          1   -1    0    0  502    0  0.00000000000E+00  0.00000000000E+00  0.23811258627E+03  0.23811258627E+03  0.00000000000E+00 0. -1.
         -1   -1    0    0    0  501 -0.00000000000E+00 -0.00000000000E+00 -0.11447916392E+03  0.11447916392E+03  0.00000000000E+00 0.  1.
         23    2    1    2    0    0 -0.38548051224E+02  0.36809436567E+02 -0.45522334480E+02  0.11918758618E+03  0.96397670565E+02 0.  0.
         23    2    1    2    0    0  0.49699612934E+02 -0.38945100900E+01  0.16858344604E+03  0.19864675828E+03  0.92492905471E+02 0.  0.
        -11    1    4    4    0    0  0.60093382954E+02 -0.36486192281E+02  0.10346933571E+03  0.12509340644E+03  0.00000000000E+00 0. -1.
         11    1    4    4    0    0 -0.10393770021E+02  0.32591682191E+02  0.65114110329E+02  0.73553351842E+02  0.00000000000E+00 0.  1.
        -13    1    3    3    0    0  0.22057656804E+02  0.35184187168E+02  0.28544100985E+01  0.41624691079E+02  0.00000000000E+00 0. -1.
         13    1    3    3    0    0 -0.60605708028E+02  0.16252493987E+01 -0.48376744578E+02  0.77562895106E+02  0.00000000000E+00 0.  1.
         21    1    1    2  502  501 -0.11151561710E+02 -0.32914926477E+02  0.57231079190E+00  0.34757405732E+02  0.00000000000E+00 0.  1.
<scales pt_clust_5="13000.00000" pt_clust_6="13000.00000" pt_clust_7="13000.00000" pt_clust_8="13000.00000" pt_clust_9="34.75269"></scales>
<clustering>
<clus scale="   34.753">  2  9  1 -1</clus>
<clus scale="   92.493">  5  6 -1 -1</clus>
<clus scale="   96.398">  7  8 -1 -1</clus>
<clus scale="  104.582">  1  5  2 -1</clus>
<clus scale="  104.582">  1  5  2 -1</clus>
</clustering>
</event>
<event>
 9    1  0.1434065E-005  0.1544268E+03  0.7546771E-02  0.1195473E+00
          1   -1    0    0  502    0  0.00000000000E+00  0.00000000000E+00  0.15807072270E+03  0.15807072270E+03  0.00000000000E+00 0. -1.
         -1   -1    0    0    0  501 -0.00000000000E+00 -0.00000000000E+00 -0.34399240683E+03  0.34399240683E+03  0.00000000000E+00 0.  1.
         23    2    1    2    0    0 -0.62179330769E+02  0.55955922972E+02 -0.11167861179E+03  0.16598185375E+03  0.89891762430E+02 0.  0.
         23    2    1    2    0    0  0.82709326657E+02 -0.11480712897E+03  0.67158947577E+02  0.18155141971E+03  0.91810044020E+02 0.  0.
        -13    1    4    4    0    0  0.18279455623E+01 -0.49992604818E+02  0.59334827179E+02  0.77609430084E+02  0.00000000000E+00 0. -1.
         13    1    4    4    0    0  0.80881381095E+02 -0.64814524147E+02  0.78241203976E+01  0.10394198963E+03  0.00000000000E+00 0.  1.
        -13    1    3    3    0    0 -0.38936520386E+02 -0.14415649736E+02 -0.68809757995E+02  0.80365703956E+02  0.00000000000E+00 0. -1.
         13    1    3    3    0    0 -0.23242810384E+02  0.70371572708E+02 -0.42868853795E+02  0.85616149795E+02  0.00000000000E+00 0.  1.
         21    1    1    2  502  501 -0.20529995888E+02  0.58851205994E+02 -0.14140201992E+03  0.15452985607E+03  0.00000000000E+00 0.  1.
<scales pt_clust_5="13000.00000" pt_clust_6="13000.00000" pt_clust_7="13000.00000" pt_clust_8="13000.00000" pt_clust_9="62.32933"></scales>
<clustering>
<clus scale="   62.329">  2  9  1 -1</clus>
<clus scale="   89.892">  7  8 -1 -1</clus>
<clus scale="   91.810">  5  6 -1 -1</clus>
<clus scale="  153.294">  2  7  1 -1</clus>
<clus scale="  154.427">  1  5  2 -1</clus>
</clustering>
</event>
<event>
 9    1  0.1434065E-005  0.1011912E+03  0.7546771E-02  0.1277975E+00
          1   -1    0    0  502    0  0.00000000000E+00  0.00000000000E+00  0.19357251035E+03  0.19357251035E+03  0.00000000000E+00 0. -1.
         -1   -1    0    0    0  501 -0.00000000000E+00 -0.00000000000E+00 -0.78850816196E+02  0.78850816196E+02  0.00000000000E+00 0.  1.
         23    2    1    2    0    0  0.62042368426E+02 -0.72081429579E+01  0.44078124785E+02  0.11895562542E+03  0.91139162431E+02 0.  0.
         23    2    1    2    0    0 -0.26973200800E+02  0.19934595529E+02  0.62714932505E+02  0.11532753339E+03  0.90787309342E+02 0.  0.
        -11    1    4    4    0    0  0.30662065047E+02  0.23325887064E+02  0.19296464686E+02  0.43088429881E+02  0.00000000000E+00 0.  1.
         11    1    4    4    0    0 -0.57635265846E+02 -0.33912915344E+01  0.43418467819E+02  0.72239103505E+02  0.00000000000E+00 0. -1.
        -13    1    3    3    0    0  0.80235069597E+02  0.14106527805E+02  0.25618017313E+02  0.85398731437E+02  0.00000000000E+00 0.  1.
         13    1    3    3    0    0 -0.18192701171E+02 -0.21314670762E+02  0.18460107472E+02  0.33556893978E+02  0.00000000000E+00 0. -1.
         21    1    1    2  502  501 -0.35069167627E+02 -0.12726452572E+02  0.79286368655E+01  0.38140167745E+02  0.00000000000E+00 0. -1.
<scales pt_clust_5="13000.00000" pt_clust_6="13000.00000" pt_clust_7="13000.00000" pt_clust_8="13000.00000" pt_clust_9="37.30696"></scales>
<clustering>
<clus scale="   37.307">  2  9  1 -1</clus>
<clus scale="   90.787">  5  6 -1 -1</clus>
<clus scale="   91.139">  7  8 -1 -1</clus>
<clus scale="  100.874">  1  5  2 -1</clus>
<clus scale="  100.874">  1  5  2 -1</clus>
</clustering>
</event>
<event>
 9    1  0.1434065E-005  0.1229614E+03  0.7546771E-02  0.1240784E+00
         -1   -1    0    0    0  501 -0.00000000000E+00  0.00000000000E+00  0.13350499114E+03  0.13350499114E+03  0.00000000000E+00 0.  1.
          1   -1    0    0  502    0  0.00000000000E+00 -0.00000000000E+00 -0.47705168494E+03  0.47705168494E+03  0.00000000000E+00 0. -1.
         23    2    1    2    0    0  0.99774648557E+02 -0.56848747682E+01 -0.13889857708E+03  0.19374016754E+03  0.90857798271E+02 0.  0.
         23    2    1    2    0    0 -0.76463079972E+02 -0.57521360098E+01 -0.29871564140E+03  0.31923098891E+03  0.82448166731E+02 0.  0.
        -11    1    3    3    0    0  0.92787303377E+02 -0.31696765473E+02 -0.13450448624E+03  0.16645006887E+03  0.00000000000E+00 0.  1.
         11    1    3    3    0    0  0.69873451799E+01  0.26011890705E+02 -0.43940908394E+01  0.27290098663E+02  0.00000000000E+00 0. -1.
        -11    1    4    4    0    0 -0.54080753597E+02  0.29756389618E+02 -0.11227987723E+03  0.12812861298E+03  0.00000000000E+00 0. -1.
         11    1    4    4    0    0 -0.22382326375E+02 -0.35508525628E+02 -0.18643576416E+03  0.19110237593E+03  0.00000000000E+00 0.  1.
         21    1    1    2  502  501 -0.23311568585E+02  0.11437010778E+02  0.94067524667E+02  0.97585519635E+02  0.00000000000E+00 0.  1.
<scales pt_clust_5="13000.00000" pt_clust_6="13000.00000" pt_clust_7="13000.00000" pt_clust_8="13000.00000" pt_clust_9="25.96602"></scales>
<clustering>
<clus scale="   25.966">  1  9  2 -1</clus>
<clus scale="   82.448">  7  8 -1 -1</clus>
<clus scale="   90.858">  5  6 -1 -1</clus>
<clus scale="  116.885">  2  7  1 -1</clus>
<clus scale="  116.885">  2  5  1 -1</clus>
</clustering>
</event>
<event>
 9    1  0.1434065E-005  0.1022490E+03  0.7546771E-02  0.1276729E+00
         -2   -1    0    0    0  501 -0.00000000000E+00  0.00000000000E+00  0.16514471224E+02  0.16514471224E+02  0.00000000000E+00 0.  1.
          2   -1    0    0  502    0  0.00000000000E+00 -0.00000000000E+00 -0.91380777602E+03  0.91380777602E+03  0.00000000000E+00 0. -1.
         23    2    1    2    0    0 -0.27479048123E+02  0.34910453664E+02 -0.22973426696E+03  0.25089699255E+03  0.90540762067E+02 0.  0.
         23    2    1    2    0    0  0.47849360483E+02 -0.29922414293E+02 -0.52486586526E+03  0.53519914173E+03  0.88142115974E+02 0.  0.
        -11    1    4    4    0    0  0.73360897592E+02 -0.14672537972E+02 -0.38717617922E+03  0.39433805094E+03  0.00000000000E+00 0. -1.
         11    1    4    4    0    0 -0.25511537109E+02 -0.15249876321E+02 -0.13768968605E+03  0.14086109079E+03  0.00000000000E+00 0.  1.
        -13    1    3    3    0    0 -0.50295715617E+02  0.31805506253E+02 -0.21608343224E+03  0.22412786290E+03  0.00000000000E+00 0.  1.
         13    1    3    3    0    0  0.22816667493E+02  0.31049474111E+01 -0.13650834714E+02  0.26769129652E+02  0.00000000000E+00 0. -1.
         21    1    1    2  502  501 -0.20370312359E+02 -0.49880393705E+01 -0.14269317257E+03  0.14422611296E+03  0.00000000000E+00 0. -1.
<scales pt_clust_5="13000.00000" pt_clust_6="13000.00000" pt_clust_7="13000.00000" pt_clust_8="13000.00000" pt_clust_9="20.97213"></scales>
<clustering>
<clus scale="   20.972">  2  9  1 -1</clus>
<clus scale="   88.142">  5  6 -1 -1</clus>
<clus scale="   90.541">  7  8 -1 -1</clus>
<clus scale="  100.131">  2  5  1 -1</clus>
<clus scale="   20.972">  2  5  1 -1</clus>
</clustering>
</event>
<event>
 9    1  0.1434065E-005  0.1384600E+03  0.7546771E-02  0.1234818E+00
          1   -1    0    0  502    0  0.00000000000E+00  0.00000000000E+00  0.14637241999E+03  0.14637241999E+03  0.00000000000E+00 0. -1.
         -1   -1    0    0    0  501 -0.00000000000E+00 -0.00000000000E+00 -0.31957851413E+03  0.31957851413E+03  0.00000000000E+00 0.  1.
         23    2    1    2    0    0  0.27981700911E+01 -0.16226694202E+02 -0.18583208347E+03  0.20755823076E+03  0.90970987387E+02 0.  0.
         23    2    1    2    0    0  0.10351601913E+03  0.14795337340E+01  0.47546140101E+02  0.14552285576E+03  0.90545628682E+02 0.  0.
        -11    1    4    4    0    0  0.41274988365E+02 -0.38200631154E+02  0.44379722463E+02  0.71641277564E+02  0.00000000000E+00 0.  1.
         11    1    4    4    0    0  0.62241030761E+02  0.39680164888E+02  0.31664176383E+01  0.73881578193E+02  0.00000000000E+00 0. -1.
        -11    1    3    3    0    0 -0.25058053603E+02 -0.27577209907E+02 -0.27285410929E+02  0.46183354211E+02  0.00000000000E+00 0.  1.
         11    1    3    3    0    0  0.27856223694E+02  0.11350515705E+02 -0.15854667254E+03  0.16137487654E+03  0.00000000000E+00 0. -1.
         21    1    1    2  502  501 -0.10631418922E+03  0.14747160468E+02 -0.34920150766E+02  0.11286984761E+03  0.00000000000E+00 0.  1.
<scales pt_clust_5="13000.00000" pt_clust_6="13000.00000" pt_clust_7="13000.00000" pt_clust_8="13000.00000" pt_clust_9="104.75042"></scales>
<clustering>
<clus scale="   90.546">  5  6 -1 -1</clus>
<clus scale="   90.971">  7  8 -1 -1</clus>
<clus scale="   92.449">  2  7  1 -1</clus>
<clus scale="  104.750">  2  9  1 -1</clus>
<clus scale="  138.460">  1  5  2 -1</clus>
</clustering>
</event>
<event>
 9    1  0.1434065E-005  0.1455809E+03  0.7546771E-02  0.1214341E+00
          1   -1    0    0  502    0  0.00000000000E+00  0.00000000000E+00  0.25805472874E+03  0.25805472874E+03  0.00000000000E+00 0. -1.
         -1   -1    0    0    0  501 -0.00000000000E+00 -0.00000000000E+00 -0.11066415729E+03  0.11066415729E+03  0.00000000000E+00 0.  1.
         23    2    1    2    0    0  0.60180175175E+02  0.33094073940E+02 -0.13302296691E+02  0.11420764189E+03  0.90274930937E+02 0.  0.
         23    2    1    2    0    0 -0.86497324613E+02 -0.19488384035E+02  0.16707421463E+03  0.22420565495E+03  0.12038603840E+03 0.  0.
        -11    1    4    4    0    0 -0.11282718529E+03 -0.14794328634E+02  0.98148793253E+02  0.15027318961E+03  0.00000000000E+00 0.  1.
         11    1    4    4    0    0  0.26329860674E+02 -0.46940554014E+01  0.68925421376E+02  0.73932465339E+02  0.00000000000E+00 0. -1.
        -13    1    3    3    0    0  0.81993025453E+02  0.36027719775E+02 -0.22695393946E+01  0.89587965845E+02  0.00000000000E+00 0. -1.
         13    1    3    3    0    0 -0.21812850279E+02 -0.29336458351E+01 -0.11032757296E+02  0.24619676048E+02  0.00000000000E+00 0.  1.
         21    1    1    2  502  501  0.26317149438E+02 -0.13605689905E+02 -0.63813464874E+01  0.30305589177E+02  0.00000000000E+00 0.  1.
<scales pt_clust_5="13000.00000" pt_clust_6="13000.00000" pt_clust_7="13000.00000" pt_clust_8="13000.00000" pt_clust_9="29.62612"></scales>
<clustering>
<clus scale="   29.626">  2  9  1 -1</clus>
<clus scale="   90.275">  7  8 -1 -1</clus>
<clus scale="  120.386">  5  6 -1 -1</clus>
<clus scale="  121.863">  2  7  1 -1</clus>
<clus scale="  145.581">  1  5  2 -1</clus>
</clustering>
</event>
<event>
 9    1  0.1434065E-005  0.1068488E+03  0.7546771E-02  0.1267756E+00
          2   -1    0    0  502    0  0.00000000000E+00  0.00000000000E+00  0.98891515963E+02  0.98891515963E+02  0.00000000000E+00 0. -1.
         -2   -1    0    0    0  501 -0.00000000000E+00 -0.00000000000E+00 -0.22211674386E+03  0.22211674386E+03  0.00000000000E+00 0.  1.
         23    2    1    2    0    0  0.43283466922E+02 -0.17729300867E+02 -0.96967091922E+02  0.14170508615E+03  0.92140804789E+02 0.  0.
         23    2    1    2    0    0 -0.57256878608E+02  0.40612826328E+00  0.36989488987E+02  0.11225385894E+03  0.89186273959E+02 0.  0.
        -11    1    4    4    0    0 -0.15014638999E+02 -0.35683130346E+02 -0.94408946689E+01  0.39847906692E+02  0.00000000000E+00 0.  1.
         11    1    4    4    0    0 -0.42242239609E+02  0.36089258610E+02  0.46430383656E+02  0.72405952245E+02  0.00000000000E+00 0. -1.
        -13    1    3    3    0    0  0.70138494166E+02 -0.23859241934E+01 -0.52975573198E+02  0.87929018838E+02  0.00000000000E+00 0.  1.
         13    1    3    3    0    0 -0.26855027244E+02 -0.15343376673E+02 -0.43991518723E+02  0.53776067312E+02  0.00000000000E+00 0. -1.
         21    1    1    2  502  501  0.13973411686E+02  0.17323172604E+02 -0.63247624964E+02  0.67049314737E+02  0.00000000000E+00 0. -1.
<scales pt_clust_5="13000.00000" pt_clust_6="13000.00000" pt_clust_7="13000.00000" pt_clust_8="13000.00000" pt_clust_9="22.25643"></scales>
<clustering>
<clus scale="   22.256">  2  9  1 -1</clus>
<clus scale="   89.186">  5  6 -1 -1</clus>
<clus scale="   92.141">  7  8 -1 -1</clus>
<clus scale="  104.312">  1  5  2 -1</clus>
<clus scale="  104.312">  1  5  2 -1</clus>
</clustering>
</event>
<event>
 9    1  0.1434065E-005  0.2873783E+03  0.7546771E-02  0.1126304E+00
         -2   -1    0    0    0  501 -0.00000000000E+00  0.00000000000E+00  0.22091082030E+03  0.22091082030E+03  0.00000000000E+00 0.  1.
          2   -1    0    0  502    0  0.00000000000E+00 -0.00000000000E+00 -0.63208608961E+03  0.63208608961E+03  0.00000000000E+00 0. -1.
         23    2    1    2    0    0 -0.11953202076E+02  0.73171673678E+02 -0.31082972346E+02  0.12288824864E+03  0.92942980447E+02 0.  0.
         23    2    1    2    0    0  0.26040509540E+03 -0.10810286659E+03 -0.37545754117E+03  0.47917039696E+03  0.95597388153E+02 0.  0.
        -11    1    4    4    0    0  0.13841516854E+03 -0.66999399200E+01 -0.18907183754E+03  0.23441801942E+03  0.00000000000E+00 0.  1.
         11    1    4    4    0    0  0.12198992686E+03 -0.10140292667E+03 -0.18638570363E+03  0.24475237754E+03  0.00000000000E+00 0. -1.
        -11    1    3    3    0    0  0.20052388580E+02  0.80227935358E+02 -0.85962601286E+01  0.83141539484E+02  0.00000000000E+00 0. -1.
         11    1    3    3    0    0 -0.32005590656E+02 -0.70562616801E+01 -0.22486712217E+02  0.39746709153E+02  0.00000000000E+00 0.  1.
         21    1    1    2  502  501 -0.24845189333E+03  0.34931192914E+02 -0.46347557912E+01  0.25093826432E+03  0.00000000000E+00 0.  1.
<scales pt_clust_5="13000.00000" pt_clust_6="13000.00000" pt_clust_7="13000.00000" pt_clust_8="13000.00000" pt_clust_9="271.01182"></scales>
<clustering>
<clus scale="   92.943">  7  8 -1 -1</clus>
<clus scale="   95.597">  5  6 -1 -1</clus>
<clus scale="  118.892">  1  7  2 -1</clus>
<clus scale="  271.012">  1  9  2 -1</clus>
<clus scale="  287.378">  2  5  1 -1</clus>
</clustering>
</event>
<event>
 9    1  0.1434065E-005  0.1016806E+03  0.7546771E-02  0.1278344E+00
         -3   -1    0    0    0  501 -0.00000000000E+00  0.00000000000E+00  0.37614524437E+02  0.37614524437E+02  0.00000000000E+00 0.  1.
          3   -1    0    0  502    0  0.00000000000E+00 -0.00000000000E+00 -0.48734767955E+03  0.48734767955E+03  0.00000000000E+00 0. -1.
         23    2    1    2    0    0 -0.55782273073E+02  0.21686497790E+02 -0.20798014495E+03  0.23556193164E+03  0.93014605121E+02 0.  0.
         23    2    1    2    0    0  0.29902349061E+02  0.21147138779E+00 -0.23696920899E+03  0.25516321239E+03  0.89775630052E+02 0.  0.
        -11    1    4    4    0    0  0.21238060992E+02  0.41126918524E+02 -0.17015941342E+03  0.17634257749E+03  0.00000000000E+00 0. -1.
         11    1    4    4    0    0  0.86642880692E+01 -0.40915447137E+02 -0.66809795572E+02  0.78820634903E+02  0.00000000000E+00 0.  1.
        -13    1    3    3    0    0  0.15442743282E+02 -0.19627708437E+02 -0.27276943468E+02  0.36983197584E+02  0.00000000000E+00 0.  1.
         13    1    3    3    0    0 -0.71225016355E+02  0.41314206227E+02 -0.18070320148E+03  0.19857873405E+03  0.00000000000E+00 0. -1.
         21    1    1    2  502  501  0.25879924012E+02 -0.21897969177E+02 -0.47838011736E+01  0.34237059959E+02  0.00000000000E+00 0. -1.
<scales pt_clust_5="13000.00000" pt_clust_6="13000.00000" pt_clust_7="13000.00000" pt_clust_8="13000.00000" pt_clust_9="33.90120"></scales>
<clustering>
<clus scale="   33.901">  1  9  2 -1</clus>
<clus scale="   89.776">  5  6 -1 -1</clus>
<clus scale="   93.015">  7  8 -1 -1</clus>
<clus scale="   98.726">  2  5  1 -1</clus>
<clus scale="   98.726">  2  5  1 -1</clus>
</clustering>
</event>
<event>
 9    1  0.1434065E-005  0.1071218E+03  0.7546771E-02  0.1271672E+00
         -4   -1    0    0    0  501 -0.00000000000E+00  0.00000000000E+00  0.65809953526E+03  0.65809953526E+03  0.00000000000E+00 0.  1.
          4   -1    0    0  502    0  0.00000000000E+00 -0.00000000000E+00 -0.59203313278E+02  0.59203313278E+02  0.00000000000E+00 0. -1.
         23    2    1    2    0    0 -0.91982075765E+01 -0.11553162724E+02  0.39879500828E+03  0.40937450191E+03  0.91279469736E+02 0.  0.
         23    2    1    2    0    0 -0.61161666257E+01 -0.35227005945E+02  0.76113916208E+01  0.10924456308E+03  0.10294703414E+03 0.  0.
        -11    1    3    3    0    0 -0.47642053756E+02  0.95661269430E+01  0.21267417198E+03  0.21815494378E+03  0.00000000000E+00 0.  1.
         11    1    3    3    0    0  0.38443846179E+02 -0.21119289667E+02  0.18612083630E+03  0.19121955813E+03  0.00000000000E+00 0. -1.
        -13    1    4    4    0    0 -0.10378773360E+02 -0.64984815668E+02  0.29440317183E+02  0.72093532856E+02  0.00000000000E+00 0. -1.
         13    1    4    4    0    0  0.42626067341E+01  0.29757809724E+02 -0.21828925562E+02  0.37151030227E+02  0.00000000000E+00 0.  1.
         21    1    1    2  502  501  0.15314374202E+02  0.46780168669E+02  0.19248982208E+03  0.19868378354E+03  0.00000000000E+00 0.  1.
<scales pt_clust_5="13000.00000" pt_clust_6="13000.00000" pt_clust_7="13000.00000" pt_clust_8="13000.00000" pt_clust_9="49.22311"></scales>
<clustering>
<clus scale="   49.223">  1  9  2 -1</clus>
<clus scale="   91.279">  5  6 -1 -1</clus>
<clus scale="   95.963">  1  5  2 -1</clus>
<clus scale="  102.947">  7  8 -1 -1</clus>
<clus scale="  107.122">  2  5  1 -1</clus>
</clustering>
</event>
<event>
 9    1  0.1434065E-005  0.9621839E+02  0.7546771E-02  0.1290154E+00
          2   -1    0    0  502    0  0.00000000000E+00  0.00000000000E+00  0.14174080223E+03  0.14174080223E+03  0.00000000000E+00 0. -1.
         -2   -1    0    0    0  501 -0.00000000000E+00 -0.00000000000E+00 -0.86836742069E+02  0.86836742069E+02  0.00000000000E+00 0.  1.
         23    2    1    2    0    0  0.24271523445E+02 -0.15783427116E+02  0.20204505695E+02  0.97723300715E+02  0.91122982998E+02 0.  0.
         23    2    1    2    0    0 -0.28266899129E+01  0.15020554521E+02  0.46718158855E+02  0.10625933128E+03  0.94206432284E+02 0.  0.
        -13    1    3    3    0    0 -0.29640586334E+02 -0.82990886448E+01  0.29350534926E+02  0.42531084291E+02  0.00000000000E+00 0.  1.
         13    1    3    3    0    0  0.53912109779E+02 -0.74843384709E+01 -0.91460292308E+01  0.55192216424E+02  0.00000000000E+00 0. -1.
        -13    1    4    4    0    0 -0.20513416686E+02 -0.24344316819E+02 -0.11449331481E+02  0.33830950576E+02  0.00000000000E+00 0.  1.
         13    1    4    4    0    0  0.17686726773E+02  0.39364871340E+02  0.58167490336E+02  0.72428380705E+02  0.00000000000E+00 0. -1.
         21    1    1    2  502  501 -0.21444833532E+02  0.76287259508E+00 -0.12018604388E+02  0.24594912304E+02  0.00000000000E+00 0.  1.
<scales pt_clust_5="13000.00000" pt_clust_6="13000.00000" pt_clust_7="13000.00000" pt_clust_8="13000.00000" pt_clust_9="21.45840"></scales>
<clustering>
<clus scale="   21.458">  2  9  1 -1</clus>
<clus scale="   91.123">  5  6 -1 -1</clus>
<clus scale="   93.202">  2  5  1 -1</clus>
<clus scale="   94.206">  7  8 -1 -1</clus>
<clus scale="   96.218">  1  5  2 -1</clus>
</clustering>
</event>
<event>
 9    1  0.1434065E-005  0.1232321E+03  0.7546771E-02  0.1238520E+00
          1   -1    0    0  502    0  0.00000000000E+00  0.00000000000E+00  0.78715542509E+02  0.78715542509E+02  0.00000000000E+00 0. -1.
         -1   -1    0    0    0  501 -0.00000000000E+00 -0.00000000000E+00 -0.53640540245E+03  0.53640540245E+03  0.00000000000E+00 0.  1.
         23    2    1    2    0    0  0.56410830160E+02  0.83992377418E+02 -0.30378485339E+03  0.33289182927E+03  0.91075966221E+02 0.  0.
         23    2    1    2    0    0 -0.20152695063E+02 -0.74848362252E+02  0.26190047756E+01  0.12130046225E+03  0.93265934333E+02 0.  0.
        -11    1    3    3    0    0  0.92939394186E+01  0.28081838140E+02 -0.11725112180E+02  0.31818944025E+02  0.00000000000E+00 0. -1.
         11    1    3    3    0    0  0.47116890741E+02  0.55910539278E+02 -0.29205974121E+03  0.30107288525E+03  0.00000000000E+00 0.  1.
        -13    1    4    4    0    0 -0.29882963980E+02 -0.94619228078E+02  0.15219529385E+01  0.99237624916E+02  0.00000000000E+00 0. -1.
         13    1    4    4    0    0  0.97302689163E+01  0.19770865826E+02  0.10970518371E+01  0.22062837338E+02  0.00000000000E+00 0.  1.
         21    1    1    2  502  501 -0.36258135097E+02 -0.91440151661E+01 -0.15652401132E+03  0.16092865343E+03  0.00000000000E+00 0.  1.
<scales pt_clust_5="13000.00000" pt_clust_6="13000.00000" pt_clust_7="13000.00000" pt_clust_8="13000.00000" pt_clust_9="37.39339"></scales>
<clustering>
<clus scale="   37.393">  2  9  1 -1</clus>
<clus scale="   91.076">  5  6 -1 -1</clus>
<clus scale="   93.266">  7  8 -1 -1</clus>
<clus scale="  121.583">  2  5  1 -1</clus>
<clus scale="  123.232">  1  5  2 -1</clus>
</clustering>
</event>
<event>
 9    1  0.1434065E-005  0.9257473E+02  0.7546771E-02  0.1298221E+00
         -1   -1    0    0    0  501 -0.00000000000E+00  0.00000000000E+00  0.64803237424E+02  0.64803237424E+02  0.00000000000E+00 0.  1.
          1   -1    0    0  502    0  0.00000000000E+00 -0.00000000000E+00 -0.28103073960E+03  0.28103073960E+03  0.00000000000E+00 0. -1.
         23    2    1    2    0    0 -0.19426044417E+02  0.55326722602E+02 -0.53254580968E+02  0.12002817127E+03  0.90179233026E+02 0.  0.
         23    2    1    2    0    0  0.62837288876E+01 -0.51075215036E+01 -0.14732013193E+03  0.17158681988E+03  0.87597051668E+02 0.  0.
        -11    1    3    3    0    0  0.17603534854E+02  0.50789496476E+02  0.14973115606E+01  0.53774523090E+02  0.00000000000E+00 0.  1.
         11    1    3    3    0    0 -0.37029579271E+02  0.45372261262E+01 -0.54751892529E+02  0.66253648182E+02  0.00000000000E+00 0. -1.
        -11    1    4    4    0    0 -0.31964797652E+02  0.23676274798E+02 -0.74225002384E+02  0.84212025604E+02  0.00000000000E+00 0.  1.
         11    1    4    4    0    0  0.38248526540E+02 -0.28783796302E+02 -0.73095129546E+02  0.87374794280E+02  0.00000000000E+00 0. -1.
         21    1    1    2  502  501  0.13142315530E+02 -0.50219201099E+02 -0.15652789277E+02  0.54218985869E+02  0.00000000000E+00 0. -1.
<scales pt_clust_5="13000.00000" pt_clust_6="13000.00000" pt_clust_7="13000.00000" pt_clust_8="13000.00000" pt_clust_9="51.91039"></scales>
<clustering>
<clus scale="   51.910">  1  9  2 -1</clus>
<clus scale="   87.597">  7  8 -1 -1</clus>
<clus scale="   90.061">  2  7  1 -1</clus>
<clus scale="   90.179">  5  6 -1 -1</clus>
<clus scale="   90.061">  2  5  1 -1</clus>
</clustering>
</event>
<event>
 9    1  0.1434065E-005  0.9730596E+02  0.7546771E-02  0.1286475E+00
         -4   -1    0    0    0  501 -0.00000000000E+00  0.00000000000E+00  0.17091845078E+03  0.17091845078E+03  0.00000000000E+00 0.  1.
          4   -1    0    0  502    0  0.00000000000E+00 -0.00000000000E+00 -0.71101787489E+02  0.71101787489E+02  0.00000000000E+00 0. -1.
         23    2    1    2    0    0 -0.31217540183E+02 -0.74503412060E+01  0.64364656268E+02  0.11572611684E+03  0.90662466012E+02 0.  0.
         23    2    1    2    0    0  0.35909842457E+02 -0.13198730086E+02  0.34932938237E+02  0.10511225942E+03  0.91457933747E+02 0.  0.
        -11    1    3    3    0    0 -0.60113043167E+02 -0.19582656396E+02  0.32712706143E+02  0.71184124168E+02  0.00000000000E+00 0. -1.
         11    1    3    3    0    0  0.28895502984E+02  0.12132315190E+02  0.31651950126E+02  0.44541992673E+02  0.00000000000E+00 0.  1.
        -11    1    4    4    0    0  0.30409593803E+02  0.37068248979E+02  0.11118063491E+02  0.49217982622E+02  0.00000000000E+00 0.  1.
         11    1    4    4    0    0  0.55002486544E+01 -0.50266979065E+02  0.23814874746E+02  0.55894276797E+02  0.00000000000E+00 0. -1.
         21    1    1    2  502  501 -0.46923022738E+01  0.20649071292E+02  0.51906878836E+00  0.21181862011E+02  0.00000000000E+00 0. -1.
<scales pt_clust_5="13000.00000" pt_clust_6="13000.00000" pt_clust_7="13000.00000" pt_clust_8="13000.00000" pt_clust_9="21.17550"></scales>
<clustering>
<clus scale="   21.176">  2  9  1 -1</clus>
<clus scale="   90.662">  5  6 -1 -1</clus>
<clus scale="   91.458">  7  8 -1 -1</clus>
<clus scale="   96.559">  1  5  2 -1</clus>
<clus scale="   21.176">  2  5  1 -1</clus>
</clustering>
</event>
<event>
 9    1  0.1434065E-005  0.1003844E+03  0.7546771E-02  0.1279630E+00
          1   -1    0    0  502    0  0.00000000000E+00  0.00000000000E+00  0.38381331935E+02  0.38381331935E+02  0.00000000000E+00 0. -1.
         -1   -1    0    0    0  501 -0.00000000000E+00 -0.00000000000E+00 -0.76347347175E+03  0.76347347175E+03  0.00000000000E+00 0.  1.
         23    2    1    2    0    0  0.76783838135E+01 -0.10239552734E+02 -0.30429008823E+03  0.31803684585E+03  0.91603337851E+02 0.  0.
         23    2    1    2    0    0  0.16251080144E+02  0.48151468754E+02 -0.60525259328E+02  0.12076245290E+03  0.91310467450E+02 0.  0.
        -13    1    4    4    0    0 -0.24464884624E+02  0.42153376844E+02 -0.14438872549E+01  0.48759845872E+02  0.00000000000E+00 0. -1.
         13    1    4    4    0    0  0.40715964768E+02  0.59980919096E+01 -0.59081372073E+02  0.72002607033E+02  0.00000000000E+00 0.  1.
        -13    1    3    3    0    0 -0.27806161178E+02 -0.37802004234E+02 -0.13681896871E+03  0.14464302376E+03  0.00000000000E+00 0.  1.
         13    1    3    3    0    0  0.35484544991E+02  0.27562451500E+02 -0.16747111953E+03  0.17339382210E+03  0.00000000000E+00 0. -1.
         21    1    1    2  502  501 -0.23929463957E+02 -0.37911916020E+02 -0.36027679225E+03  0.36305550492E+03  0.00000000000E+00 0. -1.
<scales pt_clust_5="13000.00000" pt_clust_6="13000.00000" pt_clust_7="13000.00000" pt_clust_8="13000.00000" pt_clust_9="44.83227"></scales>
<clustering>
<clus scale="   44.832">  2  9  1 -1</clus>
<clus scale="   91.310">  5  6 -1 -1</clus>
<clus scale="   91.603">  7  8 -1 -1</clus>
<clus scale="  100.117">  1  5  2 -1</clus>
<clus scale="  100.117">  1  5  2 -1</clus>
</clustering>
</event>
<event>
 9    1  0.1434065E-005  0.2398063E+03  0.7546771E-02  0.1120103E+00
         -2   -1    0    0    0  501 -0.00000000000E+00  0.00000000000E+00  0.22434666268E+03  0.22434666268E+03  0.00000000000E+00 0.  1.
          2   -1    0    0  502    0  0.00000000000E+00 -0.00000000000E+00 -0.79962570657E+03  0.79962570657E+03  0.00000000000E+00 0. -1.
         23    2    1    2    0    0 -0.74885683831E+01  0.25570011118E+03  0.77642035480E+02  0.28239421602E+03  0.90992208734E+02 0.  0.
         23    2    1    2    0    0  0.18674024518E+02 -0.21593144697E+03 -0.65879916820E+03  0.69985030868E+03  0.93802993342E+02 0.  0.
        -11    1    3    3    0    0  0.11369405615E+02  0.20979781882E+02  0.36111271505E+02  0.43283236496E+02  0.00000000000E+00 0. -1.
         11    1    3    3    0    0 -0.18857973998E+02  0.23472032930E+03  0.41530763975E+02  0.23911097952E+03  0.00000000000E+00 0.  1.
        -13    1    4    4    0    0 -0.30733860452E+02 -0.11953168181E+03 -0.41732116997E+03  0.43518886939E+03  0.00000000000E+00 0. -1.
         13    1    4    4    0    0  0.49407884970E+02 -0.96399765156E+02 -0.24147799823E+03  0.26466143929E+03  0.00000000000E+00 0.  1.
         21    1    1    2  502  501 -0.11185456134E+02 -0.39768664215E+02  0.58780888242E+01  0.41727844548E+02  0.00000000000E+00 0. -1.
<scales pt_clust_5="13000.00000" pt_clust_6="13000.00000" pt_clust_7="13000.00000" pt_clust_8="13000.00000" pt_clust_9="41.31175"></scales>
<clustering>
<clus scale="   41.312">  1  9  2 -1</clus>
<clus scale="   90.992">  5  6 -1 -1</clus>
<clus scale="   93.803">  7  8 -1 -1</clus>
<clus scale="  238.721">  1  5  2 -1</clus>
<clus scale="  239.806">  2  5  1 -1</clus>
</clustering>
</event>
<event>
 9    1  0.1434065E-005  0.1052295E+03  0.7546771E-02  0.1270544E+00
          3   -1    0    0  502    0  0.00000000000E+00  0.00000000000E+00  0.15609038185E+03  0.15609038185E+03  0.00000000000E+00 0. -1.
         -3   -1    0    0    0  501 -0.00000000000E+00 -0.00000000000E+00 -0.35673736125E+03  0.35673736125E+03  0.00000000000E+00 0.  1.
         23    2    1    2    0    0  0.56032328047E+02 -0.40323090953E+02 -0.22987789215E+03  0.25730186750E+03  0.92708318228E+02 0.  0.
         23    2    1    2    0    0 -0.33369931405E+02  0.35036685491E+02  0.12220065739E+03  0.15968797222E+03  0.90697994209E+02 0.  0.
        -11    1    4    4    0    0 -0.26409757516E+02  0.55465059373E+02  0.12363793315E+03  0.13805863470E+03  0.00000000000E+00 0. -1.
         11    1    4    4    0    0 -0.69601738885E+01 -0.20428373883E+02 -0.14372757524E+01  0.21629337522E+02  0.00000000000E+00 0.  1.
        -13    1    3    3    0    0  0.10161094700E+02 -0.63123525420E+02 -0.11656607927E+03  0.13294915623E+03  0.00000000000E+00 0.  1.
         13    1    3    3    0    0  0.45871233347E+02  0.22800434467E+02 -0.11331181289E+03  0.12435271127E+03  0.00000000000E+00 0. -1.
         21    1    1    2  502  501 -0.22662396642E+02  0.52864054620E+01 -0.92969744644E+02  0.95837903376E+02  0.00000000000E+00 0. -1.
<scales pt_clust_5="13000.00000" pt_clust_6="13000.00000" pt_clust_7="13000.00000" pt_clust_8="13000.00000" pt_clust_9="23.27080"></scales>
<clustering>
<clus scale="   23.271">  2  9  1 -1</clus>
<clus scale="   90.698">  5  6 -1 -1</clus>
<clus scale="   92.708">  7  8 -1 -1</clus>
<clus scale="  103.463">  1  5  2 -1</clus>
<clus scale="  103.463">  1  5  2 -1</clus>
</clustering>
</event>
<event>
 9    1  0.1434065E-005  0.1185167E+03  0.7546771E-02  0.1245711E+00
         -1   -1    0    0    0  501 -0.00000000000E+00  0.00000000000E+00  0.10763985279E+03  0.10763985279E+03  0.00000000000E+00 0.  1.
          1   -1    0    0  502    0  0.00000000000E+00 -0.00000000000E+00 -0.39980840286E+03  0.39980840286E+03  0.00000000000E+00 0. -1.
         23    2    1    2    0    0  0.23024517309E+02  0.51498241501E+02  0.16624323073E+02  0.10991583466E+03  0.92859707711E+02 0.  0.
         23    2    1    2    0    0 -0.51201660239E+02 -0.56497115333E+02 -0.33666894492E+03  0.35758225827E+03  0.93303584647E+02 0.  0.
        -11    1    3    3    0    0  0.23004365532E+02  0.77524912607E+02  0.20941372886E+02  0.83533550186E+02  0.00000000000E+00 0.  1.
         11    1    3    3    0    0  0.20151777028E-01 -0.26026671106E+02 -0.43170498128E+01  0.26382284474E+02  0.00000000000E+00 0. -1.
        -13    1    4    4    0    0 -0.41867871826E+01 -0.66621683286E+02 -0.13973032396E+03  0.15485651844E+03  0.00000000000E+00 0. -1.
         13    1    4    4    0    0 -0.47014873056E+02  0.10124567952E+02 -0.19693862096E+03  0.20272573983E+03  0.00000000000E+00 0.  1.
         21    1    1    2  502  501  0.28177142930E+02  0.49988738321E+01  0.27876071782E+02  0.39950162719E+02  0.00000000000E+00 0.  1.
<scales pt_clust_5="13000.00000" pt_clust_6="13000.00000" pt_clust_7="13000.00000" pt_clust_8="13000.00000" pt_clust_9="28.61713"></scales>
<clustering>
<clus scale="   28.617">  1  9  2 -1</clus>
<clus scale="   92.860">  5  6 -1 -1</clus>
<clus scale="   93.304">  7  8 -1 -1</clus>
<clus scale="  118.168">  1  5  2 -1</clus>
<clus scale="  118.517">  2  5  1 -1</clus>
</clustering>
</event>
<event>
 9    1  0.1434065E-005  0.1755966E+03  0.7546771E-02  0.1172597E+00
          1   -1    0    0  502    0  0.00000000000E+00  0.00000000000E+00  0.85657780879E+03  0.85657780879E+03  0.00000000000E+00 0. -1.
         -1   -1    0    0    0  501 -0.00000000000E+00 -0.00000000000E+00 -0.10875140319E+03  0.10875140319E+03  0.00000000000E+00 0.  1.
         23    2    1    2    0    0  0.89687792148E+02 -0.34397312452E+02  0.14483549783E+03  0.19601211480E+03  0.90644098275E+02 0.  0.
         23    2    1    2    0    0 -0.18915578055E+03  0.10135237150E+01  0.62786373372E+03  0.66148845750E+03  0.87023989454E+02 0.  0.
        -11    1    3    3    0    0  0.78052410858E+02 -0.98244674472E+01  0.14901373853E+03  0.16850457938E+03  0.00000000000E+00 0. -1.
         11    1    3    3    0    0  0.11635381290E+02 -0.24572845005E+02 -0.41782407013E+01  0.27507535418E+02  0.00000000000E+00 0.  1.
        -11    1    4    4    0    0 -0.58522783523E+02 -0.36749737360E+02  0.26872139457E+03  0.27746467755E+03  0.00000000000E+00 0. -1.
         11    1    4    4    0    0 -0.13063299702E+03  0.37763261075E+02  0.35914233915E+03  0.38402377995E+03  0.00000000000E+00 0.  1.
         21    1    1    2  502  501  0.99467988399E+02  0.33383788737E+02 -0.24872825941E+02  0.10782863969E+03  0.00000000000E+00 0.  1.
<scales pt_clust_5="13000.00000" pt_clust_6="13000.00000" pt_clust_7="13000.00000" pt_clust_8="13000.00000" pt_clust_9="104.92072"></scales>
<clustering>
<clus scale="   87.024">  7  8 -1 -1</clus>
<clus scale="   90.644">  5  6 -1 -1</clus>
<clus scale="  104.921">  2  9  1 -1</clus>
<clus scale="  173.756">  1  7  2 -1</clus>
<clus scale="  173.756">  1  5  2 -1</clus>
</clustering>
</event>
<event>
 9    1  0.1434065E-005  0.1087622E+03  0.7546771E-02  0.1263449E+00
          1   -1    0    0  502    0  0.00000000000E+00  0.00000000000E+00  0.44731078885E+03  0.44731078885E+03  0.00000000000E+00 0. -1.
         -1   -1    0    0    0  501 -0.00000000000E+00 -0.00000000000E+00 -0.16509515382E+03  0.16509515382E+03  0.00000000000E+00 0.  1.
         23    2    1    2    0    0 -0.32861110038E+02 -0.72885576993E+02 -0.12454607359E+03  0.17287472521E+03  0.89340843308E+02 0.  0.
         23    2    1    2    0    0  0.32674655701E+02  0.49087863472E+02  0.40056920379E+03  0.41494030349E+03  0.90788308558E+02 0.  0.
        -13    1    3    3    0    0 -0.59713669546E+02 -0.58203077265E+02 -0.64292159685E+02  0.10529388553E+03  0.00000000000E+00 0.  1.
         13    1    3    3    0    0  0.26852559508E+02 -0.14682499728E+02 -0.60253913908E+02  0.67580839678E+02  0.00000000000E+00 0. -1.
        -13    1    4    4    0    0  0.56428496012E+01  0.69624013055E+02  0.20838748710E+03  0.21978327900E+03  0.00000000000E+00 0.  1.
         13    1    4    4    0    0  0.27031806100E+02 -0.20536149583E+02  0.19218171668E+03  0.19515702449E+03  0.00000000000E+00 0. -1.
         21    1    1    2  502  501  0.18645433745E+00  0.23797713521E+02  0.61925048396E+01  0.24590913977E+02  0.00000000000E+00 0.  1.
<scales pt_clust_5="13000.00000" pt_clust_6="13000.00000" pt_clust_7="13000.00000" pt_clust_8="13000.00000" pt_clust_9="23.79844"></scales>
<clustering>
<clus scale="   23.798">  2  9  1 -1</clus>
<clus scale="   89.341">  5  6 -1 -1</clus>
<clus scale="   90.788">  7  8 -1 -1</clus>
<clus scale="  107.557">  2  5  1 -1</clus>
<clus scale="  108.762">  1  5  2 -1</clus>
</clustering>
</event>
<event>
 9    1  0.1434065E-005  0.1054618E+03  0.7546771E-02  0.1269833E+00
          1   -1    0    0  502    0  0.00000000000E+00  0.00000000000E+00  0.80063198922E+03  0.80063198922E+03  0.00000000000E+00 0. -1.
         -1   -1    0    0    0  501 -0.00000000000E+00 -0.00000000000E+00 -0.27707074747E+02  0.27707074747E+02  0.00000000000E+00 0.  1.
         23    2    1    2    0    0  0.28315448985E+02 -0.53880003768E+02  0.20800428334E+03  0.23473222223E+03  0.90158830987E+02 0.  0.
         23    2    1    2    0    0  0.32581478448E+02  0.49100585426E+02  0.45496936709E+03  0.46782703782E+03  0.91611091565E+02 0.  0.
        -13    1    3    3    0    0 -0.29671836681E+02 -0.24176325104E+02  0.11481264246E+03  0.12102419368E+03  0.00000000000E+00 0. -1.
         13    1    3    3    0    0  0.57987285666E+02 -0.29703678664E+02  0.93191640885E+02  0.11370802855E+03  0.00000000000E+00 0.  1.
        -13    1    4    4    0    0  0.64588937586E+02  0.38365868485E+02  0.31989303813E+03  0.32859584076E+03  0.00000000000E+00 0.  1.
         13    1    4    4    0    0 -0.32007459138E+02  0.10734716941E+02  0.13507632896E+03  0.13923119705E+03  0.00000000000E+00 0. -1.
         21    1    1    2  502  501 -0.60896927433E+02  0.47794183422E+01  0.10995126404E+03  0.12577980393E+03  0.00000000000E+00 0. -1.
<scales pt_clust_5="13000.00000" pt_clust_6="13000.00000" pt_clust_7="13000.00000" pt_clust_8="13000.00000" pt_clust_9="61.08419"></scales>
<clustering>
<clus scale="   61.084">  2  9  1 -1</clus>
<clus scale="   90.159">  5  6 -1 -1</clus>
<clus scale="   91.611">  7  8 -1 -1</clus>
<clus scale="  104.203">  2  5  1 -1</clus>
<clus scale="  105.462">  1  5  2 -1</clus>
</clustering>
</event>
<event>
 9    1  0.1434065E-005  0.1612721E+03  0.7546771E-02  0.1211030E+00
          1   -1    0    0  502    0  0.00000000000E+00  0.00000000000E+00  0.65027911124E+03  0.65027911124E+03  0.00000000000E+00 0. -1.
         -1   -1    0    0    0  501 -0.00000000000E+00 -0.00000000000E+00 -0.13701629778E+03  0.13701629778E+03  0.00000000000E+00 0.  1.
         23    2    1    2    0    0  0.66299790653E+02  0.89844372995E+02  0.48535867689E+03  0.50614706923E+03  0.90244871641E+02 0.  0.
         23    2    1    2    0    0  0.29975438809E+02  0.57826359739E+01  0.90180811690E+02  0.13184385589E+03  0.91204483049E+02 0.  0.
        -11    1    4    4    0    0 -0.26516573626E+02  0.15792504226E+00  0.15148857564E+01  0.26560280420E+02  0.00000000000E+00 0.  1.
         11    1    4    4    0    0  0.56492012435E+02  0.56247109316E+01  0.88665925933E+02  0.10528357547E+03  0.00000000000E+00 0. -1.
        -13    1    3    3    0    0 -0.17393596991E+02  0.33468646916E+02  0.80443792238E+02  0.88847573137E+02  0.00000000000E+00 0.  1.
         13    1    3    3    0    0  0.83693387644E+02  0.56375726078E+02  0.40491488465E+03  0.41729949609E+03  0.00000000000E+00 0. -1.
         21    1    1    2  502  501 -0.96275229462E+02 -0.95627008969E+02 -0.62276675117E+02  0.14930448391E+03  0.00000000000E+00 0.  1.
<scales pt_clust_5="13000.00000" pt_clust_6="13000.00000" pt_clust_7="13000.00000" pt_clust_8="13000.00000" pt_clust_9="133.65830"></scales>
<clustering>
<clus scale="   90.245">  7  8 -1 -1</clus>
<clus scale="   91.204">  5  6 -1 -1</clus>
<clus scale="   96.178">  1  5  2 -1</clus>
<clus scale="  133.658">  2  9  1 -1</clus>
<clus scale="   96.178">  1  5  2 -1</clus>
</clustering>
</event>
<event>
 9    1  0.1434065E-005  0.1035068E+03  0.7546771E-02  0.1273401E+00
         -1   -1    0    0    0  501 -0.00000000000E+00  0.00000000000E+00  0.20663261952E+03  0.20663261952E+03  0.00000000000E+00 0.  1.
          1   -1    0    0  502    0  0.00000000000E+00 -0.00000000000E+00 -0.81005073224E+02  0.81005073224E+02  0.00000000000E+00 0. -1.
         23    2    1    2    0    0  0.21605196416E+02 -0.51738424151E+02  0.42685718283E+02  0.11571123976E+03  0.91778926866E+02 0.  0.
         23    2    1    2    0    0 -0.30609024610E+02  0.30601408882E+02  0.17217720950E+02  0.10230245866E+03  0.91082295311E+02 0.  0.
        -11    1    3    3    0    0  0.20631154560E+01  0.26228934740E+02  0.43831976747E+01  0.26672568021E+02  0.00000000000E+00 0.  1.
         11    1    3    3    0    0  0.19542080960E+02 -0.77967358891E+02  0.38302520608E+02  0.89038671742E+02  0.00000000000E+00 0. -1.
        -11    1    4    4    0    0 -0.21661951715E+02  0.61731480105E+02 -0.41610303507E+00  0.65423152858E+02  0.00000000000E+00 0.  1.
         11    1    4    4    0    0 -0.89470728952E+01 -0.31130071224E+02  0.17633823985E+02  0.36879305798E+02  0.00000000000E+00 0. -1.
         21    1    1    2  502  501  0.90038281943E+01  0.21137015269E+02  0.65724107067E+02  0.69623994330E+02  0.00000000000E+00 0.  1.
<scales pt_clust_5="13000.00000" pt_clust_6="13000.00000" pt_clust_7="13000.00000" pt_clust_8="13000.00000" pt_clust_9="22.97482"></scales>
<clustering>
<clus scale="   22.975">  1  9  2 -1</clus>
<clus scale="   91.082">  7  8 -1 -1</clus>
<clus scale="   91.779">  5  6 -1 -1</clus>
<clus scale="  102.890">  2  7  1 -1</clus>
<clus scale="  102.890">  2  5  1 -1</clus>
</clustering>
</event>
<event>
 9    1  0.1434065E-005  0.1758108E+03  0.7546771E-02  0.1201848E+00
         -1   -1    0    0    0  501 -0.00000000000E+00  0.00000000000E+00  0.31611474186E+02  0.31611474186E+02  0.00000000000E+00 0.  1.
          1   -1    0    0  502    0  0.00000000000E+00 -0.00000000000E+00 -0.17321726300E+04  0.17321726300E+04  0.00000000000E+00 0. -1.
         23    2    1    2    0    0  0.30950289173E+01  0.39424764759E+01 -0.23670538040E+03  0.25338859943E+03  0.90284123094E+02 0.  0.
         23    2    1    2    0    0 -0.12643986883E+03  0.71279998798E+02 -0.40451590006E+03  0.44124942409E+03  0.10000031096E+03 0.  0.
        -11    1    3    3    0    0 -0.23546366745E+02  0.38488958299E+02 -0.95988331279E+02  0.10606408930E+03  0.00000000000E+00 0. -1.
         11    1    3    3    0    0  0.26641395662E+02 -0.34546481823E+02 -0.14071704912E+03  0.14732451012E+03  0.00000000000E+00 0.  1.
        -13    1    4    4    0    0 -0.84762735263E+02  0.31873666911E+02 -0.35206825874E+03  0.36352814299E+03  0.00000000000E+00 0. -1.
         13    1    4    4    0    0 -0.41677133569E+02  0.39406331887E+02 -0.52447641326E+02  0.77721281101E+02  0.00000000000E+00 0.  1.
         21    1    1    2  502  501  0.12334483991E+03 -0.75222475274E+02 -0.10593398753E+04  0.10691460806E+04  0.00000000000E+00 0.  1.
<scales pt_clust_5="13000.00000" pt_clust_6="13000.00000" pt_clust_7="13000.00000" pt_clust_8="13000.00000" pt_clust_9="144.60079"></scales>
<clustering>
<clus scale="   90.284">  5  6 -1 -1</clus>
<clus scale="   90.423">  1  5  2 -1</clus>
<clus scale="  100.000">  7  8 -1 -1</clus>
<clus scale="  144.601">  2  9  1 -1</clus>
<clus scale="  144.601">  2  5  1 -1</clus>
</clustering>
</event>
<event>
 9    1  0.1434065E-005  0.1170247E+03  0.7546771E-02  0.1248324E+00
          4   -1    0    0  502    0  0.00000000000E+00  0.00000000000E+00  0.10424788251E+03  0.10424788251E+03  0.00000000000E+00 0. -1.
         -4   -1    0    0    0  501 -0.00000000000E+00 -0.00000000000E+00 -0.17303313990E+03  0.17303313990E+03  0.00000000000E+00 0.  1.
         23    2    1    2    0    0  0.64588154994E+02  0.58781070367E+02 -0.19482914154E+02  0.12630349573E+03  0.89141152624E+02 0.  0.
         23    2    1    2    0    0 -0.39318320645E+02 -0.50676857129E+02 -0.21379371553E+02  0.11245564785E+03  0.89861677147E+02 0.  0.
        -11    1    4    4    0    0 -0.57256935358E+02 -0.29571070393E+02  0.15550743617E+02  0.66292009155E+02  0.00000000000E+00 0. -1.
         11    1    4    4    0    0  0.17938614713E+02 -0.21105786736E+02 -0.36930115170E+02  0.46163638700E+02  0.00000000000E+00 0.  1.
        -13    1    3    3    0    0  0.73879362122E+02  0.10803328500E+02 -0.29850095127E+01  0.74724710344E+02  0.00000000000E+00 0.  1.
         13    1    3    3    0    0 -0.92912071277E+01  0.47977741867E+02 -0.16497904642E+02  0.51578785388E+02  0.00000000000E+00 0. -1.
         21    1    1    2  502  501 -0.25269834349E+02 -0.81042132372E+01 -0.27922971684E+02  0.38521878821E+02  0.00000000000E+00 0.  1.
<scales pt_clust_5="13000.00000" pt_clust_6="13000.00000" pt_clust_7="13000.00000" pt_clust_8="13000.00000" pt_clust_9="26.53757"></scales>
<clustering>
<clus scale="   26.538">  2  9  1 -1</clus>
<clus scale="   89.141">  7  8 -1 -1</clus>
<clus scale="   89.862">  5  6 -1 -1</clus>
<clus scale="  116.472">  2  7  1 -1</clus>
<clus scale="  117.025">  1  5  2 -1</clus>
</clustering>
</event>
<event>
 9    1  0.1434065E-005  0.1199176E+03  0.7546771E-02  0.1244068E+00
         -2   -1    0    0    0  501 -0.00000000000E+00  0.00000000000E+00  0.28767262599E+03  0.28767262599E+03  0.00000000000E+00 0.  1.
          2   -1    0    0  502    0  0.00000000000E+00 -0.00000000000E+00 -0.12540720243E+03  0.12540720243E+03  0.00000000000E+00 0. -1.
         23    2    1    2    0    0 -0.53412725781E+02 -0.35232875521E+02  0.16482670251E+03  0.19798506770E+03  0.89084063550E+02 0.  0.
         23    2    1    2    0    0  0.42362647793E+02  0.68923448337E+02 -0.68536373420E+02  0.14019568189E+03  0.91720003707E+02 0.  0.
        -11    1    4    4    0    0 -0.11259156955E+02  0.43557437491E+02  0.55029841665E+01  0.45324406349E+02  0.00000000000E+00 0.  1.
         11    1    4    4    0    0  0.53621804749E+02  0.25366010845E+02 -0.74039357586E+02  0.94871275540E+02  0.00000000000E+00 0. -1.
        -11    1    3    3    0    0  0.25122378449E+02 -0.11549638170E+02  0.42287871698E+02  0.50525163370E+02  0.00000000000E+00 0. -1.
         11    1    3    3    0    0 -0.78535104230E+02 -0.23683237351E+02  0.12253883081E+03  0.14745990433E+03  0.00000000000E+00 0.  1.
         21    1    1    2  502  501  0.11050077987E+02 -0.33690572816E+02  0.65975094465E+02  0.74899078832E+02  0.00000000000E+00 0. -1.
<scales pt_clust_5="13000.00000" pt_clust_6="13000.00000" pt_clust_7="13000.00000" pt_clust_8="13000.00000" pt_clust_9="35.45644"></scales>
<clustering>
<clus scale="   35.456">  1  9  2 -1</clus>
<clus scale="   89.084">  7  8 -1 -1</clus>
<clus scale="   91.720">  5  6 -1 -1</clus>
<clus scale="  117.914">  1  7  2 -1</clus>
<clus scale="  119.918">  2  5  1 -1</clus>
</clustering>
</event>
<event>
 9    1  0.1434065E-005  0.1099086E+03  0.7546771E-02  0.1261108E+00
          1   -1    0    0  502    0  0.00000000000E+00  0.00000000000E+00  0.21000942156E+03  0.21000942156E+03  0.00000000000E+00 0. -1.
         -1   -1    0    0    0  501 -0.00000000000E+00 -0.00000000000E+00 -0.81758497519E+02  0.81758497519E+02  0.00000000000E+00 0.  1.
         23    2    1    2    0    0 -0.50269312681E+02  0.32528219903E-01  0.10192679284E-01  0.10390539600E+03  0.90935836489E+02 0.  0.
         23    2    1    2    0    0  0.65036003650E+02  0.16809454586E+02  0.11905649706E+03  0.16365389431E+03  0.89977264344E+02 0.  0.
        -11    1    4    4    0    0  0.13756758237E+02  0.32060335887E+02  0.19920196106E+01  0.34943979117E+02  0.00000000000E+00 0.  1.
         11    1    4    4    0    0  0.51279245413E+02 -0.15250881302E+02  0.11706447745E+03  0.12870991520E+03  0.00000000000E+00 0. -1.
        -11    1    3    3    0    0 -0.33633206422E+02 -0.38836563159E+02 -0.22408098867E+02  0.56049925130E+02  0.00000000000E+00 0. -1.
         11    1    3    3    0    0 -0.16636106259E+02  0.38869091379E+02  0.22418291546E+02  0.47855470868E+02  0.00000000000E+00 0.  1.
         21    1    1    2  502  501 -0.14766690968E+02 -0.16841982805E+02  0.91842343057E+01  0.24208628767E+02  0.00000000000E+00 0.  1.
<scales pt_clust_5="13000.00000" pt_clust_6="13000.00000" pt_clust_7="13000.00000" pt_clust_8="13000.00000" pt_clust_9="22.39883"></scales>
<clustering>
<clus scale="   22.399">  2  9  1 -1</clus>
<clus scale="   89.977">  5  6 -1 -1</clus>
<clus scale="   90.936">  7  8 -1 -1</clus>
<clus scale="  109.117">  1  5  2 -1</clus>
<clus scale="  109.117">  1  5  2 -1</clus>
</clustering>
</event>
<event>
 9    1  0.1434065E-005  0.9525838E+02  0.7546771E-02  0.1290661E+00
         -1   -1    0    0    0  501 -0.00000000000E+00  0.00000000000E+00  0.43809513961E+03  0.43809513961E+03  0.00000000000E+00 0.  1.
          1   -1    0    0  502    0  0.00000000000E+00 -0.00000000000E+00 -0.59588188852E+02  0.59588188852E+02  0.00000000000E+00 0. -1.
         23    2    1    2    0    0 -0.28939131810E+02  0.19444727578E+02  0.32907455400E+03  0.34325392613E+03  0.91201013887E+02 0.  0.
         23    2    1    2    0    0 -0.12253567973E+02  0.73039167219E+01  0.12617177173E+02  0.93047899577E+02  0.91078105648E+02 0.  0.
        -11    1    4    4    0    0 -0.48252184015E+02 -0.12329874799E+02 -0.10849348625E+01  0.49814417175E+02  0.00000000000E+00 0.  1.
         11    1    4    4    0    0  0.35998616042E+02  0.19633791521E+02  0.13702112035E+02  0.43233482403E+02  0.00000000000E+00 0. -1.
        -13    1    3    3    0    0 -0.62271662240E+02  0.10827795628E+02  0.21446752347E+03  0.22358738717E+03  0.00000000000E+00 0.  1.
         13    1    3    3    0    0  0.33332530430E+02  0.86169319495E+01  0.11460703053E+03  0.11966653896E+03  0.00000000000E+00 0. -1.
         21    1    1    2  502  501  0.41192699783E+02 -0.26748644300E+02  0.36815219589E+02  0.61381502756E+02  0.00000000000E+00 0.  1.
<scales pt_clust_5="13000.00000" pt_clust_6="13000.00000" pt_clust_7="13000.00000" pt_clust_8="13000.00000" pt_clust_9="49.11546"></scales>
<clustering>
<clus scale="   49.115">  2  9  1 -1</clus>
<clus scale="   91.078">  5  6 -1 -1</clus>
<clus scale="   91.201">  7  8 -1 -1</clus>
<clus scale="   95.141">  2  5  1 -1</clus>
<clus scale="   49.115">  2  5  1 -1</clus>
</clustering>
</event>
<event>
 9    1  0.1434065E-005  0.1288626E+03  0.7546771E-02  0.1229384E+00
         -1   -1    0    0    0  501 -0.00000000000E+00  0.00000000000E+00  0.55403714410E+02  0.55403714410E+02  0.00000000000E+00 0.  1.
          1   -1    0    0  502    0  0.00000000000E+00 -0.00000000000E+00 -0.48780607929E+03  0.48780607929E+03  0.00000000000E+00 0. -1.
         23    2    1    2    0    0 -0.40007993032E+02 -0.99471916799E+02 -0.13036070449E+03  0.19242775760E+03  0.92407937336E+02 0.  0.
         23    2    1    2    0    0  0.56602195717E+02  0.62305560035E+02 -0.27527946401E+03  0.30206940126E+03  0.91549705082E+02 0.  0.
        -13    1    4    4    0    0 -0.25996559539E+01 -0.21318790741E+02 -0.57860266515E+02  0.61717578460E+02  0.00000000000E+00 0. -1.
         13    1    4    4    0    0  0.59201851671E+02  0.83624350777E+02 -0.21741919750E+03  0.24035182280E+03  0.00000000000E+00 0.  1.
        -13    1    3    3    0    0  0.30225448102E+02 -0.25917768629E+02 -0.38383258415E+02  0.55304457055E+02  0.00000000000E+00 0.  1.
         13    1    3    3    0    0 -0.70233441133E+02 -0.73554148170E+02 -0.91977446071E+02  0.13712330054E+03  0.00000000000E+00 0. -1.
         21    1    1    2  502  501 -0.16594202685E+02  0.37166356763E+02 -0.26762196384E+02  0.48712634840E+02  0.00000000000E+00 0. -1.
<scales pt_clust_5="13000.00000" pt_clust_6="13000.00000" pt_clust_7="13000.00000" pt_clust_8="13000.00000" pt_clust_9="40.70265"></scales>
<clustering>
<clus scale="   40.703">  1  9  2 -1</clus>
<clus scale="   91.550">  5  6 -1 -1</clus>
<clus scale="   92.408">  7  8 -1 -1</clus>
<clus scale="  128.249">  2  5  1 -1</clus>
<clus scale="  128.249">  2  5  1 -1</clus>
</clustering>
</event>
<event>
 9    1  0.1434065E-005  0.1076405E+03  0.7546771E-02  0.1265474E+00
         -1   -1    0    0    0  501 -0.00000000000E+00  0.00000000000E+00  0.15780231129E+02  0.15780231129E+02  0.00000000000E+00 0.  1.
          1   -1    0    0  502    0  0.00000000000E+00 -0.00000000000E+00 -0.11141435382E+04  0.11141435382E+04  0.00000000000E+00 0. -1.
         23    2    1    2    0    0  0.67133077155E+02 -0.30209710193E+01 -0.43841549959E+03  0.45275875759E+03  0.90919557727E+02 0.  0.
         23    2    1    2    0    0 -0.46377316875E+02  0.18980403752E+02 -0.62371514034E+03  0.63246253701E+03  0.92071565587E+02 0.  0.
        -11    1    3    3    0    0  0.26241849847E+02 -0.46197935695E+02 -0.22736374565E+03  0.23348909350E+03  0.00000000000E+00 0.  1.
         11    1    3    3    0    0  0.40891227309E+02  0.43176964676E+02 -0.21105175394E+03  0.21926966409E+03  0.00000000000E+00 0. -1.
        -13    1    4    4    0    0 -0.73035963392E+02  0.25535310389E+02 -0.45908076460E+03  0.46555499401E+03  0.00000000000E+00 0.  1.
         13    1    4    4    0    0  0.26658646517E+02 -0.65549066367E+01 -0.16463437574E+03  0.16690754300E+03  0.00000000000E+00 0. -1.
         21    1    1    2  502  501 -0.20755760280E+02 -0.15959432733E+02 -0.36232667099E+02  0.44702474687E+02  0.00000000000E+00 0.  1.
<scales pt_clust_5="13000.00000" pt_clust_6="13000.00000" pt_clust_7="13000.00000" pt_clust_8="13000.00000" pt_clust_9="26.18215"></scales>
<clustering>
<clus scale="   26.182">  1  9  2 -1</clus>
<clus scale="   90.920">  5  6 -1 -1</clus>
<clus scale="   92.072">  7  8 -1 -1</clus>
<clus scale="  106.657">  1  5  2 -1</clus>
<clus scale="  107.640">  2  5  1 -1</clus>
</clustering>
</event>
<event>
 9    1  0.1434065E-005  0.1004084E+03  0.7546771E-02  0.1280098E+00
          1   -1    0    0  502    0  0.00000000000E+00  0.00000000000E+00  0.20685704013E+03  0.20685704013E+03  0.00000000000E+00 0. -1.
         -1   -1    0    0    0  501 -0.00000000000E+00 -0.00000000000E+00 -0.17556718351E+03  0.17556718351E+03  0.00000000000E+00 0.  1.
         23    2    1    2    0    0 -0.69101912626E+01 -0.36043680661E+02 -0.12841838631E+03  0.16215113252E+03  0.91950041748E+02 0.  0.
         23    2    1    2    0    0 -0.18745990801E+02  0.32982896723E+02  0.16555257220E+03  0.19378225759E+03  0.93298582772E+02 0.  0.
        -11    1    4    4    0    0 -0.58029966722E+01 -0.29520373706E+02  0.23935295519E+02  0.38445098591E+02  0.00000000000E+00 0.  1.
         11    1    4    4    0    0 -0.12942994129E+02  0.62503270429E+02  0.14161727668E+03  0.15533715900E+03  0.00000000000E+00 0. -1.
        -13    1    3    3    0    0  0.21972762581E+02  0.12714007443E+02 -0.43542837314E+01  0.25756709175E+02  0.00000000000E+00 0. -1.
         13    1    3    3    0    0 -0.28882953844E+02 -0.48757688104E+02 -0.12406410258E+03  0.13639442335E+03  0.00000000000E+00 0.  1.
         21    1    1    2  502  501  0.25656182064E+02  0.30607839378E+01 -0.58443292646E+01  0.26490833527E+02  0.00000000000E+00 0. -1.
<scales pt_clust_5="13000.00000" pt_clust_6="13000.00000" pt_clust_7="13000.00000" pt_clust_8="13000.00000" pt_clust_9="25.83811"></scales>
<clustering>
<clus scale="   25.838">  2  9  1 -1</clus>
<clus scale="   91.950">  7  8 -1 -1</clus>
<clus scale="   93.299">  5  6 -1 -1</clus>
<clus scale="   99.157">  2  7  1 -1</clus>
<clus scale="  100.408">  1  5  2 -1</clus>
</clustering>
</event>
<event>
 9    1  0.1434065E-005  0.4640370E+03  0.7546771E-02  0.1023864E+00
         -1   -1    0    0    0  501 -0.00000000000E+00  0.00000000000E+00  0.46499262463E+03  0.46499262463E+03  0.00000000000E+00 0.  1.
          1   -1    0    0  502    0  0.00000000000E+00 -0.00000000000E+00 -0.17568000088E+04  0.17568000088E+04  0.00000000000E+00 0. -1.
         23    2    1    2    0    0  0.40181192214E+03 -0.23933045469E+03  0.18775641105E+03  0.51443398313E+03  0.10323742439E+03 0.  0.
         23    2    1    2    0    0 -0.35808498752E+03  0.27456591002E+03 -0.15503526653E+04  0.16170002181E+04  0.86516017986E+02 0.  0.
        -13    1    4    4    0    0 -0.11799208855E+03  0.58030341864E+02 -0.35057813411E+03  0.37442580261E+03  0.00000000000E+00 0.  1.
         13    1    4    4    0    0 -0.24009289896E+03  0.21653556816E+03 -0.11997745312E+04  0.12425744155E+04  0.00000000000E+00 0. -1.
        -13    1    3    3    0    0  0.26566834554E+03 -0.18700830401E+03  0.17234697423E+03  0.36777065560E+03  0.00000000000E+00 0.  1.
         13    1    3    3    0    0  0.13614357660E+03 -0.52322150684E+02  0.15409436817E+02  0.14666332754E+03  0.00000000000E+00 0. -1.
         21    1    1    2  502  501 -0.43726934623E+02 -0.35235455329E+02  0.70788870130E+02  0.90358432136E+02  0.00000000000E+00 0. -1.
<scales pt_clust_5="13000.00000" pt_clust_6="13000.00000" pt_clust_7="13000.00000" pt_clust_8="13000.00000" pt_clust_9="56.15676"></scales>
<clustering>
<clus scale="   56.157">  1  9  2 -1</clus>
<clus scale="   86.516">  5  6 -1 -1</clus>
<clus scale="  103.237">  7  8 -1 -1</clus>
<clus scale="  460.605">  2  5  1 -1</clus>
<clus scale="  460.605">  2  5  1 -1</clus>
</clustering>
</event>
<event>
 9    1  0.1434065E-005  0.1203296E+03  0.7546771E-02  0.1243656E+00
          3   -1    0    0  502    0  0.00000000000E+00  0.00000000000E+00  0.27116240540E+03  0.27116240540E+03  0.00000000000E+00 0. -1.
         -3   -1    0    0    0  501 -0.00000000000E+00 -0.00000000000E+00 -0.65137259776E+02  0.65137259776E+02  0.00000000000E+00 0.  1.
         23    2    1    2    0    0  0.36298215305E+02 -0.59259145819E+02  0.75681365544E+02  0.13687703202E+03  0.90434761050E+02 0.  0.
         23    2    1    2    0    0 -0.24114695124E+02  0.80412477153E+02  0.10227683805E+03  0.16222512215E+03  0.93854960716E+02 0.  0.
        -11    1    4    4    0    0  0.29134235765E+02  0.24122098871E+02  0.67321640692E+02  0.77219703788E+02  0.00000000000E+00 0. -1.
         11    1    4    4    0    0 -0.53248930889E+02  0.56290378281E+02  0.34955197357E+02  0.85005418358E+02  0.00000000000E+00 0.  1.
        -13    1    3    3    0    0  0.54918938581E+02 -0.39254263530E+02  0.13343833915E+02  0.68811662701E+02  0.00000000000E+00 0. -1.
         13    1    3    3    0    0 -0.18620723276E+02 -0.20004882290E+02  0.62337531629E+02  0.68065369318E+02  0.00000000000E+00 0.  1.
         21    1    1    2  502  501 -0.12183520181E+02 -0.21153331333E+02  0.28066942028E+02  0.37197511010E+02  0.00000000000E+00 0. -1.
<scales pt_clust_5="13000.00000" pt_clust_6="13000.00000" pt_clust_7="13000.00000" pt_clust_8="13000.00000" pt_clust_9="24.41110"></scales>
<clustering>
<clus scale="   24.411">  1  9  2 -1</clus>
<clus scale="   90.435">  7  8 -1 -1</clus>
<clus scale="   93.855">  5  6 -1 -1</clus>
<clus scale="  117.681">  2  7  1 -1</clus>
<clus scale="   24.411">  1  5  2 -1</clus>
</clustering>
</event>
<event>
 9    1  0.1434065E-005  0.2037967E+03  0.7546771E-02  0.1146699E+00
         -2   -1    0    0    0  501 -0.00000000000E+00  0.00000000000E+00  0.21229319300E+03  0.21229319300E+03  0.00000000000E+00 0.  1.
          2   -1    0    0  502    0  0.00000000000E+00 -0.00000000000E+00 -0.32424364258E+03  0.32424364258E+03  0.00000000000E+00 0. -1.
         23    2    1    2    0    0  0.15634670198E+03 -0.11270335756E+03  0.60087093844E+02  0.22192262119E+03  0.92156675969E+02 0.  0.
         23    2    1    2    0    0 -0.12675462583E+03  0.12636578063E+03 -0.19086779149E+03  0.27697207022E+03  0.90818325083E+02 0.  0.
        -13    1    3    3    0    0  0.14488925181E+03 -0.65112799589E+02  0.67164223609E+02  0.17246334362E+03  0.00000000000E+00 0.  1.
         13    1    3    3    0    0  0.11457450174E+02 -0.47590557972E+02 -0.70771297653E+01  0.49459277575E+02  0.00000000000E+00 0. -1.
        -13    1    4    4    0    0 -0.78062786499E+02  0.28039550898E+02 -0.12166501117E+03  0.14724941424E+03  0.00000000000E+00 0. -1.
         13    1    4    4    0    0 -0.48691839327E+02  0.98326229735E+02 -0.69202780315E+02  0.12972265598E+03  0.00000000000E+00 0.  1.
         21    1    1    2  502  501 -0.29592076154E+02 -0.13662423072E+02  0.18830248059E+02  0.37642144164E+02  0.00000000000E+00 0. -1.
<scales pt_clust_5="13000.00000" pt_clust_6="13000.00000" pt_clust_7="13000.00000" pt_clust_8="13000.00000" pt_clust_9="32.59375"></scales>
<clustering>
<clus scale="   32.594">  1  9  2 -1</clus>
<clus scale="   90.818">  7  8 -1 -1</clus>
<clus scale="   92.157">  5  6 -1 -1</clus>
<clus scale="  203.195">  2  7  1 -1</clus>
<clus scale="  203.195">  2  5  1 -1</clus>
</clustering>
</event>
<event>
 9    1  0.1434065E-005  0.1065022E+03  0.7546771E-02  0.1268619E+00
         -2   -1    0    0    0  501 -0.00000000000E+00  0.00000000000E+00  0.28071283535E+02  0.28071283535E+02  0.00000000000E+00 0.  1.
          2   -1    0    0  502    0  0.00000000000E+00 -0.00000000000E+00 -0.55869396708E+03  0.55869396708E+03  0.00000000000E+00 0. -1.
         23    2    1    2    0    0  0.82630531686E+01 -0.31100811197E+02 -0.17801389340E+03  0.20412996178E+03  0.94575665731E+02 0.  0.
         23    2    1    2    0    0 -0.40777017211E+01  0.60933960497E+02 -0.31961619061E+03  0.33795816283E+03  0.91277792092E+02 0.  0.
        -13    1    4    4    0    0 -0.36080681491E+02  0.10826852309E+02 -0.20908132282E+03  0.21244772501E+03  0.00000000000E+00 0.  1.
         13    1    4    4    0    0  0.32002979770E+02  0.50107108188E+02 -0.11053486779E+03  0.12551043782E+03  0.00000000000E+00 0. -1.
        -13    1    3    3    0    0  0.88593775766E+01 -0.61908113872E+02 -0.14988382884E+03  0.16240771313E+03  0.00000000000E+00 0.  1.
         13    1    3    3    0    0 -0.59632440793E+00  0.30807302674E+02 -0.28130064557E+02  0.41722248655E+02  0.00000000000E+00 0. -1.
         21    1    1    2  502  501 -0.41853514475E+01 -0.29833149300E+02 -0.32992599531E+02  0.44677126001E+02  0.00000000000E+00 0.  1.
<scales pt_clust_5="13000.00000" pt_clust_6="13000.00000" pt_clust_7="13000.00000" pt_clust_8="13000.00000" pt_clust_9="30.12530"></scales>
<clustering>
<clus scale="   30.125">  1  9  2 -1</clus>
<clus scale="   91.278">  5  6 -1 -1</clus>
<clus scale="   94.576">  7  8 -1 -1</clus>
<clus scale="  103.585">  2  5  1 -1</clus>
<clus scale="  103.585">  2  5  1 -1</clus>
</clustering>
</event>
<event>
 9    1  0.1434065E-005  0.1001052E+03  0.7546771E-02  0.1285635E+00
         -1   -1    0    0    0  501 -0.00000000000E+00  0.00000000000E+00  0.61571840601E+02  0.61571840601E+02  0.00000000000E+00 0.  1.
          1   -1    0    0  502    0  0.00000000000E+00 -0.00000000000E+00 -0.36133101834E+03  0.36133101834E+03  0.00000000000E+00 0. -1.
         23    2    1    2    0    0 -0.29131341420E+02  0.32942782042E+02 -0.14613885517E+02  0.10754370138E+03  0.97047514726E+02 0.  0.
         23    2    1    2    0    0  0.17743670010E+02 -0.12565156378E+02 -0.27630166636E+03  0.29039645726E+03  0.86687776406E+02 0.  0.
        -11    1    4    4    0    0 -0.26380034437E+02 -0.27457207136E+02 -0.79330294191E+02  0.87994886312E+02  0.00000000000E+00 0.  1.
         11    1    4    4    0    0  0.44123704448E+02  0.14892050758E+02 -0.19697137217E+03  0.20240157095E+03  0.00000000000E+00 0. -1.
        -13    1    3    3    0    0  0.31143999720E+02  0.18225931101E+02 -0.25980952956E+02  0.44465078427E+02  0.00000000000E+00 0. -1.
         13    1    3    3    0    0 -0.60275341140E+02  0.14716850940E+02  0.11367067439E+02  0.63078622950E+02  0.00000000000E+00 0.  1.
         21    1    1    2  502  501  0.11387671410E+02 -0.20377625664E+02 -0.88436258625E+01  0.24962700299E+02  0.00000000000E+00 0. -1.
<scales pt_clust_5="13000.00000" pt_clust_6="13000.00000" pt_clust_7="13000.00000" pt_clust_8="13000.00000" pt_clust_9="23.34366"></scales>
<clustering>
<clus scale="   23.344">  1  9  2 -1</clus>
<clus scale="   86.688">  5  6 -1 -1</clus>
<clus scale="   90.098">  2  5  1 -1</clus>
<clus scale="   97.048">  7  8 -1 -1</clus>
<clus scale="   90.098">  2  5  1 -1</clus>
</clustering>
</event>
<event>
 9    1  0.1434065E-005  0.2122124E+03  0.7546771E-02  0.1168432E+00
          2   -1    0    0  502    0  0.00000000000E+00  0.00000000000E+00  0.11986706189E+04  0.11986706189E+04  0.00000000000E+00 0. -1.
         -2   -1    0    0    0  501 -0.00000000000E+00 -0.00000000000E+00 -0.61831333128E+02  0.61831333128E+02  0.00000000000E+00 0.  1.
         23    2    1    2    0    0  0.34100878505E+02 -0.67371126722E+02  0.13710119875E+03  0.17469725441E+03  0.77592869330E+02 0.  0.
         23    2    1    2    0    0  0.14739822721E+03 -0.42171627718E+02  0.25826939744E+03  0.31462549791E+03  0.93709330971E+02 0.  0.
        -11    1    4    4    0    0  0.54856609079E+02 -0.50268445396E+02  0.17384556714E+03  0.18909903590E+03  0.00000000000E+00 0.  1.
         11    1    4    4    0    0  0.92541618130E+02  0.80968176784E+01  0.84423830294E+02  0.12552646201E+03  0.00000000000E+00 0. -1.
        -13    1    3    3    0    0  0.23973750826E+02  0.12932748382E+02  0.31479140881E+02  0.41628512104E+02  0.00000000000E+00 0.  1.
         13    1    3    3    0    0  0.10127127679E+02 -0.80303875104E+02  0.10562205787E+03  0.13306874231E+03  0.00000000000E+00 0. -1.
         21    1    1    2  502  501 -0.18149910571E+03  0.10954275444E+03  0.74146868955E+03  0.77117919967E+03  0.00000000000E+00 0. -1.
<scales pt_clust_5="13000.00000" pt_clust_6="13000.00000" pt_clust_7="13000.00000" pt_clust_8="13000.00000" pt_clust_9="190.40128"></scales>
<clustering>
<clus scale="   77.593">  7  8 -1 -1</clus>
<clus scale="   93.709">  5  6 -1 -1</clus>
<clus scale="  108.270">  2  7  1 -1</clus>
<clus scale="  190.401">  1  9  2 -1</clus>
<clus scale="  190.401">  1  5  2 -1</clus>
</clustering>
</event>
<event>
 9    1  0.1434065E-005  0.1269840E+03  0.7546771E-02  0.1241078E+00
         -3   -1    0    0    0  501 -0.00000000000E+00  0.00000000000E+00  0.54693156896E+03  0.54693156896E+03  0.00000000000E+00 0.  1.
          3   -1    0    0  502    0  0.00000000000E+00 -0.00000000000E+00 -0.46884925704E+02  0.46884925704E+02  0.00000000000E+00 0. -1.
         23    2    1    2    0    0 -0.56766467874E+02 -0.51017063554E+01  0.30256055996E+03  0.32107938816E+03  0.91107748179E+02 0.  0.
         23    2    1    2    0    0  0.39797276756E+02 -0.48264828494E+02  0.12566228690E+03  0.18166242167E+03  0.11531222047E+03 0.  0.
        -11    1    3    3    0    0  0.10065620516E+02 -0.25997595987E+02  0.36326374215E+02  0.45790797952E+02  0.00000000000E+00 0. -1.
         11    1    3    3    0    0 -0.66832088390E+02  0.20895889632E+02  0.26623418574E+03  0.27528859021E+03  0.00000000000E+00 0.  1.
        -13    1    4    4    0    0  0.49887037454E+02  0.97813407323E+01  0.99314480179E+01  0.51797922663E+02  0.00000000000E+00 0.  1.
         13    1    4    4    0    0 -0.10089760698E+02 -0.58046169226E+02  0.11573083889E+03  0.12986449901E+03  0.00000000000E+00 0. -1.
         21    1    1    2  502  501  0.16969191118E+02  0.53366534849E+02  0.71823796392E+02  0.91074684832E+02  0.00000000000E+00 0. -1.
<scales pt_clust_5="13000.00000" pt_clust_6="13000.00000" pt_clust_7="13000.00000" pt_clust_8="13000.00000" pt_clust_9="55.99947"></scales>
<clustering>
<clus scale="   55.999">  2  9  1 -1</clus>
<clus scale="   91.108">  5  6 -1 -1</clus>
<clus scale="  105.492">  1  5  2 -1</clus>
<clus scale="  115.312">  7  8 -1 -1</clus>
<clus scale="   55.999">  2  5  1 -1</clus>
</clustering>
</event>
<event>
 9    1  0.1434065E-005  0.1166535E+03  0.7546771E-02  0.1254594E+00
          1   -1    0    0  502    0  0.00000000000E+00  0.00000000000E+00  0.43735421451E+03  0.43735421451E+03  0.00000000000E+00 0. -1.
         -1   -1    0    0    0  501 -0.00000000000E+00 -0.00000000000E+00 -0.10254177257E+03  0.10254177257E+03  0.00000000000E+00 0.  1.
         23    2    1    2    0    0 -0.21925579841E+02 -0.24836798522E+02  0.55438496325E+01  0.92878807366E+02  0.86591806637E+02 0.  0.
         23    2    1    2    0    0  0.30035723084E+02  0.54770918242E+02  0.37400645280E+03  0.39258095916E+03  0.10167096251E+03 0.  0.
        -13    1    4    4    0    0 -0.24032233882E+02  0.58745017368E+02  0.16894971450E+03  0.18047861746E+03  0.00000000000E+00 0.  1.
         13    1    4    4    0    0  0.54067956966E+02 -0.39740991260E+01  0.20505673830E+03  0.21210234171E+03  0.00000000000E+00 0. -1.
        -13    1    3    3    0    0  0.27801898097E+02 -0.19881680571E+02 -0.16861611767E+02  0.38112212104E+02  0.00000000000E+00 0. -1.
         13    1    3    3    0    0 -0.49727477938E+02 -0.49551179505E+01  0.22405461399E+02  0.54766595261E+02  0.00000000000E+00 0.  1.
         21    1    1    2  502  501 -0.81101432426E+01 -0.29934119721E+02 -0.44737860491E+02  0.54436220554E+02  0.00000000000E+00 0.  1.
<scales pt_clust_5="13000.00000" pt_clust_6="13000.00000" pt_clust_7="13000.00000" pt_clust_8="13000.00000" pt_clust_9="31.01332"></scales>
<clustering>
<clus scale="   31.013">  2  9  1 -1</clus>
<clus scale="   86.592">  7  8 -1 -1</clus>
<clus scale="  101.671">  5  6 -1 -1</clus>
<clus scale="  103.775">  2  7  1 -1</clus>
<clus scale="  116.654">  1  5  2 -1</clus>
</clustering>
</event>
<event>
 9    1  0.1434065E-005  0.1017960E+03  0.7546771E-02  0.1276712E+00
         -2   -1    0    0    0  501 -0.00000000000E+00  0.00000000000E+00  0.29156792410E+02  0.29156792410E+02  0.00000000000E+00 0.  1.
          2   -1    0    0  502    0  0.00000000000E+00 -0.00000000000E+00 -0.47408250738E+03  0.47408250738E+03  0.00000000000E+00 0. -1.
         23    2    1    2    0    0 -0.13772692404E+02 -0.50510403430E+02 -0.14934290097E+03  0.18323060711E+03  0.92353480715E+02 0.  0.
         23    2    1    2    0    0  0.70090561599E+01  0.27506380981E+02 -0.21296825849E+03  0.23398487850E+03  0.92669932450E+02 0.  0.
        -11    1    3    3    0    0 -0.52904159404E+02 -0.31071524369E+02 -0.73913244842E+02  0.96059655797E+02  0.00000000000E+00 0.  1.
         11    1    3    3    0    0  0.39131467000E+02 -0.19438879061E+02 -0.75429656128E+02  0.87170951310E+02  0.00000000000E+00 0. -1.
        -13    1    4    4    0    0 -0.76957810375E+00  0.56279364137E+02 -0.18401905123E+03  0.19243432722E+03  0.00000000000E+00 0. -1.
         13    1    4    4    0    0  0.77786342636E+01 -0.28772983156E+02 -0.28949207263E+02  0.41550551282E+02  0.00000000000E+00 0.  1.
         21    1    1    2  502  501  0.67636362438E+01  0.23004022448E+02 -0.82614555514E+02  0.86023814185E+02  0.00000000000E+00 0. -1.
<scales pt_clust_5="13000.00000" pt_clust_6="13000.00000" pt_clust_7="13000.00000" pt_clust_8="13000.00000" pt_clust_9="23.97774"></scales>
<clustering>
<clus scale="   23.978">  2  9  1 -1</clus>
<clus scale="   92.353">  5  6 -1 -1</clus>
<clus scale="   92.670">  7  8 -1 -1</clus>
<clus scale="  101.508">  1  5  2 -1</clus>
<clus scale="   23.978">  2  5  1 -1</clus>
</clustering>
</event>
<event>
 9    1  0.1434065E-005  0.1042342E+03  0.7546771E-02  0.1275790E+00
          2   -1    0    0  502    0  0.00000000000E+00  0.00000000000E+00  0.52898112229E+03  0.52898112229E+03  0.00000000000E+00 0. -1.
         -2   -1    0    0    0  501 -0.00000000000E+00 -0.00000000000E+00 -0.45518583962E+02  0.45518583962E+02  0.00000000000E+00 0.  1.
         23    2    1    2    0    0 -0.77382487666E+01  0.54908186830E+02  0.12172962504E+03  0.16656403335E+03  0.99250622760E+02 0.  0.
         23    2    1    2    0    0  0.42078044073E+02  0.23560958247E+02  0.20387775584E+03  0.22833923919E+03  0.90812930131E+02 0.  0.
        -11    1    3    3    0    0  0.73744075813E+01  0.81027481635E+02  0.73350095412E+02  0.10954483632E+03  0.00000000000E+00 0. -1.
         11    1    3    3    0    0 -0.15112656348E+02 -0.26119294804E+02  0.48379529626E+02  0.57019197029E+02  0.00000000000E+00 0.  1.
        -13    1    4    4    0    0  0.39031319033E+02  0.56561874291E+02  0.15148996193E+03  0.16634872424E+03  0.00000000000E+00 0. -1.
         13    1    4    4    0    0  0.30467250391E+01 -0.33000916043E+02  0.52387793909E+02  0.61990514951E+02  0.00000000000E+00 0.  1.
         21    1    1    2  502  501 -0.34339795306E+02 -0.78469145078E+02  0.15785515745E+03  0.17959643371E+03  0.00000000000E+00 0.  1.
<scales pt_clust_5="13000.00000" pt_clust_6="13000.00000" pt_clust_7="13000.00000" pt_clust_8="13000.00000" pt_clust_9="85.65412"></scales>
<clustering>
<clus scale="   85.654">  1  9  2 -1</clus>
<clus scale="   90.813">  7  8 -1 -1</clus>
<clus scale="   96.234">  1  7  2 -1</clus>
<clus scale="   99.251">  5  6 -1 -1</clus>
<clus scale="   85.654">  1  5  2 -1</clus>
</clustering>
</event>
<event>
 9    1  0.1434065E-005  0.1266505E+03  0.7546771E-02  0.1233316E+00
          1   -1    0    0  502    0  0.00000000000E+00  0.00000000000E+00  0.43132177930E+03  0.43132177930E+03  0.00000000000E+00 0. -1.
         -1   -1    0    0    0  501 -0.00000000000E+00 -0.00000000000E+00 -0.10460216724E+03  0.10460216724E+03  0.00000000000E+00 0.  1.
         23    2    1    2    0    0 -0.64279396688E+02  0.80792757892E+02 -0.24128412944E+02  0.13850874700E+03  0.89124531517E+02 0.  0.
         23    2    1    2    0    0  0.63011957538E+02 -0.57107912521E+02  0.35203757383E+03  0.37366665582E+03  0.92002694631E+02 0.  0.
        -11    1    4    4    0    0  0.22132914962E+02  0.19065990797E+02  0.37905422774E+02  0.47856023712E+02  0.00000000000E+00 0.  1.
         11    1    4    4    0    0  0.40879042575E+02 -0.76173903319E+02  0.31413215106E+03  0.32581063211E+03  0.00000000000E+00 0. -1.
        -13    1    3    3    0    0 -0.57556930772E+02  0.61636584380E+02 -0.55633257112E+02  0.10102934282E+03  0.00000000000E+00 0.  1.
         13    1    3    3    0    0 -0.67224659153E+01  0.19156173512E+02  0.31504844168E+02  0.37479404180E+02  0.00000000000E+00 0. -1.
         21    1    1    2  502  501  0.12674391498E+01 -0.23684845371E+02 -0.11895488335E+01  0.23748543717E+02  0.00000000000E+00 0.  1.
<scales pt_clust_5="13000.00000" pt_clust_6="13000.00000" pt_clust_7="13000.00000" pt_clust_8="13000.00000" pt_clust_9="23.71873"></scales>
<clustering>
<clus scale="   23.719">  2  9  1 -1</clus>
<clus scale="   89.125">  7  8 -1 -1</clus>
<clus scale="   92.003">  5  6 -1 -1</clus>
<clus scale="  124.575">  2  7  1 -1</clus>
<clus scale="  126.651">  1  5  2 -1</clus>
</clustering>
</event>
<event>
 9    1  0.1434065E-005  0.1545750E+03  0.7546771E-02  0.1195743E+00
          2   -1    0    0  502    0  0.00000000000E+00  0.00000000000E+00  0.75926999534E+03  0.75926999534E+03  0.00000000000E+00 0.  1.
         -2   -1    0    0    0  501 -0.00000000000E+00 -0.00000000000E+00 -0.14220933408E+03  0.14220933408E+03  0.00000000000E+00 0. -1.
         23    2    1    2    0    0 -0.89235835721E+02 -0.94430769228E+02 -0.77297834888E+02  0.17795451576E+03  0.93875714897E+02 0.  0.
         23    2    1    2    0    0  0.68674217255E+02  0.10137061378E+03  0.68177369191E+03  0.69843858449E+03  0.89492680533E+02 0.  0.
        -11    1    4    4    0    0  0.74049227169E+02  0.37856726227E+02  0.46922438909E+03  0.47653745612E+03  0.00000000000E+00 0.  1.
         11    1    4    4    0    0 -0.53750099144E+01  0.63513887556E+02  0.21254930282E+03  0.22190112837E+03  0.00000000000E+00 0. -1.
        -13    1    3    3    0    0 -0.25935531466E+02  0.17482972835E+02 -0.20468559407E+02  0.37380048900E+02  0.00000000000E+00 0.  1.
         13    1    3    3    0    0 -0.63300304256E+02 -0.11191374206E+03 -0.56829275481E+02  0.14057446686E+03  0.00000000000E+00 0. -1.
         21    1    1    2  502  501  0.20561618467E+02 -0.69398445555E+01  0.12584804229E+02  0.25086229169E+02  0.00000000000E+00 0.  1.
<scales pt_clust_5="13000.00000" pt_clust_6="13000.00000" pt_clust_7="13000.00000" pt_clust_8="13000.00000" pt_clust_9="21.70119"></scales>
<clustering>
<clus scale="   21.701">  2  9  1 -1</clus>
<clus scale="   89.493">  5  6 -1 -1</clus>
<clus scale="   93.876">  7  8 -1 -1</clus>
<clus scale="  151.953">  1  5  2 -1</clus>
<clus scale="  151.953">  1  5  2 -1</clus>
</clustering>
</event>
<event>
 9    1  0.1434065E-005  0.1012978E+03  0.7546771E-02  0.1278038E+00
          1   -1    0    0  502    0  0.00000000000E+00  0.00000000000E+00  0.77623970521E+02  0.77623970521E+02  0.00000000000E+00 0. -1.
         -1   -1    0    0    0  501 -0.00000000000E+00 -0.00000000000E+00 -0.53463312675E+03  0.53463312675E+03  0.00000000000E+00 0.  1.
         23    2    1    2    0    0  0.32645657314E+01  0.18287410476E-01 -0.24659839940E+03  0.26282586050E+03  0.90862559060E+02 0.  0.
         23    2    1    2    0    0 -0.48719858293E+02 -0.56049402717E+01  0.27087372006E+02  0.10755780807E+03  0.91814576218E+02 0.  0.
        -11    1    3    3    0    0  0.19477806069E+02 -0.39086874946E+02 -0.16764158144E+03  0.17323645272E+03  0.00000000000E+00 0.  1.
         11    1    3    3    0    0 -0.16213240338E+02  0.39105162357E+02 -0.78956817961E+02  0.89589407787E+02  0.00000000000E+00 0. -1.
        -13    1    4    4    0    0  0.10409244484E+02 -0.24145283492E+02 -0.17174809685E+02  0.31405750641E+02  0.00000000000E+00 0.  1.
         13    1    4    4    0    0 -0.59129102777E+02  0.18540343220E+02  0.44262181690E+02  0.76152057424E+02  0.00000000000E+00 0. -1.
         21    1    1    2  502  501  0.45455292562E+02  0.55866528612E+01 -0.23749812883E+03  0.24187342870E+03  0.00000000000E+00 0.  1.
<scales pt_clust_5="13000.00000" pt_clust_6="13000.00000" pt_clust_7="13000.00000" pt_clust_8="13000.00000" pt_clust_9="45.79732"></scales>
<clustering>
<clus scale="   45.797">  2  9  1 -1</clus>
<clus scale="   90.863">  5  6 -1 -1</clus>
<clus scale="   91.815">  7  8 -1 -1</clus>
<clus scale="  100.436">  2  5  1 -1</clus>
<clus scale="  101.298">  1  5  2 -1</clus>
</clustering>
</event>
<event>
 9    1  0.1434065E-005  0.1014074E+03  0.7546771E-02  0.1281569E+00
          1   -1    0    0  502    0  0.00000000000E+00  0.00000000000E+00  0.34105695893E+03  0.34105695893E+03  0.00000000000E+00 0. -1.
         -1   -1    0    0    0  501 -0.00000000000E+00 -0.00000000000E+00 -0.79181101489E+02  0.79181101489E+02  0.00000000000E+00 0.  1.
         23    2    1    2    0    0  0.82044228892E+01  0.12679553698E+02  0.87277794386E+01  0.95548156179E+02  0.93942495061E+02 0.  0.
         23    2    1    2    0    0 -0.24180953281E+02  0.41065893145E+02  0.25007458024E+03  0.26853592870E+03  0.85458312888E+02 0.  0.
        -11    1    3    3    0    0 -0.19929803826E+02  0.29732431200E+02 -0.28581819271E+02  0.45805402939E+02  0.00000000000E+00 0.  1.
         11    1    3    3    0    0  0.28134226715E+02 -0.17052877502E+02  0.37309598710E+02  0.49742753239E+02  0.00000000000E+00 0. -1.
        -13    1    4    4    0    0 -0.27620430723E+02 -0.12862072864E+02  0.16471765474E+03  0.16751187091E+03  0.00000000000E+00 0.  1.
         13    1    4    4    0    0  0.34394774426E+01  0.53927966009E+02  0.85356925496E+02  0.10102405779E+03  0.00000000000E+00 0. -1.
         21    1    1    2  502  501  0.15976530392E+02 -0.53745446843E+02  0.30734977609E+01  0.56153975534E+02  0.00000000000E+00 0.  1.
<scales pt_clust_5="13000.00000" pt_clust_6="13000.00000" pt_clust_7="13000.00000" pt_clust_8="13000.00000" pt_clust_9="56.06980"></scales>
<clustering>
<clus scale="   56.070">  2  9  1 -1</clus>
<clus scale="   85.458">  7  8 -1 -1</clus>
<clus scale="   93.602">  1  7  2 -1</clus>
<clus scale="   93.942">  5  6 -1 -1</clus>
<clus scale="   93.602">  1  5  2 -1</clus>
</clustering>
</event>
<event>
 9    1  0.1434065E-005  0.9418998E+02  0.7546771E-02  0.1293902E+00
          1   -1    0    0  502    0  0.00000000000E+00  0.00000000000E+00  0.29481605935E+03  0.29481605935E+03  0.00000000000E+00 0. -1.
         -1   -1    0    0    0  501 -0.00000000000E+00 -0.00000000000E+00 -0.57841804029E+02  0.57841804029E+02  0.00000000000E+00 0.  1.
         23    2    1    2    0    0  0.93816511180E+01 -0.23239217899E+02  0.32684587903E+02  0.10137033079E+03  0.92626049534E+02 0.  0.
         23    2    1    2    0    0  0.50399011570E+01 -0.79987904240E+01  0.19319864551E+03  0.21513777324E+03  0.94176236886E+02 0.  0.
        -11    1    3    3    0    0  0.36678532080E+02 -0.19726442565E+02 -0.16671335782E+02  0.44859566299E+02  0.00000000000E+00 0. -1.
         11    1    3    3    0    0 -0.27296880962E+02 -0.35127753346E+01  0.49355923685E+02  0.56510764493E+02  0.00000000000E+00 0.  1.
        -13    1    4    4    0    0  0.36452283155E+02  0.53265817914E+01  0.16983283375E+03  0.17378242961E+03  0.00000000000E+00 0. -1.
         13    1    4    4    0    0 -0.31412381998E+02 -0.13325372215E+02  0.23365811762E+02  0.41355343630E+02  0.00000000000E+00 0.  1.
         21    1    1    2  502  501 -0.14421552275E+02  0.31238008323E+02  0.11091021906E+02  0.36149759348E+02  0.00000000000E+00 0.  1.
<scales pt_clust_5="13000.00000" pt_clust_6="13000.00000" pt_clust_7="13000.00000" pt_clust_8="13000.00000" pt_clust_9="34.40631"></scales>
<clustering>
<clus scale="   34.406">  2  9  1 -1</clus>
<clus scale="   92.626">  5  6 -1 -1</clus>
<clus scale="   92.640">  2  5  1 -1</clus>
<clus scale="   94.176">  7  8 -1 -1</clus>
<clus scale="   94.190">  1  5  2 -1</clus>
</clustering>
</event>
<event>
 9    1  0.1434065E-005  0.1681237E+03  0.7546771E-02  0.1191903E+00
          2   -1    0    0  502    0  0.00000000000E+00  0.00000000000E+00  0.34499396554E+02  0.34499396554E+02  0.00000000000E+00 0. -1.
         -2   -1    0    0    0  501 -0.00000000000E+00 -0.00000000000E+00 -0.16367846806E+04  0.16367846806E+04  0.00000000000E+00 0.  1.
         23    2    1    2    0    0  0.42044874573E+02  0.62344631559E+02 -0.57445604700E+03  0.58864885441E+03  0.10417820935E+03 0.  0.
         23    2    1    2    0    0 -0.14479921830E+03  0.37300465446E+02 -0.74849617748E+03  0.76876493317E+03  0.91623449143E+02 0.  0.
        -11    1    3    3    0    0  0.24840429672E+02 -0.27467785431E+02 -0.16381455287E+03  0.16794860498E+03  0.00000000000E+00 0. -1.
         11    1    3    3    0    0  0.17204444901E+02  0.89812416990E+02 -0.41064149413E+03  0.42070024943E+03  0.00000000000E+00 0.  1.
        -13    1    4    4    0    0 -0.14274186086E+03  0.78189231396E+01 -0.66502104877E+03  0.68021273857E+03  0.00000000000E+00 0.  1.
         13    1    4    4    0    0 -0.20573574321E+01  0.29481542306E+02 -0.83475128712E+02  0.88552194607E+02  0.00000000000E+00 0. -1.
         21    1    1    2  502  501  0.10275434372E+03 -0.99645097005E+02 -0.27933305961E+03  0.31387028961E+03  0.00000000000E+00 0. -1.
<scales pt_clust_5="13000.00000" pt_clust_6="13000.00000" pt_clust_7="13000.00000" pt_clust_8="13000.00000" pt_clust_9="140.96354"></scales>
<clustering>
<clus scale="   91.623">  7  8 -1 -1</clus>
<clus scale="  104.178">  5  6 -1 -1</clus>
<clus scale="  128.482">  2  5  1 -1</clus>
<clus scale="  140.964">  1  9  2 -1</clus>
<clus scale="  140.964">  1  5  2 -1</clus>
</clustering>
</event>
<event>
 9    1  0.1434065E-005  0.1116630E+03  0.7546771E-02  0.1260141E+00
          3   -1    0    0  502    0  0.00000000000E+00  0.00000000000E+00  0.19186889310E+03  0.19186889310E+03  0.00000000000E+00 0. -1.
         -3   -1    0    0    0  501 -0.00000000000E+00 -0.00000000000E+00 -0.16619517038E+03  0.16619517038E+03  0.00000000000E+00 0.  1.
         23    2    1    2    0    0 -0.53785554870E+02  0.17733590347E+02 -0.65838767864E+01  0.11749870907E+03  0.10273866390E+03 0.  0.
         23    2    1    2    0    0  0.40110739497E+02  0.11535822601E+02  0.11250945960E+03  0.15405489169E+03  0.96605302798E+02 0.  0.
        -13    1    4    4    0    0  0.58497230704E+02 -0.25543103327E+02  0.66879982291E+02  0.92451653088E+02  0.00000000000E+00 0. -1.
         13    1    4    4    0    0 -0.18386491207E+02  0.37078925929E+02  0.45629477310E+02  0.61603238604E+02  0.00000000000E+00 0.  1.
        -13    1    3    3    0    0 -0.71749130443E+02 -0.20662495052E+02 -0.44757927003E+00  0.74666436558E+02  0.00000000000E+00 0.  1.
         13    1    3    3    0    0  0.17963575573E+02  0.38396085399E+02 -0.61362975164E+01  0.42832272512E+02  0.00000000000E+00 0. -1.
         21    1    1    2  502  501  0.13674815373E+02 -0.29269412949E+02 -0.80251860102E+02  0.86510462718E+02  0.00000000000E+00 0.  1.
<scales pt_clust_5="13000.00000" pt_clust_6="13000.00000" pt_clust_7="13000.00000" pt_clust_8="13000.00000" pt_clust_9="32.30633"></scales>
<clustering>
<clus scale="   32.306">  2  9  1 -1</clus>
<clus scale="   96.605">  5  6 -1 -1</clus>
<clus scale="  102.739">  7  8 -1 -1</clus>
<clus scale="  106.047">  1  5  2 -1</clus>
<clus scale="  106.047">  1  5  2 -1</clus>
</clustering>
</event>
<event>
 9    1  0.1434065E-005  0.1048596E+03  0.7546771E-02  0.1270548E+00
         -2   -1    0    0    0  501 -0.00000000000E+00  0.00000000000E+00  0.26054399541E+03  0.26054399541E+03  0.00000000000E+00 0.  1.
          2   -1    0    0  502    0  0.00000000000E+00 -0.00000000000E+00 -0.76750351002E+02  0.76750351002E+02  0.00000000000E+00 0. -1.
         23    2    1    2    0    0  0.47729855947E+02 -0.25936440026E+02  0.15284812277E+03  0.18592183612E+03  0.90849009025E+02 0.  0.
         23    2    1    2    0    0 -0.52350859918E+02  0.59280377302E+01 -0.10377998919E+02  0.10522792024E+03  0.90495625149E+02 0.  0.
        -11    1    3    3    0    0  0.63980578163E+02  0.80706435985E+01  0.71615843682E+02  0.96371566017E+02  0.00000000000E+00 0.  1.
         11    1    3    3    0    0 -0.16250722217E+02 -0.34007083624E+02  0.81232279086E+02  0.89550270098E+02  0.00000000000E+00 0. -1.
        -13    1    4    4    0    0 -0.51846260184E+02  0.41339838425E+02 -0.18602759622E+02  0.68870019614E+02  0.00000000000E+00 0. -1.
         13    1    4    4    0    0 -0.50459973395E+00 -0.35411800695E+02  0.82247607023E+01  0.36357900626E+02  0.00000000000E+00 0.  1.
         21    1    1    2  502  501  0.46210039714E+01  0.20008402296E+02  0.41323520554E+02  0.46144590052E+02  0.00000000000E+00 0.  1.
<scales pt_clust_5="13000.00000" pt_clust_6="13000.00000" pt_clust_7="13000.00000" pt_clust_8="13000.00000" pt_clust_9="20.53509"></scales>
<clustering>
<clus scale="   20.535">  1  9  2 -1</clus>
<clus scale="   90.496">  7  8 -1 -1</clus>
<clus scale="   90.849">  5  6 -1 -1</clus>
<clus scale="  104.554">  2  7  1 -1</clus>
<clus scale="  104.554">  2  5  1 -1</clus>
</clustering>
</event>
<event>
 9    1  0.1434065E-005  0.1139528E+03  0.7546771E-02  0.1257595E+00
         -1   -1    0    0    0  501 -0.00000000000E+00  0.00000000000E+00  0.24781880213E+02  0.24781880213E+02  0.00000000000E+00 0.  1.
          1   -1    0    0  502    0  0.00000000000E+00 -0.00000000000E+00 -0.84316681747E+03  0.84316681747E+03  0.00000000000E+00 0. -1.
         23    2    1    2    0    0  0.10634360221E+02 -0.86069312281E+02 -0.26851313286E+03  0.29621521255E+03  0.90128427778E+02 0.  0.
         23    2    1    2    0    0 -0.55539596722E+01  0.63683368831E+02 -0.53478032277E+03  0.54426179513E+03  0.78386797922E+02 0.  0.
        -13    1    3    3    0    0  0.31017255583E+02 -0.18974367164E+02 -0.17821770747E+03  0.18188910910E+03  0.00000000000E+00 0. -1.
         13    1    3    3    0    0 -0.20382895361E+02 -0.67094945117E+02 -0.90295425384E+02  0.11432610344E+03  0.00000000000E+00 0.  1.
        -13    1    4    4    0    0 -0.17898148986E+02 -0.13171080732E+02 -0.88717402661E+02  0.91458179731E+02  0.00000000000E+00 0.  1.
         13    1    4    4    0    0  0.12344189314E+02  0.76854449563E+02 -0.44606292011E+03  0.45280361540E+03  0.00000000000E+00 0. -1.
         21    1    1    2  502  501 -0.50804005491E+01  0.22385943450E+02 -0.15091481636E+02  0.27471690007E+02  0.00000000000E+00 0.  1.
<scales pt_clust_5="13000.00000" pt_clust_6="13000.00000" pt_clust_7="13000.00000" pt_clust_8="13000.00000" pt_clust_9="22.95519"></scales>
<clustering>
<clus scale="   22.955">  1  9  2 -1</clus>
<clus scale="   78.387">  7  8 -1 -1</clus>
<clus scale="   90.128">  5  6 -1 -1</clus>
<clus scale="  104.912">  2  7  1 -1</clus>
<clus scale="  104.912">  2  5  1 -1</clus>
</clustering>
</event>
<event>
 9    1  0.1434065E-005  0.1012943E+03  0.7546771E-02  0.1278681E+00
          1   -1    0    0  502    0  0.00000000000E+00  0.00000000000E+00  0.64840620219E+02  0.64840620219E+02  0.00000000000E+00 0. -1.
         -1   -1    0    0    0  501 -0.00000000000E+00 -0.00000000000E+00 -0.23245751536E+03  0.23245751536E+03  0.00000000000E+00 0.  1.
         23    2    1    2    0    0 -0.34293176613E+02  0.89817973275E+01 -0.61513390346E+02  0.11268268734E+03  0.87503121018E+02 0.  0.
         23    2    1    2    0    0  0.54532801631E+02 -0.14765075645E+02 -0.37032730352E+02  0.11240838065E+03  0.89846463533E+02 0.  0.
        -11    1    3    3    0    0  0.28460660406E+02  0.70130263482E+00 -0.32035180826E+02  0.42857366073E+02  0.00000000000E+00 0. -1.
         11    1    3    3    0    0 -0.62753837019E+02  0.82804946927E+01 -0.29478209520E+02  0.69825321263E+02  0.00000000000E+00 0.  1.
        -11    1    4    4    0    0  0.45831994796E+01 -0.42899161959E+02 -0.34123176732E+02  0.55006681453E+02  0.00000000000E+00 0.  1.
         11    1    4    4    0    0  0.49949602151E+02  0.28134086314E+02 -0.29095536198E+01  0.57401699192E+02  0.00000000000E+00 0. -1.
         21    1    1    2  502  501 -0.20239625018E+02  0.57832783171E+01 -0.69070774443E+02  0.72207067598E+02  0.00000000000E+00 0.  1.
<scales pt_clust_5="13000.00000" pt_clust_6="13000.00000" pt_clust_7="13000.00000" pt_clust_8="13000.00000" pt_clust_9="21.04967"></scales>
<clustering>
<clus scale="   21.050">  2  9  1 -1</clus>
<clus scale="   87.503">  5  6 -1 -1</clus>
<clus scale="   89.846">  7  8 -1 -1</clus>
<clus scale="   99.222">  2  5  1 -1</clus>
<clus scale="  101.294">  1  5  2 -1</clus>
</clustering>
</event>
<event>
 9    1  0.1434065E-005  0.1178655E+03  0.7546771E-02  0.1247001E+00
          1   -1    0    0  502    0  0.00000000000E+00  0.00000000000E+00  0.45953260437E+03  0.45953260437E+03  0.00000000000E+00 0. -1.
         -1   -1    0    0    0  501 -0.00000000000E+00 -0.00000000000E+00 -0.10858328735E+03  0.10858328735E+03  0.00000000000E+00 0.  1.
         23    2    1    2    0    0 -0.85477288017E+02  0.24459739842E+02  0.37549920744E+02  0.13292514851E+03  0.91402696447E+02 0.  0.
         23    2    1    2    0    0  0.58658951433E+02 -0.39619789260E+02  0.36054317517E+03  0.37887390591E+03  0.92430812696E+02 0.  0.
        -13    1    4    4    0    0  0.75217467669E+02 -0.81666406309E+01  0.29224052693E+03  0.30187561519E+03  0.00000000000E+00 0. -1.
         13    1    4    4    0    0 -0.16558516236E+02 -0.31453148629E+02  0.68302648234E+02  0.76998290724E+02  0.00000000000E+00 0.  1.
        -13    1    3    3    0    0 -0.21193420546E+02 -0.28242113698E+02  0.35064171718E+02  0.49762176387E+02  0.00000000000E+00 0. -1.
         13    1    3    3    0    0 -0.64283867471E+02  0.52701853539E+02  0.24857490269E+01  0.83162972119E+02  0.00000000000E+00 0.  1.
         21    1    1    2  502  501  0.26818336584E+02  0.15160049419E+02 -0.47143778890E+02  0.56316837301E+02  0.00000000000E+00 0.  1.
<scales pt_clust_5="13000.00000" pt_clust_6="13000.00000" pt_clust_7="13000.00000" pt_clust_8="13000.00000" pt_clust_9="30.80666"></scales>
<clustering>
<clus scale="   30.807">  2  9  1 -1</clus>
<clus scale="   91.403">  7  8 -1 -1</clus>
<clus scale="   92.431">  5  6 -1 -1</clus>
<clus scale="  117.061">  2  7  1 -1</clus>
<clus scale="  117.866">  1  5  2 -1</clus>
</clustering>
</event>
<event>
 9    1  0.1434065E-005  0.1077357E+03  0.7546771E-02  0.1265796E+00
         -1   -1    0    0    0  501 -0.00000000000E+00  0.00000000000E+00  0.25621370211E+02  0.25621370211E+02  0.00000000000E+00 0.  1.
          1   -1    0    0  502    0  0.00000000000E+00 -0.00000000000E+00 -0.63871543401E+03  0.63871543401E+03  0.00000000000E+00 0. -1.
         23    2    1    2    0    0 -0.29045896523E+02  0.42676655712E+02 -0.16249732646E+03  0.19334850139E+03  0.91177304382E+02 0.  0.
         23    2    1    2    0    0  0.51624569807E+02 -0.48698177777E+02 -0.37901608525E+03  0.39568992989E+03  0.88773413863E+02 0.  0.
        -11    1    4    4    0    0  0.39938424431E+02  0.32724928045E+01 -0.59321677624E+02  0.71588046427E+02  0.00000000000E+00 0.  1.
         11    1    4    4    0    0  0.11686145376E+02 -0.51970670581E+02 -0.31969440762E+03  0.32410188346E+03  0.00000000000E+00 0. -1.
        -13    1    3    3    0    0  0.29080030461E+02  0.27992873573E+02 -0.39288753165E+02  0.56328103712E+02  0.00000000000E+00 0.  1.
         13    1    3    3    0    0 -0.58125926984E+02  0.14683782139E+02 -0.12320857330E+03  0.13702039768E+03  0.00000000000E+00 0. -1.
         21    1    1    2  502  501 -0.22578673285E+02  0.60215220652E+01 -0.71580652092E+02  0.75298372951E+02  0.00000000000E+00 0. -1.
<scales pt_clust_5="13000.00000" pt_clust_6="13000.00000" pt_clust_7="13000.00000" pt_clust_8="13000.00000" pt_clust_9="23.36782"></scales>
<clustering>
<clus scale="   23.368">  2  9  1 -1</clus>
<clus scale="   88.773">  5  6 -1 -1</clus>
<clus scale="   91.177">  7  8 -1 -1</clus>
<clus scale="  105.709">  2  5  1 -1</clus>
<clus scale="   23.368">  2  5  1 -1</clus>
</clustering>
</event>
<event>
 9    1  0.1434065E-005  0.1038347E+03  0.7546771E-02  0.1273313E+00
         -1   -1    0    0    0  501 -0.00000000000E+00  0.00000000000E+00  0.12223824299E+03  0.12223824299E+03  0.00000000000E+00 0.  1.
          1   -1    0    0  502    0  0.00000000000E+00 -0.00000000000E+00 -0.37436068127E+03  0.37436068127E+03  0.00000000000E+00 0. -1.
         23    2    1    2    0    0 -0.24242310791E+02  0.20707528747E+02  0.76549066012E+02  0.12446522384E+03  0.92818861540E+02 0.  0.
         23    2    1    2    0    0  0.10132595117E+02 -0.47112582841E+02 -0.32627213238E+03  0.34209925448E+03  0.90863252211E+02 0.  0.
        -11    1    4    4    0    0  0.89938081836E+01  0.26083780714E+02 -0.61736066028E+02  0.67620958664E+02  0.00000000000E+00 0.  1.
         11    1    4    4    0    0  0.11387869330E+01 -0.73196363555E+02 -0.26453606635E+03  0.27447829581E+03  0.00000000000E+00 0. -1.
        -13    1    3    3    0    0 -0.43391131660E+02 -0.22149379951E+02  0.25038940661E+02  0.54775303635E+02  0.00000000000E+00 0. -1.
         13    1    3    3    0    0  0.19148820869E+02  0.42856908697E+02  0.51510125351E+02  0.69689920200E+02  0.00000000000E+00 0.  1.
         21    1    1    2  502  501  0.14109715674E+02  0.26405054094E+02 -0.23993719181E+01  0.30034445954E+02  0.00000000000E+00 0.  1.
<scales pt_clust_5="13000.00000" pt_clust_6="13000.00000" pt_clust_7="13000.00000" pt_clust_8="13000.00000" pt_clust_9="29.93845"></scales>
<clustering>
<clus scale="   29.938">  1  9  2 -1</clus>
<clus scale="   90.863">  5  6 -1 -1</clus>
<clus scale="   92.819">  7  8 -1 -1</clus>
<clus scale="  102.090">  2  5  1 -1</clus>
<clus scale="  102.090">  2  5  1 -1</clus>
</clustering>
</event>
<event>
 9    1  0.1434065E-005  0.1365559E+03  0.7546771E-02  0.1219746E+00
         -2   -1    0    0    0  501 -0.00000000000E+00  0.00000000000E+00  0.24100417005E+03  0.24100417005E+03  0.00000000000E+00 0.  1.
          2   -1    0    0  502    0  0.00000000000E+00 -0.00000000000E+00 -0.46922679531E+03  0.46922679531E+03  0.00000000000E+00 0. -1.
         23    2    1    2    0    0  0.64908772795E+02 -0.38850210965E+02 -0.82444971943E+02  0.14392219015E+03  0.90520360922E+02 0.  0.
         23    2    1    2    0    0 -0.92709323677E+02  0.49724048981E+02 -0.34042763003E+03  0.36938309273E+03  0.97393008817E+02 0.  0.
        -11    1    3    3    0    0  0.49635708479E+02 -0.67535852587E+02 -0.69720273798E+02  0.10902161033E+03  0.00000000000E+00 0.  1.
         11    1    3    3    0    0  0.15273064317E+02  0.28685641622E+02 -0.12724698145E+02  0.34900579820E+02  0.00000000000E+00 0. -1.
        -13    1    4    4    0    0 -0.10174293284E+03  0.68314753103E+02 -0.29686558248E+03  0.32116616250E+03  0.00000000000E+00 0. -1.
         13    1    4    4    0    0  0.90336091660E+01 -0.18590704122E+02 -0.43562047553E+02  0.48216930235E+02  0.00000000000E+00 0.  1.
         21    1    1    2  502  501  0.27800550881E+02 -0.10873838016E+02  0.19464997672E+03  0.19692568248E+03  0.00000000000E+00 0.  1.
<scales pt_clust_5="13000.00000" pt_clust_6="13000.00000" pt_clust_7="13000.00000" pt_clust_8="13000.00000" pt_clust_9="29.85148"></scales>
<clustering>
<clus scale="   29.851">  1  9  2 -1</clus>
<clus scale="   90.520">  5  6 -1 -1</clus>
<clus scale="   97.393">  7  8 -1 -1</clus>
<clus scale="  131.742">  1  5  2 -1</clus>
<clus scale="  136.556">  2  5  1 -1</clus>
</clustering>
</event>
<event>
 9    1  0.1434065E-005  0.1283205E+03  0.7546771E-02  0.1230704E+00
         -2   -1    0    0    0  501 -0.00000000000E+00  0.00000000000E+00  0.19647639113E+03  0.19647639113E+03  0.00000000000E+00 0.  1.
          2   -1    0    0  502    0  0.00000000000E+00 -0.00000000000E+00 -0.39044123333E+03  0.39044123333E+03  0.00000000000E+00 0. -1.
         23    2    1    2    0    0  0.27017699437E+02  0.65550816182E+02  0.10465229344E+03  0.15371196394E+03  0.87455129935E+02 0.  0.
         23    2    1    2    0    0 -0.63377753847E+02 -0.68698750057E+02 -0.34819702013E+03  0.37164164512E+03  0.90222445190E+02 0.  0.
        -11    1    4    4    0    0 -0.38363968711E+02  0.12976048987E+02 -0.72863264766E+02  0.83362025497E+02  0.00000000000E+00 0.  1.
         11    1    4    4    0    0 -0.25013785137E+02 -0.81674799044E+02 -0.27533375537E+03  0.28827961963E+03  0.00000000000E+00 0. -1.
        -13    1    3    3    0    0  0.94922320323E+01  0.54709328292E+02  0.11712718284E+03  0.12962249045E+03  0.00000000000E+00 0.  1.
         13    1    3    3    0    0  0.17525467405E+02  0.10841487890E+02 -0.12474889401E+02  0.24089473489E+02  0.00000000000E+00 0. -1.
         21    1    1    2  502  501  0.36360054410E+02  0.31479338752E+01  0.49579884503E+02  0.61564015396E+02  0.00000000000E+00 0.  1.
<scales pt_clust_5="13000.00000" pt_clust_6="13000.00000" pt_clust_7="13000.00000" pt_clust_8="13000.00000" pt_clust_9="36.49607"></scales>
<clustering>
<clus scale="   36.496">  1  9  2 -1</clus>
<clus scale="   87.455">  7  8 -1 -1</clus>
<clus scale="   90.222">  5  6 -1 -1</clus>
<clus scale="  126.390">  1  7  2 -1</clus>
<clus scale="  128.321">  2  5  1 -1</clus>
</clustering>
</event>
<event>
 9    1  0.1434065E-005  0.9475639E+02  0.7546771E-02  0.1293272E+00
         -1   -1    0    0    0  501 -0.00000000000E+00  0.00000000000E+00  0.11180861515E+03  0.11180861515E+03  0.00000000000E+00 0.  1.
          1   -1    0    0  502    0  0.00000000000E+00 -0.00000000000E+00 -0.20306035439E+03  0.20306035439E+03  0.00000000000E+00 0. -1.
         23    2    1    2    0    0 -0.14102792328E+02 -0.17408497055E+02 -0.81812524003E+01  0.94247484740E+02  0.91179553453E+02 0.  0.
         23    2    1    2    0    0 -0.21446580256E+02  0.70585397751E-01 -0.12836918998E+03  0.16048552570E+03  0.93898851099E+02 0.  0.
        -11    1    4    4    0    0  0.12058162090E+02 -0.39208878571E+02 -0.79185267727E+02  0.89179829876E+02  0.00000000000E+00 0.  1.
         11    1    4    4    0    0 -0.33504742346E+02  0.39279463969E+02 -0.49183922250E+02  0.71305695826E+02  0.00000000000E+00 0. -1.
        -13    1    3    3    0    0 -0.52712647959E+02 -0.34403347619E+01 -0.52157334255E+01  0.53081663814E+02  0.00000000000E+00 0. -1.
         13    1    3    3    0    0  0.38609855631E+02 -0.13968162293E+02 -0.29655189748E+01  0.41165820926E+02  0.00000000000E+00 0.  1.
         21    1    1    2  502  501  0.35549372583E+02  0.17337911657E+02  0.45298703137E+02  0.60135959106E+02  0.00000000000E+00 0.  1.
<scales pt_clust_5="13000.00000" pt_clust_6="13000.00000" pt_clust_7="13000.00000" pt_clust_8="13000.00000" pt_clust_9="39.55200"></scales>
<clustering>
<clus scale="   39.552">  1  9  2 -1</clus>
<clus scale="   91.180">  7  8 -1 -1</clus>
<clus scale="   92.062">  1  7  2 -1</clus>
<clus scale="   93.899">  5  6 -1 -1</clus>
<clus scale="   94.756">  2  5  1 -1</clus>
</clustering>
</event>
<event>
 9    1  0.1434065E-005  0.9638283E+02  0.7546771E-02  0.1288369E+00
         -2   -1    0    0    0  501 -0.00000000000E+00  0.00000000000E+00  0.28979053271E+02  0.28979053271E+02  0.00000000000E+00 0.  1.
          2   -1    0    0  502    0  0.00000000000E+00 -0.00000000000E+00 -0.39824927355E+03  0.39824927355E+03  0.00000000000E+00 0. -1.
         23    2    1    2    0    0 -0.29473756233E+02  0.15701601881E+02 -0.17222287150E+03  0.19787402020E+03  0.91532331954E+02 0.  0.
         23    2    1    2    0    0  0.29912143640E+02  0.44073335235E+01 -0.17469519444E+03  0.19928471616E+03  0.91004539513E+02 0.  0.
        -11    1    3    3    0    0 -0.50329092147E+01  0.28586337238E+02 -0.63456776958E+01  0.29711554609E+02  0.00000000000E+00 0.  1.
         11    1    3    3    0    0 -0.24440847018E+02 -0.12884735358E+02 -0.16587719380E+03  0.16816246559E+03  0.00000000000E+00 0. -1.
        -13    1    4    4    0    0 -0.49958634304E+01 -0.35576330676E+02 -0.10934233448E+03  0.11509291927E+03  0.00000000000E+00 0. -1.
         13    1    4    4    0    0  0.34908007070E+02  0.39983664200E+02 -0.65352859951E+02  0.84191796894E+02  0.00000000000E+00 0.  1.
         21    1    1    2  502  501 -0.43838740669E+00 -0.20108935404E+02 -0.22352154341E+02  0.30069590458E+02  0.00000000000E+00 0.  1.
<scales pt_clust_5="13000.00000" pt_clust_6="13000.00000" pt_clust_7="13000.00000" pt_clust_8="13000.00000" pt_clust_9="20.11371"></scales>
<clustering>
<clus scale="   20.114">  1  9  2 -1</clus>
<clus scale="   91.005">  7  8 -1 -1</clus>
<clus scale="   91.532">  5  6 -1 -1</clus>
<clus scale="   95.882">  2  7  1 -1</clus>
<clus scale="   95.882">  2  5  1 -1</clus>
</clustering>
</event>
<event>
 9    1  0.1434065E-005  0.1284990E+03  0.7546771E-02  0.1229709E+00
          1   -1    0    0  502    0  0.00000000000E+00  0.00000000000E+00  0.63904930968E+03  0.63904930968E+03  0.00000000000E+00 0. -1.
         -1   -1    0    0    0  501 -0.00000000000E+00 -0.00000000000E+00 -0.32383641185E+02  0.32383641185E+02  0.00000000000E+00 0.  1.
         23    2    1    2    0    0  0.87745432557E+02 -0.35823791293E+02  0.21171128231E+03  0.24968686423E+03  0.92408106544E+02 0.  0.
         23    2    1    2    0    0 -0.81317563304E+02  0.12840405590E+02  0.34074554171E+03  0.36251642902E+03  0.92375402557E+02 0.  0.
        -11    1    3    3    0    0  0.92753993058E+02 -0.63749875998E+01  0.11180718164E+03  0.14541248076E+03  0.00000000000E+00 0.  1.
         11    1    3    3    0    0 -0.50085605006E+01 -0.29448803693E+02  0.99904100670E+02  0.10427438347E+03  0.00000000000E+00 0. -1.
        -13    1    4    4    0    0 -0.14384513604E+02 -0.36583484881E+02  0.86763195511E+02  0.95252914354E+02  0.00000000000E+00 0.  1.
         13    1    4    4    0    0 -0.66933049700E+02  0.49423890471E+02  0.25398234620E+03  0.26726351467E+03  0.00000000000E+00 0. -1.
         21    1    1    2  502  501 -0.64278692533E+01  0.22983385703E+02  0.54208844466E+02  0.59229657604E+02  0.00000000000E+00 0.  1.
<scales pt_clust_5="13000.00000" pt_clust_6="13000.00000" pt_clust_7="13000.00000" pt_clust_8="13000.00000" pt_clust_9="23.86532"></scales>
<clustering>
<clus scale="   23.865">  1  9  2 -1</clus>
<clus scale="   92.375">  7  8 -1 -1</clus>
<clus scale="   92.408">  5  6 -1 -1</clus>
<clus scale="  128.476">  1  7  2 -1</clus>
<clus scale="   23.865">  1  5  2 -1</clus>
</clustering>
</event>
<event>
 9    1  0.1434065E-005  0.1083205E+03  0.7546771E-02  0.1264450E+00
         -1   -1    0    0    0  501 -0.00000000000E+00  0.00000000000E+00  0.63808828873E+02  0.63808828873E+02  0.00000000000E+00 0.  1.
          1   -1    0    0  502    0  0.00000000000E+00 -0.00000000000E+00 -0.32296190723E+03  0.32296190723E+03  0.00000000000E+00 0. -1.
         23    2    1    2    0    0  0.42394633195E+02  0.20358100249E+02 -0.11638285044E+03  0.15499901841E+03  0.90928382059E+02 0.  0.
         23    2    1    2    0    0 -0.67887528330E+02 -0.17990275329E+02 -0.16338493902E+03  0.19890135701E+03  0.89077185698E+02 0.  0.
        -11    1    4    4    0    0  0.13729727420E+02 -0.26660408883E+02 -0.30949089267E+02  0.43094418935E+02  0.00000000000E+00 0.  1.
         11    1    4    4    0    0 -0.81617255750E+02  0.86701335538E+01 -0.13243584975E+03  0.15580693807E+03  0.00000000000E+00 0. -1.
        -13    1    3    3    0    0  0.50281666193E+02 -0.11406042883E+02 -0.23772644458E+02  0.56775720110E+02  0.00000000000E+00 0. -1.
         13    1    3    3    0    0 -0.78870329986E+01  0.31764143132E+02 -0.92610205977E+02  0.98223298303E+02  0.00000000000E+00 0.  1.
         21    1    1    2  502  501  0.25492895135E+02 -0.23678249198E+01  0.20614711103E+02  0.32870360678E+02  0.00000000000E+00 0.  1.
<scales pt_clust_5="13000.00000" pt_clust_6="13000.00000" pt_clust_7="13000.00000" pt_clust_8="13000.00000" pt_clust_9="25.60262"></scales>
<clustering>
<clus scale="   25.603">  1  9  2 -1</clus>
<clus scale="   89.077">  5  6 -1 -1</clus>
<clus scale="   90.928">  7  8 -1 -1</clus>
<clus scale="  106.771">  2  5  1 -1</clus>
<clus scale="  106.771">  2  5  1 -1</clus>
</clustering>
</event>
<event>
 9    1  0.1434065E-005  0.1427632E+03  0.7546771E-02  0.1210067E+00
          1   -1    0    0  502    0  0.00000000000E+00  0.00000000000E+00  0.36077559747E+03  0.36077559747E+03  0.00000000000E+00 0. -1.
         -1   -1    0    0    0  501 -0.00000000000E+00 -0.00000000000E+00 -0.92614348964E+02  0.92614348964E+02  0.00000000000E+00 0.  1.
         23    2    1    2    0    0  0.11503290327E+03 -0.82769478196E+01  0.12021038401E+02  0.14734192587E+03  0.90906881238E+02 0.  0.
         23    2    1    2    0    0 -0.85499687033E+02  0.27450136134E+02  0.22297154178E+03  0.25767465423E+03  0.92823555922E+02 0.  0.
        -11    1    3    3    0    0  0.77552882005E+02  0.37337529827E+02 -0.40110040112E+01  0.86166285715E+02  0.00000000000E+00 0.  1.
         11    1    3    3    0    0  0.37480021264E+02 -0.45614477646E+02  0.16032042412E+02  0.61175640159E+02  0.00000000000E+00 0. -1.
        -13    1    4    4    0    0 -0.55352053543E+02 -0.18426691381E+00  0.20615288168E+03  0.21345466594E+03  0.00000000000E+00 0. -1.
         13    1    4    4    0    0 -0.30147633490E+02  0.27634403048E+02  0.16818660091E+02  0.44219988287E+02  0.00000000000E+00 0.  1.
         21    1    1    2  502  501 -0.29533216235E+02 -0.19173188315E+02  0.33168668329E+02  0.48373366330E+02  0.00000000000E+00 0.  1.
<scales pt_clust_5="13000.00000" pt_clust_6="13000.00000" pt_clust_7="13000.00000" pt_clust_8="13000.00000" pt_clust_9="35.21111"></scales>
<clustering>
<clus scale="   35.211">  1  9  2 -1</clus>
<clus scale="   90.907">  5  6 -1 -1</clus>
<clus scale="   92.824">  7  8 -1 -1</clus>
<clus scale="  141.524">  2  5  1 -1</clus>
<clus scale="   35.211">  1  5  2 -1</clus>
</clustering>
</event>
<event>
 9    1  0.1434065E-005  0.1195322E+03  0.7546771E-02  0.1250934E+00
         -2   -1    0    0    0  501 -0.00000000000E+00  0.00000000000E+00  0.68932958557E+02  0.68932958557E+02  0.00000000000E+00 0.  1.
          2   -1    0    0  502    0  0.00000000000E+00 -0.00000000000E+00 -0.38915788331E+03  0.38915788331E+03  0.00000000000E+00 0. -1.
         23    2    1    2    0    0  0.47838556324E+02  0.60650915474E+02 -0.44446411126E+01  0.10576452023E+03  0.72106295747E+02 0.  0.
         23    2    1    2    0    0 -0.23855928234E+02 -0.70902686395E+02 -0.29694732409E+03  0.32015575088E+03  0.93411430191E+02 0.  0.
        -11    1    4    4    0    0  0.25084290531E+02 -0.48935452377E+02 -0.21714041456E+03  0.22399522265E+03  0.00000000000E+00 0. -1.
         11    1    4    4    0    0 -0.48940218765E+02 -0.21967234018E+02 -0.79806909522E+02  0.96160528236E+02  0.00000000000E+00 0.  1.
        -13    1    3    3    0    0  0.35897620787E+02  0.14838876363E+02  0.28422147898E+02  0.48131589638E+02  0.00000000000E+00 0.  1.
         13    1    3    3    0    0  0.11940935537E+02  0.45812039111E+02 -0.32866789011E+02  0.57632930595E+02  0.00000000000E+00 0. -1.
         21    1    1    2  502  501 -0.23982628090E+02  0.10251770921E+02 -0.18832959554E+02  0.32170570755E+02  0.00000000000E+00 0.  1.
<scales pt_clust_5="13000.00000" pt_clust_6="13000.00000" pt_clust_7="13000.00000" pt_clust_8="13000.00000" pt_clust_9="26.08190"></scales>
<clustering>
<clus scale="   26.082">  1  9  2 -1</clus>
<clus scale="   72.106">  7  8 -1 -1</clus>
<clus scale="   93.411">  5  6 -1 -1</clus>
<clus scale="  103.738">  1  7  2 -1</clus>
<clus scale="  119.532">  2  5  1 -1</clus>
</clustering>
</event>
<event>
 9    1  0.1434065E-005  0.2147397E+03  0.7546771E-02  0.1138061E+00
         -1   -1    0    0    0  501 -0.00000000000E+00  0.00000000000E+00  0.15236257854E+03  0.15236257854E+03  0.00000000000E+00 0.  1.
          1   -1    0    0  502    0  0.00000000000E+00 -0.00000000000E+00 -0.10696792113E+04  0.10696792113E+04  0.00000000000E+00 0. -1.
         23    2    1    2    0    0 -0.11097098285E+03 -0.12693844814E+03 -0.36516354977E+03  0.41226563958E+03  0.90501993588E+02 0.  0.
         23    2    1    2    0    0  0.12128897312E+03  0.18147690529E+03 -0.65329528930E+03  0.69440435933E+03  0.88078357610E+02 0.  0.
        -13    1    3    3    0    0 -0.57274591479E+02 -0.12494300392E+03 -0.25431216253E+03  0.28907751395E+03  0.00000000000E+00 0.  1.
         13    1    3    3    0    0 -0.53696391371E+02 -0.19954442249E+01 -0.11085138723E+03  0.12318812563E+03  0.00000000000E+00 0. -1.
        -13    1    4    4    0    0  0.12496830523E+03  0.11836070993E+03 -0.48277905832E+03  0.51254458745E+03  0.00000000000E+00 0. -1.
         13    1    4    4    0    0 -0.36793321113E+01  0.63116195366E+02 -0.17051623098E+03  0.18185977188E+03  0.00000000000E+00 0.  1.
         21    1    1    2  502  501 -0.10317990274E+02 -0.54538457148E+02  0.10114220634E+03  0.11537179090E+03  0.00000000000E+00 0.  1.
<scales pt_clust_5="13000.00000" pt_clust_6="13000.00000" pt_clust_7="13000.00000" pt_clust_8="13000.00000" pt_clust_9="55.50589"></scales>
<clustering>
<clus scale="   55.506">  1  9  2 -1</clus>
<clus scale="   88.078">  7  8 -1 -1</clus>
<clus scale="   90.502">  5  6 -1 -1</clus>
<clus scale="  213.730">  2  7  1 -1</clus>
<clus scale="  213.730">  2  5  1 -1</clus>
</clustering>
</event>
<event>
 9    1  0.1434065E-005  0.9428962E+02  0.7546771E-02  0.1293956E+00
          1   -1    0    0  502    0  0.00000000000E+00  0.00000000000E+00  0.56642009670E+03  0.56642009670E+03  0.00000000000E+00 0. -1.
         -1   -1    0    0    0  501 -0.00000000000E+00 -0.00000000000E+00 -0.34495543547E+02  0.34495543547E+02  0.00000000000E+00 0.  1.
         23    2    1    2    0    0 -0.64928374185E+01  0.16797946836E+02  0.51895983109E+02  0.10626515265E+03  0.90965716885E+02 0.  0.
         23    2    1    2    0    0  0.16596836448E+02  0.49342758135E+01  0.35831104041E+03  0.37059591365E+03  0.93030787795E+02 0.  0.
        -11    1    4    4    0    0  0.81819615063E+01  0.46223002578E+02  0.12527618369E+03  0.13378203415E+03  0.00000000000E+00 0.  1.
         11    1    4    4    0    0  0.84148749414E+01 -0.41288726764E+02  0.23303485672E+03  0.23681387950E+03  0.00000000000E+00 0. -1.
        -11    1    3    3    0    0  0.17984038217E+02  0.46101595162E+02  0.11748268779E+02  0.50860638281E+02  0.00000000000E+00 0.  1.
         11    1    3    3    0    0 -0.24476875635E+02 -0.29303648326E+02  0.40147714329E+02  0.55404514365E+02  0.00000000000E+00 0. -1.
         21    1    1    2  502  501 -0.10103999029E+02 -0.21732222649E+02  0.12171752963E+03  0.12405457395E+03  0.00000000000E+00 0.  1.
<scales pt_clust_5="13000.00000" pt_clust_6="13000.00000" pt_clust_7="13000.00000" pt_clust_8="13000.00000" pt_clust_9="23.96623"></scales>
<clustering>
<clus scale="   23.966">  1  9  2 -1</clus>
<clus scale="   90.966">  7  8 -1 -1</clus>
<clus scale="   92.253">  2  7  1 -1</clus>
<clus scale="   93.031">  5  6 -1 -1</clus>
<clus scale="   23.966">  1  5  2 -1</clus>
</clustering>
</event>
<event>
 9    1  0.1434065E-005  0.1103518E+03  0.7546771E-02  0.1260475E+00
         -1   -1    0    0    0  501 -0.00000000000E+00  0.00000000000E+00  0.16339649393E+03  0.16339649393E+03  0.00000000000E+00 0.  1.
          1   -1    0    0  502    0  0.00000000000E+00 -0.00000000000E+00 -0.97113555513E+02  0.97113555513E+02  0.00000000000E+00 0. -1.
         23    2    1    2    0    0  0.10189835989E+02 -0.50320402707E+02  0.48970098506E+02  0.11528359099E+03  0.90863964904E+02 0.  0.
         23    2    1    2    0    0  0.43434917628E+01  0.67285035148E+02 -0.39698008552E+01  0.11437249327E+03  0.92299328395E+02 0.  0.
        -11    1    4    4    0    0  0.20364077630E+02  0.83075568949E+02 -0.18606403003E+02  0.87535387396E+02  0.00000000000E+00 0. -1.
         11    1    4    4    0    0 -0.16020585867E+02 -0.15790533801E+02  0.14636602147E+02  0.26837105873E+02  0.00000000000E+00 0.  1.
        -11    1    3    3    0    0 -0.27854718333E+02  0.12754430151E+02  0.16317653871E+02  0.34710612927E+02  0.00000000000E+00 0.  1.
         11    1    3    3    0    0  0.38044554322E+02 -0.63074832858E+02  0.32652444636E+02  0.80572978065E+02  0.00000000000E+00 0. -1.
         21    1    1    2  502  501 -0.14533327752E+02 -0.16964632442E+02  0.21282640761E+02  0.30853965178E+02  0.00000000000E+00 0.  1.
<scales pt_clust_5="13000.00000" pt_clust_6="13000.00000" pt_clust_7="13000.00000" pt_clust_8="13000.00000" pt_clust_9="22.33867"></scales>
<clustering>
<clus scale="   22.339">  1  9  2 -1</clus>
<clus scale="   90.864">  7  8 -1 -1</clus>
<clus scale="   92.299">  5  6 -1 -1</clus>
<clus scale="  109.154">  1  7  2 -1</clus>
<clus scale="  110.352">  2  5  1 -1</clus>
</clustering>
</event>
<event>
 9    1  0.1434065E-005  0.1849712E+03  0.7546771E-02  0.1163173E+00
         -1   -1    0    0    0  501 -0.00000000000E+00  0.00000000000E+00  0.21903920352E+03  0.21903920352E+03  0.00000000000E+00 0.  1.
          1   -1    0    0  502    0  0.00000000000E+00 -0.00000000000E+00 -0.30952902295E+03  0.30952902295E+03  0.00000000000E+00 0. -1.
         23    2    1    2    0    0  0.13998604436E+03  0.12013068265E+03  0.90565201250E+02  0.22454993875E+03  0.90515997416E+02 0.  0.
         23    2    1    2    0    0 -0.10068358258E+03 -0.11980524564E+03 -0.19178638311E+03  0.26327578471E+03  0.89675199390E+02 0.  0.
        -13    1    3    3    0    0  0.94243667761E+02  0.89473434250E+02  0.10562341854E+03  0.16746244622E+03  0.00000000000E+00 0.  1.
         13    1    3    3    0    0  0.45742376600E+02  0.30657248398E+02 -0.15058217288E+02  0.57087492538E+02  0.00000000000E+00 0. -1.
        -13    1    4    4    0    0 -0.83496964012E+01 -0.77963245895E+02 -0.73212870580E+02  0.10727585730E+03  0.00000000000E+00 0.  1.
         13    1    4    4    0    0 -0.92333886176E+02 -0.41841999741E+02 -0.11857351253E+03  0.15599992741E+03  0.00000000000E+00 0. -1.
         21    1    1    2  502  501 -0.39302461783E+02 -0.32543701220E+00  0.10731362429E+02  0.40742503004E+02  0.00000000000E+00 0. -1.
<scales pt_clust_5="13000.00000" pt_clust_6="13000.00000" pt_clust_7="13000.00000" pt_clust_8="13000.00000" pt_clust_9="39.30381"></scales>
<clustering>
<clus scale="   39.304">  1  9  2 -1</clus>
<clus scale="   89.675">  7  8 -1 -1</clus>
<clus scale="   90.516">  5  6 -1 -1</clus>
<clus scale="  184.561">  2  7  1 -1</clus>
<clus scale="  184.561">  2  5  1 -1</clus>
</clustering>
</event>
<event>
 9    1  0.1434065E-005  0.1250444E+03  0.7546771E-02  0.1236679E+00
         -2   -1    0    0    0  501 -0.00000000000E+00  0.00000000000E+00  0.40799151573E+03  0.40799151573E+03  0.00000000000E+00 0.  1.
          2   -1    0    0  502    0  0.00000000000E+00 -0.00000000000E+00 -0.79891412145E+02  0.79891412145E+02  0.00000000000E+00 0. -1.
         23    2    1    2    0    0 -0.86888599987E+02 -0.20705429609E+02  0.31457321416E+03  0.33991495163E+03  0.92776740906E+02 0.  0.
         23    2    1    2    0    0  0.55876623275E+02  0.14781713620E+02 -0.14867181020E+02  0.10550556525E+03  0.87003994976E+02 0.  0.
        -11    1    3    3    0    0 -0.90549099856E+02  0.70919146904E+01  0.28517925722E+03  0.29929357409E+03  0.00000000000E+00 0.  1.
         11    1    3    3    0    0  0.36604998697E+01 -0.27797344299E+02  0.29393956939E+02  0.40621377548E+02  0.00000000000E+00 0. -1.
        -13    1    4    4    0    0  0.55020937361E+02  0.45279196159E+02 -0.21204728032E+02  0.74344802399E+02  0.00000000000E+00 0. -1.
         13    1    4    4    0    0  0.85568591404E+00 -0.30497482538E+02  0.63375470123E+01  0.31160762855E+02  0.00000000000E+00 0.  1.
         21    1    1    2  502  501  0.31011976712E+02  0.59237159885E+01  0.28394070447E+02  0.42462410991E+02  0.00000000000E+00 0.  1.
<scales pt_clust_5="13000.00000" pt_clust_6="13000.00000" pt_clust_7="13000.00000" pt_clust_8="13000.00000" pt_clust_9="31.57266"></scales>
<clustering>
<clus scale="   31.573">  2  9  1 -1</clus>
<clus scale="   87.004">  7  8 -1 -1</clus>
<clus scale="   92.777">  5  6 -1 -1</clus>
<clus scale="  120.823">  2  7  1 -1</clus>
<clus scale="   31.573">  2  5  1 -1</clus>
</clustering>
</event>
<event>
 9    1  0.1434065E-005  0.1143352E+03  0.7546771E-02  0.1254499E+00
         -3   -1    0    0    0  501 -0.00000000000E+00  0.00000000000E+00  0.56976276385E+02  0.56976276385E+02  0.00000000000E+00 0.  1.
          3   -1    0    0  502    0  0.00000000000E+00 -0.00000000000E+00 -0.36808885404E+03  0.36808885404E+03  0.00000000000E+00 0. -1.
         23    2    1    2    0    0 -0.78646080916E+02  0.12428168966E+01 -0.10024367967E+03  0.15843908842E+03  0.94166866721E+02 0.  0.
         23    2    1    2    0    0  0.55573555464E+02  0.24018468847E+02 -0.20531594589E+03  0.23196613339E+03  0.89377527883E+02 0.  0.
        -13    1    3    3    0    0 -0.87737584501E+02  0.22644043350E+02 -0.10032349255E+03  0.13518668422E+03  0.00000000000E+00 0.  1.
         13    1    3    3    0    0  0.90915035854E+01 -0.21401226453E+02  0.79812872515E-01  0.23252404203E+02  0.00000000000E+00 0. -1.
        -13    1    4    4    0    0  0.26169407438E+02 -0.26614052965E+02 -0.32467642394E+02  0.49470127386E+02  0.00000000000E+00 0.  1.
         13    1    4    4    0    0  0.29404148025E+02  0.50632521812E+02 -0.17284830350E+03  0.18249600600E+03  0.00000000000E+00 0. -1.
         21    1    1    2  502  501  0.23072525452E+02 -0.25261285744E+02 -0.55529520920E+01  0.34659908614E+02  0.00000000000E+00 0.  1.
<scales pt_clust_5="13000.00000" pt_clust_6="13000.00000" pt_clust_7="13000.00000" pt_clust_8="13000.00000" pt_clust_9="34.21219"></scales>
<clustering>
<clus scale="   34.212">  1  9  2 -1</clus>
<clus scale="   89.378">  7  8 -1 -1</clus>
<clus scale="   94.167">  5  6 -1 -1</clus>
<clus scale="  110.424">  2  7  1 -1</clus>
<clus scale="  110.424">  2  5  1 -1</clus>
</clustering>
</event>
<event>
 9    1  0.1434065E-005  0.1174066E+03  0.7546771E-02  0.1248140E+00
         -2   -1    0    0    0  501 -0.00000000000E+00  0.00000000000E+00  0.28743383182E+03  0.28743383182E+03  0.00000000000E+00 0.  1.
          2   -1    0    0  502    0  0.00000000000E+00 -0.00000000000E+00 -0.24002617798E+03  0.24002617798E+03  0.00000000000E+00 0. -1.
         23    2    1    2    0    0  0.32554188456E+02  0.44758152376E+02  0.12303593802E+03  0.16200800913E+03  0.89697745718E+02 0.  0.
         23    2    1    2    0    0 -0.16823398949E+02 -0.73787653791E+02 -0.20221982171E+03  0.23462544732E+03  0.91807405102E+02 0.  0.
        -11    1    3    3    0    0  0.13440507609E+02  0.23107277629E+02 -0.79396592803E+01  0.27886048729E+02  0.00000000000E+00 0. -1.
         11    1    3    3    0    0  0.19113680847E+02  0.21650874748E+02  0.13097559730E+03  0.13412196040E+03  0.00000000000E+00 0.  1.
        -11    1    4    4    0    0  0.21890077754E+02 -0.11691050278E+02 -0.64710580928E+01  0.25646261979E+02  0.00000000000E+00 0.  1.
         11    1    4    4    0    0 -0.38713476703E+02 -0.62096603514E+02 -0.19574876362E+03  0.20897918534E+03  0.00000000000E+00 0. -1.
         21    1    1    2  502  501 -0.15730789507E+02  0.29029501415E+02  0.12659153752E+03  0.13082655335E+03  0.00000000000E+00 0.  1.
<scales pt_clust_5="13000.00000" pt_clust_6="13000.00000" pt_clust_7="13000.00000" pt_clust_8="13000.00000" pt_clust_9="33.01772"></scales>
<clustering>
<clus scale="   33.018">  1  9  2 -1</clus>
<clus scale="   89.698">  5  6 -1 -1</clus>
<clus scale="   91.807">  7  8 -1 -1</clus>
<clus scale="  115.764">  1  5  2 -1</clus>
<clus scale="  117.407">  2  5  1 -1</clus>
</clustering>
</event>
<event>
 9    1  0.1434065E-005  0.1379583E+03  0.7546771E-02  0.1216345E+00
          1   -1    0    0  502    0  0.00000000000E+00  0.00000000000E+00  0.27219903744E+03  0.27219903744E+03  0.00000000000E+00 0. -1.
         -1   -1    0    0    0  501 -0.00000000000E+00 -0.00000000000E+00 -0.94906384648E+02  0.94906384648E+02  0.00000000000E+00 0.  1.
         23    2    1    2    0    0 -0.27262831846E+02  0.10636914596E+03  0.51259371619E+02  0.15069996479E+03  0.89584033156E+02 0.  0.
         23    2    1    2    0    0  0.53921393845E+02 -0.86916933545E+02  0.12190918552E+03  0.18314774150E+03  0.90659669369E+02 0.  0.
        -11    1    3    3    0    0 -0.39901293786E+02  0.61914358201E+02  0.69255838199E+02  0.10110327454E+03  0.00000000000E+00 0.  1.
         11    1    3    3    0    0  0.12638461940E+02  0.44454787754E+02 -0.17996466580E+02  0.49596690251E+02  0.00000000000E+00 0. -1.
        -13    1    4    4    0    0  0.42478309670E+02 -0.22826276998E+02  0.10551318201E+03  0.11601067749E+03  0.00000000000E+00 0. -1.
         13    1    4    4    0    0  0.11443084174E+02 -0.64090656547E+02  0.16396003508E+02  0.67137064004E+02  0.00000000000E+00 0.  1.
         21    1    1    2  502  501 -0.26658561998E+02 -0.19452212410E+02  0.41240956493E+01  0.33257715802E+02  0.00000000000E+00 0. -1.
<scales pt_clust_5="13000.00000" pt_clust_6="13000.00000" pt_clust_7="13000.00000" pt_clust_8="13000.00000" pt_clust_9="33.00102"></scales>
<clustering>
<clus scale="   33.001">  2  9  1 -1</clus>
<clus scale="   89.584">  5  6 -1 -1</clus>
<clus scale="   90.660">  7  8 -1 -1</clus>
<clus scale="  137.254">  2  5  1 -1</clus>
<clus scale="  137.958">  1  5  2 -1</clus>
</clustering>
</event>
<event>
 9    1  0.1434065E-005  0.9565779E+02  0.7546771E-02  0.1291298E+00
          1   -1    0    0  502    0  0.00000000000E+00  0.00000000000E+00  0.14757464497E+03  0.14757464497E+03  0.00000000000E+00 0. -1.
         -1   -1    0    0    0  501 -0.00000000000E+00 -0.00000000000E+00 -0.81084194660E+02  0.81084194660E+02  0.00000000000E+00 0.  1.
         23    2    1    2    0    0  0.67501822862E+01  0.62915965254E+01  0.28128301065E+02  0.97822261984E+02  0.93235424979E+02 0.  0.
         23    2    1    2    0    0 -0.31461548674E+02 -0.96641111887E+01  0.43232857236E+02  0.10542498028E+03  0.90344465426E+02 0.  0.
        -11    1    4    4    0    0  0.50486696299E+01  0.33031723651E+02  0.35440461920E+02  0.48709446451E+02  0.00000000000E+00 0.  1.
         11    1    4    4    0    0 -0.36510218304E+02 -0.42695834840E+02  0.77923953159E+01  0.56715533834E+02  0.00000000000E+00 0. -1.
        -13    1    3    3    0    0 -0.14353092740E+02  0.28527887565E+02  0.50584099065E+02  0.59821423574E+02  0.00000000000E+00 0. -1.
         13    1    3    3    0    0  0.21103275027E+02 -0.22236291039E+02 -0.22455798000E+02  0.38000838410E+02  0.00000000000E+00 0.  1.
         21    1    1    2  502  501  0.24711366387E+02  0.33725146632E+01 -0.48707079954E+01  0.25411597358E+02  0.00000000000E+00 0.  1.
<scales pt_clust_5="13000.00000" pt_clust_6="13000.00000" pt_clust_7="13000.00000" pt_clust_8="13000.00000" pt_clust_9="24.94044"></scales>
<clustering>
<clus scale="   24.940">  2  9  1 -1</clus>
<clus scale="   90.344">  5  6 -1 -1</clus>
<clus scale="   92.842">  1  5  2 -1</clus>
<clus scale="   93.235">  7  8 -1 -1</clus>
<clus scale="   92.842">  1  5  2 -1</clus>
</clustering>
</event>
<event>
 9    1  0.1434065E-005  0.1032132E+03  0.7546771E-02  0.1273774E+00
         -2   -1    0    0    0  501 -0.00000000000E+00  0.00000000000E+00  0.25332053158E+02  0.25332053158E+02  0.00000000000E+00 0.  1.
          2   -1    0    0  502    0  0.00000000000E+00 -0.00000000000E+00 -0.60142803199E+03  0.60142803199E+03  0.00000000000E+00 0. -1.
         23    2    1    2    0    0  0.64424877579E+02 -0.13986969643E+02 -0.22559120837E+03  0.25218941652E+03  0.91443470729E+02 0.  0.
         23    2    1    2    0    0 -0.37335988188E+02 -0.35386815028E+01 -0.28421376128E+03  0.30084513524E+03  0.91235053634E+02 0.  0.
        -13    1    3    3    0    0  0.37565461024E+02  0.20743520702E+02 -0.19246161255E+03  0.19718754985E+03  0.00000000000E+00 0. -1.
         13    1    3    3    0    0  0.26859416554E+02 -0.34730490345E+02 -0.33129595826E+02  0.55001866667E+02  0.00000000000E+00 0.  1.
        -13    1    4    4    0    0  0.28641010331E+02  0.11670734000E+02 -0.87402726178E+02  0.92713267919E+02  0.00000000000E+00 0. -1.
         13    1    4    4    0    0 -0.65976998519E+02 -0.15209415503E+02 -0.19681103510E+03  0.20813186732E+03  0.00000000000E+00 0.  1.
         21    1    1    2  502  501 -0.27088889391E+02  0.17525651146E+02 -0.66291009177E+02  0.73725533394E+02  0.00000000000E+00 0.  1.
<scales pt_clust_5="13000.00000" pt_clust_6="13000.00000" pt_clust_7="13000.00000" pt_clust_8="13000.00000" pt_clust_9="32.26386"></scales>
<clustering>
<clus scale="   32.264">  1  9  2 -1</clus>
<clus scale="   91.235">  7  8 -1 -1</clus>
<clus scale="   91.443">  5  6 -1 -1</clus>
<clus scale="  103.029">  2  7  1 -1</clus>
<clus scale="  103.029">  2  5  1 -1</clus>
</clustering>
</event>
<event>
 9    1  0.1434065E-005  0.1082180E+03  0.7546771E-02  0.1267229E+00
          1   -1    0    0  502    0  0.00000000000E+00  0.00000000000E+00  0.65568589296E+03  0.65568589296E+03  0.00000000000E+00 0. -1.
         -1   -1    0    0    0  501 -0.00000000000E+00 -0.00000000000E+00 -0.43165583040E+02  0.43165583040E+02  0.00000000000E+00 0.  1.
         23    2    1    2    0    0  0.27624080767E+02 -0.36015111382E+02  0.28912754532E+03  0.30717118346E+03  0.93269611329E+02 0.  0.
         23    2    1    2    0    0 -0.40481205412E+02  0.57428033823E+01  0.33849581772E+03  0.35548885019E+03  0.10060415601E+03 0.  0.
        -11    1    4    4    0    0 -0.46621831117E+02  0.47366776781E+02  0.20154758189E+03  0.21222307708E+03  0.00000000000E+00 0.  1.
         11    1    4    4    0    0  0.61406257050E+01 -0.41623973399E+02  0.13694823583E+03  0.14326577310E+03  0.00000000000E+00 0. -1.
        -13    1    3    3    0    0 -0.30019014152E+02 -0.34532472681E+02  0.13979028224E+03  0.14708825884E+03  0.00000000000E+00 0. -1.
         13    1    3    3    0    0  0.57643094919E+02 -0.14826387007E+01  0.14933726308E+03  0.16008292461E+03  0.00000000000E+00 0.  1.
         21    1    1    2  502  501  0.12857124645E+02  0.30272308000E+02 -0.15103053129E+02  0.36191442353E+02  0.00000000000E+00 0.  1.
<scales pt_clust_5="13000.00000" pt_clust_6="13000.00000" pt_clust_7="13000.00000" pt_clust_8="13000.00000" pt_clust_9="32.88949"></scales>
<clustering>
<clus scale="   32.889">  2  9  1 -1</clus>
<clus scale="   93.270">  7  8 -1 -1</clus>
<clus scale="  100.604">  5  6 -1 -1</clus>
<clus scale="  101.435">  2  7  1 -1</clus>
<clus scale="  108.218">  1  5  2 -1</clus>
</clustering>
</event>
<event>
 9    1  0.1434065E-005  0.9451756E+02  0.7546771E-02  0.1293824E+00
          4   -1    0    0  502    0  0.00000000000E+00  0.00000000000E+00  0.15724071711E+03  0.15724071711E+03  0.00000000000E+00 0. -1.
         -4   -1    0    0    0  501 -0.00000000000E+00 -0.00000000000E+00 -0.77459454573E+02  0.77459454573E+02  0.00000000000E+00 0.  1.
         23    2    1    2    0    0  0.21252021954E+02 -0.13226789427E+02  0.34662253403E+02  0.10084477440E+03  0.91332361833E+02 0.  0.
         23    2    1    2    0    0  0.73245762510E+01 -0.33616064877E+00  0.35487115686E+02  0.10078956974E+03  0.94050197061E+02 0.  0.
        -11    1    3    3    0    0  0.45149703915E+01 -0.32244530531E+02  0.57926374738E+02  0.66449677178E+02  0.00000000000E+00 0. -1.
         11    1    3    3    0    0  0.16737051562E+02  0.19017741104E+02 -0.23264121335E+02  0.34395097226E+02  0.00000000000E+00 0.  1.
        -13    1    4    4    0    0 -0.37267775029E+02  0.22743077644E+02  0.21505121446E+02  0.48668314998E+02  0.00000000000E+00 0.  1.
         13    1    4    4    0    0  0.44592351280E+02 -0.23079238293E+02  0.13981994240E+02  0.52121254741E+02  0.00000000000E+00 0. -1.
         21    1    1    2  502  501 -0.28576598205E+02  0.13562950076E+02  0.96318934520E+01  0.33065827544E+02  0.00000000000E+00 0. -1.
<scales pt_clust_5="13000.00000" pt_clust_6="13000.00000" pt_clust_7="13000.00000" pt_clust_8="13000.00000" pt_clust_9="31.63188"></scales>
<clustering>
<clus scale="   31.632">  2  9  1 -1</clus>
<clus scale="   91.332">  5  6 -1 -1</clus>
<clus scale="   91.814">  2  5  1 -1</clus>
<clus scale="   94.050">  7  8 -1 -1</clus>
<clus scale="   94.518">  1  5  2 -1</clus>
</clustering>
</event>
<event>
 9    1  0.1434065E-005  0.1266180E+03  0.7546771E-02  0.1232854E+00
          2   -1    0    0  502    0  0.00000000000E+00  0.00000000000E+00  0.23774990937E+03  0.23774990937E+03  0.00000000000E+00 0. -1.
         -2   -1    0    0    0  501 -0.00000000000E+00 -0.00000000000E+00 -0.11223852172E+03  0.11223852172E+03  0.00000000000E+00 0.  1.
         23    2    1    2    0    0 -0.15345683328E+02  0.10316411392E+03  0.22971083739E+01  0.13797941237E+03  0.90303472431E+02 0.  0.
         23    2    1    2    0    0  0.26157323090E+02 -0.77947909057E+02  0.13462766357E+03  0.18229346921E+03  0.91357643580E+02 0.  0.
        -11    1    4    4    0    0 -0.34356533081E+02 -0.24921222561E+02  0.47250219303E+02  0.63513950621E+02  0.00000000000E+00 0.  1.
         11    1    4    4    0    0  0.60513856172E+02 -0.53026686496E+02  0.87377444266E+02  0.11877951859E+03  0.00000000000E+00 0. -1.
        -13    1    3    3    0    0 -0.46214998742E+02  0.60158614960E+02  0.25704791535E+02  0.80097574061E+02  0.00000000000E+00 0.  1.
         13    1    3    3    0    0  0.30869315414E+02  0.43005498958E+02 -0.23407683161E+02  0.57881838307E+02  0.00000000000E+00 0. -1.
         21    1    1    2  502  501 -0.10811639763E+02 -0.25216204861E+02 -0.11413384294E+02  0.29715549515E+02  0.00000000000E+00 0.  1.
<scales pt_clust_5="13000.00000" pt_clust_6="13000.00000" pt_clust_7="13000.00000" pt_clust_8="13000.00000" pt_clust_9="27.43626"></scales>
<clustering>
<clus scale="   27.436">  2  9  1 -1</clus>
<clus scale="   90.303">  7  8 -1 -1</clus>
<clus scale="   91.358">  5  6 -1 -1</clus>
<clus scale="  125.860">  2  7  1 -1</clus>
<clus scale="  126.618">  1  5  2 -1</clus>
</clustering>
</event>
<event>
 9    1  0.1434065E-005  0.9519272E+02  0.7546771E-02  0.1291036E+00
         -1   -1    0    0    0  501 -0.00000000000E+00  0.00000000000E+00  0.15986117022E+03  0.15986117022E+03  0.00000000000E+00 0.  1.
          1   -1    0    0  502    0  0.00000000000E+00 -0.00000000000E+00 -0.15196657935E+03  0.15196657935E+03  0.00000000000E+00 0. -1.
         23    2    1    2    0    0  0.13748928503E+02  0.30141235517E+02  0.13659731741E+02  0.96533657386E+02  0.89636106696E+02 0.  0.
         23    2    1    2    0    0  0.19833180506E+02 -0.28077361264E+02 -0.85381177803E+02  0.12886070188E+03  0.90185595863E+02 0.  0.
        -11    1    3    3    0    0  0.32559952689E+01  0.61020547161E+02 -0.17399169710E+00  0.61107601444E+02  0.00000000000E+00 0.  1.
         11    1    3    3    0    0  0.10492933234E+02 -0.30879311644E+02  0.13833723438E+02  0.35426055942E+02  0.00000000000E+00 0. -1.
        -11    1    4    4    0    0  0.50729320889E+02 -0.19250784838E+02 -0.79412213527E+02  0.96178772980E+02  0.00000000000E+00 0. -1.
         11    1    4    4    0    0 -0.30896140383E+02 -0.88265764256E+01 -0.59689642760E+01  0.32681928898E+02  0.00000000000E+00 0.  1.
         21    1    1    2  502  501 -0.33582109009E+02 -0.20638742533E+01  0.79616036929E+02  0.86433390300E+02  0.00000000000E+00 0.  1.
<scales pt_clust_5="13000.00000" pt_clust_6="13000.00000" pt_clust_7="13000.00000" pt_clust_8="13000.00000" pt_clust_9="33.64547"></scales>
<clustering>
<clus scale="   33.645">  1  9  2 -1</clus>
<clus scale="   89.636">  5  6 -1 -1</clus>
<clus scale="   90.186">  7  8 -1 -1</clus>
<clus scale="   94.672">  1  5  2 -1</clus>
<clus scale="   95.193">  2  5  1 -1</clus>
</clustering>
</event>
<event>
 9    1  0.1434065E-005  0.1134853E+03  0.7546771E-02  0.1256552E+00
         -4   -1    0    0    0  501 -0.00000000000E+00  0.00000000000E+00  0.70849075574E+02  0.70849075574E+02  0.00000000000E+00 0.  1.
          4   -1    0    0  502    0  0.00000000000E+00 -0.00000000000E+00 -0.30715972054E+03  0.30715972054E+03  0.00000000000E+00 0. -1.
         23    2    1    2    0    0  0.45995319941E+02  0.15043554061E+02 -0.76688393481E+01  0.10058030432E+03  0.87839106010E+02 0.  0.
         23    2    1    2    0    0 -0.66295436163E+02 -0.15690029280E+02 -0.22939572371E+03  0.25710409657E+03  0.94015193146E+02 0.  0.
        -11    1    4    4    0    0 -0.21217387376E+02  0.17842440385E+02 -0.82362016245E+01  0.28919979654E+02  0.00000000000E+00 0.  1.
         11    1    4    4    0    0 -0.45078048786E+02 -0.33532469665E+02 -0.22115952209E+03  0.22818411692E+03  0.00000000000E+00 0. -1.
        -11    1    3    3    0    0  0.68361953018E+01 -0.31964586760E+02 -0.19787220691E+02  0.38209978744E+02  0.00000000000E+00 0. -1.
         11    1    3    3    0    0  0.39159124639E+02  0.47008140821E+02  0.12118381343E+02  0.62370325575E+02  0.00000000000E+00 0.  1.
         21    1    1    2  502  501  0.20300116222E+02  0.64647521829E+00  0.75391809005E+00  0.20324395226E+02  0.00000000000E+00 0.  1.
<scales pt_clust_5="13000.00000" pt_clust_6="13000.00000" pt_clust_7="13000.00000" pt_clust_8="13000.00000" pt_clust_9="20.31041"></scales>
<clustering>
<clus scale="   20.310">  1  9  2 -1</clus>
<clus scale="   87.839">  7  8 -1 -1</clus>
<clus scale="   94.015">  5  6 -1 -1</clus>
<clus scale="  108.424">  1  7  2 -1</clus>
<clus scale="  113.485">  2  5  1 -1</clus>
</clustering>
</event>
<event>
 9    1  0.1434065E-005  0.1210892E+03  0.7546771E-02  0.1241417E+00
         -2   -1    0    0    0  501 -0.00000000000E+00  0.00000000000E+00  0.70246134870E+03  0.70246134870E+03  0.00000000000E+00 0.  1.
          2   -1    0    0  502    0  0.00000000000E+00 -0.00000000000E+00 -0.10813086410E+03  0.10813086410E+03  0.00000000000E+00 0. -1.
         23    2    1    2    0    0  0.24166744405E+02  0.42086304946E+02  0.30252969788E+03  0.31977317728E+03  0.91517092457E+02 0.  0.
         23    2    1    2    0    0 -0.68768611271E+02 -0.47716534853E+02 -0.59027123527E+02  0.13712248673E+03  0.91172284493E+02 0.  0.
        -11    1    3    3    0    0  0.10788814320E+02  0.60625647129E+02  0.28325214418E+03  0.28986832319E+03  0.00000000000E+00 0.  1.
         11    1    3    3    0    0  0.13377930085E+02 -0.18539342182E+02  0.19277553698E+02  0.29904854096E+02  0.00000000000E+00 0. -1.
        -13    1    4    4    0    0 -0.50242027821E+02 -0.11389348730E+02 -0.76930633232E+02  0.92586721259E+02  0.00000000000E+00 0. -1.
         13    1    4    4    0    0 -0.18526583450E+02 -0.36327186123E+02  0.17903509705E+02  0.44535765467E+02  0.00000000000E+00 0.  1.
         21    1    1    2  502  501  0.44601866866E+02  0.56302299065E+01  0.35082791025E+03  0.35369654879E+03  0.00000000000E+00 0.  1.
<scales pt_clust_5="13000.00000" pt_clust_6="13000.00000" pt_clust_7="13000.00000" pt_clust_8="13000.00000" pt_clust_9="44.95582"></scales>
<clustering>
<clus scale="   44.956">  1  9  2 -1</clus>
<clus scale="   91.172">  7  8 -1 -1</clus>
<clus scale="   91.517">  5  6 -1 -1</clus>
<clus scale="  120.829">  2  7  1 -1</clus>
<clus scale="  120.829">  2  5  1 -1</clus>
</clustering>
</event>
<event>
 9    1  0.1434065E-005  0.1072740E+03  0.7546771E-02  0.1266491E+00
         -1   -1    0    0    0  501 -0.00000000000E+00  0.00000000000E+00  0.24584578795E+03  0.24584578795E+03  0.00000000000E+00 0.  1.
          1   -1    0    0  502    0  0.00000000000E+00 -0.00000000000E+00 -0.14760490899E+03  0.14760490899E+03  0.00000000000E+00 0. -1.
         23    2    1    2    0    0 -0.19194455100E+02  0.51862333993E+02  0.19117012456E+03  0.21934867895E+03  0.92248022422E+02 0.  0.
         23    2    1    2    0    0  0.42370710893E+02 -0.36903004056E+02 -0.99583926155E+02  0.14572588086E+03  0.90343594987E+02 0.  0.
        -11    1    3    3    0    0 -0.27522568095E+02 -0.10475841150E+02  0.12351235531E+03  0.12697455224E+03  0.00000000000E+00 0.  1.
         11    1    3    3    0    0  0.83281129958E+01  0.62338175143E+02  0.67657769250E+02  0.92374126714E+02  0.00000000000E+00 0. -1.
        -11    1    4    4    0    0  0.28886279792E+02  0.61395240842E+01  0.66868063280E+01  0.30279106577E+02  0.00000000000E+00 0.  1.
         11    1    4    4    0    0  0.13484431101E+02 -0.43042528140E+02 -0.10627073248E+03  0.11544677429E+03  0.00000000000E+00 0. -1.
         21    1    1    2  502  501 -0.23176255793E+02 -0.14959329937E+02  0.66546805579E+01  0.28376137124E+02  0.00000000000E+00 0.  1.
<scales pt_clust_5="13000.00000" pt_clust_6="13000.00000" pt_clust_7="13000.00000" pt_clust_8="13000.00000" pt_clust_9="27.58479"></scales>
<clustering>
<clus scale="   27.585">  2  9  1 -1</clus>
<clus scale="   90.344">  7  8 -1 -1</clus>
<clus scale="   92.248">  5  6 -1 -1</clus>
<clus scale="  105.641">  2  7  1 -1</clus>
<clus scale="   27.585">  2  5  1 -1</clus>
</clustering>
</event>
<event>
 9    1  0.1434065E-005  0.1358948E+03  0.7546771E-02  0.1219912E+00
          1   -1    0    0  502    0  0.00000000000E+00  0.00000000000E+00  0.53706532556E+03  0.53706532556E+03  0.00000000000E+00 0. -1.
         -1   -1    0    0    0  501 -0.00000000000E+00 -0.00000000000E+00 -0.30194758079E+03  0.30194758079E+03  0.00000000000E+00 0.  1.
         23    2    1    2    0    0  0.11087400023E+03  0.14058365848E+03 -0.16403395623E+03  0.25815846877E+03  0.87646147883E+02 0.  0.
         23    2    1    2    0    0 -0.82735170149E+02 -0.50977576395E+02  0.45320792407E+03  0.47248876517E+03  0.91675455295E+02 0.  0.
        -13    1    4    4    0    0 -0.47462387418E+02  0.22049733211E+02  0.18927629269E+03  0.19637816561E+03  0.00000000000E+00 0.  1.
         13    1    4    4    0    0 -0.35272782731E+02 -0.73027309606E+02  0.26393163138E+03  0.27611059956E+03  0.00000000000E+00 0. -1.
        -13    1    3    3    0    0  0.61851457705E+02  0.82374222782E+02 -0.35820982532E+02  0.10906080042E+03  0.00000000000E+00 0.  1.
         13    1    3    3    0    0  0.49022542527E+02  0.58209435698E+02 -0.12821297370E+03  0.14909766834E+03  0.00000000000E+00 0. -1.
         21    1    1    2  502  501 -0.28138830083E+02 -0.89606082085E+02 -0.54056223057E+02  0.10836567241E+03  0.00000000000E+00 0.  1.
<scales pt_clust_5="13000.00000" pt_clust_6="13000.00000" pt_clust_7="13000.00000" pt_clust_8="13000.00000" pt_clust_9="93.92041"></scales>
<clustering>
<clus scale="   87.646">  7  8 -1 -1</clus>
<clus scale="   91.675">  5  6 -1 -1</clus>
<clus scale="   93.920">  2  9  1 -1</clus>
<clus scale="  133.210">  2  7  1 -1</clus>
<clus scale="  135.895">  1  5  2 -1</clus>
</clustering>
</event>
<event>
 9    1  0.1434065E-005  0.1221377E+03  0.7546771E-02  0.1240581E+00
         -2   -1    0    0    0  501 -0.00000000000E+00  0.00000000000E+00  0.22832201793E+03  0.22832201793E+03  0.00000000000E+00 0.  1.
          2   -1    0    0  502    0  0.00000000000E+00 -0.00000000000E+00 -0.14145229512E+03  0.14145229512E+03  0.00000000000E+00 0. -1.
         23    2    1    2    0    0  0.10374805950E+03 -0.89969602099E+01  0.81688086529E+02  0.15992820441E+03  0.89774617469E+02 0.  0.
         23    2    1    2    0    0 -0.72023966647E+02  0.27433663557E+01 -0.63705449731E+02  0.13374777672E+03  0.92925269009E+02 0.  0.
        -11    1    3    3    0    0  0.58116307069E+02  0.79667001101E+01  0.92994378412E+02  0.10994966064E+03  0.00000000000E+00 0.  1.
         11    1    3    3    0    0  0.45631752430E+02 -0.16963660320E+02 -0.11306291884E+02  0.49978543770E+02  0.00000000000E+00 0. -1.
        -13    1    4    4    0    0  0.78962391923E+01  0.27460038909E+02 -0.35271555487E+02  0.45392587024E+02  0.00000000000E+00 0.  1.
         13    1    4    4    0    0 -0.79920205839E+02 -0.24716672553E+02 -0.28433894244E+02  0.88355189691E+02  0.00000000000E+00 0. -1.
         21    1    1    2  502  501 -0.31724092851E+02  0.62535938542E+01  0.68887086015E+02  0.76098331932E+02  0.00000000000E+00 0.  1.
<scales pt_clust_5="13000.00000" pt_clust_6="13000.00000" pt_clust_7="13000.00000" pt_clust_8="13000.00000" pt_clust_9="32.33459"></scales>
<clustering>
<clus scale="   32.335">  1  9  2 -1</clus>
<clus scale="   89.775">  5  6 -1 -1</clus>
<clus scale="   92.925">  7  8 -1 -1</clus>
<clus scale="  119.758">  1  5  2 -1</clus>
<clus scale="  122.138">  2  5  1 -1</clus>
</clustering>
</event>
<event>
 9    1  0.1434065E-005  0.1009180E+03  0.7546771E-02  0.1286301E+00
          1   -1    0    0  502    0  0.00000000000E+00  0.00000000000E+00  0.60777364654E+03  0.60777364654E+03  0.00000000000E+00 0. -1.
         -1   -1    0    0    0  501 -0.00000000000E+00 -0.00000000000E+00 -0.38613319960E+02  0.38613319960E+02  0.00000000000E+00 0.  1.
         23    2    1    2    0    0  0.62142925956E+01 -0.31154473495E+02  0.15438713951E+03  0.18469801552E+03  0.96274344670E+02 0.  0.
         23    2    1    2    0    0  0.15005353730E+02  0.27703116599E+02  0.42775900832E+03  0.43657288425E+03  0.81397117581E+02 0.  0.
        -11    1    3    3    0    0  0.44839477977E+02 -0.34222748865E+02  0.12119231753E+03  0.13367629990E+03  0.00000000000E+00 0. -1.
         11    1    3    3    0    0 -0.38625185381E+02  0.30682753705E+01  0.33194821974E+02  0.51021715625E+02  0.00000000000E+00 0.  1.
        -13    1    4    4    0    0  0.28989149744E+02 -0.21183070115E+02  0.15379910286E+03  0.15793434491E+03  0.00000000000E+00 0. -1.
         13    1    4    4    0    0 -0.13983796015E+02  0.48886186714E+02  0.27395990546E+03  0.27863853933E+03  0.00000000000E+00 0.  1.
         21    1    1    2  502  501 -0.21219646325E+02  0.34513568958E+01 -0.12985821247E+02  0.25116066731E+02  0.00000000000E+00 0.  1.
<scales pt_clust_5="13000.00000" pt_clust_6="13000.00000" pt_clust_7="13000.00000" pt_clust_8="13000.00000" pt_clust_9="21.49849"></scales>
<clustering>
<clus scale="   21.498">  2  9  1 -1</clus>
<clus scale="   81.397">  7  8 -1 -1</clus>
<clus scale="   86.840">  1  7  2 -1</clus>
<clus scale="   96.274">  5  6 -1 -1</clus>
<clus scale="   86.840">  1  5  2 -1</clus>
</clustering>
</event>
<event>
 9    1  0.1434065E-005  0.1120122E+03  0.7546771E-02  0.1258504E+00
          1   -1    0    0  502    0  0.00000000000E+00  0.00000000000E+00  0.13201013034E+03  0.13201013034E+03  0.00000000000E+00 0. -1.
         -1   -1    0    0    0  501 -0.00000000000E+00 -0.00000000000E+00 -0.22200153954E+03  0.22200153954E+03  0.00000000000E+00 0.  1.
         23    2    1    2    0    0  0.88895188403E+02 -0.43912994779E+02 -0.83847831303E+02  0.16001287476E+03  0.93503773415E+02 0.  0.
         23    2    1    2    0    0 -0.51612963533E+02  0.99124943902E+01  0.52916172471E+02  0.11631963168E+03  0.89263541585E+02 0.  0.
        -13    1    4    4    0    0 -0.12948555921E+02 -0.21713650241E+02  0.60710170720E+02  0.65763763093E+02  0.00000000000E+00 0. -1.
         13    1    4    4    0    0 -0.38664407612E+02  0.31626144631E+02 -0.77939982492E+01  0.50555868591E+02  0.00000000000E+00 0.  1.
        -13    1    3    3    0    0  0.68341380739E+02 -0.59148212799E+02 -0.21912329631E+02  0.93001105308E+02  0.00000000000E+00 0. -1.
         13    1    3    3    0    0  0.20553807664E+02  0.15235218020E+02 -0.61935501672E+02  0.67011769451E+02  0.00000000000E+00 0.  1.
         21    1    1    2  502  501 -0.37282224870E+02  0.34000500389E+02 -0.59059750367E+02  0.77679163431E+02  0.00000000000E+00 0.  1.
<scales pt_clust_5="13000.00000" pt_clust_6="13000.00000" pt_clust_7="13000.00000" pt_clust_8="13000.00000" pt_clust_9="50.45789"></scales>
<clustering>
<clus scale="   50.458">  2  9  1 -1</clus>
<clus scale="   89.264">  5  6 -1 -1</clus>
<clus scale="   93.504">  7  8 -1 -1</clus>
<clus scale="  108.498">  1  5  2 -1</clus>
<clus scale="  108.498">  1  5  2 -1</clus>
</clustering>
</event>
<event>
 9    1  0.1434065E-005  0.9948970E+02  0.7546771E-02  0.1282589E+00
         -1   -1    0    0    0  501 -0.00000000000E+00  0.00000000000E+00  0.28918564106E+03  0.28918564106E+03  0.00000000000E+00 0.  1.
          1   -1    0    0  502    0  0.00000000000E+00 -0.00000000000E+00 -0.71374098734E+02  0.71374098734E+02  0.00000000000E+00 0. -1.
         23    2    1    2    0    0  0.25529118892E+02  0.29424131973E+02  0.18577125320E+03  0.21163683296E+03  0.93603819886E+02 0.  0.
         23    2    1    2    0    0 -0.33757693782E+02 -0.54041728633E+01 -0.11963889554E+02  0.98119013067E+02  0.91188919821E+02 0.  0.
        -13    1    3    3    0    0  0.59891702479E+02  0.11982201138E+02  0.13238176518E+03  0.14579273275E+03  0.00000000000E+00 0.  1.
         13    1    3    3    0    0 -0.34362583587E+02  0.17441930834E+02  0.53389488018E+02  0.65844100213E+02  0.00000000000E+00 0. -1.
        -13    1    4    4    0    0 -0.47740926587E+02  0.31950960194E+02 -0.86695333416E+01  0.58096649965E+02  0.00000000000E+00 0.  1.
         13    1    4    4    0    0  0.13983232805E+02 -0.37355133057E+02 -0.32943562127E+01  0.40022363102E+02  0.00000000000E+00 0. -1.
         21    1    1    2  502  501  0.82285748904E+01 -0.24019959109E+02  0.44004178682E+02  0.50803893766E+02  0.00000000000E+00 0.  1.
<scales pt_clust_5="13000.00000" pt_clust_6="13000.00000" pt_clust_7="13000.00000" pt_clust_8="13000.00000" pt_clust_9="25.39031"></scales>
<clustering>
<clus scale="   25.390">  1  9  2 -1</clus>
<clus scale="   91.189">  7  8 -1 -1</clus>
<clus scale="   93.604">  5  6 -1 -1</clus>
<clus scale="   97.221">  2  7  1 -1</clus>
<clus scale="   97.221">  2  5  1 -1</clus>
</clustering>
</event>
<event>
 9    1  0.1434065E-005  0.9362935E+02  0.7546771E-02  0.1294541E+00
         -1   -1    0    0    0  501 -0.00000000000E+00  0.00000000000E+00  0.21478074256E+03  0.21478074256E+03  0.00000000000E+00 0.  1.
          1   -1    0    0  502    0  0.00000000000E+00 -0.00000000000E+00 -0.53526165060E+02  0.53526165060E+02  0.00000000000E+00 0. -1.
         23    2    1    2    0    0 -0.12695782776E+01 -0.28441817990E+01  0.94525107611E+02  0.13189363146E+03  0.91930587140E+02 0.  0.
         23    2    1    2    0    0  0.22110667670E+02  0.91411007597E+01  0.44444076116E+02  0.10525816468E+03  0.92366465681E+02 0.  0.
        -11    1    3    3    0    0  0.28068071215E+02 -0.25888794426E+02  0.85310651034E+02  0.93466322697E+02  0.00000000000E+00 0. -1.
         11    1    3    3    0    0 -0.29337649492E+02  0.23044612627E+02  0.92144565771E+01  0.38427308765E+02  0.00000000000E+00 0.  1.
        -13    1    4    4    0    0 -0.24108170587E+02  0.19231695951E+02 -0.10662745573E+02  0.32630601609E+02  0.00000000000E+00 0. -1.
         13    1    4    4    0    0  0.46218838257E+02 -0.10090595191E+02  0.55106821689E+02  0.72627563073E+02  0.00000000000E+00 0.  1.
         21    1    1    2  502  501 -0.20841089393E+02 -0.62969189608E+01  0.22285393769E+02  0.31155111473E+02  0.00000000000E+00 0. -1.
<scales pt_clust_5="13000.00000" pt_clust_6="13000.00000" pt_clust_7="13000.00000" pt_clust_8="13000.00000" pt_clust_9="21.77159"></scales>
<clustering>
<clus scale="   21.772">  1  9  2 -1</clus>
<clus scale="   91.931">  5  6 -1 -1</clus>
<clus scale="   92.366">  7  8 -1 -1</clus>
<clus scale="   93.199">  1  5  2 -1</clus>
<clus scale="   93.629">  2  5  1 -1</clus>
</clustering>
</event>
<event>
 9    1  0.1434065E-005  0.1761522E+03  0.7546771E-02  0.1171966E+00
          1   -1    0    0  502    0  0.00000000000E+00  0.00000000000E+00  0.10167911495E+04  0.10167911495E+04  0.00000000000E+00 0. -1.
         -1   -1    0    0    0  501 -0.00000000000E+00 -0.00000000000E+00 -0.48070921989E+02  0.48070921989E+02  0.00000000000E+00 0.  1.
         23    2    1    2    0    0  0.73730429813E+02  0.11099021239E+03  0.15864975653E+03  0.22685966155E+03  0.92415135474E+02 0.  0.
         23    2    1    2    0    0 -0.73769144409E+02 -0.13646939230E+03  0.76977261508E+03  0.79032529490E+03  0.89433836616E+02 0.  0.
        -11    1    4    4    0    0 -0.21905281737E+02  0.44495804974E+00  0.36433004551E+02  0.42513564615E+02  0.00000000000E+00 0.  1.
         11    1    4    4    0    0 -0.51863862672E+02 -0.13691435035E+03  0.73333961053E+03  0.74781173029E+03  0.00000000000E+00 0. -1.
        -13    1    3    3    0    0  0.73320371830E+02  0.76426510385E+02  0.58672964548E+02  0.12107603059E+03  0.00000000000E+00 0. -1.
         13    1    3    3    0    0  0.41005798314E+00  0.34563702010E+02  0.99976791983E+02  0.10578363096E+03  0.00000000000E+00 0.  1.
         21    1    1    2  502  501  0.38714595717E-01  0.25479179910E+02  0.40297855886E+02  0.47677115021E+02  0.00000000000E+00 0. -1.
<scales pt_clust_5="13000.00000" pt_clust_6="13000.00000" pt_clust_7="13000.00000" pt_clust_8="13000.00000" pt_clust_9="25.47921"></scales>
<clustering>
<clus scale="   25.479">  2  9  1 -1</clus>
<clus scale="   89.434">  5  6 -1 -1</clus>
<clus scale="   92.415">  7  8 -1 -1</clus>
<clus scale="  174.607">  1  5  2 -1</clus>
<clus scale="  174.607">  1  5  2 -1</clus>
</clustering>
</event>
<event>
 9    1  0.1434065E-005  0.1520964E+03  0.7546771E-02  0.1200058E+00
          3   -1    0    0  502    0  0.00000000000E+00  0.00000000000E+00  0.25860712529E+03  0.25860712529E+03  0.00000000000E+00 0. -1.
         -3   -1    0    0    0  501 -0.00000000000E+00 -0.00000000000E+00 -0.18600802220E+03  0.18600802220E+03  0.00000000000E+00 0.  1.
         23    2    1    2    0    0  0.52953993527E+02 -0.91447303041E+02 -0.10578132764E+03  0.16954110383E+03  0.79923475562E+02 0.  0.
         23    2    1    2    0    0 -0.75127281125E+02  0.99160684627E+02  0.19307279362E+03  0.24737898154E+03  0.91882028318E+02 0.  0.
        -13    1    3    3    0    0  0.47794737686E+01 -0.74248176247E+02 -0.88339062411E+02  0.11549642849E+03  0.00000000000E+00 0.  1.
         13    1    3    3    0    0  0.48174519758E+02 -0.17199126794E+02 -0.17442265229E+02  0.54044675341E+02  0.00000000000E+00 0. -1.
        -13    1    4    4    0    0 -0.93597589804E+02  0.65732647970E+02  0.12579310332E+03  0.17001527775E+03  0.00000000000E+00 0.  1.
         13    1    4    4    0    0  0.18470308679E+02  0.33428036658E+02  0.67279690295E+02  0.77363703787E+02  0.00000000000E+00 0. -1.
         21    1    1    2  502  501  0.22173287599E+02 -0.77133815858E+01 -0.14692362889E+02  0.27695062117E+02  0.00000000000E+00 0.  1.
<scales pt_clust_5="13000.00000" pt_clust_6="13000.00000" pt_clust_7="13000.00000" pt_clust_8="13000.00000" pt_clust_9="23.47660"></scales>
<clustering>
<clus scale="   23.477">  2  9  1 -1</clus>
<clus scale="   79.923">  5  6 -1 -1</clus>
<clus scale="   91.882">  7  8 -1 -1</clus>
<clus scale="  145.185">  2  5  1 -1</clus>
<clus scale="  152.096">  1  5  2 -1</clus>
</clustering>
</event>
<event>
 9    1  0.1434065E-005  0.1595457E+03  0.7546771E-02  0.1189531E+00
          1   -1    0    0  502    0  0.00000000000E+00  0.00000000000E+00  0.28968640451E+03  0.28968640451E+03  0.00000000000E+00 0. -1.
         -1   -1    0    0    0  501 -0.00000000000E+00 -0.00000000000E+00 -0.24040597303E+03  0.24040597303E+03  0.00000000000E+00 0.  1.
         23    2    1    2    0    0 -0.14556451710E+03 -0.27839759288E+02 -0.13159559283E+03  0.21906050358E+03  0.93306073450E+02 0.  0.
         23    2    1    2    0    0  0.12699951746E+03  0.10487699638E+00  0.21328335633E+03  0.26451179146E+03  0.91366346635E+02 0.  0.
        -11    1    3    3    0    0 -0.65181736563E+02 -0.54983830370E+02 -0.91970452251E+02  0.12542106869E+03  0.00000000000E+00 0.  1.
         11    1    3    3    0    0 -0.80382780536E+02  0.27144071082E+02 -0.39625140575E+02  0.93639434893E+02  0.00000000000E+00 0. -1.
        -11    1    4    4    0    0  0.46470823562E+02 -0.25962450421E+02  0.26538547447E+02  0.59480087214E+02  0.00000000000E+00 0.  1.
         11    1    4    4    0    0  0.80528693900E+02  0.26067327417E+02  0.18674480888E+03  0.20503170424E+03  0.00000000000E+00 0. -1.
         21    1    1    2  502  501  0.18564999637E+02  0.27734882292E+02 -0.32407332029E+02  0.46520082508E+02  0.00000000000E+00 0.  1.
<scales pt_clust_5="13000.00000" pt_clust_6="13000.00000" pt_clust_7="13000.00000" pt_clust_8="13000.00000" pt_clust_9="33.37488"></scales>
<clustering>
<clus scale="   33.375">  2  9  1 -1</clus>
<clus scale="   91.366">  7  8 -1 -1</clus>
<clus scale="   93.306">  5  6 -1 -1</clus>
<clus scale="  158.419">  1  7  2 -1</clus>
<clus scale="  158.419">  1  5  2 -1</clus>
</clustering>
</event>
<event>
 9    1  0.1434065E-005  0.1129560E+03  0.7546771E-02  0.1266503E+00
          1   -1    0    0  502    0  0.00000000000E+00  0.00000000000E+00  0.46649379154E+03  0.46649379154E+03  0.00000000000E+00 0. -1.
         -1   -1    0    0    0  501 -0.00000000000E+00 -0.00000000000E+00 -0.87026398741E+02  0.87026398741E+02  0.00000000000E+00 0.  1.
         23    2    1    2    0    0  0.67929046124E+01 -0.67027744933E+02 -0.95469322187E+01  0.10703778980E+03  0.82626160431E+02 0.  0.
         23    2    1    2    0    0  0.18004573982E+02 -0.30233347274E+02  0.29644115942E+03  0.30993780706E+03  0.83341845890E+02 0.  0.
        -11    1    4    4    0    0  0.35531609191E+02  0.17012757677E+02  0.14914762742E+03  0.15426258114E+03  0.00000000000E+00 0. -1.
         11    1    4    4    0    0 -0.17527035210E+02 -0.47246104951E+02  0.14729353201E+03  0.15567522593E+03  0.00000000000E+00 0.  1.
        -13    1    3    3    0    0  0.39584367362E+02 -0.14231119925E+02  0.71845454820E+01  0.42673933584E+02  0.00000000000E+00 0.  1.
         13    1    3    3    0    0 -0.32791462750E+02 -0.52796625008E+02 -0.16731477701E+02  0.64363856220E+02  0.00000000000E+00 0. -1.
         21    1    1    2  502  501 -0.24797478594E+02  0.97261092206E+02  0.92573165593E+02  0.13654459341E+03  0.00000000000E+00 0.  1.
<scales pt_clust_5="13000.00000" pt_clust_6="13000.00000" pt_clust_7="13000.00000" pt_clust_8="13000.00000" pt_clust_9="77.01936"></scales>
<clustering>
<clus scale="   82.626">  7  8 -1 -1</clus>
<clus scale="   83.342">  5  6 -1 -1</clus>
<clus scale="   90.466">  1  5  2 -1</clus>
<clus scale="   77.019">  1  9  2 -1</clus>
<clus scale="   90.466">  1  5  2 -1</clus>
</clustering>
</event>
<event>
 9    1  0.1434065E-005  0.9475352E+02  0.7546771E-02  0.1291962E+00
         -2   -1    0    0    0  501 -0.00000000000E+00  0.00000000000E+00  0.27236738730E+03  0.27236738730E+03  0.00000000000E+00 0. -1.
          2   -1    0    0  502    0  0.00000000000E+00 -0.00000000000E+00 -0.60198301677E+02  0.60198301677E+02  0.00000000000E+00 0.  1.
         23    2    1    2    0    0  0.22052617635E+02  0.10391543197E+02  0.15824561265E+03  0.18442249222E+03  0.91518739067E+02 0.  0.
         23    2    1    2    0    0 -0.14584668765E+02  0.24990134288E+02  0.19743887998E+02  0.98385007569E+02  0.91937855241E+02 0.  0.
        -11    1    4    4    0    0 -0.24102046131E+02 -0.31168194954E+02  0.91620610551E+01  0.40451308596E+02  0.00000000000E+00 0. -1.
         11    1    4    4    0    0  0.95173773661E+01  0.56158329242E+02  0.10581826943E+02  0.57933698973E+02  0.00000000000E+00 0.  1.
        -13    1    3    3    0    0  0.51983543342E+02  0.20287468158E+02  0.13232533059E+03  0.14361010848E+03  0.00000000000E+00 0.  1.
         13    1    3    3    0    0 -0.29930925707E+02 -0.98959249609E+01  0.25920282060E+02  0.40812383741E+02  0.00000000000E+00 0. -1.
         21    1    1    2  502  501 -0.74679488702E+01 -0.35381677486E+02  0.34179584977E+02  0.49758189187E+02  0.00000000000E+00 0. -1.
<scales pt_clust_5="13000.00000" pt_clust_6="13000.00000" pt_clust_7="13000.00000" pt_clust_8="13000.00000" pt_clust_9="36.16121"></scales>
<clustering>
<clus scale="   36.161">  1  9  2 -1</clus>
<clus scale="   91.519">  7  8 -1 -1</clus>
<clus scale="   91.938">  5  6 -1 -1</clus>
<clus scale="   94.347">  1  7  2 -1</clus>
<clus scale="   94.754">  2  5  1 -1</clus>
</clustering>
</event>
<event>
 9    1  0.1434065E-005  0.1114127E+03  0.7546771E-02  0.1258721E+00
         -2   -1    0    0    0  501 -0.00000000000E+00  0.00000000000E+00  0.25068399356E+03  0.25068399356E+03  0.00000000000E+00 0.  1.
          2   -1    0    0  502    0  0.00000000000E+00 -0.00000000000E+00 -0.27499074398E+03  0.27499074398E+03  0.00000000000E+00 0. -1.
         23    2    1    2    0    0  0.38317203016E+01 -0.52249320931E+02  0.92157644523E+02  0.13902319541E+03  0.89943003062E+02 0.  0.
         23    2    1    2    0    0  0.13474600017E+02  0.62890217471E+02 -0.23816629033E+03  0.26326560798E+03  0.91917648976E+02 0.  0.
        -11    1    3    3    0    0 -0.35517770526E+02  0.58634499374E-01  0.49385902207E+02  0.60831593749E+02  0.00000000000E+00 0.  1.
         11    1    3    3    0    0  0.39349490828E+02 -0.52307955430E+02  0.42771742316E+02  0.78191601662E+02  0.00000000000E+00 0. -1.
        -13    1    4    4    0    0  0.28834715143E+02  0.39921984194E+02 -0.22887667436E+03  0.23411479596E+03  0.00000000000E+00 0. -1.
         13    1    4    4    0    0 -0.15360115125E+02  0.22968233278E+02 -0.92896159732E+01  0.29150812021E+02  0.00000000000E+00 0.  1.
         21    1    1    2  502  501 -0.17306320319E+02 -0.10640896541E+02  0.12170189539E+03  0.12338593414E+03  0.00000000000E+00 0.  1.
<scales pt_clust_5="13000.00000" pt_clust_6="13000.00000" pt_clust_7="13000.00000" pt_clust_8="13000.00000" pt_clust_9="20.31594"></scales>
<clustering>
<clus scale="   20.316">  1  9  2 -1</clus>
<clus scale="   89.943">  5  6 -1 -1</clus>
<clus scale="   91.918">  7  8 -1 -1</clus>
<clus scale="  109.789">  1  5  2 -1</clus>
<clus scale="  111.413">  2  5  1 -1</clus>
</clustering>
</event>
<event>
 9    1  0.1434065E-005  0.1130518E+03  0.7546771E-02  0.1256693E+00
          1   -1    0    0  502    0  0.00000000000E+00  0.00000000000E+00  0.90882578686E+03  0.90882578686E+03  0.00000000000E+00 0. -1.
         -1   -1    0    0    0  501 -0.00000000000E+00 -0.00000000000E+00 -0.18544194902E+02  0.18544194902E+02  0.00000000000E+00 0.  1.
         23    2    1    2    0    0 -0.11160449694E+02  0.69632186720E+02  0.41178170973E+03  0.42824164673E+03  0.94093222148E+02 0.  0.
         23    2    1    2    0    0  0.22718303372E+02 -0.52997038394E+02  0.45826714887E+03  0.47049835703E+03  0.89638813303E+02 0.  0.
        -13    1    4    4    0    0 -0.31555337431E+02 -0.13240322045E+01  0.12867173368E+03  0.13249115982E+03  0.00000000000E+00 0.  1.
         13    1    4    4    0    0  0.54273640803E+02 -0.51673006190E+02  0.32959541519E+03  0.33800719721E+03  0.00000000000E+00 0. -1.
        -13    1    3    3    0    0 -0.44061693800E+02  0.31590799376E+02  0.11391817957E+03  0.12616165464E+03  0.00000000000E+00 0.  1.
         13    1    3    3    0    0  0.32901244106E+02  0.38041387344E+02  0.29786353017E+03  0.30207999209E+03  0.00000000000E+00 0. -1.
         21    1    1    2  502  501 -0.11557853678E+02 -0.16635148326E+02  0.20232733352E+02  0.28629978002E+02  0.00000000000E+00 0.  1.
<scales pt_clust_5="13000.00000" pt_clust_6="13000.00000" pt_clust_7="13000.00000" pt_clust_8="13000.00000" pt_clust_9="20.25616"></scales>
<clustering>
<clus scale="   20.256">  2  9  1 -1</clus>
<clus scale="   89.639">  5  6 -1 -1</clus>
<clus scale="   94.093">  7  8 -1 -1</clus>
<clus scale="  109.372">  1  5  2 -1</clus>
<clus scale="  109.372">  1  5  2 -1</clus>
</clustering>
</event>
<event>
 9    1  0.1434065E-005  0.1230688E+03  0.7546771E-02  0.1238600E+00
         -2   -1    0    0    0  501 -0.00000000000E+00  0.00000000000E+00  0.82048191610E+02  0.82048191610E+02  0.00000000000E+00 0.  1.
          2   -1    0    0  502    0  0.00000000000E+00 -0.00000000000E+00 -0.53906787591E+03  0.53906787591E+03  0.00000000000E+00 0. -1.
         23    2    1    2    0    0 -0.10404113472E+03 -0.62071018300E+01 -0.15335164289E+03  0.20626517582E+03  0.90363214610E+02 0.  0.
         23    2    1    2    0    0  0.40193106461E+02  0.77774194374E+02 -0.29177466454E+03  0.31820787922E+03  0.91975477224E+02 0.  0.
        -11    1    3    3    0    0 -0.65774032104E+02 -0.47837561100E+02 -0.93618925633E+02  0.12401273639E+03  0.00000000000E+00 0. -1.
         11    1    3    3    0    0 -0.38267102613E+02  0.41630459270E+02 -0.59732717254E+02  0.82252439429E+02  0.00000000000E+00 0.  1.
        -13    1    4    4    0    0  0.17776391855E+02  0.87263262149E+02 -0.27388213860E+03  0.28799705358E+03  0.00000000000E+00 0.  1.
         13    1    4    4    0    0  0.22416714606E+02 -0.94890677750E+01 -0.17892525941E+02  0.30210825634E+02  0.00000000000E+00 0. -1.
         21    1    1    2  502  501  0.63848028256E+02 -0.71567092544E+02 -0.11893376868E+02  0.96643012477E+02  0.00000000000E+00 0. -1.
<scales pt_clust_5="13000.00000" pt_clust_6="13000.00000" pt_clust_7="13000.00000" pt_clust_8="13000.00000" pt_clust_9="95.90839"></scales>
<clustering>
<clus scale="   90.363">  5  6 -1 -1</clus>
<clus scale="   91.975">  7  8 -1 -1</clus>
<clus scale="   95.908">  1  9  2 -1</clus>
<clus scale="  121.869">  1  5  2 -1</clus>
<clus scale="  123.069">  2  5  1 -1</clus>
</clustering>
</event>
<event>
 9    1  0.1434065E-005  0.1077813E+03  0.7546771E-02  0.1268348E+00
          2   -1    0    0  502    0  0.00000000000E+00  0.00000000000E+00  0.84899352694E+02  0.84899352694E+02  0.00000000000E+00 0.  1.
         -2   -1    0    0    0  501 -0.00000000000E+00 -0.00000000000E+00 -0.24109829004E+03  0.24109829004E+03  0.00000000000E+00 0. -1.
         23    2    1    2    0    0 -0.26608073046E+02 -0.38805787786E+02 -0.28668938705E+02  0.10952727619E+03  0.94659587287E+02 0.  0.
         23    2    1    2    0    0  0.47351643146E+02  0.32145858896E+02 -0.18324031230E+02  0.10511241366E+03  0.86239869156E+02 0.  0.
        -11    1    3    3    0    0 -0.60271422968E+02 -0.24966651765E+02 -0.36093660601E+01  0.65337628135E+02  0.00000000000E+00 0. -1.
         11    1    3    3    0    0  0.33663349921E+02 -0.13839136021E+02 -0.25059572645E+02  0.44189648051E+02  0.00000000000E+00 0.  1.
        -13    1    4    4    0    0  0.20944781443E+02  0.59527717425E+02 -0.50923402400E+00  0.63106991141E+02  0.00000000000E+00 0.  1.
         13    1    4    4    0    0  0.26406861703E+02 -0.27381858529E+02 -0.17814797206E+02  0.42005422519E+02  0.00000000000E+00 0. -1.
         21    1    1    2  502  501 -0.20743570100E+02  0.66599288897E+01 -0.10920596741E+03  0.11135795289E+03  0.00000000000E+00 0. -1.
<scales pt_clust_5="13000.00000" pt_clust_6="13000.00000" pt_clust_7="13000.00000" pt_clust_8="13000.00000" pt_clust_9="21.78647"></scales>
<clustering>
<clus scale="   21.786">  2  9  1 -1</clus>
<clus scale="   86.240">  7  8 -1 -1</clus>
<clus scale="   94.660">  5  6 -1 -1</clus>
<clus scale="  100.467">  1  7  2 -1</clus>
<clus scale="  100.467">  1  5  2 -1</clus>
</clustering>
</event>
<event>
 9    1  0.1434065E-005  0.1566743E+03  0.7546771E-02  0.1192610E+00
          1   -1    0    0  502    0  0.00000000000E+00  0.00000000000E+00  0.16756499372E+03  0.16756499372E+03  0.00000000000E+00 0. -1.
         -1   -1    0    0    0  501 -0.00000000000E+00 -0.00000000000E+00 -0.37311289015E+03  0.37311289015E+03  0.00000000000E+00 0.  1.
         23    2    1    2    0    0 -0.57664909943E+01  0.14787614073E+03 -0.24913397337E+03  0.30349058046E+03  0.90211918966E+02 0.  0.
         23    2    1    2    0    0  0.28269842937E+01 -0.48351331491E+02  0.80821036372E+02  0.13088457270E+03  0.90845409099E+02 0.  0.
        -11    1    4    4    0    0  0.41226190927E+02 -0.47812824809E+02  0.60480323832E+02  0.87427310409E+02  0.00000000000E+00 0. -1.
         11    1    4    4    0    0 -0.38399206633E+02 -0.53850668225E+00  0.20340712539E+02  0.43457262294E+02  0.00000000000E+00 0.  1.
        -13    1    3    3    0    0 -0.16279496552E+02  0.71217879149E+02 -0.46530534511E+02  0.86614657884E+02  0.00000000000E+00 0. -1.
         13    1    3    3    0    0  0.10513005557E+02  0.76658261579E+02 -0.20260343886E+03  0.21687592257E+03  0.00000000000E+00 0.  1.
         21    1    1    2  502  501  0.29395067006E+01 -0.99524809237E+02 -0.37234959426E+02  0.10630273071E+03  0.00000000000E+00 0. -1.
<scales pt_clust_5="13000.00000" pt_clust_6="13000.00000" pt_clust_7="13000.00000" pt_clust_8="13000.00000" pt_clust_9="99.56821"></scales>
<clustering>
<clus scale="   90.212">  7  8 -1 -1</clus>
<clus scale="   90.845">  5  6 -1 -1</clus>
<clus scale="   99.568">  1  9  2 -1</clus>
<clus scale="  156.308">  2  7  1 -1</clus>
<clus scale="   99.568">  1  5  2 -1</clus>
</clustering>
</event>
<event>
 9    1  0.1434065E-005  0.1176336E+03  0.7546771E-02  0.1247646E+00
          1   -1    0    0  502    0  0.00000000000E+00  0.00000000000E+00  0.81507440277E+02  0.81507440277E+02  0.00000000000E+00 0. -1.
         -1   -1    0    0    0  501 -0.00000000000E+00 -0.00000000000E+00 -0.32202277838E+03  0.32202277838E+03  0.00000000000E+00 0.  1.
         23    2    1    2    0    0 -0.80152860365E+02 -0.73492762357E+01 -0.84433898024E+02  0.15203215535E+03  0.97499744821E+02 0.  0.
         23    2    1    2    0    0  0.56484042328E+02  0.11541534784E+02 -0.20356600424E+02  0.11366113038E+03  0.95816529446E+02 0.  0.
        -11    1    3    3    0    0 -0.26983980837E+02 -0.49608297784E+02 -0.24909047032E+02  0.61721787522E+02  0.00000000000E+00 0.  1.
         11    1    3    3    0    0 -0.53168879528E+02  0.42259021548E+02 -0.59524850992E+02  0.90310367832E+02  0.00000000000E+00 0. -1.
        -13    1    4    4    0    0  0.44738805853E+02  0.52014260180E+02 -0.20194626643E+02  0.71518298053E+02  0.00000000000E+00 0. -1.
         13    1    4    4    0    0  0.11745236475E+02 -0.40472725396E+02 -0.16197378017E+00  0.42142832325E+02  0.00000000000E+00 0.  1.
         21    1    1    2  502  501  0.23668818037E+02 -0.41922585482E+01 -0.13572483965E+03  0.13783693292E+03  0.00000000000E+00 0.  1.
<scales pt_clust_5="13000.00000" pt_clust_6="13000.00000" pt_clust_7="13000.00000" pt_clust_8="13000.00000" pt_clust_9="24.03722"></scales>
<clustering>
<clus scale="   24.037">  2  9  1 -1</clus>
<clus scale="   95.817">  7  8 -1 -1</clus>
<clus scale="   97.500">  5  6 -1 -1</clus>
<clus scale="  116.242">  1  7  2 -1</clus>
<clus scale="  116.242">  1  5  2 -1</clus>
</clustering>
</event>
<event>
 9    1  0.1434065E-005  0.9973355E+02  0.7546771E-02  0.1282406E+00
          2   -1    0    0  502    0  0.00000000000E+00  0.00000000000E+00  0.12484602900E+03  0.12484602900E+03  0.00000000000E+00 0. -1.
         -2   -1    0    0    0  501 -0.00000000000E+00 -0.00000000000E+00 -0.20808000795E+03  0.20808000795E+03  0.00000000000E+00 0.  1.
         23    2    1    2    0    0 -0.16056959626E+02  0.20276749976E+02 -0.71277840808E+02  0.12177786680E+03  0.95290847983E+02 0.  0.
         23    2    1    2    0    0 -0.13572941782E+02 -0.30574483220E+02  0.71871966591E+02  0.12164327917E+03  0.92263123803E+02 0.  0.
        -11    1    4    4    0    0 -0.16349479791E+02 -0.63119233353E+02  0.43525318940E+02  0.78395130572E+02  0.00000000000E+00 0.  1.
         11    1    4    4    0    0  0.27765380086E+01  0.32544750133E+02  0.28346647651E+02  0.43248148603E+02  0.00000000000E+00 0. -1.
        -11    1    3    3    0    0  0.22432269480E+02 -0.25636030028E+02 -0.87295991190E+01  0.35165589010E+02  0.00000000000E+00 0.  1.
         11    1    3    3    0    0 -0.38489229107E+02  0.45912780005E+02 -0.62548241689E+02  0.86612277786E+02  0.00000000000E+00 0. -1.
         21    1    1    2  502  501  0.29629901409E+02  0.10297733244E+02 -0.83828104730E+02  0.89504890984E+02  0.00000000000E+00 0.  1.
<scales pt_clust_5="13000.00000" pt_clust_6="13000.00000" pt_clust_7="13000.00000" pt_clust_8="13000.00000" pt_clust_9="31.36837"></scales>
<clustering>
<clus scale="   31.368">  2  9  1 -1</clus>
<clus scale="   92.263">  5  6 -1 -1</clus>
<clus scale="   95.291">  7  8 -1 -1</clus>
<clus scale="   96.845">  1  5  2 -1</clus>
<clus scale="   96.845">  1  5  2 -1</clus>
</clustering>
</event>
<event>
 9    1  0.1434065E-005  0.1292542E+03  0.7546771E-02  0.1230820E+00
         -2   -1    0    0    0  501 -0.00000000000E+00  0.00000000000E+00  0.44342836978E+03  0.44342836978E+03  0.00000000000E+00 0.  1.
          2   -1    0    0  502    0  0.00000000000E+00 -0.00000000000E+00 -0.43450303585E+02  0.43450303585E+02  0.00000000000E+00 0. -1.
         23    2    1    2    0    0  0.67514772535E+02 -0.56190030990E+02  0.19770119577E+03  0.23604920399E+03  0.94434632435E+02 0.  0.
         23    2    1    2    0    0 -0.81762341540E+02  0.37655031825E+02  0.16420353698E+03  0.20615153146E+03  0.86212936675E+02 0.  0.
        -11    1    4    4    0    0  0.57681571452E+01  0.23296144248E+02  0.59360154333E+01  0.24722828578E+02  0.00000000000E+00 0.  1.
         11    1    4    4    0    0 -0.87530498685E+02  0.14358887577E+02  0.15826752154E+03  0.18142870288E+03  0.00000000000E+00 0. -1.
        -11    1    3    3    0    0  0.83220012902E+02 -0.18343628508E+02  0.10914635613E+03  0.13847377481E+03  0.00000000000E+00 0.  1.
         11    1    3    3    0    0 -0.15705240367E+02 -0.37846402482E+02  0.88554839647E+02  0.97575429185E+02  0.00000000000E+00 0. -1.
         21    1    1    2  502  501  0.14247569005E+02  0.18534999165E+02  0.38073333443E+02  0.44677937912E+02  0.00000000000E+00 0.  1.
<scales pt_clust_5="13000.00000" pt_clust_6="13000.00000" pt_clust_7="13000.00000" pt_clust_8="13000.00000" pt_clust_9="23.37818"></scales>
<clustering>
<clus scale="   23.378">  1  9  2 -1</clus>
<clus scale="   86.213">  5  6 -1 -1</clus>
<clus scale="   94.435">  7  8 -1 -1</clus>
<clus scale="  123.375">  2  5  1 -1</clus>
<clus scale="  123.375">  2  5  1 -1</clus>
</clustering>
</event>
<event>
 9    1  0.1434065E-005  0.9251355E+02  0.7546771E-02  0.1296979E+00
          2   -1    0    0  502    0  0.00000000000E+00  0.00000000000E+00  0.31795392405E+03  0.31795392405E+03  0.00000000000E+00 0. -1.
         -2   -1    0    0    0  501 -0.00000000000E+00 -0.00000000000E+00 -0.44103722730E+02  0.44103722730E+02  0.00000000000E+00 0.  1.
         23    2    1    2    0    0  0.13661310366E+02 -0.22060451340E+02  0.12133541761E+03  0.15377468875E+03  0.90835435925E+02 0.  0.
         23    2    1    2    0    0 -0.14367944613E+02 -0.13055224279E+01  0.15921999631E+03  0.18396366656E+03  0.91013631759E+02 0.  0.
        -11    1    4    4    0    0 -0.20554800156E+02 -0.42164841772E+02  0.11071157716E+03  0.12023904112E+03  0.00000000000E+00 0. -1.
         11    1    4    4    0    0  0.61868555435E+01  0.40859319344E+02  0.48508419147E+02  0.63724625436E+02  0.00000000000E+00 0.  1.
        -13    1    3    3    0    0  0.31612332254E+02  0.21559694041E+02  0.88163134647E+02  0.96108783513E+02  0.00000000000E+00 0.  1.
         13    1    3    3    0    0 -0.17951021888E+02 -0.43620145380E+02  0.33172282960E+02  0.57665905235E+02  0.00000000000E+00 0. -1.
         21    1    1    2  502  501  0.70663424626E+00  0.23365973768E+02 -0.67052125949E+01  0.24319291478E+02  0.00000000000E+00 0. -1.
<scales pt_clust_5="13000.00000" pt_clust_6="13000.00000" pt_clust_7="13000.00000" pt_clust_8="13000.00000" pt_clust_9="23.37666"></scales>
<clustering>
<clus scale="   23.377">  2  9  1 -1</clus>
<clus scale="   90.835">  7  8 -1 -1</clus>
<clus scale="   91.014">  5  6 -1 -1</clus>
<clus scale="   92.338">  2  7  1 -1</clus>
<clus scale="   92.514">  1  5  2 -1</clus>
</clustering>
</event>
<event>
 9    1  0.1434065E-005  0.1068701E+03  0.7546771E-02  0.1266726E+00
         -1   -1    0    0    0  501 -0.00000000000E+00  0.00000000000E+00  0.96962187890E+02  0.96962187890E+02  0.00000000000E+00 0.  1.
          1   -1    0    0  502    0  0.00000000000E+00 -0.00000000000E+00 -0.23453733063E+03  0.23453733063E+03  0.00000000000E+00 0. -1.
         23    2    1    2    0    0 -0.43368841137E+02  0.56039026958E+02 -0.51171442477E+02  0.12630650682E+03  0.91178880317E+02 0.  0.
         23    2    1    2    0    0  0.41106006457E+02 -0.27137996155E+02 -0.12170997503E+03  0.15951015890E+03  0.90575924885E+02 0.  0.
        -11    1    3    3    0    0 -0.29213742873E+02  0.14674062457E+02  0.23164468287E+02  0.40066987317E+02  0.00000000000E+00 0.  1.
         11    1    3    3    0    0 -0.14155098263E+02  0.41364964501E+02 -0.74335910763E+02  0.86239519503E+02  0.00000000000E+00 0. -1.
        -13    1    4    4    0    0  0.55102923596E+02 -0.21713811492E+01 -0.28641951005E+02  0.62140232075E+02  0.00000000000E+00 0. -1.
         13    1    4    4    0    0 -0.13996917139E+02 -0.24966615006E+02 -0.93068024026E+02  0.97369926827E+02  0.00000000000E+00 0.  1.
         21    1    1    2  502  501  0.22628346797E+01 -0.28901030803E+02  0.35306274765E+02  0.45682852801E+02  0.00000000000E+00 0.  1.
<scales pt_clust_5="13000.00000" pt_clust_6="13000.00000" pt_clust_7="13000.00000" pt_clust_8="13000.00000" pt_clust_9="28.98948"></scales>
<clustering>
<clus scale="   28.989">  1  9  2 -1</clus>
<clus scale="   90.576">  7  8 -1 -1</clus>
<clus scale="   91.179">  5  6 -1 -1</clus>
<clus scale="  106.356">  2  7  1 -1</clus>
<clus scale="  106.356">  2  5  1 -1</clus>
</clustering>
</event>
<event>
 9    1  0.1434065E-005  0.1171187E+03  0.7546771E-02  0.1248521E+00
         -1   -1    0    0    0  501 -0.00000000000E+00  0.00000000000E+00  0.69485478746E+02  0.69485478746E+02  0.00000000000E+00 0.  1.
          1   -1    0    0  502    0  0.00000000000E+00 -0.00000000000E+00 -0.46262996896E+03  0.46262996896E+03  0.00000000000E+00 0. -1.
         23    2    1    2    0    0  0.26776095690E+02 -0.81165175189E+02 -0.18252705551E+02  0.12441925532E+03  0.88556450194E+02 0.  0.
         23    2    1    2    0    0 -0.62777453870E+01  0.75253625037E+02 -0.36757717922E+03  0.38514331578E+03  0.86717200375E+02 0.  0.
        -11    1    4    4    0    0  0.34409300551E+02  0.67671422223E+01 -0.12459474895E+03  0.12943587464E+03  0.00000000000E+00 0.  1.
         11    1    4    4    0    0 -0.40687045938E+02  0.68486482814E+02 -0.24298243027E+03  0.25570744114E+03  0.00000000000E+00 0. -1.
        -11    1    3    3    0    0  0.54442136006E+02 -0.40478920416E+02  0.85710283472E+01  0.68380930806E+02  0.00000000000E+00 0.  1.
         11    1    3    3    0    0 -0.27666040317E+02 -0.40686254773E+02 -0.26823733898E+02  0.56038324515E+02  0.00000000000E+00 0. -1.
         21    1    1    2  502  501 -0.20498350303E+02  0.59115501523E+01 -0.73146054480E+01  0.22552876606E+02  0.00000000000E+00 0.  1.
<scales pt_clust_5="13000.00000" pt_clust_6="13000.00000" pt_clust_7="13000.00000" pt_clust_8="13000.00000" pt_clust_9="21.33375"></scales>
<clustering>
<clus scale="   21.334">  1  9  2 -1</clus>
<clus scale="   86.717">  5  6 -1 -1</clus>
<clus scale="   88.556">  7  8 -1 -1</clus>
<clus scale="  115.734">  2  5  1 -1</clus>
<clus scale="  115.734">  2  5  1 -1</clus>
</clustering>
</event>
<event>
 9    1  0.1434065E-005  0.9153364E+02  0.7546771E-02  0.1301159E+00
         -1   -1    0    0    0  501 -0.00000000000E+00  0.00000000000E+00  0.31117846672E+03  0.31117846672E+03  0.00000000000E+00 0.  1.
          1   -1    0    0  502    0  0.00000000000E+00 -0.00000000000E+00 -0.40579365695E+02  0.40579365695E+02  0.00000000000E+00 0. -1.
         23    2    1    2    0    0 -0.19251033251E+02  0.12373061492E+02  0.13317547432E+03  0.16206326919E+03  0.89471231835E+02 0.  0.
         23    2    1    2    0    0 -0.18835661532E+01 -0.21840400583E+02  0.55981741191E+02  0.10502412850E+03  0.86113653398E+02 0.  0.
        -11    1    4    4    0    0  0.21744724883E+02 -0.48282881224E+02  0.28325249151E+02  0.60053221554E+02  0.00000000000E+00 0. -1.
         11    1    4    4    0    0 -0.23628291036E+02  0.26442480640E+02  0.27656492040E+02  0.44970906948E+02  0.00000000000E+00 0.  1.
        -13    1    3    3    0    0 -0.46260238490E+02  0.29848546969E+02  0.10796684755E+03  0.12119317469E+03  0.00000000000E+00 0.  1.
         13    1    3    3    0    0  0.27009205240E+02 -0.17475485477E+02  0.25208626772E+02  0.40870094495E+02  0.00000000000E+00 0. -1.
         21    1    1    2  502  501  0.21134599404E+02  0.94673390918E+01  0.81441885512E+02  0.84670434729E+02  0.00000000000E+00 0.  1.
<scales pt_clust_5="13000.00000" pt_clust_6="13000.00000" pt_clust_7="13000.00000" pt_clust_8="13000.00000" pt_clust_9="23.15819"></scales>
<clustering>
<clus scale="   23.158">  1  9  2 -1</clus>
<clus scale="   86.114">  5  6 -1 -1</clus>
<clus scale="   88.255">  2  5  1 -1</clus>
<clus scale="   89.471">  7  8 -1 -1</clus>
<clus scale="   88.255">  2  5  1 -1</clus>
</clustering>
</event>
<event>
 9    1  0.1434065E-005  0.9447551E+02  0.7546771E-02  0.1296411E+00
          4   -1    0    0  502    0  0.00000000000E+00  0.00000000000E+00  0.56141805032E+02  0.56141805032E+02  0.00000000000E+00 0. -1.
         -4   -1    0    0    0  501 -0.00000000000E+00 -0.00000000000E+00 -0.21282579965E+03  0.21282579965E+03  0.00000000000E+00 0.  1.
         23    2    1    2    0    0  0.77947410477E+01 -0.47448671505E+01 -0.12249228719E+03  0.15492035703E+03  0.94407016946E+02 0.  0.
         23    2    1    2    0    0  0.50608341518E+01 -0.10978671710E+02 -0.25750755640E+02  0.92053040346E+02  0.87547230374E+02 0.  0.
        -13    1    3    3    0    0  0.47185423090E+02  0.13776909871E+02 -0.81218445200E+02  0.94935258142E+02  0.00000000000E+00 0.  1.
         13    1    3    3    0    0 -0.39390682042E+02 -0.18521777022E+02 -0.41273841990E+02  0.59985098887E+02  0.00000000000E+00 0. -1.
        -13    1    4    4    0    0  0.34369497389E+02  0.16910087515E+02 -0.33468857386E+02  0.50866273947E+02  0.00000000000E+00 0.  1.
         13    1    4    4    0    0 -0.29308663237E+02 -0.27888759225E+02  0.77181017459E+01  0.41186766399E+02  0.00000000000E+00 0. -1.
         21    1    1    2  502  501 -0.12855575200E+02  0.15723538860E+02 -0.84409517871E+01  0.21994207307E+02  0.00000000000E+00 0.  1.
<scales pt_clust_5="13000.00000" pt_clust_6="13000.00000" pt_clust_7="13000.00000" pt_clust_8="13000.00000" pt_clust_9="20.30998"></scales>
<clustering>
<clus scale="   20.310">  1  9  2 -1</clus>
<clus scale="   87.547">  7  8 -1 -1</clus>
<clus scale="   87.621">  1  7  2 -1</clus>
<clus scale="   94.407">  5  6 -1 -1</clus>
<clus scale="   20.310">  1  5  2 -1</clus>
</clustering>
</event>
<event>
 9    1  0.1434065E-005  0.1195541E+03  0.7546771E-02  0.1243956E+00
         -2   -1    0    0    0  501 -0.00000000000E+00  0.00000000000E+00  0.42010640537E+02  0.42010640537E+02  0.00000000000E+00 0. -1.
          2   -1    0    0  502    0  0.00000000000E+00 -0.00000000000E+00 -0.95761935868E+03  0.95761935868E+03  0.00000000000E+00 0.  1.
         23    2    1    2    0    0 -0.53288700830E+02  0.26065412589E+02 -0.13309603444E+03  0.17233718434E+03  0.92013365079E+02 0.  0.
         23    2    1    2    0    0  0.14576562349E+03 -0.10352868734E+02 -0.55553352425E+03  0.58169476096E+03  0.91632415040E+02 0.  0.
        -11    1    4    4    0    0  0.20058985374E+02  0.27899036110E+02 -0.61100898697E+02  0.70100206360E+02  0.00000000000E+00 0.  1.
         11    1    4    4    0    0  0.12570663812E+03 -0.38251904844E+02 -0.49443262555E+03  0.51159455460E+03  0.00000000000E+00 0. -1.
        -11    1    3    3    0    0 -0.46193418779E+02 -0.21813017051E+02 -0.32074768210E+02  0.60319403239E+02  0.00000000000E+00 0. -1.
         11    1    3    3    0    0 -0.70952820504E+01  0.47878429640E+02 -0.10102126623E+03  0.11201778110E+03  0.00000000000E+00 0.  1.
         21    1    1    2  502  501 -0.92476922660E+02 -0.15712543855E+02 -0.22697915945E+03  0.24559805391E+03  0.00000000000E+00 0.  1.
<scales pt_clust_5="13000.00000" pt_clust_6="13000.00000" pt_clust_7="13000.00000" pt_clust_8="13000.00000" pt_clust_9="93.80227"></scales>
<clustering>
<clus scale="   91.632">  5  6 -1 -1</clus>
<clus scale="   92.013">  7  8 -1 -1</clus>
<clus scale="   93.802">  2  9  1 -1</clus>
<clus scale="  119.261">  2  5  1 -1</clus>
<clus scale="   93.802">  2  5  1 -1</clus>
</clustering>
</event>
<event>
 9    1  0.1434065E-005  0.1411635E+03  0.7546771E-02  0.1211853E+00
         -2   -1    0    0    0  501 -0.00000000000E+00  0.00000000000E+00  0.25747119309E+03  0.25747119309E+03  0.00000000000E+00 0.  1.
          2   -1    0    0  502    0  0.00000000000E+00 -0.00000000000E+00 -0.16921691527E+03  0.16921691527E+03  0.00000000000E+00 0. -1.
         23    2    1    2    0    0 -0.81053183564E+02  0.63529306655E+02  0.73023706177E+02  0.15534509606E+03  0.90520969039E+02 0.  0.
         23    2    1    2    0    0  0.73210328515E+02 -0.82372304614E+02 -0.86888145498E+02  0.16720463639E+03  0.90900450127E+02 0.  0.
        -11    1    3    3    0    0 -0.36327223894E+02  0.73066405135E+02  0.73189571934E+02  0.10961332125E+03  0.00000000000E+00 0.  1.
         11    1    3    3    0    0 -0.44725959671E+02 -0.95370984803E+01 -0.16586575679E+00  0.45731774811E+02  0.00000000000E+00 0. -1.
        -11    1    4    4    0    0  0.25707887617E+02  0.13161267571E+02  0.11137509757E+01  0.28902506656E+02  0.00000000000E+00 0.  1.
         11    1    4    4    0    0  0.47502440898E+02 -0.95533572185E+02 -0.88001896474E+02  0.13830212973E+03  0.00000000000E+00 0. -1.
         21    1    1    2  502  501  0.78428550496E+01  0.18842997959E+02  0.10211871713E+03  0.10413837591E+03  0.00000000000E+00 0.  1.
<scales pt_clust_5="13000.00000" pt_clust_6="13000.00000" pt_clust_7="13000.00000" pt_clust_8="13000.00000" pt_clust_9="20.41002"></scales>
<clustering>
<clus scale="   20.410">  1  9  2 -1</clus>
<clus scale="   90.521">  5  6 -1 -1</clus>
<clus scale="   90.900">  7  8 -1 -1</clus>
<clus scale="  140.919">  1  5  2 -1</clus>
<clus scale="  141.163">  2  5  1 -1</clus>
</clustering>
</event>
<event>
 9    1  0.1434065E-005  0.1124748E+03  0.7546771E-02  0.1256866E+00
         -2   -1    0    0    0  501 -0.00000000000E+00  0.00000000000E+00  0.41804179403E+03  0.41804179403E+03  0.00000000000E+00 0.  1.
          2   -1    0    0  502    0  0.00000000000E+00 -0.00000000000E+00 -0.70281932468E+02  0.70281932468E+02  0.00000000000E+00 0. -1.
         23    2    1    2    0    0 -0.65415624032E+02  0.56832676519E+02  0.83725703859E+02  0.14970174975E+03  0.88833909086E+02 0.  0.
         23    2    1    2    0    0  0.24557671365E+02 -0.48180273631E+02  0.44031867689E+02  0.11469063910E+03  0.91053387273E+02 0.  0.
        -11    1    3    3    0    0  0.20211124647E+02  0.12443096547E+02  0.33225132723E+02  0.40831723643E+02  0.00000000000E+00 0.  1.
         11    1    3    3    0    0 -0.85626748679E+02  0.44389579972E+02  0.50500571136E+02  0.10887002611E+03  0.00000000000E+00 0. -1.
        -11    1    4    4    0    0  0.45316560139E+02 -0.20569313796E+02  0.58876739559E+02  0.77091878651E+02  0.00000000000E+00 0.  1.
         11    1    4    4    0    0 -0.20758888773E+02 -0.27610959834E+02 -0.14844871870E+02  0.37598760444E+02  0.00000000000E+00 0. -1.
         21    1    1    2  502  501  0.40857952667E+02 -0.86524028881E+01  0.22000229001E+03  0.22393133765E+03  0.00000000000E+00 0.  1.
<scales pt_clust_5="13000.00000" pt_clust_6="13000.00000" pt_clust_7="13000.00000" pt_clust_8="13000.00000" pt_clust_9="41.76406"></scales>
<clustering>
<clus scale="   41.764">  1  9  2 -1</clus>
<clus scale="   88.834">  5  6 -1 -1</clus>
<clus scale="   91.053">  7  8 -1 -1</clus>
<clus scale="  110.686">  1  5  2 -1</clus>
<clus scale="  112.475">  2  5  1 -1</clus>
</clustering>
</event>
<event>
 9    1  0.1434065E-005  0.2968591E+03  0.7546771E-02  0.1127434E+00
          1   -1    0    0  502    0  0.00000000000E+00  0.00000000000E+00  0.36884674282E+03  0.36884674282E+03  0.00000000000E+00 0. -1.
         -1   -1    0    0    0  501 -0.00000000000E+00 -0.00000000000E+00 -0.58915870309E+03  0.58915870309E+03  0.00000000000E+00 0.  1.
         23    2    1    2    0    0  0.46336682384E+02 -0.27621418178E+02 -0.71511078845E+02  0.12695072528E+03  0.89958998299E+02 0.  0.
         23    2    1    2    0    0 -0.24802124429E+01  0.30308486659E+03 -0.36106139722E+03  0.48054362532E+03  0.93221539716E+02 0.  0.
        -11    1    3    3    0    0  0.37667208380E+02  0.21935186605E+02 -0.54707983915E+01  0.43930634341E+02  0.00000000000E+00 0.  1.
         11    1    3    3    0    0  0.86694740038E+01 -0.49556604783E+02 -0.66040280453E+02  0.83020090939E+02  0.00000000000E+00 0. -1.
        -13    1    4    4    0    0  0.81691638523E+01  0.18933891474E+03 -0.28858627843E+03  0.34525063356E+03  0.00000000000E+00 0.  1.
         13    1    4    4    0    0 -0.10649376295E+02  0.11374595185E+03 -0.72475118791E+02  0.13529299177E+03  0.00000000000E+00 0. -1.
         21    1    1    2  502  501 -0.43856469941E+02 -0.27546344841E+03  0.21226051579E+03  0.35051109530E+03  0.00000000000E+00 0. -1.
<scales pt_clust_5="13000.00000" pt_clust_6="13000.00000" pt_clust_7="13000.00000" pt_clust_8="13000.00000" pt_clust_9="281.84224"></scales>
<clustering>
<clus scale="   89.959">  5  6 -1 -1</clus>
<clus scale="   93.222">  7  8 -1 -1</clus>
<clus scale="  104.894">  2  5  1 -1</clus>
<clus scale="  281.842">  1  9  2 -1</clus>
<clus scale="  281.842">  1  5  2 -1</clus>
</clustering>
</event>
<event>
 9    1  0.1434065E-005  0.1787836E+03  0.7546771E-02  0.1170030E+00
          2   -1    0    0  502    0  0.00000000000E+00  0.00000000000E+00  0.42701215985E+03  0.42701215985E+03  0.00000000000E+00 0. -1.
         -2   -1    0    0    0  501 -0.00000000000E+00 -0.00000000000E+00 -0.17047244961E+03  0.17047244961E+03  0.00000000000E+00 0.  1.
         23    2    1    2    0    0  0.14166989553E+03 -0.50670294110E+02  0.12040013836E+03  0.21377484754E+03  0.92550819130E+02 0.  0.
         23    2    1    2    0    0 -0.14529954683E+03  0.24329953283E+02  0.22725033611E+03  0.28879843865E+03  0.10028917175E+03 0.  0.
        -11    1    4    4    0    0 -0.11652227482E+03 -0.18228469219E+02  0.19575454936E+03  0.22853787698E+03  0.00000000000E+00 0.  1.
         11    1    4    4    0    0 -0.28777272005E+02  0.42558422501E+02  0.31495786757E+02  0.60260561674E+02  0.00000000000E+00 0. -1.
        -11    1    3    3    0    0 -0.17710193694E+01 -0.20155361560E+02 -0.49754032639E+01  0.20835780447E+02  0.00000000000E+00 0.  1.
         11    1    3    3    0    0  0.14344091490E+03 -0.30514932550E+02  0.12537554162E+03  0.19293906710E+03  0.00000000000E+00 0. -1.
         21    1    1    2  502  501  0.36296512971E+01  0.26340340827E+02 -0.91110764239E+02  0.94911323264E+02  0.00000000000E+00 0.  1.
<scales pt_clust_5="13000.00000" pt_clust_6="13000.00000" pt_clust_7="13000.00000" pt_clust_8="13000.00000" pt_clust_9="26.58924"></scales>
<clustering>
<clus scale="   26.589">  2  9  1 -1</clus>
<clus scale="   92.551">  7  8 -1 -1</clus>
<clus scale="  100.289">  5  6 -1 -1</clus>
<clus scale="  174.560">  2  7  1 -1</clus>
<clus scale="  178.784">  1  5  2 -1</clus>
</clustering>
</event>
<event>
 9    1  0.1434065E-005  0.1370081E+03  0.7546771E-02  0.1217862E+00
          2   -1    0    0  502    0  0.00000000000E+00  0.00000000000E+00  0.69077325219E+03  0.69077325219E+03  0.00000000000E+00 0. -1.
         -2   -1    0    0    0  501 -0.00000000000E+00 -0.00000000000E+00 -0.65343052527E+02  0.65343052527E+02  0.00000000000E+00 0.  1.
         23    2    1    2    0    0  0.67168489991E+01  0.83777230169E+02  0.36406101841E+02  0.12867812855E+03  0.90382056629E+02 0.  0.
         23    2    1    2    0    0 -0.24407065068E+01 -0.10425389202E+03  0.59027509115E+03  0.60648241182E+03  0.92311437926E+02 0.  0.
        -11    1    4    4    0    0  0.39924620653E+02 -0.36758441575E+02  0.16176954392E+03  0.17062984411E+03  0.00000000000E+00 0.  1.
         11    1    4    4    0    0 -0.42365327160E+02 -0.67495450442E+02  0.42850554723E+03  0.43585256771E+03  0.00000000000E+00 0. -1.
        -13    1    3    3    0    0  0.11133917637E+02  0.45618383634E+02 -0.27278053818E+02  0.54305554665E+02  0.00000000000E+00 0.  1.
         13    1    3    3    0    0 -0.44170686377E+01  0.38158846535E+02  0.63684155659E+02  0.74372573885E+02  0.00000000000E+00 0. -1.
         21    1    1    2  502  501 -0.42761424923E+01  0.20476661847E+02 -0.12509933245E+01  0.20955764346E+02  0.00000000000E+00 0. -1.
<scales pt_clust_5="13000.00000" pt_clust_6="13000.00000" pt_clust_7="13000.00000" pt_clust_8="13000.00000" pt_clust_9="20.91839"></scales>
<clustering>
<clus scale="   20.918">  2  9  1 -1</clus>
<clus scale="   90.382">  7  8 -1 -1</clus>
<clus scale="   92.311">  5  6 -1 -1</clus>
<clus scale="  135.716">  2  7  1 -1</clus>
<clus scale="  137.008">  1  5  2 -1</clus>
</clustering>
</event>
<event>
 9    1  0.1434065E-005  0.1134989E+03  0.7546771E-02  0.1254576E+00
          2   -1    0    0  502    0  0.00000000000E+00  0.00000000000E+00  0.17706106207E+03  0.17706106207E+03  0.00000000000E+00 0. -1.
         -2   -1    0    0    0  501 -0.00000000000E+00 -0.00000000000E+00 -0.19715644487E+03  0.19715644487E+03  0.00000000000E+00 0.  1.
         23    2    1    2    0    0  0.40646381563E+01  0.32901730808E+02 -0.99348955709E+02  0.14169862668E+03  0.95442341907E+02 0.  0.
         23    2    1    2    0    0  0.14429757897E+02 -0.63701669593E+02  0.12731163247E+03  0.17251674694E+03  0.96372483568E+02 0.  0.
        -11    1    3    3    0    0  0.10409876109E+02  0.63010277201E+02 -0.41465321532E+02  0.76144818886E+02  0.00000000000E+00 0. -1.
         11    1    3    3    0    0 -0.63452379525E+01 -0.30108546393E+02 -0.57883634177E+02  0.65553807793E+02  0.00000000000E+00 0.  1.
        -13    1    4    4    0    0  0.44336780604E+01  0.25252549678E+02  0.39724461665E+02  0.47279822557E+02  0.00000000000E+00 0. -1.
         13    1    4    4    0    0  0.99960798370E+01 -0.88954219271E+02  0.87587170806E+02  0.12523692438E+03  0.00000000000E+00 0.  1.
         21    1    1    2  502  501 -0.18494396054E+02  0.30799938785E+02 -0.48058059562E+02  0.60002133324E+02  0.00000000000E+00 0. -1.
<scales pt_clust_5="13000.00000" pt_clust_6="13000.00000" pt_clust_7="13000.00000" pt_clust_8="13000.00000" pt_clust_9="35.92602"></scales>
<clustering>
<clus scale="   35.926">  2  9  1 -1</clus>
<clus scale="   95.442">  5  6 -1 -1</clus>
<clus scale="   96.372">  7  8 -1 -1</clus>
<clus scale="  112.710">  2  5  1 -1</clus>
<clus scale="  113.499">  1  5  2 -1</clus>
</clustering>
</event>
<event>
 9    1  0.1434065E-005  0.1122481E+03  0.7546771E-02  0.1256881E+00
          1   -1    0    0  502    0  0.00000000000E+00  0.00000000000E+00  0.59394362670E+02  0.59394362670E+02  0.00000000000E+00 0. -1.
         -1   -1    0    0    0  501 -0.00000000000E+00 -0.00000000000E+00 -0.32294091018E+03  0.32294091018E+03  0.00000000000E+00 0.  1.
         23    2    1    2    0    0  0.19212083076E+02  0.77034994917E+02 -0.17731154718E+03  0.21421943255E+03  0.90261209498E+02 0.  0.
         23    2    1    2    0    0 -0.19101333164E+02 -0.56514596959E+02 -0.37786145537E+02  0.11550034326E+03  0.91398992888E+02 0.  0.
        -11    1    4    4    0    0 -0.37111763750E+02  0.37116804069E+01 -0.37140670456E+02  0.52635434661E+02  0.00000000000E+00 0.  1.
         11    1    4    4    0    0  0.18010430586E+02 -0.60226277366E+02 -0.64547508103E+00  0.62864908600E+02  0.00000000000E+00 0. -1.
        -13    1    3    3    0    0  0.30752330092E+02  0.17181112239E+02 -0.13623284796E+03  0.14071348651E+03  0.00000000000E+00 0.  1.
         13    1    3    3    0    0 -0.11540247016E+02  0.59853882678E+02 -0.41078699223E+02  0.73505946036E+02  0.00000000000E+00 0. -1.
         21    1    1    2  502  501 -0.11074991214E+00 -0.20520397958E+02 -0.48448854796E+02  0.52615497041E+02  0.00000000000E+00 0. -1.
<scales pt_clust_5="13000.00000" pt_clust_6="13000.00000" pt_clust_7="13000.00000" pt_clust_8="13000.00000" pt_clust_9="20.52070"></scales>
<clustering>
<clus scale="   20.521">  2  9  1 -1</clus>
<clus scale="   90.261">  7  8 -1 -1</clus>
<clus scale="   91.399">  5  6 -1 -1</clus>
<clus scale="  111.324">  2  7  1 -1</clus>
<clus scale="  112.248">  1  5  2 -1</clus>
</clustering>
</event>
<event>
 9    1  0.1434065E-005  0.1005100E+03  0.7546771E-02  0.1279656E+00
          1   -1    0    0  502    0  0.00000000000E+00  0.00000000000E+00  0.39287587576E+03  0.39287587576E+03  0.00000000000E+00 0. -1.
         -1   -1    0    0    0  501 -0.00000000000E+00 -0.00000000000E+00 -0.37775363829E+02  0.37775363829E+02  0.00000000000E+00 0.  1.
         23    2    1    2    0    0 -0.48251586534E+02 -0.60880094786E+01  0.80414872101E+02  0.13054958122E+03  0.90616566025E+02 0.  0.
         23    2    1    2    0    0  0.27061653711E+02  0.85993677887E+01  0.19032459367E+03  0.21308380801E+03  0.91514895238E+02 0.  0.
        -13    1    4    4    0    0  0.45940833555E+02  0.38831207828E+02  0.11723989911E+03  0.13177107737E+03  0.00000000000E+00 0. -1.
         13    1    4    4    0    0 -0.18879179844E+02 -0.30231840039E+02  0.73084694562E+02  0.81312730633E+02  0.00000000000E+00 0.  1.
        -13    1    3    3    0    0 -0.19314739379E+02  0.96292782344E+01 -0.17157001895E+02  0.27570724884E+02  0.00000000000E+00 0.  1.
         13    1    3    3    0    0 -0.28936847155E+02 -0.15717287713E+02  0.97571873996E+02  0.10297885633E+03  0.00000000000E+00 0. -1.
         21    1    1    2  502  501  0.21189932823E+02 -0.25113583101E+01  0.84361046161E+02  0.87017850370E+02  0.00000000000E+00 0.  1.
<scales pt_clust_5="13000.00000" pt_clust_6="13000.00000" pt_clust_7="13000.00000" pt_clust_8="13000.00000" pt_clust_9="21.33823"></scales>
<clustering>
<clus scale="   21.338">  1  9  2 -1</clus>
<clus scale="   90.617">  7  8 -1 -1</clus>
<clus scale="   91.515">  5  6 -1 -1</clus>
<clus scale="   99.693">  2  7  1 -1</clus>
<clus scale="   21.338">  1  5  2 -1</clus>
</clustering>
</event>
<event>
 9    1  0.1434065E-005  0.1018113E+03  0.7546771E-02  0.1277097E+00
          2   -1    0    0  502    0  0.00000000000E+00  0.00000000000E+00  0.30963702047E+03  0.30963702047E+03  0.00000000000E+00 0. -1.
         -2   -1    0    0    0  501 -0.00000000000E+00 -0.00000000000E+00 -0.94170846040E+02  0.94170846040E+02  0.00000000000E+00 0.  1.
         23    2    1    2    0    0  0.91768062804E+00  0.10924891217E+02  0.32952646008E+02  0.97741104592E+02  0.91363292750E+02 0.  0.
         23    2    1    2    0    0 -0.46391834857E+02 -0.31636972808E+02  0.21892864210E+03  0.24423675682E+03  0.92567503272E+02 0.  0.
        -11    1    3    3    0    0  0.60439369358E+01  0.44452133800E+02 -0.69228858459E+01  0.45392154845E+02  0.00000000000E+00 0. -1.
         11    1    3    3    0    0 -0.51262563077E+01 -0.33527242583E+02  0.39875531854E+02  0.52348949747E+02  0.00000000000E+00 0.  1.
        -13    1    4    4    0    0  0.43580286907E+01 -0.36305968037E+02  0.26462414218E+02  0.45137291627E+02  0.00000000000E+00 0.  1.
         13    1    4    4    0    0 -0.50749863548E+02  0.46689952283E+01  0.19246622788E+03  0.19909946519E+03  0.00000000000E+00 0. -1.
         21    1    1    2  502  501  0.45474154229E+02  0.20712081591E+02 -0.36415113674E+02  0.61830005099E+02  0.00000000000E+00 0.  1.
<scales pt_clust_5="13000.00000" pt_clust_6="13000.00000" pt_clust_7="13000.00000" pt_clust_8="13000.00000" pt_clust_9="49.96888"></scales>
<clustering>
<clus scale="   49.969">  2  9  1 -1</clus>
<clus scale="   91.363">  5  6 -1 -1</clus>
<clus scale="   92.568">  7  8 -1 -1</clus>
<clus scale="  100.718">  2  5  1 -1</clus>
<clus scale="  101.811">  1  5  2 -1</clus>
</clustering>
</event>
<event>
 9    1  0.1434065E-005  0.1076702E+03  0.7546771E-02  0.1265267E+00
          2   -1    0    0  502    0  0.00000000000E+00  0.00000000000E+00  0.56482231108E+03  0.56482231108E+03  0.00000000000E+00 0.  1.
         -2   -1    0    0    0  501 -0.00000000000E+00 -0.00000000000E+00 -0.43842977405E+02  0.43842977405E+02  0.00000000000E+00 0. -1.
         23    2    1    2    0    0 -0.26181301206E+02 -0.75603866902E+02  0.17505471786E+03  0.21300197881E+03  0.91237511514E+02 0.  0.
         23    2    1    2    0    0  0.62841693108E+01  0.46253265622E+02  0.34509846408E+03  0.36019450395E+03  0.92023232934E+02 0.  0.
        -11    1    4    4    0    0  0.27358700335E+02 -0.88364983960E+01  0.38925887529E+02  0.48392219496E+02  0.00000000000E+00 0. -1.
         11    1    4    4    0    0 -0.21074531024E+02  0.55089764018E+02  0.30617257655E+03  0.31180228445E+03  0.00000000000E+00 0.  1.
        -13    1    3    3    0    0  0.12423120563E+02 -0.49588879877E+02  0.27025085322E+02  0.57825134402E+02  0.00000000000E+00 0. -1.
         13    1    3    3    0    0 -0.38604421768E+02 -0.26014987024E+02  0.14802963254E+03  0.15517684440E+03  0.00000000000E+00 0.  1.
         21    1    1    2  502  501  0.19897131895E+02  0.29350601280E+02  0.82615173377E+00  0.35468805729E+02  0.00000000000E+00 0. -1.
<scales pt_clust_5="13000.00000" pt_clust_6="13000.00000" pt_clust_7="13000.00000" pt_clust_8="13000.00000" pt_clust_9="35.45918"></scales>
<clustering>
<clus scale="   35.459">  2  9  1 -1</clus>
<clus scale="   91.238">  7  8 -1 -1</clus>
<clus scale="   92.023">  5  6 -1 -1</clus>
<clus scale="  106.999">  2  7  1 -1</clus>
<clus scale="  107.670">  1  5  2 -1</clus>
</clustering>
</event>
<event>
 9    1  0.1434065E-005  0.1340254E+03  0.7546771E-02  0.1227593E+00
          2   -1    0    0  502    0  0.00000000000E+00  0.00000000000E+00  0.30499835027E+02  0.30499835027E+02  0.00000000000E+00 0. -1.
         -2   -1    0    0    0  501 -0.00000000000E+00 -0.00000000000E+00 -0.87602776283E+03  0.87602776283E+03  0.00000000000E+00 0.  1.
         23    2    1    2    0    0 -0.90928269610E+02 -0.40594749009E+02 -0.32763418662E+03  0.35424493117E+03  0.90716190159E+02 0.  0.
         23    2    1    2    0    0  0.60080417801E+02  0.18214059739E+01 -0.24995258626E+03  0.27979886057E+03  0.11044515779E+03 0.  0.
        -11    1    4    4    0    0  0.90135981773E+02 -0.34044229484E+01 -0.14743472379E+03  0.17283831486E+03  0.00000000000E+00 0.  1.
         11    1    4    4    0    0 -0.30055563972E+02  0.52258289223E+01 -0.10251786247E+03  0.10696054571E+03  0.00000000000E+00 0. -1.
        -13    1    3    3    0    0 -0.33585072660E+02  0.14635138185E+02 -0.20351370766E+03  0.20678484853E+03  0.00000000000E+00 0.  1.
         13    1    3    3    0    0 -0.57343196950E+02 -0.55229887194E+02 -0.12412047896E+03  0.14746008264E+03  0.00000000000E+00 0. -1.
         21    1    1    2  502  501  0.30847851809E+02  0.38773343036E+02 -0.26794115492E+03  0.27248380611E+03  0.00000000000E+00 0.  1.
<scales pt_clust_5="13000.00000" pt_clust_6="13000.00000" pt_clust_7="13000.00000" pt_clust_8="13000.00000" pt_clust_9="49.54757"></scales>
<clustering>
<clus scale="   49.548">  2  9  1 -1</clus>
<clus scale="   90.716">  7  8 -1 -1</clus>
<clus scale="  110.445">  5  6 -1 -1</clus>
<clus scale="  118.297">  2  7  1 -1</clus>
<clus scale="  134.025">  1  5  2 -1</clus>
</clustering>
</event>
<event>
 9    1  0.1434065E-005  0.1109542E+03  0.7546771E-02  0.1259532E+00
          1   -1    0    0  502    0  0.00000000000E+00  0.00000000000E+00  0.73087721935E+02  0.73087721935E+02  0.00000000000E+00 0. -1.
         -1   -1    0    0    0  501 -0.00000000000E+00 -0.00000000000E+00 -0.22194611449E+03  0.22194611449E+03  0.00000000000E+00 0.  1.
         23    2    1    2    0    0  0.31330276686E+02 -0.41969791815E+02 -0.60010071944E+02  0.12081177952E+03  0.90836268492E+02 0.  0.
         23    2    1    2    0    0 -0.57397847041E+02  0.49165956339E+02 -0.50174636566E+02  0.12703141328E+03  0.88925146602E+02 0.  0.
        -13    1    3    3    0    0 -0.29065177432E+02 -0.32551963200E+02 -0.22556685384E+02  0.49124524454E+02  0.00000000000E+00 0. -1.
         13    1    3    3    0    0  0.60395454118E+02 -0.94178286148E+01 -0.37453386560E+02  0.71687255065E+02  0.00000000000E+00 0.  1.
        -13    1    4    4    0    0  0.23178480661E+02  0.81728613935E+01 -0.20118669104E+02  0.31761588052E+02  0.00000000000E+00 0.  1.
         13    1    4    4    0    0 -0.80576327702E+02  0.40993094946E+02 -0.30055967462E+02  0.95269825230E+02  0.00000000000E+00 0. -1.
         21    1    1    2  502  501  0.26067570355E+02 -0.71961645241E+01 -0.38673684041E+02  0.47190643621E+02  0.00000000000E+00 0.  1.
<scales pt_clust_5="13000.00000" pt_clust_6="13000.00000" pt_clust_7="13000.00000" pt_clust_8="13000.00000" pt_clust_9="27.04261"></scales>
<clustering>
<clus scale="   27.043">  2  9  1 -1</clus>
<clus scale="   88.925">  7  8 -1 -1</clus>
<clus scale="   90.836">  5  6 -1 -1</clus>
<clus scale="  109.395">  1  7  2 -1</clus>
<clus scale="  109.395">  1  5  2 -1</clus>
</clustering>
</event>
<event>
 9    1  0.1434065E-005  0.1205747E+03  0.7546771E-02  0.1245222E+00
          1   -1    0    0  502    0  0.00000000000E+00  0.00000000000E+00  0.57014544842E+02  0.57014544842E+02  0.00000000000E+00 0. -1.
         -1   -1    0    0    0  501 -0.00000000000E+00 -0.00000000000E+00 -0.30508113613E+03  0.30508113613E+03  0.00000000000E+00 0.  1.
         23    2    1    2    0    0 -0.81654121802E+02 -0.47837023584E+00 -0.14967276273E+03  0.19281593763E+03  0.90046795920E+02 0.  0.
         23    2    1    2    0    0  0.76828463334E+02 -0.23372142586E+02 -0.81227742697E+02  0.13950041418E+03  0.80084639887E+02 0.  0.
        -11    1    4    4    0    0  0.14074723386E+02 -0.27145090016E+02  0.68044091231E+01  0.31324969815E+02  0.00000000000E+00 0.  1.
         11    1    4    4    0    0  0.62753739948E+02  0.37729474308E+01 -0.88032151820E+02  0.10817544437E+03  0.00000000000E+00 0. -1.
        -11    1    3    3    0    0 -0.88938780602E+02  0.26512158857E+02 -0.12380644478E+03  0.15472891466E+03  0.00000000000E+00 0.  1.
         11    1    3    3    0    0  0.72846587996E+01 -0.26990529093E+02 -0.25866317946E+02  0.38087022969E+02  0.00000000000E+00 0. -1.
         21    1    1    2  502  501  0.48256584679E+01  0.23850512822E+02 -0.17166085860E+02  0.29779329160E+02  0.00000000000E+00 0.  1.
<scales pt_clust_5="13000.00000" pt_clust_6="13000.00000" pt_clust_7="13000.00000" pt_clust_8="13000.00000" pt_clust_9="24.33380"></scales>
<clustering>
<clus scale="   24.334">  1  9  2 -1</clus>
<clus scale="   80.085">  5  6 -1 -1</clus>
<clus scale="   90.047">  7  8 -1 -1</clus>
<clus scale="  113.329">  1  5  2 -1</clus>
<clus scale="   24.334">  1  5  2 -1</clus>
</clustering>
</event>
<event>
 9    1  0.1434065E-005  0.1013476E+03  0.7546771E-02  0.1279973E+00
         -1   -1    0    0    0  501 -0.00000000000E+00  0.00000000000E+00  0.27265918847E+02  0.27265918847E+02  0.00000000000E+00 0.  1.
          1   -1    0    0  502    0  0.00000000000E+00 -0.00000000000E+00 -0.53587031665E+03  0.53587031665E+03  0.00000000000E+00 0. -1.
         23    2    1    2    0    0  0.18038275088E+02  0.40857203695E+02 -0.20848184409E+03  0.23086179474E+03  0.88531341880E+02 0.  0.
         23    2    1    2    0    0 -0.32121078378E+02 -0.19478207047E+02 -0.28548062580E+03  0.30278252832E+03  0.93631765548E+02 0.  0.
        -13    1    3    3    0    0 -0.26595930775E+02  0.34889290538E+02 -0.52022797035E+02  0.68051286097E+02  0.00000000000E+00 0.  1.
         13    1    3    3    0    0  0.44634205863E+02  0.59679131568E+01 -0.15645904705E+03  0.16281050865E+03  0.00000000000E+00 0. -1.
        -13    1    4    4    0    0  0.22965228033E+02 -0.33727767451E+02 -0.15793060053E+03  0.16311664103E+03  0.00000000000E+00 0. -1.
         13    1    4    4    0    0 -0.55086306411E+02  0.14249560404E+02 -0.12755002527E+03  0.13966588729E+03  0.00000000000E+00 0.  1.
         21    1    1    2  502  501  0.14082803291E+02 -0.21378996648E+02 -0.14641927911E+02  0.29491912437E+02  0.00000000000E+00 0. -1.
<scales pt_clust_5="13000.00000" pt_clust_6="13000.00000" pt_clust_7="13000.00000" pt_clust_8="13000.00000" pt_clust_9="25.60052"></scales>
<clustering>
<clus scale="   25.601">  1  9  2 -1</clus>
<clus scale="   88.531">  5  6 -1 -1</clus>
<clus scale="   93.632">  7  8 -1 -1</clus>
<clus scale="   96.655">  1  5  2 -1</clus>
<clus scale="  101.348">  2  5  1 -1</clus>
</clustering>
</event>
<event>
 9    1  0.1434065E-005  0.1763038E+03  0.7546771E-02  0.1171668E+00
         -2   -1    0    0    0  501 -0.00000000000E+00  0.00000000000E+00  0.22537514456E+03  0.22537514456E+03  0.00000000000E+00 0.  1.
          2   -1    0    0  502    0  0.00000000000E+00 -0.00000000000E+00 -0.33757068100E+03  0.33757068100E+03  0.00000000000E+00 0. -1.
         23    2    1    2    0    0 -0.11197468133E+02 -0.13793429715E+03  0.13482259594E+03  0.21253767127E+03  0.88565657636E+02 0.  0.
         23    2    1    2    0    0  0.31987993062E+02  0.15014395971E+03 -0.26569661954E+03  0.31990884824E+03  0.90446322263E+02 0.  0.
        -11    1    3    3    0    0 -0.33171307595E+02 -0.10258405275E+02  0.30100197046E+02  0.45952066205E+02  0.00000000000E+00 0. -1.
         11    1    3    3    0    0  0.21973839462E+02 -0.12767589187E+03  0.10472239890E+03  0.16658560507E+03  0.00000000000E+00 0.  1.
        -13    1    4    4    0    0 -0.24470818049E+02  0.10564511262E+02 -0.29057766282E+02  0.39430744547E+02  0.00000000000E+00 0.  1.
         13    1    4    4    0    0  0.56458811112E+02  0.13957944844E+03 -0.23663885325E+03  0.28047810369E+03  0.00000000000E+00 0. -1.
         21    1    1    2  502  501 -0.20790524929E+02 -0.12209662561E+02  0.18678487152E+02  0.30499306041E+02  0.00000000000E+00 0.  1.
<scales pt_clust_5="13000.00000" pt_clust_6="13000.00000" pt_clust_7="13000.00000" pt_clust_8="13000.00000" pt_clust_9="24.11062"></scales>
<clustering>
<clus scale="   24.111">  1  9  2 -1</clus>
<clus scale="   88.566">  5  6 -1 -1</clus>
<clus scale="   90.446">  7  8 -1 -1</clus>
<clus scale="  175.346">  1  5  2 -1</clus>
<clus scale="  176.304">  2  5  1 -1</clus>
</clustering>
</event>
<event>
 9    1  0.1434065E-005  0.3224283E+03  0.7546771E-02  0.1075714E+00
          2   -1    0    0  502    0  0.00000000000E+00  0.00000000000E+00  0.24286429150E+03  0.24286429150E+03  0.00000000000E+00 0. -1.
         -2   -1    0    0    0  501 -0.00000000000E+00 -0.00000000000E+00 -0.46924697621E+03  0.46924697621E+03  0.00000000000E+00 0.  1.
         23    2    1    2    0    0 -0.28382019720E+03 -0.14168067095E+03 -0.13242552453E+03  0.35540315045E+03  0.90263851827E+02 0.  0.
         23    2    1    2    0    0  0.24884424537E+03  0.13697644897E+03 -0.81136630217E+02  0.31916064199E+03  0.12080710495E+03 0.  0.
        -11    1    3    3    0    0 -0.14389780982E+03 -0.11933174673E+03 -0.60423845355E+02  0.19646293934E+03  0.00000000000E+00 0. -1.
         11    1    3    3    0    0 -0.13992238738E+03 -0.22348924220E+02 -0.72001679176E+02  0.15894021111E+03  0.00000000000E+00 0.  1.
        -11    1    4    4    0    0  0.24157986847E+03  0.10081423209E+03 -0.96789114080E+02  0.27909223359E+03  0.00000000000E+00 0.  1.
         11    1    4    4    0    0  0.72643768999E+01  0.36162216877E+02  0.15652483863E+02  0.40068408408E+02  0.00000000000E+00 0. -1.
         21    1    1    2  502  501  0.34975951825E+02  0.47042219762E+01 -0.12820529954E+02  0.37547475265E+02  0.00000000000E+00 0.  1.
<scales pt_clust_5="13000.00000" pt_clust_6="13000.00000" pt_clust_7="13000.00000" pt_clust_8="13000.00000" pt_clust_9="35.29089"></scales>
<clustering>
<clus scale="   35.291">  2  9  1 -1</clus>
<clus scale="   90.264">  5  6 -1 -1</clus>
<clus scale="  120.807">  7  8 -1 -1</clus>
<clus scale="  312.271">  2  5  1 -1</clus>
<clus scale="  322.428">  1  5  2 -1</clus>
</clustering>
</event>
<event>
 9    1  0.1434065E-005  0.1010976E+03  0.7546771E-02  0.1278709E+00
          2   -1    0    0  502    0  0.00000000000E+00  0.00000000000E+00  0.14636503180E+03  0.14636503180E+03  0.00000000000E+00 0. -1.
         -2   -1    0    0    0  501 -0.00000000000E+00 -0.00000000000E+00 -0.15682863571E+03  0.15682863571E+03  0.00000000000E+00 0.  1.
         23    2    1    2    0    0  0.13100264474E+02  0.11956922394E+02 -0.99866027137E+02  0.13756609675E+03  0.92933431418E+02 0.  0.
         23    2    1    2    0    0 -0.42361253313E+02 -0.13063081972E+02  0.90830092597E+02  0.13631089809E+03  0.91462753752E+02 0.  0.
        -11    1    3    3    0    0  0.22496697251E+02 -0.27771766344E+02 -0.74135250785E+01  0.36501133505E+02  0.00000000000E+00 0. -1.
         11    1    3    3    0    0 -0.93964327773E+01  0.39728688738E+02 -0.92452502059E+02  0.10106496324E+03  0.00000000000E+00 0.  1.
        -11    1    4    4    0    0 -0.63511722897E+01  0.38105527459E+02  0.40911629264E+02  0.56268374966E+02  0.00000000000E+00 0.  1.
         11    1    4    4    0    0 -0.36010081023E+02 -0.51168609430E+02  0.49918463333E+02  0.80042523123E+02  0.00000000000E+00 0. -1.
         21    1    1    2  502  501  0.29260988839E+02  0.11061595770E+01 -0.14276693697E+01  0.29316672674E+02  0.00000000000E+00 0.  1.
<scales pt_clust_5="13000.00000" pt_clust_6="13000.00000" pt_clust_7="13000.00000" pt_clust_8="13000.00000" pt_clust_9="29.28189"></scales>
<clustering>
<clus scale="   29.282">  2  9  1 -1</clus>
<clus scale="   91.463">  7  8 -1 -1</clus>
<clus scale="   92.933">  5  6 -1 -1</clus>
<clus scale="   99.747">  1  7  2 -1</clus>
<clus scale="   99.747">  1  5  2 -1</clus>
</clustering>
</event>
<event>
 9    1  0.1434065E-005  0.1022439E+03  0.7546771E-02  0.1278527E+00
         -1   -1    0    0    0  501 -0.00000000000E+00  0.00000000000E+00  0.10180599508E+03  0.10180599508E+03  0.00000000000E+00 0.  1.
          1   -1    0    0  502    0  0.00000000000E+00 -0.00000000000E+00 -0.25390425884E+03  0.25390425884E+03  0.00000000000E+00 0. -1.
         23    2    1    2    0    0 -0.72235242862E+01  0.12283238826E+02  0.28890735373E+02  0.10190540383E+03  0.96679778036E+02 0.  0.
         23    2    1    2    0    0  0.14729884480E+02 -0.33471694222E+02 -0.20107234490E+03  0.22366124607E+03  0.90867713176E+02 0.  0.
        -11    1    4    4    0    0 -0.11547058944E+02 -0.58116608816E+02 -0.14892838947E+03  0.16028268772E+03  0.00000000000E+00 0. -1.
         11    1    4    4    0    0  0.26276943424E+02  0.24644914594E+02 -0.52143955428E+02  0.63378558352E+02  0.00000000000E+00 0.  1.
        -13    1    3    3    0    0 -0.31459302970E+02 -0.10417758343E+02  0.51848933882E+02  0.61534781847E+02  0.00000000000E+00 0.  1.
         13    1    3    3    0    0  0.24235778684E+02  0.22700997169E+02 -0.22958198509E+02  0.40370621988E+02  0.00000000000E+00 0. -1.
         21    1    1    2  502  501 -0.75063601942E+01  0.21188455396E+02  0.20083345768E+02  0.30143604009E+02  0.00000000000E+00 0.  1.
<scales pt_clust_5="13000.00000" pt_clust_6="13000.00000" pt_clust_7="13000.00000" pt_clust_8="13000.00000" pt_clust_9="22.47879"></scales>
<clustering>
<clus scale="   22.479">  1  9  2 -1</clus>
<clus scale="   90.868">  5  6 -1 -1</clus>
<clus scale="   96.680">  7  8 -1 -1</clus>
<clus scale="   96.767">  2  5  1 -1</clus>
<clus scale="   96.767">  2  5  1 -1</clus>
</clustering>
</event>
<event>
 9    1  0.1434065E-005  0.1304796E+03  0.7546771E-02  0.1226950E+00
         -1   -1    0    0    0  501 -0.00000000000E+00  0.00000000000E+00  0.43790700109E+02  0.43790700109E+02  0.00000000000E+00 0.  1.
          1   -1    0    0  502    0  0.00000000000E+00 -0.00000000000E+00 -0.54571013041E+03  0.54571013041E+03  0.00000000000E+00 0. -1.
         23    2    1    2    0    0  0.87753828248E+02 -0.91249887616E+01 -0.22851305381E+03  0.26376258114E+03  0.97818626331E+02 0.  0.
         23    2    1    2    0    0 -0.79954801680E+02  0.32724209992E+02 -0.27126955112E+03  0.30079202560E+03  0.97082588905E+02 0.  0.
        -11    1    3    3    0    0  0.53922224294E+02  0.25728707169E+02 -0.47445789055E+02  0.76293351902E+02  0.00000000000E+00 0.  1.
         11    1    3    3    0    0  0.33831603954E+02 -0.34853695931E+02 -0.18106726476E+03  0.18746922924E+03  0.00000000000E+00 0. -1.
        -13    1    4    4    0    0 -0.54868618616E+02  0.56109179694E+02 -0.10536349699E+03  0.13137835382E+03  0.00000000000E+00 0.  1.
         13    1    4    4    0    0 -0.25086183064E+02 -0.23384969702E+02 -0.16590605413E+03  0.16941367178E+03  0.00000000000E+00 0. -1.
         21    1    1    2  502  501 -0.77990265676E+01 -0.23599221231E+02 -0.21368253725E+01  0.24946223778E+02  0.00000000000E+00 0.  1.
<scales pt_clust_5="13000.00000" pt_clust_6="13000.00000" pt_clust_7="13000.00000" pt_clust_8="13000.00000" pt_clust_9="24.85454"></scales>
<clustering>
<clus scale="   24.855">  1  9  2 -1</clus>
<clus scale="   97.083">  7  8 -1 -1</clus>
<clus scale="   97.819">  5  6 -1 -1</clus>
<clus scale="  129.929">  2  7  1 -1</clus>
<clus scale="  129.929">  2  5  1 -1</clus>
</clustering>
</event>
<event>
 9    1  0.1434065E-005  0.2255864E+03  0.7546771E-02  0.1130151E+00
         -1   -1    0    0    0  501 -0.00000000000E+00  0.00000000000E+00  0.25285780768E+03  0.25285780768E+03  0.00000000000E+00 0.  1.
          1   -1    0    0  502    0  0.00000000000E+00 -0.00000000000E+00 -0.33710458117E+03  0.33710458117E+03  0.00000000000E+00 0. -1.
         23    2    1    2    0    0 -0.18960304098E+03 -0.14410295967E+03 -0.74268504251E+02  0.26700744373E+03  0.95195525896E+02 0.  0.
         23    2    1    2    0    0  0.17594384595E+03  0.54436877495E+02 -0.67037033151E+02  0.21579953257E+03  0.90309821640E+02 0.  0.
        -11    1    3    3    0    0 -0.19169431154E+03 -0.10745387062E+03 -0.63047311821E+02  0.22862197383E+03  0.00000000000E+00 0.  1.
         11    1    3    3    0    0  0.20912705590E+01 -0.36649089044E+02 -0.11221192431E+02  0.38385469906E+02  0.00000000000E+00 0. -1.
        -11    1    4    4    0    0  0.14453488678E+03  0.79485092000E+02 -0.54003518638E+02  0.17356437817E+03  0.00000000000E+00 0. -1.
         11    1    4    4    0    0  0.31408959171E+02 -0.25048214505E+02 -0.13033514513E+02  0.42235154394E+02  0.00000000000E+00 0.  1.
         21    1    1    2  502  501  0.13659195032E+02  0.89666082173E+02  0.57058763907E+02  0.10715541255E+03  0.00000000000E+00 0.  1.
<scales pt_clust_5="13000.00000" pt_clust_6="13000.00000" pt_clust_7="13000.00000" pt_clust_8="13000.00000" pt_clust_9="90.70050"></scales>
<clustering>
<clus scale="   90.310">  7  8 -1 -1</clus>
<clus scale="   90.700">  1  9  2 -1</clus>
<clus scale="   95.196">  5  6 -1 -1</clus>
<clus scale="  223.569">  2  7  1 -1</clus>
<clus scale="  223.569">  2  5  1 -1</clus>
</clustering>
</event>
<event>
 9    1  0.1434065E-005  0.1461450E+03  0.7546771E-02  0.1205686E+00
          1   -1    0    0  502    0  0.00000000000E+00  0.00000000000E+00  0.60185239365E+03  0.60185239365E+03  0.00000000000E+00 0. -1.
         -1   -1    0    0    0  501 -0.00000000000E+00 -0.00000000000E+00 -0.10288256037E+03  0.10288256037E+03  0.00000000000E+00 0.  1.
         23    2    1    2    0    0  0.86969530393E+01 -0.11842511169E+03  0.10954180169E+03  0.18567948403E+03  0.91527702917E+02 0.  0.
         23    2    1    2    0    0 -0.41308615134E+02  0.10372730002E+03  0.43637845112E+03  0.46003099993E+03  0.93469855217E+02 0.  0.
        -11    1    4    4    0    0  0.25175179294E+02  0.19510685159E+02  0.52193060022E+02  0.61143863162E+02  0.00000000000E+00 0.  1.
         11    1    4    4    0    0 -0.66483794428E+02  0.84216614865E+02  0.38418539110E+03  0.39888713676E+03  0.00000000000E+00 0. -1.
        -13    1    3    3    0    0  0.43923330745E+02 -0.47481379061E+02  0.75630776904E+02  0.99517610282E+02  0.00000000000E+00 0.  1.
         13    1    3    3    0    0 -0.35226377705E+02 -0.70943732627E+02  0.33911024782E+02  0.86161873743E+02  0.00000000000E+00 0. -1.
         21    1    1    2  502  501  0.32611662095E+02  0.14697811663E+02 -0.46950419526E+02  0.59024470061E+02  0.00000000000E+00 0. -1.
<scales pt_clust_5="13000.00000" pt_clust_6="13000.00000" pt_clust_7="13000.00000" pt_clust_8="13000.00000" pt_clust_9="35.77074"></scales>
<clustering>
<clus scale="   35.771">  2  9  1 -1</clus>
<clus scale="   91.528">  7  8 -1 -1</clus>
<clus scale="   93.470">  5  6 -1 -1</clus>
<clus scale="  144.911">  2  7  1 -1</clus>
<clus scale="  146.145">  1  5  2 -1</clus>
</clustering>
</event>
<event>
 9    1  0.1434065E-005  0.1159948E+03  0.7546771E-02  0.1250391E+00
          1   -1    0    0  502    0  0.00000000000E+00  0.00000000000E+00  0.79089448493E+03  0.79089448493E+03  0.00000000000E+00 0. -1.
         -1   -1    0    0    0  501 -0.00000000000E+00 -0.00000000000E+00 -0.23267543469E+02  0.23267543469E+02  0.00000000000E+00 0.  1.
         23    2    1    2    0    0  0.25300259873E+02  0.77781035535E+02  0.22573770370E+03  0.25605019647E+03  0.88961787299E+02 0.  0.
         23    2    1    2    0    0 -0.21272464961E+02 -0.50874259474E+02  0.44687844132E+03  0.45928243767E+03  0.90550031446E+02 0.  0.
        -11    1    4    4    0    0  0.27979979035E+02 -0.48342714293E+02  0.26599780545E+03  0.27179906136E+03  0.00000000000E+00 0.  1.
         11    1    4    4    0    0 -0.49252443996E+02 -0.25315451805E+01  0.18088063587E+03  0.18748337631E+03  0.00000000000E+00 0. -1.
        -11    1    3    3    0    0  0.50366890996E+02  0.46696204084E+02  0.82488287029E+02  0.10733907341E+03  0.00000000000E+00 0.  1.
         11    1    3    3    0    0 -0.25066631124E+02  0.31084831450E+02  0.14324941667E+03  0.14871112305E+03  0.00000000000E+00 0. -1.
         21    1    1    2  502  501 -0.40277949115E+01 -0.26906776061E+02  0.95010796442E+02  0.98829394263E+02  0.00000000000E+00 0. -1.
<scales pt_clust_5="13000.00000" pt_clust_6="13000.00000" pt_clust_7="13000.00000" pt_clust_8="13000.00000" pt_clust_9="27.20658"></scales>
<clustering>
<clus scale="   27.207">  1  9  2 -1</clus>
<clus scale="   88.962">  7  8 -1 -1</clus>
<clus scale="   90.550">  5  6 -1 -1</clus>
<clus scale="  114.759">  2  7  1 -1</clus>
<clus scale="   27.207">  1  5  2 -1</clus>
</clustering>
</event>
<event>
 9    1  0.1434065E-005  0.1236301E+03  0.7546771E-02  0.1237612E+00
         -1   -1    0    0    0  501 -0.00000000000E+00  0.00000000000E+00  0.30456158069E+03  0.30456158069E+03  0.00000000000E+00 0.  1.
          1   -1    0    0  502    0  0.00000000000E+00 -0.00000000000E+00 -0.90448928086E+02  0.90448928086E+02  0.00000000000E+00 0. -1.
         23    2    1    2    0    0  0.41949049074E+02  0.62743471696E+02  0.14063223826E+03  0.18308971137E+03  0.89710367356E+02 0.  0.
         23    2    1    2    0    0 -0.68561434179E+02 -0.54638662203E+02 -0.71903336893E+01  0.12658805712E+03  0.91031761720E+02 0.  0.
        -11    1    4    4    0    0 -0.78518023792E+02 -0.10031996218E+02 -0.13982424430E+02  0.80381771574E+02  0.00000000000E+00 0. -1.
         11    1    4    4    0    0  0.99565896136E+01 -0.44606665985E+02  0.67920907406E+01  0.46206285543E+02  0.00000000000E+00 0.  1.
        -13    1    3    3    0    0  0.11019470216E+02  0.29370478694E+02  0.13337329474E+03  0.13701273478E+03  0.00000000000E+00 0. -1.
         13    1    3    3    0    0  0.30929578858E+02  0.33372993002E+02  0.72589435233E+01  0.46076976586E+02  0.00000000000E+00 0.  1.
         21    1    1    2  502  501  0.26612385105E+02 -0.81048094932E+01  0.80670748026E+02  0.85332740288E+02  0.00000000000E+00 0. -1.
<scales pt_clust_5="13000.00000" pt_clust_6="13000.00000" pt_clust_7="13000.00000" pt_clust_8="13000.00000" pt_clust_9="27.81918"></scales>
<clustering>
<clus scale="   27.819">  1  9  2 -1</clus>
<clus scale="   89.710">  7  8 -1 -1</clus>
<clus scale="   91.032">  5  6 -1 -1</clus>
<clus scale="  122.660">  1  7  2 -1</clus>
<clus scale="  123.630">  2  5  1 -1</clus>
</clustering>
</event>
<event>
 9    1  0.1434065E-005  0.9563492E+02  0.7546771E-02  0.1290848E+00
          1   -1    0    0  502    0  0.00000000000E+00  0.00000000000E+00  0.81823721941E+02  0.81823721941E+02  0.00000000000E+00 0. -1.
         -1   -1    0    0    0  501 -0.00000000000E+00 -0.00000000000E+00 -0.16596049153E+03  0.16596049153E+03  0.00000000000E+00 0.  1.
         23    2    1    2    0    0  0.15602673854E+02 -0.41477703931E+02 -0.58629621133E+02  0.11695180580E+03  0.90974991353E+02 0.  0.
         23    2    1    2    0    0 -0.69449085125E+01  0.21180677295E+02  0.65480238617E+01  0.91916340764E+02  0.88931907873E+02 0.  0.
        -11    1    4    4    0    0 -0.19120693883E+02  0.47984936368E+02 -0.16826025336E+02  0.54325594166E+02  0.00000000000E+00 0.  1.
         11    1    4    4    0    0  0.12175785371E+02 -0.26804259073E+02  0.23374049198E+02  0.37590746598E+02  0.00000000000E+00 0. -1.
        -13    1    3    3    0    0 -0.24787356106E+02 -0.53517527220E+02 -0.36314840084E+02  0.69262589850E+02  0.00000000000E+00 0. -1.
         13    1    3    3    0    0  0.40390029960E+02  0.12039823288E+02 -0.22314781050E+02  0.47689215953E+02  0.00000000000E+00 0.  1.
         21    1    1    2  502  501 -0.86577653416E+01  0.20297026636E+02 -0.32055172317E+02  0.38916066904E+02  0.00000000000E+00 0.  1.
<scales pt_clust_5="13000.00000" pt_clust_6="13000.00000" pt_clust_7="13000.00000" pt_clust_8="13000.00000" pt_clust_9="22.06640"></scales>
<clustering>
<clus scale="   22.066">  2  9  1 -1</clus>
<clus scale="   88.932">  5  6 -1 -1</clus>
<clus scale="   90.975">  7  8 -1 -1</clus>
<clus scale="   93.694">  1  5  2 -1</clus>
<clus scale="   93.694">  1  5  2 -1</clus>
</clustering>
</event>
<event>
 9    1  0.1434065E-005  0.1114177E+03  0.7546771E-02  0.1258977E+00
         -1   -1    0    0    0  501 -0.00000000000E+00  0.00000000000E+00  0.34598299852E+02  0.34598299852E+02  0.00000000000E+00 0.  1.
          1   -1    0    0  502    0  0.00000000000E+00 -0.00000000000E+00 -0.90951331294E+03  0.90951331294E+03  0.00000000000E+00 0. -1.
         23    2    1    2    0    0 -0.21853944922E+02 -0.58961922512E+02 -0.10487871731E+03  0.15396691140E+03  0.93552986301E+02 0.  0.
         23    2    1    2    0    0 -0.29221326919E+02  0.62420103318E+02 -0.37987771997E+03  0.39664202454E+03  0.90926664206E+02 0.  0.
        -11    1    4    4    0    0 -0.22187635850E+02 -0.18828766036E+02 -0.62315352639E+02  0.68775117518E+02  0.00000000000E+00 0.  1.
         11    1    4    4    0    0 -0.70336910687E+01  0.81248869355E+02 -0.31756236733E+03  0.32786690703E+03  0.00000000000E+00 0. -1.
        -13    1    3    3    0    0  0.27385544694E+00 -0.50939326391E+02 -0.48092037803E+01  0.51166575134E+02  0.00000000000E+00 0.  1.
         13    1    3    3    0    0 -0.22127800369E+02 -0.80225961217E+01 -0.10006951353E+03  0.10280033627E+03  0.00000000000E+00 0. -1.
         21    1    1    2  502  501  0.51075271841E+02 -0.34581808060E+01 -0.39015857581E+03  0.39350267685E+03  0.00000000000E+00 0. -1.
<scales pt_clust_5="13000.00000" pt_clust_6="13000.00000" pt_clust_7="13000.00000" pt_clust_8="13000.00000" pt_clust_9="51.19221"></scales>
<clustering>
<clus scale="   51.192">  2  9  1 -1</clus>
<clus scale="   90.927">  5  6 -1 -1</clus>
<clus scale="   93.553">  7  8 -1 -1</clus>
<clus scale="  109.222">  2  5  1 -1</clus>
<clus scale="   51.192">  2  5  1 -1</clus>
</clustering>
</event>
<event>
 9    1  0.1434065E-005  0.9897123E+02  0.7546771E-02  0.1282658E+00
          3   -1    0    0  502    0  0.00000000000E+00  0.00000000000E+00  0.30392578145E+03  0.30392578145E+03  0.00000000000E+00 0. -1.
         -3   -1    0    0    0  501 -0.00000000000E+00 -0.00000000000E+00 -0.70107248253E+02  0.70107248253E+02  0.00000000000E+00 0.  1.
         23    2    1    2    0    0  0.62091982076E+01 -0.18739980956E+02  0.39138661339E+02  0.10104454132E+03  0.91040779271E+02 0.  0.
         23    2    1    2    0    0 -0.22097252463E+02  0.38888326166E+02  0.21655118070E+03  0.23927290990E+03  0.91414009172E+02 0.  0.
        -11    1    3    3    0    0 -0.12686680536E+02  0.34118152351E+02  0.97552395675E+01  0.37685075055E+02  0.00000000000E+00 0.  1.
         11    1    3    3    0    0  0.18895878743E+02 -0.52858133307E+02  0.29383421772E+02  0.63359466263E+02  0.00000000000E+00 0. -1.
        -11    1    4    4    0    0 -0.44087549867E+02  0.43513913484E+02  0.20470082053E+03  0.21386818054E+03  0.00000000000E+00 0.  1.
         11    1    4    4    0    0  0.21990297404E+02 -0.46255873179E+01  0.11850360163E+02  0.25404729362E+02  0.00000000000E+00 0. -1.
         21    1    1    2  502  501  0.15888054255E+02 -0.20148345211E+02 -0.21871308834E+02  0.33715578489E+02  0.00000000000E+00 0.  1.
<scales pt_clust_5="13000.00000" pt_clust_6="13000.00000" pt_clust_7="13000.00000" pt_clust_8="13000.00000" pt_clust_9="25.65904"></scales>
<clustering>
<clus scale="   25.659">  2  9  1 -1</clus>
<clus scale="   91.041">  5  6 -1 -1</clus>
<clus scale="   91.414">  7  8 -1 -1</clus>
<clus scale="   98.627">  2  5  1 -1</clus>
<clus scale="   98.971">  1  5  2 -1</clus>
</clustering>
</event>
<event>
 9    1  0.1434065E-005  0.1580124E+03  0.7546771E-02  0.1191874E+00
         -2   -1    0    0    0  501 -0.00000000000E+00  0.00000000000E+00  0.51150646800E+03  0.51150646800E+03  0.00000000000E+00 0.  1.
          2   -1    0    0  502    0  0.00000000000E+00 -0.00000000000E+00 -0.79876637708E+02  0.79876637708E+02  0.00000000000E+00 0. -1.
         23    2    1    2    0    0 -0.11778745772E+03  0.76688566324E+02  0.34554412183E+03  0.38445521635E+03  0.93005654931E+02 0.  0.
         23    2    1    2    0    0  0.11436313161E+03 -0.49322837746E+02  0.47445545569E+02  0.15945504134E+03  0.87539489484E+02 0.  0.
        -11    1    4    4    0    0  0.92500974231E+02 -0.24953622408E+01  0.54351678943E+02  0.10731617805E+03  0.00000000000E+00 0. -1.
         11    1    4    4    0    0  0.21862157383E+02 -0.46827475505E+02 -0.69061333745E+01  0.52138863296E+02  0.00000000000E+00 0.  1.
        -11    1    3    3    0    0 -0.97861674634E+02  0.58720100491E+02  0.33775626399E+03  0.35651683190E+03  0.00000000000E+00 0.  1.
         11    1    3    3    0    0 -0.19925783086E+02  0.17968465833E+02  0.77878578362E+01  0.27938384449E+02  0.00000000000E+00 0. -1.
         21    1    1    2  502  501  0.34243261064E+01 -0.27365728578E+02  0.38640162892E+02  0.47472848010E+02  0.00000000000E+00 0.  1.
<scales pt_clust_5="13000.00000" pt_clust_6="13000.00000" pt_clust_7="13000.00000" pt_clust_8="13000.00000" pt_clust_9="27.57914"></scales>
<clustering>
<clus scale="   27.579">  1  9  2 -1</clus>
<clus scale="   87.539">  5  6 -1 -1</clus>
<clus scale="   93.006">  7  8 -1 -1</clus>
<clus scale="  154.858">  2  5  1 -1</clus>
<clus scale="  154.858">  2  5  1 -1</clus>
</clustering>
</event>
<event>
 9    1  0.1434065E-005  0.1381201E+03  0.7546771E-02  0.1215978E+00
          2   -1    0    0  502    0  0.00000000000E+00  0.00000000000E+00  0.25242641680E+03  0.25242641680E+03  0.00000000000E+00 0. -1.
         -2   -1    0    0    0  501 -0.00000000000E+00 -0.00000000000E+00 -0.22038199871E+03  0.22038199871E+03  0.00000000000E+00 0.  1.
         23    2    1    2    0    0  0.23829312591E+02 -0.55653224891E+02 -0.59079398838E+02  0.12395585922E+03  0.90606633803E+02 0.  0.
         23    2    1    2    0    0 -0.73247150289E+01  0.11691580978E+03  0.18400784873E+03  0.23636722653E+03  0.91036362835E+02 0.  0.
        -11    1    4    4    0    0 -0.45910280475E+02  0.47733344858E+02  0.60882560342E+02  0.89960614818E+02  0.00000000000E+00 0.  1.
         11    1    4    4    0    0  0.38585565446E+02  0.69182464924E+02  0.12312528838E+03  0.14640661171E+03  0.00000000000E+00 0. -1.
        -13    1    3    3    0    0  0.26100415004E+02 -0.76710300229E+02 -0.62718684048E+02  0.10246626349E+03  0.00000000000E+00 0.  1.
         13    1    3    3    0    0 -0.22711024127E+01  0.21057075338E+02  0.36392852098E+01  0.21489595734E+02  0.00000000000E+00 0. -1.
         21    1    1    2  502  501 -0.16504597562E+02 -0.61262584891E+02 -0.92884031795E+02  0.11248532976E+03  0.00000000000E+00 0.  1.
<scales pt_clust_5="13000.00000" pt_clust_6="13000.00000" pt_clust_7="13000.00000" pt_clust_8="13000.00000" pt_clust_9="63.44688"></scales>
<clustering>
<clus scale="   63.447">  2  9  1 -1</clus>
<clus scale="   90.607">  7  8 -1 -1</clus>
<clus scale="   91.036">  5  6 -1 -1</clus>
<clus scale="  137.837">  2  7  1 -1</clus>
<clus scale="  138.120">  1  5  2 -1</clus>
</clustering>
</event>
<event>
 9    1  0.1434065E-005  0.1071619E+03  0.7546771E-02  0.1266229E+00
         -2   -1    0    0    0  501 -0.00000000000E+00  0.00000000000E+00  0.15662330940E+03  0.15662330940E+03  0.00000000000E+00 0.  1.
          2   -1    0    0  502    0  0.00000000000E+00 -0.00000000000E+00 -0.16329968525E+03  0.16329968525E+03  0.00000000000E+00 0. -1.
         23    2    1    2    0    0  0.19697213466E+02 -0.67741056306E+02 -0.51551445012E+02  0.12601352452E+03  0.90802125257E+02 0.  0.
         23    2    1    2    0    0 -0.34206781394E+02  0.32640168224E+02 -0.33288154663E+02  0.10700671146E+03  0.90038050748E+02 0.  0.
        -11    1    4    4    0    0 -0.56161946109E+02 -0.65074295678E+01 -0.22457172299E+02  0.60834492009E+02  0.00000000000E+00 0. -1.
         11    1    4    4    0    0  0.21955164714E+02  0.39147597792E+02 -0.10830982364E+02  0.46172219456E+02  0.00000000000E+00 0.  1.
        -13    1    3    3    0    0 -0.62602696273E+01  0.21265058957E+02 -0.12101666314E+02  0.25255574352E+02  0.00000000000E+00 0.  1.
         13    1    3    3    0    0  0.25957483093E+02 -0.89006115263E+02 -0.39449778698E+02  0.10075795017E+03  0.00000000000E+00 0. -1.
         21    1    1    2  502  501  0.14509567929E+02  0.35100888081E+02  0.78163223827E+02  0.86902758671E+02  0.00000000000E+00 0.  1.
<scales pt_clust_5="13000.00000" pt_clust_6="13000.00000" pt_clust_7="13000.00000" pt_clust_8="13000.00000" pt_clust_9="37.98157"></scales>
<clustering>
<clus scale="   37.982">  1  9  2 -1</clus>
<clus scale="   90.038">  5  6 -1 -1</clus>
<clus scale="   90.802">  7  8 -1 -1</clus>
<clus scale="  106.515">  2  5  1 -1</clus>
<clus scale="  106.515">  2  5  1 -1</clus>
</clustering>
</event>
<event>
 9    1  0.1434065E-005  0.9477888E+02  0.7546771E-02  0.1291857E+00
         -3   -1    0    0    0  501 -0.00000000000E+00  0.00000000000E+00  0.24522985897E+03  0.24522985897E+03  0.00000000000E+00 0.  1.
          3   -1    0    0  502    0  0.00000000000E+00 -0.00000000000E+00 -0.57912849270E+02  0.57912849270E+02  0.00000000000E+00 0. -1.
         23    2    1    2    0    0  0.10973399590E+02  0.36570310294E+02  0.12379507876E+03  0.15790416295E+03  0.90281227613E+02 0.  0.
         23    2    1    2    0    0 -0.26211269260E+02 -0.11508936899E+02  0.26562297620E+02  0.98055077804E+02  0.89943072905E+02 0.  0.
        -11    1    3    3    0    0 -0.22574088597E+02  0.53947945808E+02  0.60169979316E+02  0.83907072072E+02  0.00000000000E+00 0.  1.
         11    1    3    3    0    0  0.33547488186E+02 -0.17377635514E+02  0.63625099441E+02  0.73997090879E+02  0.00000000000E+00 0. -1.
        -13    1    4    4    0    0  0.27887178023E+01 -0.41044190185E+02  0.37040497997E+02  0.55357031954E+02  0.00000000000E+00 0. -1.
         13    1    4    4    0    0 -0.28999987062E+02  0.29535253286E+02 -0.10478200377E+02  0.42698045850E+02  0.00000000000E+00 0.  1.
         21    1    1    2  502  501  0.15237869670E+02 -0.25061373395E+02  0.36959633318E+02  0.47183467481E+02  0.00000000000E+00 0.  1.
<scales pt_clust_5="13000.00000" pt_clust_6="13000.00000" pt_clust_7="13000.00000" pt_clust_8="13000.00000" pt_clust_9="29.33028"></scales>
<clustering>
<clus scale="   29.330">  1  9  2 -1</clus>
<clus scale="   89.943">  7  8 -1 -1</clus>
<clus scale="   90.281">  5  6 -1 -1</clus>
<clus scale="   94.457">  2  7  1 -1</clus>
<clus scale="   94.457">  2  5  1 -1</clus>
</clustering>
</event>
<event>
 9    1  0.1434065E-005  0.9463138E+02  0.7546771E-02  0.1293562E+00
          4   -1    0    0  502    0  0.00000000000E+00  0.00000000000E+00  0.75957267159E+02  0.75957267159E+02  0.00000000000E+00 0. -1.
         -4   -1    0    0    0  501 -0.00000000000E+00 -0.00000000000E+00 -0.27791202449E+03  0.27791202449E+03  0.00000000000E+00 0.  1.
         23    2    1    2    0    0 -0.45509681166E+02  0.21836164560E+01 -0.10425729035E+03  0.14544087061E+03  0.90595612428E+02 0.  0.
         23    2    1    2    0    0  0.38632161759E+01  0.83999461233E+01  0.81941911883E+01  0.94150325534E+02  0.93336249629E+02 0.  0.
        -11    1    4    4    0    0  0.39628088465E+02  0.28579120751E+02 -0.89126042880E+01  0.49664736519E+02  0.00000000000E+00 0. -1.
         11    1    4    4    0    0 -0.35764872289E+02 -0.20179174628E+02  0.17106795476E+02  0.44485589015E+02  0.00000000000E+00 0.  1.
        -13    1    3    3    0    0 -0.48938246614E+02  0.25482094003E+02 -0.21196969478E+02  0.59106688382E+02  0.00000000000E+00 0. -1.
         13    1    3    3    0    0  0.34285654478E+01 -0.23298477547E+02 -0.83060320874E+02  0.86334182227E+02  0.00000000000E+00 0.  1.
         21    1    1    2  502  501  0.41646464990E+02 -0.10583562579E+02 -0.10589165817E+03  0.11427809551E+03  0.00000000000E+00 0.  1.
<scales pt_clust_5="13000.00000" pt_clust_6="13000.00000" pt_clust_7="13000.00000" pt_clust_8="13000.00000" pt_clust_9="42.97022"></scales>
<clustering>
<clus scale="   42.970">  2  9  1 -1</clus>
<clus scale="   90.596">  7  8 -1 -1</clus>
<clus scale="   91.929">  2  7  1 -1</clus>
<clus scale="   93.336">  5  6 -1 -1</clus>
<clus scale="   94.631">  1  5  2 -1</clus>
</clustering>
</event>
<event>
 9    1  0.1434065E-005  0.9848673E+02  0.7546771E-02  0.1284977E+00
         -1   -1    0    0    0  501 -0.00000000000E+00  0.00000000000E+00  0.22286210852E+03  0.22286210852E+03  0.00000000000E+00 0.  1.
          1   -1    0    0  502    0  0.00000000000E+00 -0.00000000000E+00 -0.11353319735E+03  0.11353319735E+03  0.00000000000E+00 0. -1.
         23    2    1    2    0    0  0.38310956888E+01  0.25692181364E+01  0.14226900951E+03  0.17139315721E+03  0.95466565324E+02 0.  0.
         23    2    1    2    0    0 -0.26103242076E+02  0.36777948075E+02 -0.46769637059E+02  0.11772103049E+03  0.98167435326E+02 0.  0.
        -13    1    3    3    0    0 -0.25362809035E+02  0.38512263323E+02  0.49146490239E+02  0.67393204488E+02  0.00000000000E+00 0. -1.
         13    1    3    3    0    0  0.29193904723E+02 -0.35943045187E+02  0.93122519274E+02  0.10399995272E+03  0.00000000000E+00 0.  1.
        -13    1    4    4    0    0  0.27884609066E+02  0.43733594541E+02 -0.33328626566E+02  0.61652056438E+02  0.00000000000E+00 0. -1.
         13    1    4    4    0    0 -0.53987851142E+02 -0.69556464655E+01 -0.13441010493E+02  0.56068974057E+02  0.00000000000E+00 0.  1.
         21    1    1    2  502  501  0.22272146388E+02 -0.39347166212E+02  0.13829538714E+02  0.47281118162E+02  0.00000000000E+00 0. -1.
<scales pt_clust_5="13000.00000" pt_clust_6="13000.00000" pt_clust_7="13000.00000" pt_clust_8="13000.00000" pt_clust_9="45.21336"></scales>
<clustering>
<clus scale="   45.213">  2  9  1 -1</clus>
<clus scale="   95.467">  5  6 -1 -1</clus>
<clus scale="   95.795">  1  5  2 -1</clus>
<clus scale="   98.167">  7  8 -1 -1</clus>
<clus scale="   45.213">  2  5  1 -1</clus>
</clustering>
</event>
<event>
 9    1  0.1434065E-005  0.9659875E+02  0.7546771E-02  0.1288295E+00
          1   -1    0    0  502    0  0.00000000000E+00  0.00000000000E+00  0.71180692801E+02  0.71180692801E+02  0.00000000000E+00 0. -1.
         -1   -1    0    0    0  501 -0.00000000000E+00 -0.00000000000E+00 -0.24780629406E+03  0.24780629406E+03  0.00000000000E+00 0.  1.
         23    2    1    2    0    0  0.12685096252E+02 -0.19771696547E+02 -0.14390523690E+03  0.17150017706E+03  0.90287108001E+02 0.  0.
         23    2    1    2    0    0 -0.42658310907E+02  0.37142539449E+02 -0.15335482266E+02  0.10872634148E+03  0.91580241255E+02 0.  0.
        -11    1    3    3    0    0  0.43782587185E+02 -0.37092773155E+02 -0.81861394817E+02  0.99970379225E+02  0.00000000000E+00 0.  1.
         11    1    3    3    0    0 -0.31097490933E+02  0.17321076607E+02 -0.62043842084E+02  0.71529797831E+02  0.00000000000E+00 0. -1.
        -13    1    4    4    0    0  0.18454889185E+02 -0.15798056390E+02  0.61614909479E+01  0.25062431870E+02  0.00000000000E+00 0.  1.
         13    1    4    4    0    0 -0.61113200092E+02  0.52940595838E+02 -0.21496973214E+02  0.83663909606E+02  0.00000000000E+00 0. -1.
         21    1    1    2  502  501  0.29973214655E+02 -0.17370842901E+02 -0.17384882093E+02  0.38760468331E+02  0.00000000000E+00 0.  1.
<scales pt_clust_5="13000.00000" pt_clust_6="13000.00000" pt_clust_7="13000.00000" pt_clust_8="13000.00000" pt_clust_9="34.64303"></scales>
<clustering>
<clus scale="   34.643">  1  9  2 -1</clus>
<clus scale="   90.287">  5  6 -1 -1</clus>
<clus scale="   91.580">  7  8 -1 -1</clus>
<clus scale="   95.374">  2  5  1 -1</clus>
<clus scale="   34.643">  1  5  2 -1</clus>
</clustering>
</event>
<event>
 9    1  0.1434065E-005  0.1332405E+03  0.7546771E-02  0.1223247E+00
          1   -1    0    0  502    0  0.00000000000E+00  0.00000000000E+00  0.19071086108E+03  0.19071086108E+03  0.00000000000E+00 0. -1.
         -1   -1    0    0    0  501 -0.00000000000E+00 -0.00000000000E+00 -0.25500803887E+03  0.25500803887E+03  0.00000000000E+00 0.  1.
         23    2    1    2    0    0 -0.11201850948E+03 -0.47012345106E+02 -0.12311694508E+03  0.19489164618E+03  0.89814611990E+02 0.  0.
         23    2    1    2    0    0  0.60462532431E+02  0.71633863246E+02  0.11215207349E+03  0.17266989448E+03  0.91922122911E+02 0.  0.
        -11    1    4    4    0    0  0.15010172633E+02  0.54305299245E+02  0.69530823907E+01  0.56768971835E+02  0.00000000000E+00 0.  1.
         11    1    4    4    0    0  0.45452359798E+02  0.17328564001E+02  0.10519899110E+03  0.11590092265E+03  0.00000000000E+00 0. -1.
        -11    1    3    3    0    0 -0.60680244050E+02  0.17550970554E+02 -0.28302554635E+02  0.69218228699E+02  0.00000000000E+00 0. -1.
         11    1    3    3    0    0 -0.51338265432E+02 -0.64563315660E+02 -0.94814390446E+02  0.12567341748E+03  0.00000000000E+00 0.  1.
         21    1    1    2  502  501  0.51555977051E+02 -0.24621518140E+02 -0.53332306206E+02  0.78157359286E+02  0.00000000000E+00 0. -1.
<scales pt_clust_5="13000.00000" pt_clust_6="13000.00000" pt_clust_7="13000.00000" pt_clust_8="13000.00000" pt_clust_9="57.13351"></scales>
<clustering>
<clus scale="   57.134">  2  9  1 -1</clus>
<clus scale="   89.815">  7  8 -1 -1</clus>
<clus scale="   91.922">  5  6 -1 -1</clus>
<clus scale="  131.795">  2  7  1 -1</clus>
<clus scale="  133.240">  1  5  2 -1</clus>
</clustering>
</event>
<event>
 9    1  0.1434065E-005  0.1181198E+03  0.7546771E-02  0.1246648E+00
         -1   -1    0    0    0  501 -0.00000000000E+00  0.00000000000E+00  0.10603706862E+03  0.10603706862E+03  0.00000000000E+00 0.  1.
          1   -1    0    0  502    0  0.00000000000E+00 -0.00000000000E+00 -0.61097405287E+03  0.61097405287E+03  0.00000000000E+00 0. -1.
         23    2    1    2    0    0 -0.13709139300E+02 -0.68695176884E+02  0.42769021045E+02  0.12168379268E+03  0.89837566824E+02 0.  0.
         23    2    1    2    0    0  0.34504757041E+02  0.13035201516E+03 -0.44413540160E+03  0.47301259800E+03  0.91117708449E+02 0.  0.
        -13    1    3    3    0    0  0.38383605645E+02 -0.24559543547E+02  0.19297320934E+02  0.49485947063E+02  0.00000000000E+00 0.  1.
         13    1    3    3    0    0 -0.52092744944E+02 -0.44135633337E+02  0.23471700111E+02  0.72197845619E+02  0.00000000000E+00 0. -1.
        -13    1    4    4    0    0 -0.21891408870E+02  0.87308663296E+02 -0.28248444493E+03  0.29647849517E+03  0.00000000000E+00 0. -1.
         13    1    4    4    0    0  0.56396165911E+02  0.43043351867E+02 -0.16165095667E+03  0.17653410283E+03  0.00000000000E+00 0.  1.
         21    1    1    2  502  501 -0.20795617741E+02 -0.61656838279E+02 -0.10357060369E+03  0.12231473081E+03  0.00000000000E+00 0. -1.
<scales pt_clust_5="13000.00000" pt_clust_6="13000.00000" pt_clust_7="13000.00000" pt_clust_8="13000.00000" pt_clust_9="65.06937"></scales>
<clustering>
<clus scale="   65.069">  2  9  1 -1</clus>
<clus scale="   89.838">  5  6 -1 -1</clus>
<clus scale="   91.118">  7  8 -1 -1</clus>
<clus scale="  117.135">  1  5  2 -1</clus>
<clus scale="   65.069">  2  5  1 -1</clus>
</clustering>
</event>
<event>
 9    1  0.1434065E-005  0.1086780E+03  0.7546771E-02  0.1263812E+00
         -2   -1    0    0    0  501 -0.00000000000E+00  0.00000000000E+00  0.38808320027E+02  0.38808320027E+02  0.00000000000E+00 0.  1.
          2   -1    0    0  502    0  0.00000000000E+00 -0.00000000000E+00 -0.75620634583E+03  0.75620634583E+03  0.00000000000E+00 0. -1.
         23    2    1    2    0    0  0.19712452649E+02  0.61834956016E+02 -0.10114179858E+03  0.14990786282E+03  0.89613399330E+02 0.  0.
         23    2    1    2    0    0 -0.33464389793E+02 -0.47142712558E+02 -0.61551744851E+03  0.62496918682E+03  0.91555744362E+02 0.  0.
        -11    1    3    3    0    0 -0.12033461990E+02 -0.19599751996E+02 -0.25245082808E+02  0.34150676300E+02  0.00000000000E+00 0. -1.
         11    1    3    3    0    0  0.31745914639E+02  0.81434708013E+02 -0.75896715770E+02  0.11575718652E+03  0.00000000000E+00 0.  1.
        -13    1    4    4    0    0  0.76601306080E+01  0.24498096710E+02 -0.14273815990E+03  0.14502764094E+03  0.00000000000E+00 0.  1.
         13    1    4    4    0    0 -0.41124520401E+02 -0.71640809269E+02 -0.47277928860E+03  0.47994154588E+03  0.00000000000E+00 0. -1.
         21    1    1    2  502  501  0.13751937144E+02 -0.14692243458E+02 -0.73877871752E+00  0.20137616220E+02  0.00000000000E+00 0.  1.
<scales pt_clust_5="13000.00000" pt_clust_6="13000.00000" pt_clust_7="13000.00000" pt_clust_8="13000.00000" pt_clust_9="20.12406"></scales>
<clustering>
<clus scale="   20.124">  1  9  2 -1</clus>
<clus scale="   89.613">  5  6 -1 -1</clus>
<clus scale="   91.556">  7  8 -1 -1</clus>
<clus scale="  107.047">  1  5  2 -1</clus>
<clus scale="  108.678">  2  5  1 -1</clus>
</clustering>
</event>
<event>
 9    1  0.1434065E-005  0.1069606E+03  0.7546771E-02  0.1266631E+00
         -2   -1    0    0    0  501 -0.00000000000E+00  0.00000000000E+00  0.25434274360E+03  0.25434274360E+03  0.00000000000E+00 0.  1.
          2   -1    0    0  502    0  0.00000000000E+00 -0.00000000000E+00 -0.15593927331E+03  0.15593927331E+03  0.00000000000E+00 0. -1.
         23    2    1    2    0    0  0.39132923705E+02 -0.31146625916E+01  0.92592164111E+02  0.13493963286E+03  0.89968376780E+02 0.  0.
         23    2    1    2    0    0 -0.52574200612E+02  0.30269711125E+02 -0.11038836683E+03  0.15525729509E+03  0.90768574771E+02 0.  0.
        -11    1    4    4    0    0  0.24455132911E+02  0.15541430737E+02 -0.43030006919E+02  0.51876498441E+02  0.00000000000E+00 0.  1.
         11    1    4    4    0    0 -0.77029333522E+02  0.14728280388E+02 -0.67358359908E+02  0.10338079665E+03  0.00000000000E+00 0. -1.
        -13    1    3    3    0    0  0.36383316668E+01 -0.35116946481E+02  0.76935025843E+02  0.84648895970E+02  0.00000000000E+00 0.  1.
         13    1    3    3    0    0  0.35494592039E+02  0.32002283889E+02  0.15657138268E+02  0.50290736889E+02  0.00000000000E+00 0. -1.
         21    1    1    2  502  501  0.13441276906E+02 -0.27155048533E+02  0.11619967300E+03  0.12008508896E+03  0.00000000000E+00 0.  1.
<scales pt_clust_5="13000.00000" pt_clust_6="13000.00000" pt_clust_7="13000.00000" pt_clust_8="13000.00000" pt_clust_9="30.29958"></scales>
<clustering>
<clus scale="   30.300">  1  9  2 -1</clus>
<clus scale="   89.968">  7  8 -1 -1</clus>
<clus scale="   90.769">  5  6 -1 -1</clus>
<clus scale="  106.282">  1  7  2 -1</clus>
<clus scale="  106.961">  2  5  1 -1</clus>
</clustering>
</event>
<event>
 9    1  0.1434065E-005  0.1123277E+03  0.7546771E-02  0.1258624E+00
          1   -1    0    0  502    0  0.00000000000E+00  0.00000000000E+00  0.48880158549E+03  0.48880158549E+03  0.00000000000E+00 0. -1.
         -1   -1    0    0    0  501 -0.00000000000E+00 -0.00000000000E+00 -0.69854751655E+02  0.69854751655E+02  0.00000000000E+00 0.  1.
         23    2    1    2    0    0  0.29916677033E+02  0.36435115855E+02  0.10652671234E+03  0.14866517067E+03  0.92362694283E+02 0.  0.
         23    2    1    2    0    0 -0.70362431996E+02 -0.22539420580E+02  0.34043156998E+03  0.35886787739E+03  0.86218340638E+02 0.  0.
        -11    1    3    3    0    0  0.41100971852E+02 -0.17913174539E+02  0.66684334243E+02  0.80355286961E+02  0.00000000000E+00 0.  1.
         11    1    3    3    0    0 -0.11184294819E+02  0.54348290394E+02  0.39842378098E+02  0.68309883705E+02  0.00000000000E+00 0. -1.
        -11    1    4    4    0    0 -0.26704443870E+02  0.28624509890E+02  0.70051106035E+02  0.80247413326E+02  0.00000000000E+00 0.  1.
         11    1    4    4    0    0 -0.43657988125E+02 -0.51163930470E+02  0.27038046395E+03  0.27862046406E+03  0.00000000000E+00 0. -1.
         21    1    1    2  502  501  0.40445754963E+02 -0.13895695275E+02 -0.28011448484E+02  0.51123289095E+02  0.00000000000E+00 0.  1.
<scales pt_clust_5="13000.00000" pt_clust_6="13000.00000" pt_clust_7="13000.00000" pt_clust_8="13000.00000" pt_clust_9="42.76622"></scales>
<clustering>
<clus scale="   42.766">  2  9  1 -1</clus>
<clus scale="   86.218">  7  8 -1 -1</clus>
<clus scale="   92.363">  5  6 -1 -1</clus>
<clus scale="  107.332">  1  7  2 -1</clus>
<clus scale="  107.332">  1  5  2 -1</clus>
</clustering>
</event>
<event>
 9    1  0.1434065E-005  0.9469805E+02  0.7546771E-02  0.1292718E+00
          1   -1    0    0  502    0  0.00000000000E+00  0.00000000000E+00  0.21788258093E+03  0.21788258093E+03  0.00000000000E+00 0. -1.
         -1   -1    0    0    0  501 -0.00000000000E+00 -0.00000000000E+00 -0.11481167202E+03  0.11481167202E+03  0.00000000000E+00 0.  1.
         23    2    1    2    0    0  0.24461520397E+02  0.19932409555E+02 -0.48063515250E+02  0.10861972818E+03  0.92154635920E+02 0.  0.
         23    2    1    2    0    0 -0.34156089425E+01 -0.21053876992E+02  0.17126782210E+03  0.19492762458E+03  0.90604524274E+02 0.  0.
        -11    1    3    3    0    0  0.16867569012E+02 -0.20298920281E+02 -0.60354528716E+02  0.65872833441E+02  0.00000000000E+00 0.  1.
         11    1    3    3    0    0  0.75939513845E+01  0.40231329836E+02  0.12291013466E+02  0.42746894742E+02  0.00000000000E+00 0. -1.
        -11    1    4    4    0    0 -0.34200691460E+02  0.14015456561E+02  0.35045979435E+02  0.50934673785E+02  0.00000000000E+00 0. -1.
         11    1    4    4    0    0  0.30785082518E+02 -0.35069333553E+02  0.13622184266E+03  0.14399295080E+03  0.00000000000E+00 0.  1.
         21    1    1    2  502  501 -0.21045911454E+02  0.11214674365E+01 -0.20133397933E+02  0.29146900187E+02  0.00000000000E+00 0. -1.
<scales pt_clust_5="13000.00000" pt_clust_6="13000.00000" pt_clust_7="13000.00000" pt_clust_8="13000.00000" pt_clust_9="21.07577"></scales>
<clustering>
<clus scale="   21.076">  2  9  1 -1</clus>
<clus scale="   90.605">  7  8 -1 -1</clus>
<clus scale="   92.155">  5  6 -1 -1</clus>
<clus scale="   93.190">  1  7  2 -1</clus>
<clus scale="   93.190">  1  5  2 -1</clus>
</clustering>
</event>
<event>
 9    1  0.1434065E-005  0.1714551E+03  0.7546771E-02  0.1176542E+00
          1   -1    0    0  502    0  0.00000000000E+00  0.00000000000E+00  0.71090966677E+03  0.71090966677E+03  0.00000000000E+00 0. -1.
         -1   -1    0    0    0  501 -0.00000000000E+00 -0.00000000000E+00 -0.71552750345E+02  0.71552750345E+02  0.00000000000E+00 0.  1.
         23    2    1    2    0    0 -0.11192508833E+03  0.39150362634E+02  0.75474721736E+02  0.16697961478E+03  0.90143118643E+02 0.  0.
         23    2    1    2    0    0  0.13360957783E+03 -0.76259049190E+02  0.53377318235E+03  0.56300590907E+03  0.91623586386E+02 0.  0.
        -13    1    3    3    0    0 -0.28576648422E+02 -0.29353108922E+02  0.23460314013E+02  0.47208221445E+02  0.00000000000E+00 0. -1.
         13    1    3    3    0    0 -0.83348439911E+02  0.68503471556E+02  0.52014407723E+02  0.11977139334E+03  0.00000000000E+00 0.  1.
        -13    1    4    4    0    0  0.10330112871E+03 -0.47673595261E+02  0.48810570639E+03  0.50118966020E+03  0.00000000000E+00 0. -1.
         13    1    4    4    0    0  0.30308449119E+02 -0.28585453928E+02  0.45667475959E+02  0.61816248873E+02  0.00000000000E+00 0.  1.
         21    1    1    2  502  501 -0.21684489493E+02  0.37108686556E+02  0.30109012335E+02  0.52476893260E+02  0.00000000000E+00 0. -1.
<scales pt_clust_5="13000.00000" pt_clust_6="13000.00000" pt_clust_7="13000.00000" pt_clust_8="13000.00000" pt_clust_9="42.97990"></scales>
<clustering>
<clus scale="   42.980">  2  9  1 -1</clus>
<clus scale="   90.143">  5  6 -1 -1</clus>
<clus scale="   91.624">  7  8 -1 -1</clus>
<clus scale="  170.669">  2  5  1 -1</clus>
<clus scale="  171.455">  1  5  2 -1</clus>
</clustering>
</event>
<event>
 9    1  0.1434065E-005  0.1878528E+03  0.7546771E-02  0.1163429E+00
         -2   -1    0    0    0  501 -0.00000000000E+00  0.00000000000E+00  0.37179047867E+03  0.37179047867E+03  0.00000000000E+00 0.  1.
          2   -1    0    0  502    0  0.00000000000E+00 -0.00000000000E+00 -0.42808712275E+03  0.42808712275E+03  0.00000000000E+00 0. -1.
         23    2    1    2    0    0  0.99879433903E+01 -0.11081409806E+03  0.27821044365E+02  0.14578383295E+03  0.89996622710E+02 0.  0.
         23    2    1    2    0    0  0.54027067827E+01  0.16238591392E+03 -0.33961222136E+03  0.39299229267E+03  0.11273023960E+03 0.  0.
        -11    1    4    4    0    0 -0.36784490178E+01  0.12596614419E+03 -0.33142463709E+03  0.35457480246E+03  0.00000000000E+00 0. -1.
         11    1    4    4    0    0  0.90811558005E+01  0.36419769732E+02 -0.81875842723E+01  0.38417490212E+02  0.00000000000E+00 0.  1.
        -13    1    3    3    0    0 -0.26822771286E+02 -0.64884653757E+02  0.46286813506E+02  0.84094877711E+02  0.00000000000E+00 0.  1.
         13    1    3    3    0    0  0.36810714677E+02 -0.45929444304E+02 -0.18465769141E+02  0.61688955243E+02  0.00000000000E+00 0. -1.
         21    1    1    2  502  501 -0.15390650173E+02 -0.51571815863E+02  0.25549453293E+03  0.26110147579E+03  0.00000000000E+00 0.  1.
<scales pt_clust_5="13000.00000" pt_clust_6="13000.00000" pt_clust_7="13000.00000" pt_clust_8="13000.00000" pt_clust_9="53.81937"></scales>
<clustering>
<clus scale="   53.819">  1  9  2 -1</clus>
<clus scale="   89.997">  7  8 -1 -1</clus>
<clus scale="  112.730">  5  6 -1 -1</clus>
<clus scale="  175.157">  1  7  2 -1</clus>
<clus scale="  187.853">  2  5  1 -1</clus>
</clustering>
</event>
<event>
 9    1  0.1434065E-005  0.9483826E+02  0.7546771E-02  0.1293271E+00
         -2   -1    0    0    0  501 -0.00000000000E+00  0.00000000000E+00  0.68659765034E+02  0.68659765034E+02  0.00000000000E+00 0.  1.
          2   -1    0    0  502    0  0.00000000000E+00 -0.00000000000E+00 -0.33390906739E+03  0.33390906739E+03  0.00000000000E+00 0. -1.
         23    2    1    2    0    0 -0.57687456721E+02  0.52010199773E+00 -0.11893209662E+03  0.16041864387E+03  0.90891058549E+02 0.  0.
         23    2    1    2    0    0 -0.32374749717E+02 -0.58435619867E+01 -0.98555833958E+02  0.14006841306E+03  0.93934212585E+02 0.  0.
        -11    1    3    3    0    0 -0.30557975335E+02 -0.37520350625E+02 -0.97845492770E+02  0.10915725822E+03  0.00000000000E+00 0.  1.
         11    1    3    3    0    0 -0.27129481387E+02  0.38040452623E+02 -0.21086603853E+02  0.51261385644E+02  0.00000000000E+00 0. -1.
        -13    1    4    4    0    0  0.11425509855E+02 -0.41289776207E+02 -0.48351330966E+02  0.64600612232E+02  0.00000000000E+00 0.  1.
         13    1    4    4    0    0 -0.43800259572E+02  0.35446214220E+02 -0.50204502993E+02  0.75467800828E+02  0.00000000000E+00 0. -1.
         21    1    1    2  502  501  0.90062206438E+02  0.53234599890E+01 -0.47761371774E+02  0.10208177550E+03  0.00000000000E+00 0.  1.
<scales pt_clust_5="13000.00000" pt_clust_6="13000.00000" pt_clust_7="13000.00000" pt_clust_8="13000.00000" pt_clust_9="90.21940"></scales>
<clustering>
<clus scale="   90.219">  1  9  2 -1</clus>
<clus scale="   90.891">  5  6 -1 -1</clus>
<clus scale="   91.825">  1  5  2 -1</clus>
<clus scale="   93.934">  7  8 -1 -1</clus>
<clus scale="   94.838">  2  5  1 -1</clus>
</clustering>
</event>
<event>
 9    1  0.1434065E-005  0.2284480E+03  0.7546771E-02  0.1127926E+00
          1   -1    0    0  502    0  0.00000000000E+00  0.00000000000E+00  0.11828848009E+03  0.11828848009E+03  0.00000000000E+00 0. -1.
         -1   -1    0    0    0  501 -0.00000000000E+00 -0.00000000000E+00 -0.91263121524E+03  0.91263121524E+03  0.00000000000E+00 0.  1.
         23    2    1    2    0    0  0.32869822783E+02  0.25297274790E+03 -0.31344945885E+03  0.41493406821E+03  0.94042975688E+02 0.  0.
         23    2    1    2    0    0  0.31375350005E+02 -0.18594463707E+03 -0.11613421001E+03  0.23959568796E+03  0.91428213981E+02 0.  0.
        -11    1    4    4    0    0  0.32520725922E+01 -0.94281884012E+02 -0.74020648568E+01  0.94627903883E+02  0.00000000000E+00 0.  1.
         11    1    4    4    0    0  0.28123277413E+02 -0.91662753056E+02 -0.10873214516E+03  0.14496778408E+03  0.00000000000E+00 0. -1.
        -11    1    3    3    0    0 -0.10551185144E+02  0.81603975299E+02 -0.45799658828E+02  0.94170829036E+02  0.00000000000E+00 0.  1.
         11    1    3    3    0    0  0.43421007927E+02  0.17136877260E+03 -0.26764980003E+03  0.32076323918E+03  0.00000000000E+00 0. -1.
         21    1    1    2  502  501 -0.64245172788E+02 -0.67028110832E+02 -0.36475906628E+03  0.37638993916E+03  0.00000000000E+00 0.  1.
<scales pt_clust_5="13000.00000" pt_clust_6="13000.00000" pt_clust_7="13000.00000" pt_clust_8="13000.00000" pt_clust_9="92.84509"></scales>
<clustering>
<clus scale="   91.428">  5  6 -1 -1</clus>
<clus scale="   92.845">  2  9  1 -1</clus>
<clus scale="   94.043">  7  8 -1 -1</clus>
<clus scale="  227.384">  1  5  2 -1</clus>
<clus scale="  227.384">  1  5  2 -1</clus>
</clustering>
</event>
<event>
 9    1  0.1434065E-005  0.1242707E+03  0.7546771E-02  0.1236730E+00
          2   -1    0    0  502    0  0.00000000000E+00  0.00000000000E+00  0.27689087167E+02  0.27689087167E+02  0.00000000000E+00 0. -1.
         -2   -1    0    0    0  501 -0.00000000000E+00 -0.00000000000E+00 -0.74031110048E+03  0.74031110048E+03  0.00000000000E+00 0.  1.
         23    2    1    2    0    0 -0.88348114731E+02 -0.39733428928E+02 -0.32393018152E+03  0.35014783752E+03  0.91041808367E+02 0.  0.
         23    2    1    2    0    0  0.69243573977E+02  0.30313666263E+02 -0.23297898195E+03  0.26068935508E+03  0.89253251600E+02 0.  0.
        -11    1    3    3    0    0 -0.10022093808E+03 -0.10564721336E+02 -0.23096694385E+03  0.25199519622E+03  0.00000000000E+00 0. -1.
         11    1    3    3    0    0  0.11872823345E+02 -0.29168707592E+02 -0.92963237670E+02  0.98152641304E+02  0.00000000000E+00 0.  1.
        -13    1    4    4    0    0  0.26219839115E+01  0.42722950958E+02 -0.51470896649E+02  0.66943099271E+02  0.00000000000E+00 0. -1.
         13    1    4    4    0    0  0.66621590065E+02 -0.12409284695E+02 -0.18150808530E+03  0.19374625581E+03  0.00000000000E+00 0.  1.
         21    1    1    2  502  501  0.19104540754E+02  0.94197626651E+01 -0.15571284984E+03  0.15716299505E+03  0.00000000000E+00 0.  1.
<scales pt_clust_5="13000.00000" pt_clust_6="13000.00000" pt_clust_7="13000.00000" pt_clust_8="13000.00000" pt_clust_9="21.30060"></scales>
<clustering>
<clus scale="   21.301">  2  9  1 -1</clus>
<clus scale="   89.253">  7  8 -1 -1</clus>
<clus scale="   91.042">  5  6 -1 -1</clus>
<clus scale="  122.966">  1  7  2 -1</clus>
<clus scale="  122.966">  1  5  2 -1</clus>
</clustering>
</event>
<event>
 9    1  0.1434065E-005  0.1073870E+03  0.7546771E-02  0.1268921E+00
          1   -1    0    0  502    0  0.00000000000E+00  0.00000000000E+00  0.56542454551E+03  0.56542454551E+03  0.00000000000E+00 0. -1.
         -1   -1    0    0    0  501 -0.00000000000E+00 -0.00000000000E+00 -0.43825629947E+02  0.43825629947E+02  0.00000000000E+00 0.  1.
         23    2    1    2    0    0  0.20551747123E+02  0.27632618318E+02  0.58982782557E+02  0.11562775190E+03  0.93299906042E+02 0.  0.
         23    2    1    2    0    0 -0.41472602179E+02 -0.39124104188E+02  0.45796464532E+03  0.46930426652E+03  0.85230311220E+02 0.  0.
        -11    1    4    4    0    0 -0.23711139318E+02 -0.65090161431E+02  0.35271449498E+03  0.35945300418E+03  0.00000000000E+00 0. -1.
         11    1    4    4    0    0 -0.17761462861E+02  0.25966057243E+02  0.10525015034E+03  0.10985126234E+03  0.00000000000E+00 0.  1.
        -13    1    3    3    0    0  0.35939936408E+00  0.58780411139E+02  0.50628282563E+02  0.77578920441E+02  0.00000000000E+00 0.  1.
         13    1    3    3    0    0  0.20192347759E+02 -0.31147792821E+02  0.83544999941E+01  0.38048831464E+02  0.00000000000E+00 0. -1.
         21    1    1    2  502  501  0.20920855056E+02  0.11491485870E+02  0.46514876857E+01  0.24318157033E+02  0.00000000000E+00 0.  1.
<scales pt_clust_5="13000.00000" pt_clust_6="13000.00000" pt_clust_7="13000.00000" pt_clust_8="13000.00000" pt_clust_9="23.86915"></scales>
<clustering>
<clus scale="   23.869">  2  9  1 -1</clus>
<clus scale="   85.230">  5  6 -1 -1</clus>
<clus scale="   93.300">  7  8 -1 -1</clus>
<clus scale="  100.455">  1  5  2 -1</clus>
<clus scale="  100.455">  1  5  2 -1</clus>
</clustering>
</event>
<event>
 9    1  0.1434065E-005  0.1807973E+03  0.7546771E-02  0.1167052E+00
          1   -1    0    0  502    0  0.00000000000E+00  0.00000000000E+00  0.78923798482E+02  0.78923798482E+02  0.00000000000E+00 0. -1.
         -1   -1    0    0    0  501 -0.00000000000E+00 -0.00000000000E+00 -0.53655696581E+03  0.53655696581E+03  0.00000000000E+00 0.  1.
         23    2    1    2    0    0  0.91382250900E+02  0.11031655875E+03 -0.27118776741E+03  0.31978894450E+03  0.90563264705E+02 0.  0.
         23    2    1    2    0    0 -0.10247820405E+03 -0.12785228533E+03 -0.11131254556E+03  0.21774589183E+03  0.90414608569E+02 0.  0.
        -13    1    3    3    0    0  0.31004543852E+02  0.96422936918E+02 -0.20770260225E+03  0.23108231323E+03  0.00000000000E+00 0.  1.
         13    1    3    3    0    0  0.60377707048E+02  0.13893621829E+02 -0.63485165162E+02  0.88706631272E+02  0.00000000000E+00 0. -1.
        -13    1    4    4    0    0 -0.81024029843E+02 -0.13993982907E+03 -0.10315629042E+03  0.19180529040E+03  0.00000000000E+00 0. -1.
         13    1    4    4    0    0 -0.21454174202E+02  0.12087543747E+02 -0.81562551352E+01  0.25940601426E+02  0.00000000000E+00 0.  1.
         21    1    1    2  502  501  0.11095953145E+02  0.17535726578E+02 -0.75132854352E+02  0.77945927962E+02  0.00000000000E+00 0. -1.
<scales pt_clust_5="13000.00000" pt_clust_6="13000.00000" pt_clust_7="13000.00000" pt_clust_8="13000.00000" pt_clust_9="20.75143"></scales>
<clustering>
<clus scale="   20.751">  2  9  1 -1</clus>
<clus scale="   90.415">  7  8 -1 -1</clus>
<clus scale="   90.563">  5  6 -1 -1</clus>
<clus scale="  180.723">  1  7  2 -1</clus>
<clus scale="  180.723">  1  5  2 -1</clus>
</clustering>
</event>
<event>
 9    1  0.1434065E-005  0.1736897E+03  0.7546771E-02  0.1174342E+00
         -2   -1    0    0    0  501 -0.00000000000E+00  0.00000000000E+00  0.10429990616E+03  0.10429990616E+03  0.00000000000E+00 0.  1.
          2   -1    0    0  502    0  0.00000000000E+00 -0.00000000000E+00 -0.44638325125E+03  0.44638325125E+03  0.00000000000E+00 0. -1.
         23    2    1    2    0    0  0.10104368502E+03 -0.87321624502E+02 -0.11199192923E+03  0.19650447965E+03  0.90757511657E+02 0.  0.
         23    2    1    2    0    0 -0.12401540113E+03  0.94322945275E+02 -0.25924481481E+03  0.31640780401E+03  0.92894492343E+02 0.  0.
        -11    1    3    3    0    0  0.44090812605E+02 -0.18255341225E+02 -0.93675407584E+02  0.10513010618E+03  0.00000000000E+00 0. -1.
         11    1    3    3    0    0  0.56952872413E+02 -0.69066283277E+02 -0.18316521645E+02  0.91374373469E+02  0.00000000000E+00 0.  1.
        -11    1    4    4    0    0 -0.50561748998E+02 -0.78138709144E+01 -0.10926247147E+03  0.12064756405E+03  0.00000000000E+00 0.  1.
         11    1    4    4    0    0 -0.73453652131E+02  0.10213681619E+03 -0.14998234334E+03  0.19576023996E+03  0.00000000000E+00 0. -1.
         21    1    1    2  502  501  0.22971716111E+02 -0.70013207730E+01  0.29153398956E+02  0.37770873757E+02  0.00000000000E+00 0. -1.
<scales pt_clust_5="13000.00000" pt_clust_6="13000.00000" pt_clust_7="13000.00000" pt_clust_8="13000.00000" pt_clust_9="24.01496"></scales>
<clustering>
<clus scale="   24.015">  1  9  2 -1</clus>
<clus scale="   90.758">  5  6 -1 -1</clus>
<clus scale="   92.894">  7  8 -1 -1</clus>
<clus scale="  172.556">  1  5  2 -1</clus>
<clus scale="  173.690">  2  5  1 -1</clus>
</clustering>
</event>
<event>
 9    1  0.1434065E-005  0.1050674E+03  0.7546771E-02  0.1272974E+00
          2   -1    0    0  502    0  0.00000000000E+00  0.00000000000E+00  0.59018260878E+02  0.59018260878E+02  0.00000000000E+00 0. -1.
         -2   -1    0    0    0  501 -0.00000000000E+00 -0.00000000000E+00 -0.26748398012E+03  0.26748398012E+03  0.00000000000E+00 0.  1.
         23    2    1    2    0    0  0.28109271621E+02 -0.38726767962E+02 -0.12596299450E+03  0.16282136747E+03  0.91401466135E+02 0.  0.
         23    2    1    2    0    0  0.93069356862E+01  0.31152681638E+02 -0.56559010177E+02  0.11752444735E+03  0.97754618648E+02 0.  0.
        -11    1    3    3    0    0 -0.16683031224E+02 -0.37903307347E+02 -0.16559277003E+02  0.44600379971E+02  0.00000000000E+00 0. -1.
         11    1    3    3    0    0  0.44792302846E+02 -0.82346061497E+00 -0.10940371750E+03  0.11822098750E+03  0.00000000000E+00 0.  1.
        -13    1    4    4    0    0 -0.42345358730E+02  0.32735213945E+00 -0.17597747806E+02  0.45857576182E+02  0.00000000000E+00 0.  1.
         13    1    4    4    0    0  0.51652294416E+02  0.30825329499E+02 -0.38961262371E+02  0.71666871166E+02  0.00000000000E+00 0. -1.
         21    1    1    2  502  501 -0.37416207307E+02  0.75740863239E+01 -0.25943714565E+02  0.46156426187E+02  0.00000000000E+00 0. -1.
<scales pt_clust_5="13000.00000" pt_clust_6="13000.00000" pt_clust_7="13000.00000" pt_clust_8="13000.00000" pt_clust_9="38.17511"></scales>
<clustering>
<clus scale="   38.175">  1  9  2 -1</clus>
<clus scale="   91.401">  5  6 -1 -1</clus>
<clus scale="   97.755">  7  8 -1 -1</clus>
<clus scale="   99.184">  2  5  1 -1</clus>
<clus scale="   38.175">  1  5  2 -1</clus>
</clustering>
</event>
<event>
 9    1  0.1434065E-005  0.1247724E+03  0.7546771E-02  0.1235537E+00
          1   -1    0    0  502    0  0.00000000000E+00  0.00000000000E+00  0.55325923405E+03  0.55325923405E+03  0.00000000000E+00 0. -1.
         -1   -1    0    0    0  501 -0.00000000000E+00 -0.00000000000E+00 -0.74077440570E+02  0.74077440570E+02  0.00000000000E+00 0.  1.
         23    2    1    2    0    0  0.47192497381E+02  0.91187245762E+02  0.15998508431E+03  0.21090037001E+03  0.91331775792E+02 0.  0.
         23    2    1    2    0    0 -0.51853643935E+02 -0.58605171000E+02  0.35071871365E+03  0.37086268670E+03  0.91717772689E+02 0.  0.
        -13    1    3    3    0    0  0.35228061744E+01  0.69550012708E+02  0.14340767130E+03  0.15942200167E+03  0.00000000000E+00 0. -1.
         13    1    3    3    0    0  0.43669691206E+02  0.21637233054E+02  0.16577413015E+02  0.51478368337E+02  0.00000000000E+00 0.  1.
        -13    1    4    4    0    0 -0.92492831324E+01  0.25004518861E+02  0.82725000438E+02  0.86914906082E+02  0.00000000000E+00 0. -1.
         13    1    4    4    0    0 -0.42604360803E+02 -0.83609689861E+02  0.26799371321E+03  0.28394778062E+03  0.00000000000E+00 0.  1.
         21    1    1    2  502  501  0.46611465546E+01 -0.32582074762E+02 -0.31522004478E+02  0.45573617909E+02  0.00000000000E+00 0.  1.
<scales pt_clust_5="13000.00000" pt_clust_6="13000.00000" pt_clust_7="13000.00000" pt_clust_8="13000.00000" pt_clust_9="32.91379"></scales>
<clustering>
<clus scale="   32.914">  2  9  1 -1</clus>
<clus scale="   91.332">  5  6 -1 -1</clus>
<clus scale="   91.718">  7  8 -1 -1</clus>
<clus scale="  124.489">  2  5  1 -1</clus>
<clus scale="  124.772">  1  5  2 -1</clus>
</clustering>
</event>
<event>
 9    1  0.1434065E-005  0.9766957E+02  0.7546771E-02  0.1289357E+00
          1   -1    0    0  502    0  0.00000000000E+00  0.00000000000E+00  0.28881625257E+03  0.28881625257E+03  0.00000000000E+00 0. -1.
         -1   -1    0    0    0  501 -0.00000000000E+00 -0.00000000000E+00 -0.27093572598E+03  0.27093572598E+03  0.00000000000E+00 0.  1.
         23    2    1    2    0    0 -0.29811652299E+02  0.21389066320E+02 -0.21290909017E+03  0.23360048144E+03  0.88840742250E+02 0.  0.
         23    2    1    2    0    0  0.11360671656E+03 -0.34039606532E+02  0.16622363299E+03  0.21961316963E+03  0.80836051675E+02 0.  0.
        -11    1    3    3    0    0 -0.52437200448E+01 -0.30965144038E+02 -0.12100784360E+03  0.12501693868E+03  0.00000000000E+00 0. -1.
         11    1    3    3    0    0 -0.24567932254E+02  0.52354210358E+02 -0.91901246569E+02  0.10858354276E+03  0.00000000000E+00 0.  1.
        -11    1    4    4    0    0  0.35311461058E+01 -0.27214951333E+02  0.11852454423E+02  0.29893197299E+02  0.00000000000E+00 0. -1.
         11    1    4    4    0    0  0.11007557045E+03 -0.68246551989E+01  0.15437117857E+03  0.18971997233E+03  0.00000000000E+00 0.  1.
         21    1    1    2  502  501 -0.83795064262E+02  0.12650540213E+02  0.64565983767E+02  0.10653832748E+03  0.00000000000E+00 0. -1.
<scales pt_clust_5="13000.00000" pt_clust_6="13000.00000" pt_clust_7="13000.00000" pt_clust_8="13000.00000" pt_clust_9="84.74461"></scales>
<clustering>
<clus scale="   80.836">  7  8 -1 -1</clus>
<clus scale="   84.745">  1  9  2 -1</clus>
<clus scale="   88.841">  5  6 -1 -1</clus>
<clus scale="   90.450">  1  7  2 -1</clus>
<clus scale="   84.745">  1  5  2 -1</clus>
</clustering>
</event>
<event>
 9    1  0.1434065E-005  0.1102350E+03  0.7546771E-02  0.1260320E+00
          1   -1    0    0  502    0  0.00000000000E+00  0.00000000000E+00  0.56744517513E+03  0.56744517513E+03  0.00000000000E+00 0. -1.
         -1   -1    0    0    0  501 -0.00000000000E+00 -0.00000000000E+00 -0.41149307776E+02  0.41149307776E+02  0.00000000000E+00 0.  1.
         23    2    1    2    0    0  0.43168768875E+02 -0.19360829527E+02  0.21028337471E+03  0.23429581255E+03  0.91853392839E+02 0.  0.
         23    2    1    2    0    0 -0.75068421991E+02 -0.46622497643E+01  0.31224980260E+03  0.33418814749E+03  0.92329703491E+02 0.  0.
        -11    1    4    4    0    0  0.78540653452E+01  0.23932525040E+02  0.33176698695E+02  0.41655076924E+02  0.00000000000E+00 0.  1.
         11    1    4    4    0    0 -0.82922487336E+02 -0.28594774805E+02  0.27907310391E+03  0.29253307057E+03  0.00000000000E+00 0. -1.
        -11    1    3    3    0    0  0.58230768405E+02 -0.40800512139E+02  0.11268831781E+03  0.13324474155E+03  0.00000000000E+00 0.  1.
         11    1    3    3    0    0 -0.15061999530E+02  0.21439682613E+02  0.97595056895E+02  0.10105107100E+03  0.00000000000E+00 0. -1.
         21    1    1    2  502  501  0.31899653116E+02  0.24023079291E+02  0.37626900445E+01  0.40110522857E+02  0.00000000000E+00 0.  1.
<scales pt_clust_5="13000.00000" pt_clust_6="13000.00000" pt_clust_7="13000.00000" pt_clust_8="13000.00000" pt_clust_9="39.93365"></scales>
<clustering>
<clus scale="   39.934">  2  9  1 -1</clus>
<clus scale="   91.853">  7  8 -1 -1</clus>
<clus scale="   92.330">  5  6 -1 -1</clus>
<clus scale="  109.836">  2  7  1 -1</clus>
<clus scale="  110.235">  1  5  2 -1</clus>
</clustering>
</event>
<event>
 9    1  0.1434065E-005  0.1452345E+03  0.7546771E-02  0.1209137E+00
         -1   -1    0    0    0  501 -0.00000000000E+00  0.00000000000E+00  0.90294513510E+02  0.90294513510E+02  0.00000000000E+00 0.  1.
          1   -1    0    0  502    0  0.00000000000E+00 -0.00000000000E+00 -0.29044827256E+03  0.29044827256E+03  0.00000000000E+00 0. -1.
         23    2    1    2    0    0 -0.55716401508E+02  0.84996690254E+02 -0.50313590739E+02  0.14307280642E+03  0.87233111676E+02 0.  0.
         23    2    1    2    0    0  0.86054065339E+02 -0.69896500851E+02 -0.13355673405E+03  0.20007290798E+03  0.99503488915E+02 0.  0.
        -11    1    3    3    0    0 -0.84490046285E+01  0.77287023679E+02 -0.62571087356E+01  0.77998853313E+02  0.00000000000E+00 0.  1.
         11    1    3    3    0    0 -0.47267396880E+02  0.77096665748E+01 -0.44056482003E+02  0.65073953107E+02  0.00000000000E+00 0. -1.
        -13    1    4    4    0    0  0.68127629581E+02 -0.12185249392E+02 -0.21008914341E+02  0.72327233439E+02  0.00000000000E+00 0.  1.
         13    1    4    4    0    0  0.17926435758E+02 -0.57711251459E+02 -0.11254781970E+03  0.12774567454E+03  0.00000000000E+00 0. -1.
         21    1    1    2  502  501 -0.30337663831E+02 -0.15100189403E+02 -0.16283434269E+02  0.37597071672E+02  0.00000000000E+00 0.  1.
<scales pt_clust_5="13000.00000" pt_clust_6="13000.00000" pt_clust_7="13000.00000" pt_clust_8="13000.00000" pt_clust_9="33.88790"></scales>
<clustering>
<clus scale="   33.888">  1  9  2 -1</clus>
<clus scale="   87.233">  5  6 -1 -1</clus>
<clus scale="   99.503">  7  8 -1 -1</clus>
<clus scale="  137.119">  1  5  2 -1</clus>
<clus scale="  145.235">  2  5  1 -1</clus>
</clustering>
</event>
<event>
 9    1  0.1434065E-005  0.1066128E+03  0.7546771E-02  0.1267356E+00
         -3   -1    0    0    0  501 -0.00000000000E+00  0.00000000000E+00  0.32589874068E+02  0.32589874068E+02  0.00000000000E+00 0.  1.
          3   -1    0    0  502    0  0.00000000000E+00 -0.00000000000E+00 -0.60739990181E+03  0.60739990181E+03  0.00000000000E+00 0. -1.
         23    2    1    2    0    0 -0.48521346284E+02 -0.12814700958E+02 -0.10382797629E+03  0.14718723763E+03  0.91461995688E+02 0.  0.
         23    2    1    2    0    0  0.70646145629E+02 -0.62980206148E+01 -0.35365504793E+03  0.37188757380E+03  0.90542430181E+02 0.  0.
        -11    1    4    4    0    0  0.49215507114E+02  0.39740873394E+02 -0.17182345074E+03  0.18309779186E+03  0.00000000000E+00 0.  1.
         11    1    4    4    0    0  0.21430638515E+02 -0.46038894009E+02 -0.18183159719E+03  0.18878978194E+03  0.00000000000E+00 0. -1.
        -13    1    3    3    0    0  0.36356638526E+01  0.32487440359E+02 -0.49405743524E+02  0.59241702591E+02  0.00000000000E+00 0.  1.
         13    1    3    3    0    0 -0.52157010137E+02 -0.45302141317E+02 -0.54422232765E+02  0.87945535040E+02  0.00000000000E+00 0. -1.
         21    1    1    2  502  501 -0.22124799345E+02  0.19112721573E+02 -0.11732700352E+03  0.12091496445E+03  0.00000000000E+00 0. -1.
<scales pt_clust_5="13000.00000" pt_clust_6="13000.00000" pt_clust_7="13000.00000" pt_clust_8="13000.00000" pt_clust_9="29.23701"></scales>
<clustering>
<clus scale="   29.237">  2  9  1 -1</clus>
<clus scale="   90.542">  5  6 -1 -1</clus>
<clus scale="   91.462">  7  8 -1 -1</clus>
<clus scale="  105.825">  2  5  1 -1</clus>
<clus scale="   29.237">  2  5  1 -1</clus>
</clustering>
</event>
<event>
 9    1  0.1434065E-005  0.1406659E+03  0.7546771E-02  0.1213303E+00
          3   -1    0    0  502    0  0.00000000000E+00  0.00000000000E+00  0.55009513421E+02  0.55009513421E+02  0.00000000000E+00 0. -1.
         -3   -1    0    0    0  501 -0.00000000000E+00 -0.00000000000E+00 -0.53126522945E+03  0.53126522945E+03  0.00000000000E+00 0.  1.
         23    2    1    2    0    0  0.10069090356E+03  0.51508220063E+02 -0.27631109124E+03  0.31268779487E+03  0.92919767133E+02 0.  0.
         23    2    1    2    0    0 -0.65148790142E+02 -0.74755811183E+02 -0.12086790652E+03  0.18382715917E+03  0.96698383958E+02 0.  0.
        -11    1    4    4    0    0 -0.74557079601E+02 -0.12576655042E+02 -0.66889725977E+02  0.10095130416E+03  0.00000000000E+00 0. -1.
         11    1    4    4    0    0  0.94082894585E+01 -0.62179156141E+02 -0.53978180544E+02  0.82875855011E+02  0.00000000000E+00 0.  1.
        -13    1    3    3    0    0  0.97913551342E+02  0.33190621636E+01 -0.19137659983E+03  0.21499554106E+03  0.00000000000E+00 0.  1.
         13    1    3    3    0    0  0.27773522146E+01  0.48189157900E+02 -0.84934491408E+02  0.97692253814E+02  0.00000000000E+00 0. -1.
         21    1    1    2  502  501 -0.35542113415E+02  0.23247591120E+02 -0.79076718271E+02  0.89759788834E+02  0.00000000000E+00 0.  1.
<scales pt_clust_5="13000.00000" pt_clust_6="13000.00000" pt_clust_7="13000.00000" pt_clust_8="13000.00000" pt_clust_9="42.46990"></scales>
<clustering>
<clus scale="   42.470">  2  9  1 -1</clus>
<clus scale="   92.920">  7  8 -1 -1</clus>
<clus scale="   96.698">  5  6 -1 -1</clus>
<clus scale="  138.096">  2  7  1 -1</clus>
<clus scale="  140.666">  1  5  2 -1</clus>
</clustering>
</event>
<event>
 9    1  0.1434065E-005  0.1065242E+03  0.7546771E-02  0.1270159E+00
          2   -1    0    0  502    0  0.00000000000E+00  0.00000000000E+00  0.70835551632E+03  0.70835551632E+03  0.00000000000E+00 0.  1.
         -2   -1    0    0    0  501 -0.00000000000E+00 -0.00000000000E+00 -0.45322444140E+02  0.45322444140E+02  0.00000000000E+00 0. -1.
         23    2    1    2    0    0  0.16155329925E+02  0.39350104731E+02  0.28804396900E+03  0.30343344391E+03  0.85399656772E+02 0.  0.
         23    2    1    2    0    0 -0.16803296286E+02 -0.61288352903E+02  0.40089423689E+03  0.41629186502E+03  0.92434380721E+02 0.  0.
        -13    1    4    4    0    0 -0.43929661298E+02 -0.35727718271E+01  0.22296052074E+03  0.22727510565E+03  0.00000000000E+00 0.  1.
         13    1    4    4    0    0  0.27126365012E+02 -0.57715581076E+02  0.17793371615E+03  0.18901675937E+03  0.00000000000E+00 0. -1.
        -13    1    3    3    0    0 -0.34277268710E+02  0.12901149886E+02  0.14286829075E+03  0.14748803111E+03  0.00000000000E+00 0.  1.
         13    1    3    3    0    0  0.50432598635E+02  0.26448954845E+02  0.14517567826E+03  0.15594541280E+03  0.00000000000E+00 0. -1.
         21    1    1    2  502  501  0.64796636149E+00  0.21938248172E+02 -0.25905133715E+02  0.33952651532E+02  0.00000000000E+00 0. -1.
<scales pt_clust_5="13000.00000" pt_clust_6="13000.00000" pt_clust_7="13000.00000" pt_clust_8="13000.00000" pt_clust_9="21.94782"></scales>
<clustering>
<clus scale="   21.948">  2  9  1 -1</clus>
<clus scale="   85.400">  7  8 -1 -1</clus>
<clus scale="   92.434">  5  6 -1 -1</clus>
<clus scale="  100.481">  2  7  1 -1</clus>
<clus scale="  106.524">  1  5  2 -1</clus>
</clustering>
</event>
<event>
 9    1  0.1434065E-005  0.9161064E+02  0.7546771E-02  0.1299277E+00
          2   -1    0    0  502    0  0.00000000000E+00  0.00000000000E+00  0.26483520833E+03  0.26483520833E+03  0.00000000000E+00 0. -1.
         -2   -1    0    0    0  501 -0.00000000000E+00 -0.00000000000E+00 -0.91867870208E+02  0.91867870208E+02  0.00000000000E+00 0.  1.
         23    2    1    2    0    0  0.97538764958E+01 -0.15120265107E+02 -0.85639736858E+01  0.93612315934E+02  0.91466734530E+02 0.  0.
         23    2    1    2    0    0 -0.40504147392E+01 -0.44449717693E+01  0.20949870672E+03  0.22848580417E+03  0.90993906133E+02 0.  0.
        -11    1    3    3    0    0  0.47271185461E+02 -0.13913797251E+02 -0.21700925416E+02  0.53843187989E+02  0.00000000000E+00 0. -1.
         11    1    3    3    0    0 -0.37517308966E+02 -0.12064678558E+01  0.13136951730E+02  0.39769127945E+02  0.00000000000E+00 0.  1.
        -13    1    4    4    0    0 -0.42587343543E+02  0.14071470732E+02  0.75350324015E+02  0.87688992741E+02  0.00000000000E+00 0.  1.
         13    1    4    4    0    0  0.38536928804E+02 -0.18516442502E+02  0.13414838271E+03  0.14079681143E+03  0.00000000000E+00 0. -1.
         21    1    1    2  502  501 -0.57034617566E+01  0.19565236876E+02 -0.27967394917E+02  0.34604958437E+02  0.00000000000E+00 0.  1.
<scales pt_clust_5="13000.00000" pt_clust_6="13000.00000" pt_clust_7="13000.00000" pt_clust_8="13000.00000" pt_clust_9="20.37960"></scales>
<clustering>
<clus scale="   20.380">  2  9  1 -1</clus>
<clus scale="   90.994">  7  8 -1 -1</clus>
<clus scale="   91.139">  1  7  2 -1</clus>
<clus scale="   91.467">  5  6 -1 -1</clus>
<clus scale="   91.139">  1  5  2 -1</clus>
</clustering>
</event>
<event>
 9    1  0.1434065E-005  0.2567918E+03  0.7546771E-02  0.1109644E+00
          1   -1    0    0  502    0  0.00000000000E+00  0.00000000000E+00  0.68763688306E+03  0.68763688306E+03  0.00000000000E+00 0. -1.
         -1   -1    0    0    0  501 -0.00000000000E+00 -0.00000000000E+00 -0.11776835787E+03  0.11776835787E+03  0.00000000000E+00 0.  1.
         23    2    1    2    0    0 -0.22781808236E+03  0.11025996691E+03  0.15424806577E+03  0.31007351409E+03  0.91075679482E+02 0.  0.
         23    2    1    2    0    0  0.19997003823E+03 -0.86082796778E+02  0.36891833044E+03  0.43582426540E+03  0.80273231430E+02 0.  0.
        -11    1    4    4    0    0  0.16425425629E+03 -0.94998428622E+02  0.33856907696E+03  0.38811490827E+03  0.00000000000E+00 0. -1.
         11    1    4    4    0    0  0.35715781938E+02  0.89156318441E+01  0.30349253489E+02  0.47709357132E+02  0.00000000000E+00 0.  1.
        -13    1    3    3    0    0 -0.65318359990E+02 -0.79608843098E+01  0.55919463974E+02  0.86353056008E+02  0.00000000000E+00 0. -1.
         13    1    3    3    0    0 -0.16249972237E+03  0.11822085122E+03  0.98328601794E+02  0.22372045808E+03  0.00000000000E+00 0.  1.
         21    1    1    2  502  501  0.27848044130E+02 -0.24177170129E+02  0.46702128978E+02  0.59507461451E+02  0.00000000000E+00 0. -1.
<scales pt_clust_5="13000.00000" pt_clust_6="13000.00000" pt_clust_7="13000.00000" pt_clust_8="13000.00000" pt_clust_9="36.87884"></scales>
<clustering>
<clus scale="   36.879">  1  9  2 -1</clus>
<clus scale="   80.273">  5  6 -1 -1</clus>
<clus scale="   91.076">  7  8 -1 -1</clus>
<clus scale="  253.162">  1  5  2 -1</clus>
<clus scale="   36.879">  1  5  2 -1</clus>
</clustering>
</event>
<event>
 9    1  0.1434065E-005  0.1199723E+03  0.7546771E-02  0.1244198E+00
         -1   -1    0    0    0  501 -0.00000000000E+00  0.00000000000E+00  0.33088616107E+03  0.33088616107E+03  0.00000000000E+00 0.  1.
          1   -1    0    0  502    0  0.00000000000E+00 -0.00000000000E+00 -0.71440786841E+02  0.71440786841E+02  0.00000000000E+00 0. -1.
         23    2    1    2    0    0  0.45155441227E+02  0.21485700238E+02  0.14346829770E+03  0.17876368794E+03  0.94194768922E+02 0.  0.
         23    2    1    2    0    0 -0.79953503904E+02 -0.32014755075E+02  0.27972240579E+02  0.12834447342E+03  0.90952461684E+02 0.  0.
        -11    1    3    3    0    0  0.60186555435E+02  0.40575708688E+02  0.67933397654E+02  0.99417081568E+02  0.00000000000E+00 0. -1.
         11    1    3    3    0    0 -0.15031114208E+02 -0.19090008450E+02  0.75534900050E+02  0.79346606371E+02  0.00000000000E+00 0.  1.
        -11    1    4    4    0    0 -0.40119255125E+02  0.27995363206E+02 -0.49079657366E+01  0.49166890490E+02  0.00000000000E+00 0. -1.
         11    1    4    4    0    0 -0.39834248780E+02 -0.60010118281E+02  0.32880206316E+02  0.79177582934E+02  0.00000000000E+00 0.  1.
         21    1    1    2  502  501  0.34798062677E+02  0.10529054838E+02  0.88004835944E+02  0.95218786546E+02  0.00000000000E+00 0. -1.
<scales pt_clust_5="13000.00000" pt_clust_6="13000.00000" pt_clust_7="13000.00000" pt_clust_8="13000.00000" pt_clust_9="36.35610"></scales>
<clustering>
<clus scale="   36.356">  1  9  2 -1</clus>
<clus scale="   90.952">  7  8 -1 -1</clus>
<clus scale="   94.195">  5  6 -1 -1</clus>
<clus scale="  117.444">  2  7  1 -1</clus>
<clus scale="  117.444">  2  5  1 -1</clus>
</clustering>
</event>
<event>
 9    1  0.1434065E-005  0.9216451E+02  0.7546771E-02  0.1298581E+00
         -3   -1    0    0    0  501 -0.00000000000E+00  0.00000000000E+00  0.90012804002E+02  0.90012804002E+02  0.00000000000E+00 0.  1.
          3   -1    0    0  502    0  0.00000000000E+00 -0.00000000000E+00 -0.13678381073E+03  0.13678381073E+03  0.00000000000E+00 0. -1.
         23    2    1    2    0    0 -0.15012886460E+02 -0.29811639720E+02 -0.20164796618E+02  0.98128031693E+02  0.90046493317E+02 0.  0.
         23    2    1    2    0    0  0.98834832406E+01  0.52239373686E+01 -0.42630389228E+02  0.98875291841E+02  0.88509889212E+02 0.  0.
        -11    1    4    4    0    0 -0.25438054748E+02  0.30922794846E+02 -0.37560581456E+02  0.54900921210E+02  0.00000000000E+00 0.  1.
         11    1    4    4    0    0  0.35321537988E+02 -0.25698857477E+02 -0.50698077715E+01  0.43974370630E+02  0.00000000000E+00 0. -1.
        -13    1    3    3    0    0 -0.34138239731E+02 -0.38731290348E+02  0.17867603761E+02  0.54633172415E+02  0.00000000000E+00 0. -1.
         13    1    3    3    0    0  0.19125353270E+02  0.89196506285E+01 -0.38032400379E+02  0.43494859278E+02  0.00000000000E+00 0.  1.
         21    1    1    2  502  501  0.51294032195E+01  0.24587702351E+02  0.16024179115E+02  0.29793291201E+02  0.00000000000E+00 0.  1.
<scales pt_clust_5="13000.00000" pt_clust_6="13000.00000" pt_clust_7="13000.00000" pt_clust_8="13000.00000" pt_clust_9="25.11704"></scales>
<clustering>
<clus scale="   25.117">  1  9  2 -1</clus>
<clus scale="   88.510">  5  6 -1 -1</clus>
<clus scale="   90.046">  7  8 -1 -1</clus>
<clus scale="   90.664">  2  5  1 -1</clus>
<clus scale="   90.664">  2  5  1 -1</clus>
</clustering>
</event>
<event>
 9    1  0.1434065E-005  0.1207793E+03  0.7546771E-02  0.1242215E+00
         -2   -1    0    0    0  501 -0.00000000000E+00  0.00000000000E+00  0.63374387699E+02  0.63374387699E+02  0.00000000000E+00 0.  1.
          2   -1    0    0  502    0  0.00000000000E+00 -0.00000000000E+00 -0.31405060709E+03  0.31405060709E+03  0.00000000000E+00 0. -1.
         23    2    1    2    0    0 -0.49930237036E+02 -0.65174444985E+02 -0.12150747583E+03  0.17272520505E+03  0.91264412154E+02 0.  0.
         23    2    1    2    0    0  0.64109277258E+02  0.44834544616E+02 -0.13407719328E+03  0.17942431532E+03  0.89979193964E+02 0.  0.
        -11    1    4    4    0    0  0.34863127561E+01  0.55641827579E+02 -0.47869745826E+02  0.73482514372E+02  0.00000000000E+00 0.  1.
         11    1    4    4    0    0  0.60622964502E+02 -0.10807282964E+02 -0.86207447457E+02  0.10594180094E+03  0.00000000000E+00 0. -1.
        -13    1    3    3    0    0 -0.66547160179E+02 -0.76780015576E+02 -0.92961378908E+02  0.13771533425E+03  0.00000000000E+00 0.  1.
         13    1    3    3    0    0  0.16616923143E+02  0.11605570591E+02 -0.28546096923E+02  0.35009870794E+02  0.00000000000E+00 0. -1.
         21    1    1    2  502  501 -0.14179040222E+02  0.20339900369E+02  0.49084497260E+01  0.25275474424E+02  0.00000000000E+00 0.  1.
<scales pt_clust_5="13000.00000" pt_clust_6="13000.00000" pt_clust_7="13000.00000" pt_clust_8="13000.00000" pt_clust_9="24.79429"></scales>
<clustering>
<clus scale="   24.794">  1  9  2 -1</clus>
<clus scale="   89.979">  5  6 -1 -1</clus>
<clus scale="   91.264">  7  8 -1 -1</clus>
<clus scale="  119.811">  2  5  1 -1</clus>
<clus scale="  119.811">  2  5  1 -1</clus>
</clustering>
</event>
<event>
 9    1  0.1434065E-005  0.1230409E+03  0.7546771E-02  0.1238562E+00
         -2   -1    0    0    0  501 -0.00000000000E+00  0.00000000000E+00  0.20977653244E+03  0.20977653244E+03  0.00000000000E+00 0.  1.
          2   -1    0    0  502    0  0.00000000000E+00 -0.00000000000E+00 -0.20187600126E+03  0.20187600126E+03  0.00000000000E+00 0. -1.
         23    2    1    2    0    0  0.33652728187E+02  0.56035288922E+02  0.10392751020E+03  0.15293026484E+03  0.91182667259E+02 0.  0.
         23    2    1    2    0    0 -0.32430559672E+02 -0.77438908006E+02 -0.15319016115E+03  0.19767115915E+03  0.92510194111E+02 0.  0.
        -11    1    3    3    0    0  0.72368550139E+01 -0.25106772658E+02  0.17332232435E+02  0.31354878168E+02  0.00000000000E+00 0. -1.
         11    1    3    3    0    0  0.26415873173E+02  0.81142061580E+02  0.86595277768E+02  0.12157538667E+03  0.00000000000E+00 0.  1.
        -11    1    4    4    0    0  0.23238644900E+02 -0.38619904221E+01 -0.66036871835E+01  0.24465450563E+02  0.00000000000E+00 0.  1.
         11    1    4    4    0    0 -0.55669204572E+02 -0.73576917584E+02 -0.14658647396E+03  0.17320570859E+03  0.00000000000E+00 0. -1.
         21    1    1    2  502  501 -0.12221685157E+01  0.21403619084E+02  0.57163182124E+02  0.61051109706E+02  0.00000000000E+00 0. -1.
<scales pt_clust_5="13000.00000" pt_clust_6="13000.00000" pt_clust_7="13000.00000" pt_clust_8="13000.00000" pt_clust_9="21.43848"></scales>
<clustering>
<clus scale="   21.438">  1  9  2 -1</clus>
<clus scale="   91.183">  5  6 -1 -1</clus>
<clus scale="   92.510">  7  8 -1 -1</clus>
<clus scale="  122.046">  1  5  2 -1</clus>
<clus scale="  123.041">  2  5  1 -1</clus>
</clustering>
</event>
<event>
 9    1  0.1434065E-005  0.9311098E+02  0.7546771E-02  0.1296222E+00
         -1   -1    0    0    0  501 -0.00000000000E+00  0.00000000000E+00  0.41232860168E+02  0.41232860168E+02  0.00000000000E+00 0.  1.
          1   -1    0    0  502    0  0.00000000000E+00 -0.00000000000E+00 -0.30950577150E+03  0.30950577150E+03  0.00000000000E+00 0. -1.
         23    2    1    2    0    0  0.19919230526E+02 -0.24548734937E+02 -0.68808122978E+02  0.11713812784E+03  0.89372071001E+02 0.  0.
         23    2    1    2    0    0 -0.27517338624E+02 -0.84549687808E+00 -0.17344156495E+03  0.19645475827E+03  0.88060074986E+02 0.  0.
        -11    1    4    4    0    0 -0.18738866890E+01 -0.34514150555E+02 -0.13474784028E+03  0.13911045432E+03  0.00000000000E+00 0. -1.
         11    1    4    4    0    0 -0.25643451935E+02  0.33668653677E+02 -0.38693724666E+02  0.57344303955E+02  0.00000000000E+00 0.  1.
        -13    1    3    3    0    0  0.84929527210E+00  0.24653977430E+02  0.61924450738E+01  0.25433959219E+02  0.00000000000E+00 0.  1.
         13    1    3    3    0    0  0.19069935254E+02 -0.49202712367E+02 -0.75000568052E+02  0.91704168624E+02  0.00000000000E+00 0. -1.
         21    1    1    2  502  501  0.75981080980E+01  0.25394231815E+02 -0.26023223405E+02  0.37145745551E+02  0.00000000000E+00 0.  1.
<scales pt_clust_5="13000.00000" pt_clust_6="13000.00000" pt_clust_7="13000.00000" pt_clust_8="13000.00000" pt_clust_9="26.50657"></scales>
<clustering>
<clus scale="   26.507">  1  9  2 -1</clus>
<clus scale="   88.060">  5  6 -1 -1</clus>
<clus scale="   89.372">  7  8 -1 -1</clus>
<clus scale="   91.852">  2  5  1 -1</clus>
<clus scale="   91.852">  2  5  1 -1</clus>
</clustering>
</event>
<event>
 9    1  0.1434065E-005  0.9367752E+02  0.7546771E-02  0.1294926E+00
         -3   -1    0    0    0  501 -0.00000000000E+00  0.00000000000E+00  0.54927789665E+03  0.54927789665E+03  0.00000000000E+00 0.  1.
          3   -1    0    0  502    0  0.00000000000E+00 -0.00000000000E+00 -0.52242323301E+02  0.52242323301E+02  0.00000000000E+00 0. -1.
         23    2    1    2    0    0  0.13437788616E-01 -0.29637020868E+02  0.88490745675E+02  0.13055987898E+03  0.91306717953E+02 0.  0.
         23    2    1    2    0    0  0.23471177215E+02 -0.38976627259E+02  0.69878104400E+02  0.12461584584E+03  0.92607159162E+02 0.  0.
        -13    1    4    4    0    0  0.20470641080E+02 -0.67449833872E+02  0.64376246346E+02  0.95461135177E+02  0.00000000000E+00 0. -1.
         13    1    4    4    0    0  0.30005361355E+01  0.28473206613E+02  0.55018580541E+01  0.29154710665E+02  0.00000000000E+00 0.  1.
        -13    1    3    3    0    0  0.34153896670E+02 -0.28492808630E+01  0.26514387168E+01  0.34374949985E+02  0.00000000000E+00 0. -1.
         13    1    3    3    0    0 -0.34140458882E+02 -0.26787740005E+02  0.85839306958E+02  0.96184928997E+02  0.00000000000E+00 0.  1.
         21    1    1    2  502  501 -0.23484615004E+02  0.68613648127E+02  0.33866672327E+03  0.34634449513E+03  0.00000000000E+00 0.  1.
<scales pt_clust_5="13000.00000" pt_clust_6="13000.00000" pt_clust_7="13000.00000" pt_clust_8="13000.00000" pt_clust_9="72.52144"></scales>
<clustering>
<clus scale="   72.521">  1  9  2 -1</clus>
<clus scale="   91.307">  7  8 -1 -1</clus>
<clus scale="   92.392">  1  7  2 -1</clus>
<clus scale="   92.607">  5  6 -1 -1</clus>
<clus scale="   93.678">  2  5  1 -1</clus>
</clustering>
</event>
<event>
 9    1  0.1434065E-005  0.1780001E+03  0.7546771E-02  0.1170005E+00
         -2   -1    0    0    0  501 -0.00000000000E+00  0.00000000000E+00  0.75857415415E+02  0.75857415415E+02  0.00000000000E+00 0.  1.
          2   -1    0    0  502    0  0.00000000000E+00 -0.00000000000E+00 -0.58437992921E+03  0.58437992921E+03  0.00000000000E+00 0. -1.
         23    2    1    2    0    0  0.33989704660E+02 -0.13306507303E+03 -0.15593226204E+03  0.22661743399E+03  0.90437698788E+02 0.  0.
         23    2    1    2    0    0 -0.84933880136E+02  0.14209440059E+03 -0.32154836818E+03  0.37328388236E+03  0.92427923716E+02 0.  0.
        -11    1    3    3    0    0 -0.22751578286E+02 -0.17378615660E+02 -0.66029738444E+01  0.29381114008E+02  0.00000000000E+00 0. -1.
         11    1    3    3    0    0  0.56741282946E+02 -0.11568645737E+03 -0.14932928819E+03  0.19723631998E+03  0.00000000000E+00 0.  1.
        -13    1    4    4    0    0 -0.10335472267E+03  0.10799820942E+03 -0.27210553159E+03  0.31046293218E+03  0.00000000000E+00 0.  1.
         13    1    4    4    0    0  0.18420842539E+02  0.34096191174E+02 -0.49442836590E+02  0.62820950188E+02  0.00000000000E+00 0. -1.
         21    1    1    2  502  501  0.50944175476E+02 -0.90293275651E+01 -0.31041883583E+02  0.60336028271E+02  0.00000000000E+00 0.  1.
<scales pt_clust_5="13000.00000" pt_clust_6="13000.00000" pt_clust_7="13000.00000" pt_clust_8="13000.00000" pt_clust_9="51.73817"></scales>
<clustering>
<clus scale="   51.738">  1  9  2 -1</clus>
<clus scale="   90.438">  5  6 -1 -1</clus>
<clus scale="   92.428">  7  8 -1 -1</clus>
<clus scale="  176.975">  1  5  2 -1</clus>
<clus scale="  178.000">  2  5  1 -1</clus>
</clustering>
</event>
<event>
 9    1  0.1434065E-005  0.1532026E+03  0.7546771E-02  0.1196842E+00
          4   -1    0    0  502    0  0.00000000000E+00  0.00000000000E+00  0.21557107558E+03  0.21557107558E+03  0.00000000000E+00 0. -1.
         -4   -1    0    0    0  501 -0.00000000000E+00 -0.00000000000E+00 -0.24738036838E+03  0.24738036838E+03  0.00000000000E+00 0.  1.
         23    2    1    2    0    0 -0.35014814183E+02 -0.11598817216E+03 -0.16023624815E+03  0.21994775842E+03  0.89565997559E+02 0.  0.
         23    2    1    2    0    0  0.76209559331E+01  0.13804019206E+03  0.12552213951E+03  0.20771695990E+03  0.90979966633E+02 0.  0.
        -11    1    4    4    0    0  0.37214537455E+02  0.11376581100E+03  0.11919266188E+03  0.16892149714E+03  0.00000000000E+00 0. -1.
         11    1    4    4    0    0 -0.29593581522E+02  0.24274381064E+02  0.63294776241E+01  0.38795462755E+02  0.00000000000E+00 0.  1.
        -13    1    3    3    0    0  0.22876665645E+02 -0.26981486855E+01 -0.19009598974E+02  0.29866146228E+02  0.00000000000E+00 0. -1.
         13    1    3    3    0    0 -0.57891479828E+02 -0.11329002347E+03 -0.14122664918E+03  0.19008161219E+03  0.00000000000E+00 0.  1.
         21    1    1    2  502  501  0.27393858250E+02 -0.22052019905E+02  0.29048158462E+01  0.35286725646E+02  0.00000000000E+00 0. -1.
<scales pt_clust_5="13000.00000" pt_clust_6="13000.00000" pt_clust_7="13000.00000" pt_clust_8="13000.00000" pt_clust_9="35.16696"></scales>
<clustering>
<clus scale="   35.167">  1  9  2 -1</clus>
<clus scale="   89.566">  7  8 -1 -1</clus>
<clus scale="   90.980">  5  6 -1 -1</clus>
<clus scale="  152.367">  2  7  1 -1</clus>
<clus scale="   35.167">  1  5  2 -1</clus>
</clustering>
</event>
<event>
 9    1  0.1434065E-005  0.3751402E+03  0.7546771E-02  0.1052863E+00
         -1   -1    0    0    0  501 -0.00000000000E+00  0.00000000000E+00  0.70113351915E+03  0.70113351915E+03  0.00000000000E+00 0.  1.
          1   -1    0    0  502    0  0.00000000000E+00 -0.00000000000E+00 -0.51966777810E+03  0.51966777810E+03  0.00000000000E+00 0. -1.
         23    2    1    2    0    0  0.71935500599E+02 -0.26888900074E+03  0.47573262315E+03  0.55812115410E+03  0.87759232874E+02 0.  0.
         23    2    1    2    0    0 -0.12559921216E+03  0.35577086439E+03 -0.36921246098E+03  0.53601092052E+03  0.92961258214E+02 0.  0.
        -11    1    3    3    0    0  0.52735105711E+02 -0.18420968243E+03  0.24128584130E+03  0.30811208300E+03  0.00000000000E+00 0. -1.
         11    1    3    3    0    0  0.19200394888E+02 -0.84679318311E+02  0.23444678185E+03  0.25000907110E+03  0.00000000000E+00 0.  1.
        -11    1    4    4    0    0 -0.10201973762E+03  0.34482337497E+03 -0.35886388940E+03  0.50802999705E+03  0.00000000000E+00 0. -1.
         11    1    4    4    0    0 -0.23579474541E+02  0.10947489420E+02 -0.10348571575E+02  0.27980923463E+02  0.00000000000E+00 0.  1.
         21    1    1    2  502  501  0.53663711559E+02 -0.86881863645E+02  0.74945578877E+02  0.12666922263E+03  0.00000000000E+00 0.  1.
<scales pt_clust_5="13000.00000" pt_clust_6="13000.00000" pt_clust_7="13000.00000" pt_clust_8="13000.00000" pt_clust_9="102.11881"></scales>
<clustering>
<clus scale="   87.759">  5  6 -1 -1</clus>
<clus scale="   92.961">  7  8 -1 -1</clus>
<clus scale="  102.119">  1  9  2 -1</clus>
<clus scale="  373.885">  1  5  2 -1</clus>
<clus scale="  375.140">  2  5  1 -1</clus>
</clustering>
</event>
<event>
 9    1  0.1434065E-005  0.1135884E+03  0.7546771E-02  0.1259446E+00
          2   -1    0    0  502    0  0.00000000000E+00  0.00000000000E+00  0.14053262017E+03  0.14053262017E+03  0.00000000000E+00 0. -1.
         -2   -1    0    0    0  501 -0.00000000000E+00 -0.00000000000E+00 -0.28084750960E+03  0.28084750960E+03  0.00000000000E+00 0.  1.
         23    2    1    2    0    0 -0.47514495213E+02 -0.51925860139E+01 -0.47170144662E+01  0.10449587908E+03  0.92803816265E+02 0.  0.
         23    2    1    2    0    0  0.66696394460E+02  0.42774267724E+02  0.53157407719E+02  0.12347048490E+03  0.78365832050E+02 0.  0.
        -11    1    4    4    0    0  0.43106720526E+02  0.64229904943E+02  0.26064383945E+02  0.81627337050E+02  0.00000000000E+00 0. -1.
         11    1    4    4    0    0  0.23589673934E+02 -0.21455637219E+02  0.27093023774E+02  0.41843147850E+02  0.00000000000E+00 0.  1.
        -13    1    3    3    0    0  0.23755003040E+02  0.16751742549E+02 -0.69659795506E+01  0.29890565718E+02  0.00000000000E+00 0. -1.
         13    1    3    3    0    0 -0.71269498252E+02 -0.21944328563E+02  0.22489650844E+01  0.74605313357E+02  0.00000000000E+00 0.  1.
         21    1    1    2  502  501 -0.19181899248E+02 -0.37581681710E+02 -0.18875528268E+03  0.19341376579E+03  0.00000000000E+00 0.  1.
<scales pt_clust_5="13000.00000" pt_clust_6="13000.00000" pt_clust_7="13000.00000" pt_clust_8="13000.00000" pt_clust_9="42.19393"></scales>
<clustering>
<clus scale="   42.194">  2  9  1 -1</clus>
<clus scale="   78.366">  5  6 -1 -1</clus>
<clus scale="   92.804">  7  8 -1 -1</clus>
<clus scale="  102.132">  1  5  2 -1</clus>
<clus scale="  102.132">  1  5  2 -1</clus>
</clustering>
</event>
<event>
 9    1  0.1434065E-005  0.3398517E+03  0.7546771E-02  0.1066913E+00
         -1   -1    0    0    0  501 -0.00000000000E+00  0.00000000000E+00  0.12404092994E+03  0.12404092994E+03  0.00000000000E+00 0.  1.
          1   -1    0    0  502    0  0.00000000000E+00 -0.00000000000E+00 -0.12091133960E+04  0.12091133960E+04  0.00000000000E+00 0. -1.
         23    2    1    2    0    0 -0.12127054286E+02  0.30563110516E+03 -0.41929624328E+03  0.52711866318E+03  0.92126584390E+02 0.  0.
         23    2    1    2    0    0 -0.84405790312E+01 -0.34479623033E+03 -0.67262971942E+03  0.76127066548E+03  0.90258533400E+02 0.  0.
        -11    1    3    3    0    0 -0.44114257653E+02  0.80965606020E+02 -0.11079359660E+03  0.14414131307E+03  0.00000000000E+00 0. -1.
         11    1    3    3    0    0  0.31987203367E+02  0.22466549914E+03 -0.30850264669E+03  0.38297735011E+03  0.00000000000E+00 0.  1.
        -13    1    4    4    0    0 -0.18627316469E+02 -0.56139885196E+02 -0.61530944678E+02  0.85350575754E+02  0.00000000000E+00 0.  1.
         13    1    4    4    0    0  0.10186737437E+02 -0.28865634513E+03 -0.61109877474E+03  0.67592008972E+03  0.00000000000E+00 0. -1.
         21    1    1    2  502  501  0.20567633317E+02  0.39165125168E+02  0.68534966058E+01  0.44764997324E+02  0.00000000000E+00 0.  1.
<scales pt_clust_5="13000.00000" pt_clust_6="13000.00000" pt_clust_7="13000.00000" pt_clust_8="13000.00000" pt_clust_9="44.23725"></scales>
<clustering>
<clus scale="   44.237">  1  9  2 -1</clus>
<clus scale="   90.259">  7  8 -1 -1</clus>
<clus scale="   92.127">  5  6 -1 -1</clus>
<clus scale="  339.350">  2  7  1 -1</clus>
<clus scale="  339.350">  2  5  1 -1</clus>
</clustering>
</event>
<event>
 9    1  0.1434065E-005  0.1420884E+03  0.7546771E-02  0.1222438E+00
          2   -1    0    0  502    0  0.00000000000E+00  0.00000000000E+00  0.22000752596E+03  0.22000752596E+03  0.00000000000E+00 0. -1.
         -2   -1    0    0    0  501 -0.00000000000E+00 -0.00000000000E+00 -0.25938178163E+03  0.25938178163E+03  0.00000000000E+00 0.  1.
         23    2    1    2    0    0 -0.44050271459E+02  0.94035150221E+02 -0.10204609890E+03  0.19346919414E+03  0.12741227133E+03 0.  0.
         23    2    1    2    0    0 -0.13310661014E+02 -0.58594203012E+02  0.14380840597E+03  0.18042376695E+03  0.90892374425E+02 0.  0.
        -11    1    3    3    0    0 -0.61183807150E+02  0.15114578751E+02 -0.92807460742E+02  0.11218348148E+03  0.00000000000E+00 0.  1.
         11    1    3    3    0    0  0.17133535690E+02  0.78920571470E+02 -0.92386381589E+01  0.81285712652E+02  0.00000000000E+00 0. -1.
        -11    1    4    4    0    0  0.33357049639E+02 -0.28926556197E+00  0.55677841184E+02  0.64906073938E+02  0.00000000000E+00 0.  1.
         11    1    4    4    0    0 -0.46667710653E+02 -0.58304937450E+02  0.88130564787E+02  0.11551769301E+03  0.00000000000E+00 0. -1.
         21    1    1    2  502  501  0.57360932473E+02 -0.35440947209E+02 -0.81136562737E+02  0.10549634651E+03  0.00000000000E+00 0.  1.
<scales pt_clust_5="13000.00000" pt_clust_6="13000.00000" pt_clust_7="13000.00000" pt_clust_8="13000.00000" pt_clust_9="67.42653"></scales>
<clustering>
<clus scale="   67.427">  2  9  1 -1</clus>
<clus scale="   90.892">  7  8 -1 -1</clus>
<clus scale="  110.529">  1  7  2 -1</clus>
<clus scale="  127.412">  5  6 -1 -1</clus>
<clus scale="  110.529">  1  5  2 -1</clus>
</clustering>
</event>
<event>
 9    1  0.1434065E-005  0.9189906E+02  0.7546771E-02  0.1301090E+00
          2   -1    0    0  502    0  0.00000000000E+00  0.00000000000E+00  0.14351684936E+03  0.14351684936E+03  0.00000000000E+00 0. -1.
         -2   -1    0    0    0  501 -0.00000000000E+00 -0.00000000000E+00 -0.16428405680E+03  0.16428405680E+03  0.00000000000E+00 0.  1.
         23    2    1    2    0    0 -0.14011016833E+02  0.89668696520E+01 -0.11185619176E+03  0.14202705710E+03  0.85925339507E+02 0.  0.
         23    2    1    2    0    0  0.20574357329E+02  0.26323525250E+02  0.86426304678E+02  0.12957674984E+03  0.90578119857E+02 0.  0.
        -13    1    4    4    0    0  0.19040595048E+02 -0.27077344727E+02  0.69650909320E+01  0.33826607116E+02  0.00000000000E+00 0. -1.
         13    1    4    4    0    0  0.15337622814E+01  0.53400869977E+02  0.79461213746E+02  0.95750142721E+02  0.00000000000E+00 0.  1.
        -13    1    3    3    0    0  0.20266970270E+02  0.30189492160E+02 -0.87916052087E+02  0.95138781448E+02  0.00000000000E+00 0. -1.
         13    1    3    3    0    0 -0.34277987103E+02 -0.21222622508E+02 -0.23940139669E+02  0.46888275649E+02  0.00000000000E+00 0.  1.
         21    1    1    2  502  501 -0.65633404967E+01 -0.35290394902E+02  0.46626796395E+01  0.36197099224E+02  0.00000000000E+00 0.  1.
<scales pt_clust_5="13000.00000" pt_clust_6="13000.00000" pt_clust_7="13000.00000" pt_clust_8="13000.00000" pt_clust_9="35.89553"></scales>
<clustering>
<clus scale="   35.896">  1  9  2 -1</clus>
<clus scale="   85.925">  7  8 -1 -1</clus>
<clus scale="   87.317">  2  7  1 -1</clus>
<clus scale="   90.578">  5  6 -1 -1</clus>
<clus scale="   35.896">  1  5  2 -1</clus>
</clustering>
</event>
<event>
 9    1  0.1434065E-005  0.1297445E+03  0.7546771E-02  0.1228641E+00
         -1   -1    0    0    0  501 -0.00000000000E+00  0.00000000000E+00  0.17008864627E+03  0.17008864627E+03  0.00000000000E+00 0.  1.
          1   -1    0    0  502    0  0.00000000000E+00 -0.00000000000E+00 -0.21441418890E+03  0.21441418890E+03  0.00000000000E+00 0. -1.
         23    2    1    2    0    0  0.43562447995E+02  0.91553569558E+02 -0.48112534802E+02  0.14645551974E+03  0.94099204481E+02 0.  0.
         23    2    1    2    0    0 -0.38415094441E+02 -0.71837741151E+02 -0.83754464380E+02  0.14816563902E+03  0.91114574832E+02 0.  0.
        -11    1    4    4    0    0 -0.19902402855E+02  0.20143248756E+02 -0.21702935016E+02  0.35677352735E+02  0.00000000000E+00 0.  1.
         11    1    4    4    0    0 -0.18512691586E+02 -0.91980989907E+02 -0.62051529365E+02  0.11248828628E+03  0.00000000000E+00 0. -1.
        -13    1    3    3    0    0  0.36542229230E+02  0.22657550817E+02  0.21664311239E+02  0.48146043530E+02  0.00000000000E+00 0.  1.
         13    1    3    3    0    0  0.70202187652E+01  0.68896018740E+02 -0.69776846041E+02  0.98309476213E+02  0.00000000000E+00 0. -1.
         21    1    1    2  502  501 -0.51473535541E+01 -0.19715828406E+02  0.87541456557E+02  0.89881676412E+02  0.00000000000E+00 0.  1.
<scales pt_clust_5="13000.00000" pt_clust_6="13000.00000" pt_clust_7="13000.00000" pt_clust_8="13000.00000" pt_clust_9="20.37668"></scales>
<clustering>
<clus scale="   20.377">  1  9  2 -1</clus>
<clus scale="   91.115">  5  6 -1 -1</clus>
<clus scale="   94.099">  7  8 -1 -1</clus>
<clus scale="  127.596">  2  5  1 -1</clus>
<clus scale="  127.596">  2  5  1 -1</clus>
</clustering>
</event>
<event>
 9    1  0.1434065E-005  0.1763884E+03  0.7546771E-02  0.1171729E+00
         -3   -1    0    0    0  501 -0.00000000000E+00  0.00000000000E+00  0.29394084591E+03  0.29394084591E+03  0.00000000000E+00 0.  1.
          3   -1    0    0  502    0  0.00000000000E+00 -0.00000000000E+00 -0.22643587904E+03  0.22643587904E+03  0.00000000000E+00 0. -1.
         23    2    1    2    0    0 -0.94851878320E+02  0.10425782525E+03  0.14227142721E+03  0.21932931628E+03  0.89429396921E+02 0.  0.
         23    2    1    2    0    0  0.13055826858E+03 -0.11206396946E+03  0.23023153858E+02  0.19665061353E+03  0.92399152822E+02 0.  0.
        -11    1    3    3    0    0 -0.76234229256E+02  0.44138671985E+02  0.12701162232E+03  0.15456982978E+03  0.00000000000E+00 0.  1.
         11    1    3    3    0    0 -0.18617649064E+02  0.60119153269E+02  0.15259804888E+02  0.64759486499E+02  0.00000000000E+00 0. -1.
        -13    1    4    4    0    0  0.32562288584E+02  0.11563578475E+02 -0.89326819138E+01  0.35690500012E+02  0.00000000000E+00 0.  1.
         13    1    4    4    0    0  0.97995979994E+02 -0.12362754793E+03  0.31955835772E+02  0.16096011351E+03  0.00000000000E+00 0. -1.
         21    1    1    2  502  501 -0.35706390258E+02  0.78061442031E+01 -0.97789614194E+02  0.10439679515E+03  0.00000000000E+00 0. -1.
<scales pt_clust_5="13000.00000" pt_clust_6="13000.00000" pt_clust_7="13000.00000" pt_clust_8="13000.00000" pt_clust_9="36.54972"></scales>
<clustering>
<clus scale="   36.550">  2  9  1 -1</clus>
<clus scale="   89.429">  5  6 -1 -1</clus>
<clus scale="   92.399">  7  8 -1 -1</clus>
<clus scale="  174.851">  1  5  2 -1</clus>
<clus scale="   36.550">  2  5  1 -1</clus>
</clustering>
</event>
<event>
 9    1  0.1434065E-005  0.9199369E+02  0.7546771E-02  0.1304237E+00
         -2   -1    0    0    0  501 -0.00000000000E+00  0.00000000000E+00  0.46561493021E+02  0.46561493021E+02  0.00000000000E+00 0.  1.
          2   -1    0    0  502    0  0.00000000000E+00 -0.00000000000E+00 -0.27072230396E+03  0.27072230396E+03  0.00000000000E+00 0. -1.
         23    2    1    2    0    0 -0.24297062959E+01  0.22386818859E+02 -0.30136801172E+02  0.89617868082E+02  0.81339180985E+02 0.  0.
         23    2    1    2    0    0  0.11555037333E+02 -0.15030444009E+01 -0.17605224244E+03  0.19864200561E+03  0.91260485944E+02 0.  0.
        -11    1    4    4    0    0 -0.27445634634E+02 -0.78655730899E+01 -0.13919098227E+02  0.31762735964E+02  0.00000000000E+00 0.  1.
         11    1    4    4    0    0  0.39000671967E+02  0.63625286891E+01 -0.16213314422E+03  0.16687926965E+03  0.00000000000E+00 0. -1.
        -13    1    3    3    0    0  0.26825140438E+02 -0.68202028923E+01  0.12376514266E+02  0.30319654226E+02  0.00000000000E+00 0. -1.
         13    1    3    3    0    0 -0.29254846733E+02  0.29207021751E+02 -0.42513315438E+02  0.59298213856E+02  0.00000000000E+00 0.  1.
         21    1    1    2  502  501 -0.91253310371E+01 -0.20883774458E+02 -0.17971767327E+02  0.29023923287E+02  0.00000000000E+00 0.  1.
<scales pt_clust_5="13000.00000" pt_clust_6="13000.00000" pt_clust_7="13000.00000" pt_clust_8="13000.00000" pt_clust_9="22.79043"></scales>
<clustering>
<clus scale="   22.790">  1  9  2 -1</clus>
<clus scale="   81.339">  7  8 -1 -1</clus>
<clus scale="   82.161">  1  7  2 -1</clus>
<clus scale="   91.260">  5  6 -1 -1</clus>
<clus scale="   91.994">  2  5  1 -1</clus>
</clustering>
</event>
<event>
 9    1  0.1434065E-005  0.9909041E+02  0.7546771E-02  0.1282652E+00
          1   -1    0    0  502    0  0.00000000000E+00  0.00000000000E+00  0.83675567536E+02  0.83675567536E+02  0.00000000000E+00 0. -1.
         -1   -1    0    0    0  501 -0.00000000000E+00 -0.00000000000E+00 -0.24908211754E+03  0.24908211754E+03  0.00000000000E+00 0.  1.
         23    2    1    2    0    0 -0.22602796707E+02 -0.30828713194E+02 -0.16922169325E+03  0.19550639730E+03  0.90141410802E+02 0.  0.
         23    2    1    2    0    0  0.39528359148E+02  0.10472464375E+02  0.25543232389E+02  0.10300276390E+03  0.91021695013E+02 0.  0.
        -11    1    4    4    0    0  0.46451236062E+02 -0.32213240353E+02  0.13618888891E+02  0.58145372304E+02  0.00000000000E+00 0.  1.
         11    1    4    4    0    0 -0.69228769140E+01  0.42685704728E+02  0.11924343498E+02  0.44857391596E+02  0.00000000000E+00 0. -1.
        -13    1    3    3    0    0 -0.32154244865E+02 -0.53778075783E+02 -0.15424477429E+03  0.16648551677E+03  0.00000000000E+00 0.  1.
         13    1    3    3    0    0  0.95514481579E+01  0.22949362589E+02 -0.14976918962E+02  0.29020880530E+02  0.00000000000E+00 0. -1.
         21    1    1    2  502  501 -0.16925562441E+02  0.20356248819E+02 -0.21728089134E+02  0.34248523871E+02  0.00000000000E+00 0.  1.
<scales pt_clust_5="13000.00000" pt_clust_6="13000.00000" pt_clust_7="13000.00000" pt_clust_8="13000.00000" pt_clust_9="26.47360"></scales>
<clustering>
<clus scale="   26.474">  2  9  1 -1</clus>
<clus scale="   90.141">  7  8 -1 -1</clus>
<clus scale="   91.022">  5  6 -1 -1</clus>
<clus scale="   98.282">  2  7  1 -1</clus>
<clus scale="   99.090">  1  5  2 -1</clus>
</clustering>
</event>
<event>
 9    1  0.1434065E-005  0.9834297E+02  0.7546771E-02  0.1284546E+00
         -1   -1    0    0    0  501 -0.00000000000E+00  0.00000000000E+00  0.18548208526E+03  0.18548208526E+03  0.00000000000E+00 0.  1.
          1   -1    0    0  502    0  0.00000000000E+00 -0.00000000000E+00 -0.32316927033E+03  0.32316927033E+03  0.00000000000E+00 0. -1.
         23    2    1    2    0    0  0.58135759471E+02  0.53026863496E+02 -0.10061206910E+03  0.15671681220E+03  0.90806145149E+02 0.  0.
         23    2    1    2    0    0  0.13184743103E+02 -0.29718380913E+02 -0.17258158742E+03  0.19704134389E+03  0.89352488885E+02 0.  0.
        -11    1    4    4    0    0 -0.28844834887E+02 -0.32957354656E+02 -0.12976199036E+03  0.13695395528E+03  0.00000000000E+00 0.  1.
         11    1    4    4    0    0  0.42029577991E+02  0.32389737430E+01 -0.42819597062E+02  0.60087388606E+02  0.00000000000E+00 0. -1.
        -11    1    3    3    0    0  0.30675856694E+02 -0.18072224563E+02 -0.61468567701E+02  0.71035190573E+02  0.00000000000E+00 0. -1.
         11    1    3    3    0    0  0.27459902777E+02  0.71099088059E+02 -0.39143501403E+02  0.85681621632E+02  0.00000000000E+00 0.  1.
         21    1    1    2  502  501 -0.71320502575E+02 -0.23308482582E+02  0.13550647145E+03  0.15489319950E+03  0.00000000000E+00 0.  1.
<scales pt_clust_5="13000.00000" pt_clust_6="13000.00000" pt_clust_7="13000.00000" pt_clust_8="13000.00000" pt_clust_9="75.03266"></scales>
<clustering>
<clus scale="   75.033">  1  9  2 -1</clus>
<clus scale="   89.352">  5  6 -1 -1</clus>
<clus scale="   90.806">  7  8 -1 -1</clus>
<clus scale="   97.002">  2  5  1 -1</clus>
<clus scale="   97.002">  2  5  1 -1</clus>
</clustering>
</event>
<event>
 9    1  0.1434065E-005  0.1337903E+03  0.7546771E-02  0.1247189E+00
         -2   -1    0    0    0  501 -0.00000000000E+00  0.00000000000E+00  0.36536639563E+03  0.36536639563E+03  0.00000000000E+00 0.  1.
          2   -1    0    0  502    0  0.00000000000E+00 -0.00000000000E+00 -0.25790296974E+03  0.25790296974E+03  0.00000000000E+00 0. -1.
         23    2    1    2    0    0 -0.93110756329E+02 -0.11375383061E+02  0.30994809350E+03  0.33687626408E+03  0.92837408148E+02 0.  0.
         23    2    1    2    0    0 -0.27093263353E+02 -0.33080798718E+01 -0.98872880854E+02  0.12701928666E+03  0.74920386440E+02 0.  0.
        -11    1    4    4    0    0 -0.32391725274E+02  0.31104101726E+02 -0.54591762317E+02  0.70689104699E+02  0.00000000000E+00 0. -1.
         11    1    4    4    0    0  0.52984619212E+01 -0.34412181598E+02 -0.44281118538E+02  0.56330181963E+02  0.00000000000E+00 0.  1.
        -13    1    3    3    0    0  0.36364346048E+01  0.26108702036E+02  0.88205678385E+02  0.92060467509E+02  0.00000000000E+00 0. -1.
         13    1    3    3    0    0 -0.96747190934E+02 -0.37484085097E+02  0.22174241512E+03  0.24481579657E+03  0.00000000000E+00 0.  1.
         21    1    1    2  502  501  0.12020401968E+03  0.14683462933E+02 -0.10361178676E+03  0.15937381462E+03  0.00000000000E+00 0. -1.
<scales pt_clust_5="13000.00000" pt_clust_6="13000.00000" pt_clust_7="13000.00000" pt_clust_8="13000.00000" pt_clust_9="96.33825"></scales>
<clustering>
<clus scale="   74.920">  5  6 -1 -1</clus>
<clus scale="   79.737">  2  5  1 -1</clus>
<clus scale="   92.837">  7  8 -1 -1</clus>
<clus scale="   96.338">  2  9  1 -1</clus>
<clus scale="   79.737">  2  5  1 -1</clus>
</clustering>
</event>
<event>
 9    1  0.1434065E-005  0.9769583E+02  0.7546771E-02  0.1292009E+00
         -2   -1    0    0    0  501 -0.00000000000E+00  0.00000000000E+00  0.46163633378E+02  0.46163633378E+02  0.00000000000E+00 0.  1.
          2   -1    0    0  502    0  0.00000000000E+00 -0.00000000000E+00 -0.25079698593E+03  0.25079698593E+03  0.00000000000E+00 0. -1.
         23    2    1    2    0    0 -0.30158956049E+01 -0.19478218740E+02 -0.91951147277E+02  0.13190981761E+03  0.92502377624E+02 0.  0.
         23    2    1    2    0    0 -0.80372334224E+01  0.41011317837E+02 -0.10732001520E+03  0.14025969239E+03  0.80054171256E+02 0.  0.
        -13    1    4    4    0    0 -0.27505856450E+02 -0.81076017208E+00 -0.49281538815E+01  0.27955610739E+02  0.00000000000E+00 0. -1.
         13    1    4    4    0    0  0.19468623028E+02  0.41822078009E+02 -0.10239186132E+03  0.11230408165E+03  0.00000000000E+00 0.  1.
        -13    1    3    3    0    0 -0.29403036561E+02  0.10762103918E+02  0.29386267504E+00  0.31312103012E+02  0.00000000000E+00 0.  1.
         13    1    3    3    0    0  0.26387140956E+02 -0.30240322657E+02 -0.92245009952E+02  0.10059771460E+03  0.00000000000E+00 0. -1.
         21    1    1    2  502  501  0.11053129027E+02 -0.21533099097E+02 -0.53621900774E+01  0.24791109303E+02  0.00000000000E+00 0.  1.
<scales pt_clust_5="13000.00000" pt_clust_6="13000.00000" pt_clust_7="13000.00000" pt_clust_8="13000.00000" pt_clust_9="24.20426"></scales>
<clustering>
<clus scale="   24.204">  1  9  2 -1</clus>
<clus scale="   80.054">  5  6 -1 -1</clus>
<clus scale="   86.003">  2  5  1 -1</clus>
<clus scale="   92.502">  7  8 -1 -1</clus>
<clus scale="   86.003">  2  5  1 -1</clus>
</clustering>
</event>
<event>
 9    1  0.1434065E-005  0.1407757E+03  0.7546771E-02  0.1213854E+00
         -1   -1    0    0    0  501 -0.00000000000E+00  0.00000000000E+00  0.15961066533E+03  0.15961066533E+03  0.00000000000E+00 0.  1.
          1   -1    0    0  502    0  0.00000000000E+00 -0.00000000000E+00 -0.36975929362E+03  0.36975929362E+03  0.00000000000E+00 0. -1.
         23    2    1    2    0    0 -0.96599104477E+02  0.22579363452E+01 -0.73202008882E+01  0.13087142052E+03  0.87961685445E+02 0.  0.
         23    2    1    2    0    0  0.96828260489E+02 -0.48108070295E+02 -0.27651605673E+03  0.31171055531E+03  0.94932829976E+02 0.  0.
        -11    1    4    4    0    0  0.64901052199E+02 -0.61931462315E+02 -0.25613184457E+03  0.27138749862E+03  0.00000000000E+00 0. -1.
         11    1    4    4    0    0  0.31927208290E+02  0.13823392020E+02 -0.20384212158E+02  0.40323056698E+02  0.00000000000E+00 0.  1.
        -13    1    3    3    0    0 -0.46391838254E+02 -0.42688467928E+02 -0.74698144708E+01  0.63484691689E+02  0.00000000000E+00 0. -1.
         13    1    3    3    0    0 -0.50207266223E+02  0.44946404273E+02  0.14961358261E+00  0.67386728834E+02  0.00000000000E+00 0.  1.
         21    1    1    2  502  501 -0.22915601174E+00  0.45850133950E+02  0.73687629330E+02  0.86787983108E+02  0.00000000000E+00 0.  1.
<scales pt_clust_5="13000.00000" pt_clust_6="13000.00000" pt_clust_7="13000.00000" pt_clust_8="13000.00000" pt_clust_9="45.85071"></scales>
<clustering>
<clus scale="   45.851">  1  9  2 -1</clus>
<clus scale="   87.962">  7  8 -1 -1</clus>
<clus scale="   94.933">  5  6 -1 -1</clus>
<clus scale="  136.172">  1  7  2 -1</clus>
<clus scale="  140.776">  2  5  1 -1</clus>
</clustering>
</event>
<event>
 9    1  0.1434065E-005  0.1019719E+03  0.7546771E-02  0.1276208E+00
          3   -1    0    0  502    0  0.00000000000E+00  0.00000000000E+00  0.11781630427E+03  0.11781630427E+03  0.00000000000E+00 0. -1.
         -3   -1    0    0    0  501 -0.00000000000E+00 -0.00000000000E+00 -0.23367203561E+03  0.23367203561E+03  0.00000000000E+00 0.  1.
         23    2    1    2    0    0  0.31689749441E+02 -0.16493607674E+02 -0.25302630949E+02  0.10222933847E+03  0.92381465654E+02 0.  0.
         23    2    1    2    0    0 -0.48114670271E+02 -0.25983174413E+02  0.37206318642E+02  0.11362521436E+03  0.92391733088E+02 0.  0.
        -11    1    3    3    0    0 -0.25789410291E+02  0.14569016183E+02  0.52855198392E+01  0.30087981582E+02  0.00000000000E+00 0.  1.
         11    1    3    3    0    0  0.57479159732E+02 -0.31062623857E+02 -0.30588150788E+02  0.72141356884E+02  0.00000000000E+00 0. -1.
        -13    1    4    4    0    0 -0.36605449555E+02  0.10138668564E+02  0.58795734468E+02  0.69997785173E+02  0.00000000000E+00 0. -1.
         13    1    4    4    0    0 -0.11509220715E+02 -0.36121842977E+02 -0.21589415826E+02  0.43627429185E+02  0.00000000000E+00 0.  1.
         21    1    1    2  502  501  0.16424920829E+02  0.42476782087E+02 -0.12775941903E+03  0.13563378706E+03  0.00000000000E+00 0.  1.
<scales pt_clust_5="13000.00000" pt_clust_6="13000.00000" pt_clust_7="13000.00000" pt_clust_8="13000.00000" pt_clust_9="45.54179"></scales>
<clustering>
<clus scale="   45.542">  2  9  1 -1</clus>
<clus scale="   92.381">  5  6 -1 -1</clus>
<clus scale="   92.392">  7  8 -1 -1</clus>
<clus scale="  101.963">  2  5  1 -1</clus>
<clus scale="  101.972">  1  5  2 -1</clus>
</clustering>
</event>
<event>
 9    1  0.1434065E-005  0.2466012E+03  0.7546771E-02  0.1115601E+00
          2   -1    0    0  502    0  0.00000000000E+00  0.00000000000E+00  0.10686449718E+04  0.10686449718E+04  0.00000000000E+00 0. -1.
         -2   -1    0    0    0  501 -0.00000000000E+00 -0.00000000000E+00 -0.34091285259E+03  0.34091285259E+03  0.00000000000E+00 0.  1.
         23    2    1    2    0    0 -0.46859858525E+02 -0.19879298715E+03  0.16956168800E+03  0.28072095431E+03  0.91315880734E+02 0.  0.
         23    2    1    2    0    0  0.18065803818E+02  0.23650260304E+03  0.82207668915E+03  0.86069954381E+03  0.93454627192E+02 0.  0.
        -11    1    4    4    0    0  0.25139029746E+02  0.21177619996E+02  0.19237068760E+03  0.19515876576E+03  0.00000000000E+00 0.  1.
         11    1    4    4    0    0 -0.70732259281E+01  0.21532498304E+03  0.62970600155E+03  0.66554077804E+03  0.00000000000E+00 0. -1.
        -13    1    3    3    0    0  0.36072981271E+01 -0.12219391449E+03  0.55242955432E+02  0.13414972778E+03  0.00000000000E+00 0.  1.
         13    1    3    3    0    0 -0.50467156652E+02 -0.76599072655E+02  0.11431873257E+03  0.14657122653E+03  0.00000000000E+00 0. -1.
         21    1    1    2  502  501  0.28794054707E+02 -0.37709615891E+02 -0.26390625798E+03  0.26813732623E+03  0.00000000000E+00 0.  1.
<scales pt_clust_5="13000.00000" pt_clust_6="13000.00000" pt_clust_7="13000.00000" pt_clust_8="13000.00000" pt_clust_9="47.44589"></scales>
<clustering>
<clus scale="   47.446">  2  9  1 -1</clus>
<clus scale="   91.316">  7  8 -1 -1</clus>
<clus scale="   93.455">  5  6 -1 -1</clus>
<clus scale="  245.799">  2  7  1 -1</clus>
<clus scale="  246.601">  1  5  2 -1</clus>
</clustering>
</event>
<event>
 9    1  0.1434065E-005  0.2361691E+03  0.7546771E-02  0.1122372E+00
          1   -1    0    0  502    0  0.00000000000E+00  0.00000000000E+00  0.10518910228E+04  0.10518910228E+04  0.00000000000E+00 0. -1.
         -1   -1    0    0    0  501 -0.00000000000E+00 -0.00000000000E+00 -0.79336519286E+02  0.79336519286E+02  0.00000000000E+00 0.  1.
         23    2    1    2    0    0  0.42992623239E+02 -0.20510846019E+03  0.35274816720E+03  0.41988072245E+03  0.89166728822E+02 0.  0.
         23    2    1    2    0    0 -0.13563136232E+03  0.19813258510E+03  0.45988596481E+03  0.52640054627E+03  0.89163034716E+02 0.  0.
        -11    1    3    3    0    0  0.21022637750E+02 -0.95415836473E+01  0.11124162220E+02  0.25626940933E+02  0.00000000000E+00 0. -1.
         11    1    3    3    0    0  0.21969985489E+02 -0.19556687655E+03  0.34162400498E+03  0.39425378152E+03  0.00000000000E+00 0.  1.
        -13    1    4    4    0    0 -0.86729723139E+02  0.18392262444E+03  0.39122865271E+03  0.44091885349E+03  0.00000000000E+00 0. -1.
         13    1    4    4    0    0 -0.48901639180E+02  0.14209960658E+02  0.68657312103E+02  0.85481692786E+02  0.00000000000E+00 0.  1.
         21    1    1    2  502  501  0.92638739081E+02  0.69758750959E+01  0.15992037155E+03  0.18494627341E+03  0.00000000000E+00 0.  1.
<scales pt_clust_5="13000.00000" pt_clust_6="13000.00000" pt_clust_7="13000.00000" pt_clust_8="13000.00000" pt_clust_9="92.90102"></scales>
<clustering>
<clus scale="   89.163">  7  8 -1 -1</clus>
<clus scale="   89.167">  5  6 -1 -1</clus>
<clus scale="   92.901">  1  9  2 -1</clus>
<clus scale="  236.168">  1  7  2 -1</clus>
<clus scale="   92.901">  1  5  2 -1</clus>
</clustering>
</event>
<event>
 9    1  0.1434065E-005  0.3434447E+03  0.7546771E-02  0.1065342E+00
         -3   -1    0    0    0  501 -0.00000000000E+00  0.00000000000E+00  0.38076579488E+03  0.38076579488E+03  0.00000000000E+00 0.  1.
          3   -1    0    0  502    0  0.00000000000E+00 -0.00000000000E+00 -0.72352288173E+03  0.72352288173E+03  0.00000000000E+00 0. -1.
         23    2    1    2    0    0 -0.70958153399E+02  0.30170489427E+03  0.15693231627E+03  0.35891774942E+03  0.90184789159E+02 0.  0.
         23    2    1    2    0    0 -0.54186905879E+02 -0.33586015952E+03 -0.50501927585E+03  0.61553920707E+03  0.90032099483E+02 0.  0.
        -11    1    3    3    0    0 -0.45116708980E+02  0.27415156654E+03  0.16068206842E+03  0.32095689115E+03  0.00000000000E+00 0.  1.
         11    1    3    3    0    0 -0.25841444419E+02  0.27553327732E+02 -0.37497521590E+01  0.37960858263E+02  0.00000000000E+00 0. -1.
        -13    1    4    4    0    0  0.24144851858E+02 -0.68538183332E+02 -0.12063681795E+03  0.14083216355E+03  0.00000000000E+00 0.  1.
         13    1    4    4    0    0 -0.78331757737E+02 -0.26732197619E+03 -0.38438245791E+03  0.47470704352E+03  0.00000000000E+00 0. -1.
         21    1    1    2  502  501  0.12514505928E+03  0.34155265248E+02  0.53298727455E+01  0.12983172012E+03  0.00000000000E+00 0. -1.
<scales pt_clust_5="13000.00000" pt_clust_6="13000.00000" pt_clust_7="13000.00000" pt_clust_8="13000.00000" pt_clust_9="129.72227"></scales>
<clustering>
<clus scale="   90.032">  7  8 -1 -1</clus>
<clus scale="   90.185">  5  6 -1 -1</clus>
<clus scale="  129.722">  1  9  2 -1</clus>
<clus scale="  343.405">  2  7  1 -1</clus>
<clus scale="  343.405">  2  5  1 -1</clus>
</clustering>
</event>
<event>
 9    1  0.1434065E-005  0.1065204E+03  0.7546771E-02  0.1268909E+00
         -1   -1    0    0    0  501 -0.00000000000E+00  0.00000000000E+00  0.15521051847E+03  0.15521051847E+03  0.00000000000E+00 0.  1.
          1   -1    0    0  502    0  0.00000000000E+00 -0.00000000000E+00 -0.10841641906E+03  0.10841641906E+03  0.00000000000E+00 0. -1.
         23    2    1    2    0    0 -0.53731042847E+02  0.21177807148E+02  0.38964054186E+02  0.11449315343E+03  0.90856811426E+02 0.  0.
         23    2    1    2    0    0  0.27330008744E+02 -0.37134556571E+02 -0.20252801943E+02  0.10741713564E+03  0.94880769245E+02 0.  0.
        -13    1    4    4    0    0  0.30349347261E+02  0.24800782466E+02 -0.22823508154E+02  0.45354980042E+02  0.00000000000E+00 0.  1.
         13    1    4    4    0    0 -0.30193385178E+01 -0.61935339038E+02  0.25707062112E+01  0.62062155596E+02  0.00000000000E+00 0. -1.
        -13    1    3    3    0    0 -0.61301617505E+02  0.49129984370E+02  0.25855215126E+02  0.82705113640E+02  0.00000000000E+00 0. -1.
         13    1    3    3    0    0  0.75705746580E+01 -0.27952177222E+02  0.13108839060E+02  0.31788039789E+02  0.00000000000E+00 0.  1.
         21    1    1    2  502  501  0.26401034103E+02  0.15956749424E+02  0.28082847174E+02  0.41716648467E+02  0.00000000000E+00 0.  1.
<scales pt_clust_5="13000.00000" pt_clust_6="13000.00000" pt_clust_7="13000.00000" pt_clust_8="13000.00000" pt_clust_9="30.84854"></scales>
<clustering>
<clus scale="   30.849">  1  9  2 -1</clus>
<clus scale="   90.857">  7  8 -1 -1</clus>
<clus scale="   94.881">  5  6 -1 -1</clus>
<clus scale="  102.952">  1  7  2 -1</clus>
<clus scale="  106.520">  2  5  1 -1</clus>
</clustering>
</event>
<event>
 9    1  0.1434065E-005  0.9567615E+02  0.7546771E-02  0.1290103E+00
         -1   -1    0    0    0  501 -0.00000000000E+00  0.00000000000E+00  0.58359665916E+02  0.58359665916E+02  0.00000000000E+00 0.  1.
          1   -1    0    0  502    0  0.00000000000E+00 -0.00000000000E+00 -0.28943403892E+03  0.28943403892E+03  0.00000000000E+00 0. -1.
         23    2    1    2    0    0  0.20513920326E+01 -0.47842035559E+02 -0.99943528224E+02  0.14299507134E+03  0.90364888198E+02 0.  0.
         23    2    1    2    0    0  0.26872750706E+01  0.21335535817E+02 -0.14706545324E+03  0.17351027717E+03  0.89527326629E+02 0.  0.
        -13    1    4    4    0    0 -0.21936043894E+01 -0.27573912872E+02 -0.12700830873E+02  0.30437537288E+02  0.00000000000E+00 0. -1.
         13    1    4    4    0    0  0.48808794600E+01  0.48909448689E+02 -0.13436462237E+03  0.14307273989E+03  0.00000000000E+00 0.  1.
        -13    1    3    3    0    0  0.21871977249E+02 -0.55503978613E+02 -0.10534923721E+03  0.12106831465E+03  0.00000000000E+00 0. -1.
         13    1    3    3    0    0 -0.19820585216E+02  0.76619430544E+01  0.54057089843E+01  0.21926756698E+02  0.00000000000E+00 0.  1.
         21    1    1    2  502  501 -0.47386671031E+01  0.26506499742E+02  0.15934608456E+02  0.31288356319E+02  0.00000000000E+00 0.  1.
<scales pt_clust_5="13000.00000" pt_clust_6="13000.00000" pt_clust_7="13000.00000" pt_clust_8="13000.00000" pt_clust_9="26.92674"></scales>
<clustering>
<clus scale="   26.927">  1  9  2 -1</clus>
<clus scale="   89.527">  5  6 -1 -1</clus>
<clus scale="   90.365">  7  8 -1 -1</clus>
<clus scale="   94.885">  2  5  1 -1</clus>
<clus scale="   94.885">  2  5  1 -1</clus>
</clustering>
</event>
<event>
 9    1  0.1434065E-005  0.1965779E+03  0.7546771E-02  0.1153032E+00
          2   -1    0    0  502    0  0.00000000000E+00  0.00000000000E+00  0.38660259696E+03  0.38660259696E+03  0.00000000000E+00 0. -1.
         -2   -1    0    0    0  501 -0.00000000000E+00 -0.00000000000E+00 -0.16744556564E+03  0.16744556564E+03  0.00000000000E+00 0.  1.
         23    2    1    2    0    0  0.32554274555E+02 -0.17628654419E+03 -0.11798623080E+02  0.20340613503E+03  0.95384075214E+02 0.  0.
         23    2    1    2    0    0 -0.16351419521E+01  0.17022352508E+03  0.24825655338E+03  0.31469659577E+03  0.91781855048E+02 0.  0.
        -11    1    4    4    0    0  0.28560746958E+02  0.94381944397E+02  0.77458362920E+02  0.12539324416E+03  0.00000000000E+00 0.  1.
         11    1    4    4    0    0 -0.30195888910E+02  0.75841580680E+02  0.17079819046E+03  0.18930335161E+03  0.00000000000E+00 0. -1.
        -11    1    3    3    0    0  0.40107134037E+02 -0.85845773865E+02 -0.47363245210E+02  0.10593090242E+03  0.00000000000E+00 0.  1.
         11    1    3    3    0    0 -0.75528594825E+01 -0.90440770330E+02  0.35564622130E+02  0.97475232605E+02  0.00000000000E+00 0. -1.
         21    1    1    2  502  501 -0.30919132603E+02  0.60630191174E+01 -0.17300898984E+02  0.35945431801E+02  0.00000000000E+00 0. -1.
<scales pt_clust_5="13000.00000" pt_clust_6="13000.00000" pt_clust_7="13000.00000" pt_clust_8="13000.00000" pt_clust_9="31.50798"></scales>
<clustering>
<clus scale="   31.508">  2  9  1 -1</clus>
<clus scale="   91.782">  5  6 -1 -1</clus>
<clus scale="   95.384">  7  8 -1 -1</clus>
<clus scale="  194.855">  1  5  2 -1</clus>
<clus scale="  194.855">  1  5  2 -1</clus>
</clustering>
</event>
<event>
 9    1  0.1434065E-005  0.9572283E+02  0.7546771E-02  0.1293954E+00
          1   -1    0    0  502    0  0.00000000000E+00  0.00000000000E+00  0.42838418251E+02  0.42838418251E+02  0.00000000000E+00 0. -1.
         -1   -1    0    0    0  501 -0.00000000000E+00 -0.00000000000E+00 -0.42883818940E+03  0.42883818940E+03  0.00000000000E+00 0.  1.
         23    2    1    2    0    0  0.15667985186E+02 -0.12054253305E+02 -0.14856876731E+03  0.17247907569E+03  0.85355504503E+02 0.  0.
         23    2    1    2    0    0  0.56230064299E+02  0.26205792723E+00 -0.13226329794E+03  0.17125757825E+03  0.93132643687E+02 0.  0.
        -11    1    4    4    0    0 -0.12551566707E+02 -0.23672487466E+02 -0.93307754345E+01  0.28372378467E+02  0.00000000000E+00 0.  1.
         11    1    4    4    0    0  0.68781631006E+02  0.23934545394E+02 -0.12293252251E+03  0.14288519978E+03  0.00000000000E+00 0. -1.
        -11    1    3    3    0    0 -0.18493820737E+01 -0.46557401618E+02 -0.10046023966E+03  0.11073965690E+03  0.00000000000E+00 0.  1.
         11    1    3    3    0    0  0.17517367260E+02  0.34503148313E+02 -0.48108527649E+02  0.61739418784E+02  0.00000000000E+00 0. -1.
         21    1    1    2  502  501 -0.71898049484E+02  0.11792195378E+02 -0.10516770590E+03  0.12793995371E+03  0.00000000000E+00 0.  1.
<scales pt_clust_5="13000.00000" pt_clust_6="13000.00000" pt_clust_7="13000.00000" pt_clust_8="13000.00000" pt_clust_9="72.85867"></scales>
<clustering>
<clus scale="   72.859">  2  9  1 -1</clus>
<clus scale="   85.356">  7  8 -1 -1</clus>
<clus scale="   88.174">  2  7  1 -1</clus>
<clus scale="   93.133">  5  6 -1 -1</clus>
<clus scale="   95.723">  1  5  2 -1</clus>
</clustering>
</event>
<event>
 9    1  0.1434065E-005  0.2041900E+03  0.7546771E-02  0.1146319E+00
          1   -1    0    0  502    0  0.00000000000E+00  0.00000000000E+00  0.37799236704E+03  0.37799236704E+03  0.00000000000E+00 0. -1.
         -1   -1    0    0    0  501 -0.00000000000E+00 -0.00000000000E+00 -0.34213312521E+03  0.34213312521E+03  0.00000000000E+00 0.  1.
         23    2    1    2    0    0  0.19523721951E+03  0.75469063290E+02  0.35231761486E+01  0.22810626048E+03  0.90591952748E+02 0.  0.
         23    2    1    2    0    0 -0.85308653409E+02 -0.16645013199E+03  0.18826179592E+03  0.28065537995E+03  0.91333048261E+02 0.  0.
        -11    1    3    3    0    0  0.30802459317E+02  0.39761562761E+01 -0.32787646126E+02  0.45162274712E+02  0.00000000000E+00 0.  1.
         11    1    3    3    0    0  0.16443476020E+03  0.71492907014E+02  0.36310822275E+02  0.18294398577E+03  0.00000000000E+00 0. -1.
        -13    1    4    4    0    0 -0.82561437187E+02 -0.14154152976E+03  0.10720803737E+03  0.19581613527E+03  0.00000000000E+00 0. -1.
         13    1    4    4    0    0 -0.27472162221E+01 -0.24908602236E+02  0.81053758551E+02  0.84839244678E+02  0.00000000000E+00 0.  1.
         21    1    1    2  502  501 -0.10992856611E+03  0.90981068701E+02 -0.15592573024E+03  0.21136385182E+03  0.00000000000E+00 0.  1.
<scales pt_clust_5="13000.00000" pt_clust_6="13000.00000" pt_clust_7="13000.00000" pt_clust_8="13000.00000" pt_clust_9="142.69494"></scales>
<clustering>
<clus scale="   90.592">  5  6 -1 -1</clus>
<clus scale="   91.333">  7  8 -1 -1</clus>
<clus scale="  142.695">  2  9  1 -1</clus>
<clus scale="  203.860">  2  5  1 -1</clus>
<clus scale="  204.190">  1  5  2 -1</clus>
</clustering>
</event>
<event>
 9    1  0.1434065E-005  0.9786612E+02  0.7546771E-02  0.1285662E+00
          1   -1    0    0  502    0  0.00000000000E+00  0.00000000000E+00  0.27756391084E+03  0.27756391084E+03  0.00000000000E+00 0. -1.
         -1   -1    0    0    0  501 -0.00000000000E+00 -0.00000000000E+00 -0.10437067190E+03  0.10437067190E+03  0.00000000000E+00 0.  1.
         23    2    1    2    0    0  0.18317159667E+02  0.16548754162E+02  0.39685865621E+02  0.10212840026E+03  0.90806732167E+02 0.  0.
         23    2    1    2    0    0  0.16367200203E+02 -0.37872311470E+02  0.18697780743E+03  0.21259914238E+03  0.92387757057E+02 0.  0.
        -11    1    3    3    0    0  0.48346497295E+02  0.32922202775E+02  0.33389259972E+02  0.67350559892E+02  0.00000000000E+00 0. -1.
         11    1    3    3    0    0 -0.30029337628E+02 -0.16373448613E+02  0.62966056489E+01  0.34777840367E+02  0.00000000000E+00 0.  1.
        -13    1    4    4    0    0  0.40497653753E+02 -0.68727970504E+01  0.30224346349E+02  0.50998102033E+02  0.00000000000E+00 0. -1.
         13    1    4    4    0    0 -0.24130453550E+02 -0.30999514419E+02  0.15675346108E+03  0.16160104035E+03  0.00000000000E+00 0.  1.
         21    1    1    2  502  501 -0.34684359870E+02  0.21323557308E+02 -0.53470434099E+02  0.67207040097E+02  0.00000000000E+00 0.  1.
<scales pt_clust_5="13000.00000" pt_clust_6="13000.00000" pt_clust_7="13000.00000" pt_clust_8="13000.00000" pt_clust_9="40.71485"></scales>
<clustering>
<clus scale="   40.715">  2  9  1 -1</clus>
<clus scale="   90.807">  5  6 -1 -1</clus>
<clus scale="   92.388">  7  8 -1 -1</clus>
<clus scale="   96.375">  2  5  1 -1</clus>
<clus scale="   97.866">  1  5  2 -1</clus>
</clustering>
</event>
<event>
 9    1  0.1434065E-005  0.1504484E+03  0.7546771E-02  0.1199930E+00
          1   -1    0    0  502    0  0.00000000000E+00  0.00000000000E+00  0.13249503047E+03  0.13249503047E+03  0.00000000000E+00 0. -1.
         -1   -1    0    0    0  501 -0.00000000000E+00 -0.00000000000E+00 -0.29753639638E+03  0.29753639638E+03  0.00000000000E+00 0.  1.
         23    2    1    2    0    0  0.76101271596E+02  0.12544306459E+03 -0.27230484052E+02  0.17506962335E+03  0.91545113296E+02 0.  0.
         23    2    1    2    0    0 -0.79402249416E+02 -0.57556144930E+02 -0.48383473805E+02  0.14263731096E+03  0.91580647018E+02 0.  0.
        -11    1    4    4    0    0 -0.11220904445E+02 -0.35582997906E+02  0.21080481724E+02  0.42853764668E+02  0.00000000000E+00 0. -1.
         11    1    4    4    0    0 -0.68181344972E+02 -0.21973147024E+02 -0.69463955529E+02  0.99783546289E+02  0.00000000000E+00 0.  1.
        -13    1    3    3    0    0 -0.61069661415E+01  0.46087571010E+02 -0.38353363646E+02  0.60268895295E+02  0.00000000000E+00 0.  1.
         13    1    3    3    0    0  0.82208237737E+02  0.79355493576E+02  0.11122879594E+02  0.11480072806E+03  0.00000000000E+00 0. -1.
         21    1    1    2  502  501  0.33009778204E+01 -0.67886919656E+02 -0.89427408052E+02  0.11232449255E+03  0.00000000000E+00 0.  1.
<scales pt_clust_5="13000.00000" pt_clust_6="13000.00000" pt_clust_7="13000.00000" pt_clust_8="13000.00000" pt_clust_9="67.96713"></scales>
<clustering>
<clus scale="   67.967">  2  9  1 -1</clus>
<clus scale="   91.545">  7  8 -1 -1</clus>
<clus scale="   91.581">  5  6 -1 -1</clus>
<clus scale="  150.427">  2  7  1 -1</clus>
<clus scale="  150.448">  1  5  2 -1</clus>
</clustering>
</event>
<event>
 9    1  0.1434065E-005  0.1880219E+03  0.7546771E-02  0.1160427E+00
         -1   -1    0    0    0  501 -0.00000000000E+00  0.00000000000E+00  0.12927861530E+03  0.12927861530E+03  0.00000000000E+00 0.  1.
          1   -1    0    0  502    0  0.00000000000E+00 -0.00000000000E+00 -0.37151065242E+03  0.37151065242E+03  0.00000000000E+00 0. -1.
         23    2    1    2    0    0  0.16635161319E+03  0.12895019694E+02 -0.77881160462E+02  0.20745058308E+03  0.95556938646E+02 0.  0.
         23    2    1    2    0    0 -0.15024837826E+03 -0.53844695451E+02 -0.16517212019E+03  0.24932886117E+03  0.97001161481E+02 0.  0.
        -11    1    3    3    0    0  0.99781986388E+02 -0.39743516574E+02 -0.44191079567E+02  0.11614148023E+03  0.00000000000E+00 0. -1.
         11    1    3    3    0    0  0.66569626799E+02  0.52638536268E+02 -0.33690080895E+02  0.91309102850E+02  0.00000000000E+00 0.  1.
        -13    1    4    4    0    0 -0.87183571214E+02 -0.64998715994E+02 -0.14682090229E+03  0.18270792407E+03  0.00000000000E+00 0. -1.
         13    1    4    4    0    0 -0.63064807042E+02  0.11154020543E+02 -0.18351217902E+02  0.66620937099E+02  0.00000000000E+00 0.  1.
         21    1    1    2  502  501 -0.16103234932E+02  0.40949675757E+02  0.82124352963E+00  0.44009823458E+02  0.00000000000E+00 0. -1.
<scales pt_clust_5="13000.00000" pt_clust_6="13000.00000" pt_clust_7="13000.00000" pt_clust_8="13000.00000" pt_clust_9="44.00216"></scales>
<clustering>
<clus scale="   44.002">  1  9  2 -1</clus>
<clus scale="   95.557">  5  6 -1 -1</clus>
<clus scale="   97.001">  7  8 -1 -1</clus>
<clus scale="  187.281">  1  5  2 -1</clus>
<clus scale="  188.022">  2  5  1 -1</clus>
</clustering>
</event>
<event>
 9    1  0.1434065E-005  0.3015065E+03  0.7546771E-02  0.1084519E+00
         -3   -1    0    0    0  501 -0.00000000000E+00  0.00000000000E+00  0.23129970816E+03  0.23129970816E+03  0.00000000000E+00 0.  1.
          3   -1    0    0  502    0  0.00000000000E+00 -0.00000000000E+00 -0.48110919259E+03  0.48110919259E+03  0.00000000000E+00 0. -1.
         23    2    1    2    0    0 -0.23289333246E+03 -0.12106273116E+03 -0.56322527231E+02  0.28339782151E+03  0.90810841765E+02 0.  0.
         23    2    1    2    0    0  0.27378088067E+03  0.13687528868E+03 -0.20981301439E+03  0.38223107586E+03  0.91587548678E+02 0.  0.
        -11    1    3    3    0    0 -0.13480276569E+03 -0.10288122865E+03 -0.68513024401E+02  0.18289441588E+03  0.00000000000E+00 0.  1.
         11    1    3    3    0    0 -0.98090566769E+02 -0.18181502511E+02  0.12190497169E+02  0.10050340563E+03  0.00000000000E+00 0. -1.
        -11    1    4    4    0    0  0.13550356839E+03  0.98032082919E+02 -0.15643036150E+03  0.22900210550E+03  0.00000000000E+00 0. -1.
         11    1    4    4    0    0  0.13827731228E+03  0.38843205762E+02 -0.53382652890E+02  0.15322897035E+03  0.00000000000E+00 0.  1.
         21    1    1    2  502  501 -0.40887548206E+02 -0.15812557523E+02  0.16326057183E+02  0.46780003386E+02  0.00000000000E+00 0.  1.
<scales pt_clust_5="13000.00000" pt_clust_6="13000.00000" pt_clust_7="13000.00000" pt_clust_8="13000.00000" pt_clust_9="43.83867"></scales>
<clustering>
<clus scale="   43.839">  1  9  2 -1</clus>
<clus scale="   90.811">  5  6 -1 -1</clus>
<clus scale="   91.588">  7  8 -1 -1</clus>
<clus scale="  301.271">  1  5  2 -1</clus>
<clus scale="  301.507">  2  5  1 -1</clus>
</clustering>
</event>
<event>
 9    1  0.1434065E-005  0.9940329E+02  0.7546771E-02  0.1282690E+00
         -2   -1    0    0    0  501 -0.00000000000E+00  0.00000000000E+00  0.43766108312E+03  0.43766108312E+03  0.00000000000E+00 0.  1.
          2   -1    0    0  502    0  0.00000000000E+00 -0.00000000000E+00 -0.58966340173E+03  0.58966340173E+03  0.00000000000E+00 0. -1.
         23    2    1    2    0    0  0.49099356624E+02 -0.51086646885E+01  0.18852904402E+03  0.21614091114E+03  0.93471106502E+02 0.  0.
         23    2    1    2    0    0 -0.29268377466E+02 -0.16689959529E+02 -0.57080652425E+03  0.57903039623E+03  0.91219071277E+02 0.  0.
        -11    1    4    4    0    0 -0.56594258857E+02  0.11747851881E+02 -0.34156563445E+03  0.34642171525E+03  0.00000000000E+00 0. -1.
         11    1    4    4    0    0  0.27325881391E+02 -0.28437811410E+02 -0.22924088980E+03  0.23260868098E+03  0.00000000000E+00 0.  1.
        -13    1    3    3    0    0  0.42771594754E+02 -0.32587513490E+02  0.45739124251E+02  0.70593362582E+02  0.00000000000E+00 0.  1.
         13    1    3    3    0    0  0.63277618697E+01  0.27478848801E+02  0.14278991977E+03  0.14554754856E+03  0.00000000000E+00 0. -1.
         21    1    1    2  502  501 -0.19830979158E+02  0.21798624217E+02  0.23027516162E+03  0.23215317747E+03  0.00000000000E+00 0.  1.
<scales pt_clust_5="13000.00000" pt_clust_6="13000.00000" pt_clust_7="13000.00000" pt_clust_8="13000.00000" pt_clust_9="29.46944"></scales>
<clustering>
<clus scale="   29.469">  1  9  2 -1</clus>
<clus scale="   91.219">  5  6 -1 -1</clus>
<clus scale="   93.471">  7  8 -1 -1</clus>
<clus scale="   97.289">  2  5  1 -1</clus>
<clus scale="   97.289">  2  5  1 -1</clus>
</clustering>
</event>
<event>
 9    1  0.1434065E-005  0.1066486E+03  0.7546771E-02  0.1268128E+00
          2   -1    0    0  502    0  0.00000000000E+00  0.00000000000E+00  0.13899190287E+03  0.13899190287E+03  0.00000000000E+00 0. -1.
         -2   -1    0    0    0  501 -0.00000000000E+00 -0.00000000000E+00 -0.11200848594E+03  0.11200848594E+03  0.00000000000E+00 0.  1.
         23    2    1    2    0    0 -0.45277141022E+01  0.66962986811E+02 -0.11914709462E+02  0.11184692123E+03  0.88674865041E+02 0.  0.
         23    2    1    2    0    0 -0.78706898014E+01 -0.47864168107E+02  0.48505149983E+02  0.11443949992E+03  0.91600890937E+02 0.  0.
        -11    1    4    4    0    0 -0.67029829602E+01 -0.71664262418E+02  0.15326707815E+02  0.73590790599E+02  0.00000000000E+00 0.  1.
         11    1    4    4    0    0 -0.11677068413E+01  0.23800094311E+02  0.33178442168E+02  0.40848709321E+02  0.00000000000E+00 0. -1.
        -11    1    3    3    0    0 -0.29292659268E+02  0.24044848136E+02 -0.39826212178E+02  0.54975829101E+02  0.00000000000E+00 0. -1.
         11    1    3    3    0    0  0.24764945166E+02  0.42918138675E+02  0.27911502716E+02  0.56871092132E+02  0.00000000000E+00 0.  1.
         21    1    1    2  502  501  0.12398403904E+02 -0.19098818704E+02 -0.96070235858E+01  0.24713967659E+02  0.00000000000E+00 0.  1.
<scales pt_clust_5="13000.00000" pt_clust_6="13000.00000" pt_clust_7="13000.00000" pt_clust_8="13000.00000" pt_clust_9="22.77027"></scales>
<clustering>
<clus scale="   22.770">  2  9  1 -1</clus>
<clus scale="   88.675">  7  8 -1 -1</clus>
<clus scale="   91.601">  5  6 -1 -1</clus>
<clus scale="  104.146">  2  7  1 -1</clus>
<clus scale="  106.649">  1  5  2 -1</clus>
</clustering>
</event>
<event>
 9    1  0.1434065E-005  0.1388662E+03  0.7546771E-02  0.1221587E+00
         -1   -1    0    0    0  501 -0.00000000000E+00  0.00000000000E+00  0.21999205037E+03  0.21999205037E+03  0.00000000000E+00 0.  1.
          1   -1    0    0  502    0  0.00000000000E+00 -0.00000000000E+00 -0.15206187848E+03  0.15206187848E+03  0.00000000000E+00 0. -1.
         23    2    1    2    0    0  0.59693872015E+02  0.28797543026E+02  0.42146609735E+02  0.12960541080E+03  0.10309495116E+03 0.  0.
         23    2    1    2    0    0 -0.10936257779E+03 -0.23921312037E+01 -0.54640325754E+02  0.14430460406E+03  0.76631311106E+02 0.  0.
        -11    1    3    3    0    0  0.79464020523E+02  0.47861326964E+02  0.21439768324E+02  0.95209772830E+02  0.00000000000E+00 0.  1.
         11    1    3    3    0    0 -0.19770148509E+02 -0.19063783938E+02  0.20706841411E+02  0.34395637969E+02  0.00000000000E+00 0. -1.
        -13    1    4    4    0    0 -0.14792460502E+02  0.27503103254E+02 -0.27154813571E+02  0.41383831098E+02  0.00000000000E+00 0.  1.
         13    1    4    4    0    0 -0.94570117284E+02 -0.29895234458E+02 -0.27485512183E+02  0.10292077296E+03  0.00000000000E+00 0. -1.
         21    1    1    2  502  501  0.49668705771E+02 -0.26405411822E+02  0.80423887913E+02  0.98143913991E+02  0.00000000000E+00 0.  1.
<scales pt_clust_5="13000.00000" pt_clust_6="13000.00000" pt_clust_7="13000.00000" pt_clust_8="13000.00000" pt_clust_9="56.25145"></scales>
<clustering>
<clus scale="   56.251">  1  9  2 -1</clus>
<clus scale="   76.631">  7  8 -1 -1</clus>
<clus scale="  103.095">  5  6 -1 -1</clus>
<clus scale="  120.531">  2  7  1 -1</clus>
<clus scale="  120.531">  2  5  1 -1</clus>
</clustering>
</event>
<event>
 9    1  0.1434065E-005  0.2135991E+03  0.7546771E-02  0.1138942E+00
         -1   -1    0    0    0  501 -0.00000000000E+00  0.00000000000E+00  0.11491396719E+03  0.11491396719E+03  0.00000000000E+00 0.  1.
          1   -1    0    0  502    0  0.00000000000E+00 -0.00000000000E+00 -0.74922876739E+03  0.74922876739E+03  0.00000000000E+00 0. -1.
         23    2    1    2    0    0 -0.84570838021E+02 -0.14804965725E+03 -0.27740623321E+02  0.19407802716E+03  0.88463612794E+02 0.  0.
         23    2    1    2    0    0  0.10615732575E+03  0.16786796141E+03 -0.60201351523E+03  0.64040764642E+03  0.90844101588E+02 0.  0.
        -11    1    3    3    0    0 -0.60537359381E+02 -0.91164465848E+02 -0.59577872297E+02  0.12460037954E+03  0.00000000000E+00 0.  1.
         11    1    3    3    0    0 -0.24033478640E+02 -0.56885191399E+02  0.31837248976E+02  0.69477647617E+02  0.00000000000E+00 0. -1.
        -11    1    4    4    0    0  0.21203347960E+02  0.77259756100E+02 -0.13336306805E+03  0.15557750415E+03  0.00000000000E+00 0. -1.
         11    1    4    4    0    0  0.84953977786E+02  0.90608205313E+02 -0.46865044718E+03  0.48483014227E+03  0.00000000000E+00 0.  1.
         21    1    1    2  502  501 -0.21586487725E+02 -0.19818304167E+02 -0.45606616454E+01  0.29657060998E+02  0.00000000000E+00 0.  1.
<scales pt_clust_5="13000.00000" pt_clust_6="13000.00000" pt_clust_7="13000.00000" pt_clust_8="13000.00000" pt_clust_9="29.30429"></scales>
<clustering>
<clus scale="   29.304">  1  9  2 -1</clus>
<clus scale="   88.464">  5  6 -1 -1</clus>
<clus scale="   90.844">  7  8 -1 -1</clus>
<clus scale="  212.598">  1  5  2 -1</clus>
<clus scale="  213.599">  2  5  1 -1</clus>
</clustering>
</event>
<event>
 9    1  0.1434065E-005  0.2018617E+03  0.7546771E-02  0.1151645E+00
          3   -1    0    0  502    0  0.00000000000E+00  0.00000000000E+00  0.29860854558E+03  0.29860854558E+03  0.00000000000E+00 0. -1.
         -3   -1    0    0    0  501 -0.00000000000E+00 -0.00000000000E+00 -0.29919457029E+03  0.29919457029E+03  0.00000000000E+00 0.  1.
         23    2    1    2    0    0  0.15576281574E+03  0.46320434814E+00 -0.19002227795E+03  0.27369689482E+03  0.12057883226E+03 0.  0.
         23    2    1    2    0    0 -0.19602886441E+03 -0.19513823413E+01  0.18291364297E+03  0.28328816385E+03  0.91453044883E+02 0.  0.
        -11    1    4    4    0    0 -0.81765731874E+02  0.22407022977E+02  0.12960173130E+03  0.15486871325E+03  0.00000000000E+00 0.  1.
         11    1    4    4    0    0 -0.11426313254E+03 -0.24358405318E+02  0.53311911669E+02  0.12841945060E+03  0.00000000000E+00 0. -1.
        -11    1    3    3    0    0  0.55147022099E+02 -0.25105242467E+02 -0.40708197470E+01  0.60729225412E+02  0.00000000000E+00 0. -1.
         11    1    3    3    0    0  0.10061579364E+03  0.25568446815E+02 -0.18595145821E+03  0.21296766941E+03  0.00000000000E+00 0.  1.
         21    1    1    2  502  501  0.40266048671E+02  0.14881779931E+01  0.65226102748E+01  0.40818057207E+02  0.00000000000E+00 0.  1.
<scales pt_clust_5="13000.00000" pt_clust_6="13000.00000" pt_clust_7="13000.00000" pt_clust_8="13000.00000" pt_clust_9="40.29354"></scales>
<clustering>
<clus scale="   40.294">  1  9  2 -1</clus>
<clus scale="   91.453">  5  6 -1 -1</clus>
<clus scale="  120.579">  7  8 -1 -1</clus>
<clus scale="  185.937">  1  5  2 -1</clus>
<clus scale="   40.294">  1  5  2 -1</clus>
</clustering>
</event>
<event>
 9    1  0.1434065E-005  0.1181269E+03  0.7546771E-02  0.1247061E+00
         -1   -1    0    0    0  501 -0.00000000000E+00  0.00000000000E+00  0.23524538652E+03  0.23524538652E+03  0.00000000000E+00 0.  1.
          1   -1    0    0  502    0  0.00000000000E+00 -0.00000000000E+00 -0.18940739581E+03  0.18940739581E+03  0.00000000000E+00 0. -1.
         23    2    1    2    0    0 -0.44409542667E+02 -0.26495731154E+02 -0.69511031716E+01  0.10888633976E+03  0.95570319150E+02 0.  0.
         23    2    1    2    0    0  0.85607076646E+02 -0.27814203550E+02 -0.89885896963E+02  0.15764320321E+03  0.93111242899E+02 0.  0.
        -11    1    4    4    0    0  0.14644168191E+01  0.26119273259E+02 -0.52600068822E+01  0.26683864499E+02  0.00000000000E+00 0.  1.
         11    1    4    4    0    0  0.84142659827E+02 -0.53933476809E+02 -0.84625890081E+02  0.13095933871E+03  0.00000000000E+00 0. -1.
        -11    1    3    3    0    0  0.51691407509E+01  0.21367257896E+02  0.24688664052E+02  0.33057674733E+02  0.00000000000E+00 0.  1.
         11    1    3    3    0    0 -0.49578683418E+02 -0.47862989050E+02 -0.31639767223E+02  0.75828665030E+02  0.00000000000E+00 0. -1.
         21    1    1    2  502  501 -0.41197533979E+02  0.54309934704E+02  0.14267499084E+03  0.15812323936E+03  0.00000000000E+00 0.  1.
<scales pt_clust_5="13000.00000" pt_clust_6="13000.00000" pt_clust_7="13000.00000" pt_clust_8="13000.00000" pt_clust_9="68.16748"></scales>
<clustering>
<clus scale="   68.167">  1  9  2 -1</clus>
<clus scale="   93.111">  5  6 -1 -1</clus>
<clus scale="   95.570">  7  8 -1 -1</clus>
<clus scale="  116.146">  2  5  1 -1</clus>
<clus scale="  116.146">  2  5  1 -1</clus>
</clustering>
</event>
<event>
 9    1  0.1434065E-005  0.1017265E+03  0.7546771E-02  0.1283076E+00
          1   -1    0    0  502    0  0.00000000000E+00  0.00000000000E+00  0.61197675835E+03  0.61197675835E+03  0.00000000000E+00 0. -1.
         -1   -1    0    0    0  501 -0.00000000000E+00 -0.00000000000E+00 -0.21066695400E+02  0.21066695400E+02  0.00000000000E+00 0.  1.
         23    2    1    2    0    0 -0.36480167357E+02 -0.12373613006E+02  0.19340079222E+03  0.21987142731E+03  0.97240265353E+02 0.  0.
         23    2    1    2    0    0  0.11257971074E+02  0.15346075582E+02  0.31689156012E+03  0.32864859783E+03  0.85014093165E+02 0.  0.
        -11    1    3    3    0    0 -0.23528623723E+02  0.38059603083E+02  0.48933723690E+02  0.66307155235E+02  0.00000000000E+00 0.  1.
         11    1    3    3    0    0 -0.12951543633E+02 -0.50433216089E+02  0.14446706854E+03  0.15356427208E+03  0.00000000000E+00 0. -1.
        -13    1    4    4    0    0  0.23452081844E+02 -0.30933272750E+02  0.12565813072E+03  0.13151742593E+03  0.00000000000E+00 0. -1.
         13    1    4    4    0    0 -0.12194110771E+02  0.46279348332E+02  0.19123342940E+03  0.19713117191E+03  0.00000000000E+00 0.  1.
         21    1    1    2  502  501  0.25222196283E+02 -0.29724625763E+01  0.80617710610E+02  0.84523428605E+02  0.00000000000E+00 0.  1.
<scales pt_clust_5="13000.00000" pt_clust_6="13000.00000" pt_clust_7="13000.00000" pt_clust_8="13000.00000" pt_clust_9="25.39675"></scales>
<clustering>
<clus scale="   25.397">  1  9  2 -1</clus>
<clus scale="   85.014">  7  8 -1 -1</clus>
<clus scale="   90.111">  1  7  2 -1</clus>
<clus scale="   97.240">  5  6 -1 -1</clus>
<clus scale="   25.397">  1  5  2 -1</clus>
</clustering>
</event>
<event>
 9    1  0.1434065E-005  0.1259691E+03  0.7546771E-02  0.1233715E+00
         -1   -1    0    0    0  501 -0.00000000000E+00  0.00000000000E+00  0.21878092877E+03  0.21878092877E+03  0.00000000000E+00 0.  1.
          1   -1    0    0  502    0  0.00000000000E+00 -0.00000000000E+00 -0.18049693119E+03  0.18049693119E+03  0.00000000000E+00 0. -1.
         23    2    1    2    0    0 -0.99694507362E+01 -0.66853751893E+02  0.51072748645E+02  0.12459560964E+03  0.91360966489E+02 0.  0.
         23    2    1    2    0    0  0.52224704929E+01  0.93161015569E+02 -0.11211351865E+03  0.17182304850E+03  0.90815581880E+02 0.  0.
        -11    1    4    4    0    0 -0.22137699655E+02 -0.21550488148E+01 -0.50226486101E+02  0.54931064867E+02  0.00000000000E+00 0.  1.
         11    1    4    4    0    0  0.27360170147E+02  0.95316064384E+02 -0.61887032548E+02  0.11689198363E+03  0.00000000000E+00 0. -1.
        -11    1    3    3    0    0 -0.26085370356E+02 -0.79613031535E+02  0.18053076380E+02  0.85700612037E+02  0.00000000000E+00 0.  1.
         11    1    3    3    0    0  0.16115919620E+02  0.12759279642E+02  0.33019672266E+02  0.38894997605E+02  0.00000000000E+00 0. -1.
         21    1    1    2  502  501  0.47469802433E+01 -0.26307263676E+02  0.99324767581E+02  0.10285920182E+03  0.00000000000E+00 0.  1.
<scales pt_clust_5="13000.00000" pt_clust_6="13000.00000" pt_clust_7="13000.00000" pt_clust_8="13000.00000" pt_clust_9="26.73211"></scales>
<clustering>
<clus scale="   26.732">  1  9  2 -1</clus>
<clus scale="   90.816">  5  6 -1 -1</clus>
<clus scale="   91.361">  7  8 -1 -1</clus>
<clus scale="  125.574">  2  5  1 -1</clus>
<clus scale="  125.574">  2  5  1 -1</clus>
</clustering>
</event>
<event>
 9    1  0.1434065E-005  0.2627245E+03  0.7546771E-02  0.1106756E+00
         -2   -1    0    0    0  501 -0.00000000000E+00  0.00000000000E+00  0.51366070351E+03  0.51366070351E+03  0.00000000000E+00 0.  1.
          2   -1    0    0  502    0  0.00000000000E+00 -0.00000000000E+00 -0.27133290040E+03  0.27133290040E+03  0.00000000000E+00 0. -1.
         23    2    1    2    0    0  0.21164349125E+03 -0.51910258014E+01  0.16378045108E+03  0.28257403812E+03  0.90576689737E+02 0.  0.
         23    2    1    2    0    0 -0.24674333103E+03 -0.34604648801E+02 -0.11903659732E+03  0.29783434758E+03  0.11160570760E+03 0.  0.
        -11    1    4    4    0    0 -0.14786340812E+03 -0.63179162251E+02 -0.10934779919E+03  0.19445342679E+03  0.00000000000E+00 0. -1.
         11    1    4    4    0    0 -0.98879922913E+02  0.28574513450E+02 -0.96887981337E+01  0.10338092079E+03  0.00000000000E+00 0.  1.
        -13    1    3    3    0    0  0.13812014718E+03 -0.45884324570E+02  0.11425964580E+03  0.18503462637E+03  0.00000000000E+00 0. -1.
         13    1    3    3    0    0  0.73523344076E+02  0.40693298768E+02  0.49520805285E+02  0.97539411752E+02  0.00000000000E+00 0.  1.
         21    1    1    2  502  501  0.35099839778E+02  0.39795674603E+02  0.19758394936E+03  0.20458521822E+03  0.00000000000E+00 0.  1.
<scales pt_clust_5="13000.00000" pt_clust_6="13000.00000" pt_clust_7="13000.00000" pt_clust_8="13000.00000" pt_clust_9="53.06312"></scales>
<clustering>
<clus scale="   53.063">  1  9  2 -1</clus>
<clus scale="   90.577">  7  8 -1 -1</clus>
<clus scale="  111.606">  5  6 -1 -1</clus>
<clus scale="  254.504">  1  7  2 -1</clus>
<clus scale="  262.725">  2  5  1 -1</clus>
</clustering>
</event>
<event>
 9    1  0.1434065E-005  0.1181177E+03  0.7546771E-02  0.1246333E+00
          2   -1    0    0  502    0  0.00000000000E+00  0.00000000000E+00  0.32367167503E+03  0.32367167503E+03  0.00000000000E+00 0. -1.
         -2   -1    0    0    0  501 -0.00000000000E+00 -0.00000000000E+00 -0.60138469750E+02  0.60138469750E+02  0.00000000000E+00 0.  1.
         23    2    1    2    0    0  0.83967666844E+02  0.96700940863E+01  0.13693390304E+03  0.18615550251E+03  0.93588981810E+02 0.  0.
         23    2    1    2    0    0 -0.59969917714E+02 -0.11366341832E+02  0.13189710872E+03  0.17302060133E+03  0.93881289068E+02 0.  0.
        -11    1    3    3    0    0  0.28702081569E+02  0.12008430157E+02  0.12598160576E+03  0.12976662464E+03  0.00000000000E+00 0. -1.
         11    1    3    3    0    0  0.55265585275E+02 -0.23383360704E+01  0.10952297287E+02  0.56388877868E+02  0.00000000000E+00 0.  1.
        -11    1    4    4    0    0 -0.48173853054E+02 -0.51136826846E+02  0.77369416615E+02  0.10450704189E+03  0.00000000000E+00 0.  1.
         11    1    4    4    0    0 -0.11796064660E+02  0.39770485015E+02  0.54527692105E+02  0.68513559432E+02  0.00000000000E+00 0. -1.
         21    1    1    2  502  501 -0.23997749130E+02  0.16962477452E+01 -0.52978064850E+01  0.24634040945E+02  0.00000000000E+00 0.  1.
<scales pt_clust_5="13000.00000" pt_clust_6="13000.00000" pt_clust_7="13000.00000" pt_clust_8="13000.00000" pt_clust_9="24.05762"></scales>
<clustering>
<clus scale="   24.058">  2  9  1 -1</clus>
<clus scale="   93.589">  5  6 -1 -1</clus>
<clus scale="   93.881">  7  8 -1 -1</clus>
<clus scale="  117.886">  2  5  1 -1</clus>
<clus scale="  118.118">  1  5  2 -1</clus>
</clustering>
</event>
<event>
 9    1  0.1434065E-005  0.1163162E+03  0.7546771E-02  0.1249559E+00
         -3   -1    0    0    0  501 -0.00000000000E+00  0.00000000000E+00  0.39564205890E+03  0.39564205890E+03  0.00000000000E+00 0.  1.
          3   -1    0    0  502    0  0.00000000000E+00 -0.00000000000E+00 -0.58967278082E+02  0.58967278082E+02  0.00000000000E+00 0. -1.
         23    2    1    2    0    0 -0.63085784665E+02 -0.50332926763E+02  0.24661106911E+03  0.27522645603E+03  0.91757086640E+02 0.  0.
         23    2    1    2    0    0  0.65933333253E+02  0.22682045257E+02  0.38727678533E+02  0.12100421975E+03  0.90997299425E+02 0.  0.
        -11    1    4    4    0    0  0.51500740323E+01  0.39936138510E+02  0.41413542644E+02  0.57762443992E+02  0.00000000000E+00 0. -1.
         11    1    4    4    0    0  0.60783259221E+02 -0.17254093253E+02 -0.26858641109E+01  0.63241775762E+02  0.00000000000E+00 0.  1.
        -11    1    3    3    0    0 -0.64232811571E+01 -0.32237322046E+02  0.19096547450E+03  0.19377387834E+03  0.00000000000E+00 0.  1.
         11    1    3    3    0    0 -0.56662503508E+02 -0.18095604717E+02  0.55645594605E+02  0.81452577693E+02  0.00000000000E+00 0. -1.
         21    1    1    2  502  501 -0.28475485882E+01  0.27650881506E+02  0.51336033180E+02  0.58378661202E+02  0.00000000000E+00 0.  1.
<scales pt_clust_5="13000.00000" pt_clust_6="13000.00000" pt_clust_7="13000.00000" pt_clust_8="13000.00000" pt_clust_9="27.79712"></scales>
<clustering>
<clus scale="   27.797">  1  9  2 -1</clus>
<clus scale="   90.997">  5  6 -1 -1</clus>
<clus scale="   91.757">  7  8 -1 -1</clus>
<clus scale="  115.718">  2  5  1 -1</clus>
<clus scale="  115.718">  2  5  1 -1</clus>
</clustering>
</event>
<event>
 9    1  0.1434065E-005  0.1455307E+03  0.7546771E-02  0.1226489E+00
          1   -1    0    0  502    0  0.00000000000E+00  0.00000000000E+00  0.32606242111E+03  0.32606242111E+03  0.00000000000E+00 0. -1.
         -1   -1    0    0    0  501 -0.00000000000E+00 -0.00000000000E+00 -0.19272506934E+03  0.19272506934E+03  0.00000000000E+00 0.  1.
         23    2    1    2    0    0  0.11262696669E+03 -0.16987871815E+02 -0.55325782409E+02  0.15665049991E+03  0.92222640963E+02 0.  0.
         23    2    1    2    0    0 -0.90916981240E+01 -0.29158481010E+02  0.22422093578E+03  0.24333718006E+03  0.89471108019E+02 0.  0.
        -13    1    4    4    0    0 -0.43975879308E+02  0.34683272364E+01  0.79243283941E+02  0.90694020225E+02  0.00000000000E+00 0.  1.
         13    1    4    4    0    0  0.34884181184E+02 -0.32626808246E+02  0.14497765183E+03  0.15264315984E+03  0.00000000000E+00 0. -1.
        -13    1    3    3    0    0  0.28452737739E+02 -0.11522035470E+02  0.25439075452E+02  0.39868059221E+02  0.00000000000E+00 0. -1.
         13    1    3    3    0    0  0.84174228955E+02 -0.54658363448E+01 -0.80764857861E+02  0.11678244069E+03  0.00000000000E+00 0.  1.
         21    1    1    2  502  501 -0.10353526857E+03  0.46146352825E+02 -0.35557801596E+02  0.11879981048E+03  0.00000000000E+00 0. -1.
<scales pt_clust_5="13000.00000" pt_clust_6="13000.00000" pt_clust_7="13000.00000" pt_clust_8="13000.00000" pt_clust_9="112.57955"></scales>
<clustering>
<clus scale="   89.471">  5  6 -1 -1</clus>
<clus scale="   92.223">  7  8 -1 -1</clus>
<clus scale="   94.541">  1  5  2 -1</clus>
<clus scale="  112.580">  1  9  2 -1</clus>
<clus scale="   94.541">  1  5  2 -1</clus>
</clustering>
</event>
<event>
 9    1  0.1434065E-005  0.1034510E+03  0.7546771E-02  0.1275610E+00
          2   -1    0    0  502    0  0.00000000000E+00  0.00000000000E+00  0.43054100701E+03  0.43054100701E+03  0.00000000000E+00 0. -1.
         -2   -1    0    0    0  501 -0.00000000000E+00 -0.00000000000E+00 -0.29897502933E+02  0.29897502933E+02  0.00000000000E+00 0.  1.
         23    2    1    2    0    0  0.33537178930E+02 -0.12830907782E+02  0.15502460039E+03  0.18640695284E+03  0.97085275798E+02 0.  0.
         23    2    1    2    0    0 -0.38104748125E+02 -0.80518807360E+01  0.20732568108E+03  0.23017583408E+03  0.92087849050E+02 0.  0.
        -11    1    4    4    0    0 -0.64365603736E+02 -0.63138186970E+01  0.95803323611E+02  0.11559010367E+03  0.00000000000E+00 0. -1.
         11    1    4    4    0    0  0.26260855611E+02 -0.17380620390E+01  0.11152235747E+03  0.11458573041E+03  0.00000000000E+00 0.  1.
        -13    1    3    3    0    0  0.25061686374E+02 -0.54185000366E+02  0.74319118886E+02  0.95328032711E+02  0.00000000000E+00 0.  1.
         13    1    3    3    0    0  0.84754925562E+01  0.41354092584E+02  0.80705481503E+02  0.91078920131E+02  0.00000000000E+00 0. -1.
         21    1    1    2  502  501  0.45675691949E+01  0.20882788518E+02  0.38293222604E+02  0.43855723025E+02  0.00000000000E+00 0.  1.
<scales pt_clust_5="13000.00000" pt_clust_6="13000.00000" pt_clust_7="13000.00000" pt_clust_8="13000.00000" pt_clust_9="21.37647"></scales>
<clustering>
<clus scale="   21.376">  1  9  2 -1</clus>
<clus scale="   92.088">  5  6 -1 -1</clus>
<clus scale="   97.085">  7  8 -1 -1</clus>
<clus scale="   98.776">  1  5  2 -1</clus>
<clus scale="   21.376">  1  5  2 -1</clus>
</clustering>
</event>
<event>
 9    1  0.1434065E-005  0.1062711E+03  0.7546771E-02  0.1267756E+00
         -2   -1    0    0    0  501 -0.00000000000E+00  0.00000000000E+00  0.58046696725E+02  0.58046696725E+02  0.00000000000E+00 0.  1.
          2   -1    0    0  502    0  0.00000000000E+00 -0.00000000000E+00 -0.47958205822E+03  0.47958205822E+03  0.00000000000E+00 0. -1.
         23    2    1    2    0    0  0.30580764594E+02 -0.45869639244E+01 -0.33517981963E+02  0.10265714432E+03  0.91971793304E+02 0.  0.
         23    2    1    2    0    0 -0.29789822333E+02  0.53310803538E+02 -0.36465343609E+03  0.38092984909E+03  0.91683947268E+02 0.  0.
        -11    1    3    3    0    0 -0.10445679216E+02 -0.33118448646E+02  0.10271255824E+02  0.36213844745E+02  0.00000000000E+00 0.  1.
         11    1    3    3    0    0  0.41026443810E+02  0.28531484722E+02 -0.43789237788E+02  0.66443299573E+02  0.00000000000E+00 0. -1.
        -13    1    4    4    0    0  0.11852595602E+02  0.65594153690E+02 -0.21331113698E+03  0.22348314966E+03  0.00000000000E+00 0. -1.
         13    1    4    4    0    0 -0.41642417934E+02 -0.12283350152E+02 -0.15134229911E+03  0.15744669944E+03  0.00000000000E+00 0.  1.
         21    1    1    2  502  501 -0.79094226108E+00 -0.48723839613E+02 -0.23363943434E+02  0.54041761529E+02  0.00000000000E+00 0.  1.
<scales pt_clust_5="13000.00000" pt_clust_6="13000.00000" pt_clust_7="13000.00000" pt_clust_8="13000.00000" pt_clust_9="48.73026"></scales>
<clustering>
<clus scale="   48.730">  1  9  2 -1</clus>
<clus scale="   91.684">  7  8 -1 -1</clus>
<clus scale="   91.972">  5  6 -1 -1</clus>
<clus scale="  106.022">  2  7  1 -1</clus>
<clus scale="  106.022">  2  5  1 -1</clus>
</clustering>
</event>
<event>
 9    1  0.1434065E-005  0.1182200E+03  0.7546771E-02  0.1246116E+00
          1   -1    0    0  502    0  0.00000000000E+00  0.00000000000E+00  0.67004468396E+03  0.67004468396E+03  0.00000000000E+00 0. -1.
         -1   -1    0    0    0  501 -0.00000000000E+00 -0.00000000000E+00 -0.31996906088E+02  0.31996906088E+02  0.00000000000E+00 0.  1.
         23    2    1    2    0    0  0.32126886612E+02 -0.46935398132E+02  0.15542295725E+03  0.18877807980E+03  0.90806383754E+02 0.  0.
         23    2    1    2    0    0 -0.54855431649E+02  0.65093687383E+02  0.45971096002E+03  0.47623169642E+03  0.90643010730E+02 0.  0.
        -11    1    3    3    0    0 -0.18007490403E+02 -0.52614890440E+02  0.68044743847E+02  0.87878800468E+02  0.00000000000E+00 0.  1.
         11    1    3    3    0    0  0.50134377016E+02  0.56794923075E+01  0.87378213402E+02  0.10089927933E+03  0.00000000000E+00 0. -1.
        -13    1    4    4    0    0 -0.73226126482E+02  0.22610530925E+02  0.32018464486E+03  0.32922865689E+03  0.00000000000E+00 0.  1.
         13    1    4    4    0    0  0.18370694833E+02  0.42483156458E+02  0.13952631515E+03  0.14700303953E+03  0.00000000000E+00 0. -1.
         21    1    1    2  502  501  0.22728545037E+02 -0.18158289251E+02  0.22913860607E+02  0.37031813835E+02  0.00000000000E+00 0. -1.
<scales pt_clust_5="13000.00000" pt_clust_6="13000.00000" pt_clust_7="13000.00000" pt_clust_8="13000.00000" pt_clust_9="29.09141"></scales>
<clustering>
<clus scale="   29.091">  2  9  1 -1</clus>
<clus scale="   90.643">  7  8 -1 -1</clus>
<clus scale="   90.806">  5  6 -1 -1</clus>
<clus scale="  118.095">  1  7  2 -1</clus>
<clus scale="  118.095">  1  5  2 -1</clus>
</clustering>
</event>
<event>
 9    1  0.1434065E-005  0.1350782E+03  0.7546771E-02  0.1221536E+00
         -2   -1    0    0    0  501 -0.00000000000E+00  0.00000000000E+00  0.68508542154E+03  0.68508542154E+03  0.00000000000E+00 0.  1.
          2   -1    0    0  502    0  0.00000000000E+00 -0.00000000000E+00 -0.55507849429E+02  0.55507849429E+02  0.00000000000E+00 0. -1.
         23    2    1    2    0    0 -0.91322727148E+02 -0.80931753804E+02  0.38410949614E+03  0.41265392236E+03  0.88619215447E+02 0.  0.
         23    2    1    2    0    0  0.94211881586E+02  0.40876337288E+01  0.11340363955E+03  0.17511794510E+03  0.94410390591E+02 0.  0.
        -13    1    4    4    0    0  0.90932702153E+02  0.38545312396E+02  0.81636231542E+02  0.12813653550E+03  0.00000000000E+00 0. -1.
         13    1    4    4    0    0  0.32791794331E+01 -0.34457678667E+02  0.31767408013E+02  0.46981409608E+02  0.00000000000E+00 0.  1.
        -13    1    3    3    0    0 -0.38567635077E+02 -0.89403933379E+02  0.24581413519E+03  0.26439575420E+03  0.00000000000E+00 0.  1.
         13    1    3    3    0    0 -0.52755092072E+02  0.84721795749E+01  0.13829536095E+03  0.14825816816E+03  0.00000000000E+00 0. -1.
         21    1    1    2  502  501 -0.28891544375E+01  0.76844120076E+02  0.13206443641E+03  0.15282140350E+03  0.00000000000E+00 0. -1.
<scales pt_clust_5="13000.00000" pt_clust_6="13000.00000" pt_clust_7="13000.00000" pt_clust_8="13000.00000" pt_clust_9="76.89841"></scales>
<clustering>
<clus scale="   76.898">  1  9  2 -1</clus>
<clus scale="   88.619">  7  8 -1 -1</clus>
<clus scale="   94.410">  5  6 -1 -1</clus>
<clus scale="  131.096">  1  7  2 -1</clus>
<clus scale="  135.078">  2  5  1 -1</clus>
</clustering>
</event>
<event>
 9    1  0.1434065E-005  0.1633652E+03  0.7546771E-02  0.1184986E+00
          2   -1    0    0  502    0  0.00000000000E+00  0.00000000000E+00  0.10066331076E+03  0.10066331076E+03  0.00000000000E+00 0. -1.
         -2   -1    0    0    0  501 -0.00000000000E+00 -0.00000000000E+00 -0.36114363295E+03  0.36114363295E+03  0.00000000000E+00 0.  1.
         23    2    1    2    0    0 -0.11084417771E+03  0.75099046091E+02 -0.12957499772E+03  0.20755087649E+03  0.91440624678E+02 0.  0.
         23    2    1    2    0    0  0.91839070816E+02 -0.10278278092E+03 -0.60495171399E+02  0.17624854888E+03  0.91679715526E+02 0.  0.
        -11    1    4    4    0    0  0.82914844143E+02 -0.29946766960E+02 -0.13695945330E+02  0.89214680121E+02  0.00000000000E+00 0. -1.
         11    1    4    4    0    0  0.89242266737E+01 -0.72836013956E+02 -0.46799226069E+02  0.87033868761E+02  0.00000000000E+00 0.  1.
        -11    1    3    3    0    0 -0.31753460774E+02  0.75875655010E+02 -0.76261465067E+02  0.11216598570E+03  0.00000000000E+00 0. -1.
         11    1    3    3    0    0 -0.79090716931E+02 -0.77660891958E+00 -0.53313532650E+02  0.95384890783E+02  0.00000000000E+00 0.  1.
         21    1    1    2  502  501  0.19005106889E+02  0.27683734825E+02 -0.70410153079E+02  0.78007518345E+02  0.00000000000E+00 0.  1.
<scales pt_clust_5="13000.00000" pt_clust_6="13000.00000" pt_clust_7="13000.00000" pt_clust_8="13000.00000" pt_clust_9="33.57951"></scales>
<clustering>
<clus scale="   33.580">  2  9  1 -1</clus>
<clus scale="   91.441">  7  8 -1 -1</clus>
<clus scale="   91.680">  5  6 -1 -1</clus>
<clus scale="  163.231">  2  7  1 -1</clus>
<clus scale="  163.365">  1  5  2 -1</clus>
</clustering>
</event>
<event>
 9    1  0.1434065E-005  0.1576731E+03  0.7546771E-02  0.1191612E+00
          1   -1    0    0  502    0  0.00000000000E+00  0.00000000000E+00  0.33676056728E+03  0.33676056728E+03  0.00000000000E+00 0. -1.
         -1   -1    0    0    0  501 -0.00000000000E+00 -0.00000000000E+00 -0.25227002070E+03  0.25227002070E+03  0.00000000000E+00 0.  1.
         23    2    1    2    0    0 -0.10179512554E+03 -0.79707496566E-01 -0.16823913134E+03  0.21638918427E+03  0.90319542854E+02 0.  0.
         23    2    1    2    0    0  0.13097053483E+03 -0.16295007156E+01  0.28639624028E+03  0.32805930729E+03  0.91892145424E+02 0.  0.
        -13    1    4    4    0    0  0.11993830097E+03  0.26912708017E+02  0.26021678360E+03  0.28778857580E+03  0.00000000000E+00 0. -1.
         13    1    4    4    0    0  0.11032233852E+02 -0.28542208733E+02  0.26179456682E+02  0.40270731496E+02  0.00000000000E+00 0.  1.
        -13    1    3    3    0    0 -0.10331006431E+03  0.28447388144E+02 -0.12609864383E+03  0.16547837096E+03  0.00000000000E+00 0.  1.
         13    1    3    3    0    0  0.15149387697E+01 -0.28527095641E+02 -0.42140487503E+02  0.50910813313E+02  0.00000000000E+00 0. -1.
         21    1    1    2  502  501 -0.29175409290E+02  0.17092082122E+01 -0.33666562357E+02  0.44582096417E+02  0.00000000000E+00 0.  1.
<scales pt_clust_5="13000.00000" pt_clust_6="13000.00000" pt_clust_7="13000.00000" pt_clust_8="13000.00000" pt_clust_9="29.22543"></scales>
<clustering>
<clus scale="   29.225">  2  9  1 -1</clus>
<clus scale="   90.320">  7  8 -1 -1</clus>
<clus scale="   91.892">  5  6 -1 -1</clus>
<clus scale="  156.762">  2  7  1 -1</clus>
<clus scale="  157.673">  1  5  2 -1</clus>
</clustering>
</event>
<event>
 9    1  0.1434065E-005  0.9720889E+02  0.7546771E-02  0.1286683E+00
         -1   -1    0    0    0  501 -0.00000000000E+00  0.00000000000E+00  0.16331715782E+03  0.16331715782E+03  0.00000000000E+00 0.  1.
          1   -1    0    0  502    0  0.00000000000E+00 -0.00000000000E+00 -0.16685791025E+03  0.16685791025E+03  0.00000000000E+00 0. -1.
         23    2    1    2    0    0  0.37272299283E+02  0.64160101484E+02 -0.28827749820E+02  0.12075713756E+03  0.90804758658E+02 0.  0.
         23    2    1    2    0    0  0.28843379333E+02 -0.97657628575E+01 -0.37182520450E+02  0.10343459365E+03  0.91590745612E+02 0.  0.
        -11    1    4    4    0    0 -0.70268512814E+01 -0.44450352435E+02 -0.27091140305E+02  0.52527519964E+02  0.00000000000E+00 0.  1.
         11    1    4    4    0    0  0.35870230614E+02  0.34684589577E+02 -0.10091380145E+02  0.50907073690E+02  0.00000000000E+00 0. -1.
        -13    1    3    3    0    0 -0.50138888929E+01  0.26934811968E+02  0.29089003543E+02  0.39959896205E+02  0.00000000000E+00 0.  1.
         13    1    3    3    0    0  0.42286188176E+02  0.37225289516E+02 -0.57916753363E+02  0.80797241352E+02  0.00000000000E+00 0. -1.
         21    1    1    2  502  501 -0.66115678616E+02 -0.54394338626E+02  0.62469517844E+02  0.10598333686E+03  0.00000000000E+00 0.  1.
<scales pt_clust_5="13000.00000" pt_clust_6="13000.00000" pt_clust_7="13000.00000" pt_clust_8="13000.00000" pt_clust_9="85.61558"></scales>
<clustering>
<clus scale="   85.616">  1  9  2 -1</clus>
<clus scale="   90.805">  7  8 -1 -1</clus>
<clus scale="   91.591">  5  6 -1 -1</clus>
<clus scale="   96.469">  1  7  2 -1</clus>
<clus scale="   97.209">  2  5  1 -1</clus>
</clustering>
</event>
<event>
 9    1  0.1434065E-005  0.1162345E+03  0.7546771E-02  0.1250059E+00
         -2   -1    0    0    0  501 -0.00000000000E+00  0.00000000000E+00  0.25801528890E+03  0.25801528890E+03  0.00000000000E+00 0.  1.
          2   -1    0    0  502    0  0.00000000000E+00 -0.00000000000E+00 -0.38501365092E+03  0.38501365092E+03  0.00000000000E+00 0. -1.
         23    2    1    2    0    0  0.34268545632E+02 -0.97149162257E+02 -0.33061513555E+02  0.14023870394E+03  0.89227447894E+02 0.  0.
         23    2    1    2    0    0  0.30435837262E+02  0.63834471931E+02 -0.28010394688E+03  0.30290348221E+03  0.91055579051E+02 0.  0.
        -13    1    4    4    0    0 -0.10252773792E+02 -0.19791481630E+02 -0.55086110572E+02  0.59424756571E+02  0.00000000000E+00 0.  1.
         13    1    4    4    0    0  0.40688611055E+02  0.83625953561E+02 -0.22501783631E+03  0.24347872564E+03  0.00000000000E+00 0. -1.
        -13    1    3    3    0    0  0.16970449767E+02 -0.11211272468E+03 -0.26526500770E+02  0.11645133938E+03  0.00000000000E+00 0.  1.
         13    1    3    3    0    0  0.17298095865E+02  0.14963562419E+02 -0.65350127851E+01  0.23787364565E+02  0.00000000000E+00 0. -1.
         21    1    1    2  502  501 -0.64704382894E+02  0.33314690326E+02  0.18616709842E+03  0.19988675367E+03  0.00000000000E+00 0.  1.
<scales pt_clust_5="13000.00000" pt_clust_6="13000.00000" pt_clust_7="13000.00000" pt_clust_8="13000.00000" pt_clust_9="72.77723"></scales>
<clustering>
<clus scale="   72.777">  1  9  2 -1</clus>
<clus scale="   89.227">  7  8 -1 -1</clus>
<clus scale="   91.056">  5  6 -1 -1</clus>
<clus scale="  114.808">  1  7  2 -1</clus>
<clus scale="  116.234">  2  5  1 -1</clus>
</clustering>
</event>
<event>
 9    1  0.1434065E-005  0.9456646E+02  0.7546771E-02  0.1292212E+00
          1   -1    0    0  502    0  0.00000000000E+00  0.00000000000E+00  0.69749496609E+02  0.69749496609E+02  0.00000000000E+00 0. -1.
         -1   -1    0    0    0  501 -0.00000000000E+00 -0.00000000000E+00 -0.19506500314E+03  0.19506500314E+03  0.00000000000E+00 0.  1.
         23    2    1    2    0    0 -0.19317505406E+02  0.19082848433E+02 -0.93479147626E+02  0.13355646974E+03  0.91442104353E+02 0.  0.
         23    2    1    2    0    0 -0.10270635206E+02 -0.27389695007E+02 -0.29052766704E+02  0.10040012745E+03  0.91544748609E+02 0.  0.
        -11    1    4    4    0    0 -0.50014216287E+02 -0.12751457470E+02 -0.54166969192E+01  0.51897611736E+02  0.00000000000E+00 0.  1.
         11    1    4    4    0    0  0.39743581081E+02 -0.14638237537E+02 -0.23636069785E+02  0.48502515710E+02  0.00000000000E+00 0. -1.
        -13    1    3    3    0    0 -0.43712939441E+02  0.10429623111E+01 -0.93496143062E+02  0.10321549115E+03  0.00000000000E+00 0.  1.
         13    1    3    3    0    0  0.24395434036E+02  0.18039886122E+02  0.16995435835E-01  0.30340978592E+02  0.00000000000E+00 0. -1.
         21    1    1    2  502  501  0.29588140612E+02  0.83068465739E+01 -0.27835921958E+01  0.30857902560E+02  0.00000000000E+00 0. -1.
<scales pt_clust_5="13000.00000" pt_clust_6="13000.00000" pt_clust_7="13000.00000" pt_clust_8="13000.00000" pt_clust_9="30.73210"></scales>
<clustering>
<clus scale="   30.732">  1  9  2 -1</clus>
<clus scale="   91.442">  7  8 -1 -1</clus>
<clus scale="   91.545">  5  6 -1 -1</clus>
<clus scale="   94.467">  2  7  1 -1</clus>
<clus scale="   30.732">  1  5  2 -1</clus>
</clustering>
</event>
<event>
 9    1  0.1434065E-005  0.1091813E+03  0.7546771E-02  0.1262649E+00
          3   -1    0    0  502    0  0.00000000000E+00  0.00000000000E+00  0.19330786820E+03  0.19330786820E+03  0.00000000000E+00 0. -1.
         -3   -1    0    0    0  501 -0.00000000000E+00 -0.00000000000E+00 -0.20570293341E+03  0.20570293341E+03  0.00000000000E+00 0.  1.
         23    2    1    2    0    0  0.48437907915E+02 -0.29382813044E+02 -0.84257709714E+02  0.14460755413E+03  0.10296796802E+03 0.  0.
         23    2    1    2    0    0 -0.34220992091E+02 -0.87315969511E+00  0.14124232450E+03  0.17738971245E+03  0.10171468501E+03 0.  0.
        -11    1    4    4    0    0 -0.58931117293E+02 -0.12034090665E+02  0.13742171834E+03  0.15000808177E+03  0.00000000000E+00 0. -1.
         11    1    4    4    0    0  0.24710125202E+02  0.11160930970E+02  0.38206061602E+01  0.27381630686E+02  0.00000000000E+00 0.  1.
        -11    1    3    3    0    0  0.55618388079E+02 -0.60444260614E+02 -0.75449105778E+02  0.11153242262E+03  0.00000000000E+00 0.  1.
         11    1    3    3    0    0 -0.71804801644E+01  0.31061447570E+02 -0.88086039352E+01  0.33075131502E+02  0.00000000000E+00 0. -1.
         21    1    1    2  502  501 -0.14216915824E+02  0.30255972739E+02 -0.69379679994E+02  0.77013535031E+02  0.00000000000E+00 0.  1.
<scales pt_clust_5="13000.00000" pt_clust_6="13000.00000" pt_clust_7="13000.00000" pt_clust_8="13000.00000" pt_clust_9="33.42970"></scales>
<clustering>
<clus scale="   33.430">  2  9  1 -1</clus>
<clus scale="  101.715">  5  6 -1 -1</clus>
<clus scale="  102.968">  7  8 -1 -1</clus>
<clus scale="  108.000">  1  5  2 -1</clus>
<clus scale="  108.000">  1  5  2 -1</clus>
</clustering>
</event>
<event>
 9    1  0.1434795E-005  0.4921116E+03  0.7546771E-02  0.1015895E+00
         -2   -1    0    0    0  501 -0.00000000000E+00  0.00000000000E+00  0.22083375626E+03  0.22083375626E+03  0.00000000000E+00 0.  1.
          2   -1    0    0  502    0  0.00000000000E+00 -0.00000000000E+00 -0.15384944396E+04  0.15384944396E+04  0.00000000000E+00 0. -1.
         23    2    1    2    0    0 -0.38622865438E+03 -0.30612499830E+03 -0.25673166638E+03  0.56232899710E+03  0.86125863795E+02 0.  0.
         23    2    1    2    0    0  0.39483081315E+03  0.27485426242E+03 -0.10564619390E+04  0.11642606765E+04  0.89190008770E+02 0.  0.
        -11    1    3    3    0    0 -0.35281007867E+03 -0.27122004159E+03 -0.20023488742E+03  0.48798491033E+03  0.00000000000E+00 0.  1.
         11    1    3    3    0    0 -0.33418575714E+02 -0.34904956710E+02 -0.56496778961E+02  0.74344086777E+02  0.00000000000E+00 0. -1.
        -13    1    4    4    0    0  0.11783384041E+03  0.70616513980E+02 -0.40206250530E+03  0.42488323592E+03  0.00000000000E+00 0.  1.
         13    1    4    4    0    0  0.27699697274E+03  0.20423774844E+03 -0.65439943370E+03  0.73937744057E+03  0.00000000000E+00 0. -1.
         21    1    1    2  502  501 -0.86021587671E+01  0.31270735882E+02 -0.44670780065E+01  0.32738522325E+02  0.00000000000E+00 0. -1.
<scales pt_clust_5="13000.00000" pt_clust_6="13000.00000" pt_clust_7="13000.00000" pt_clust_8="13000.00000" pt_clust_9="32.43233"></scales>
<clustering>
<clus scale="   32.432">  1  9  2 -1</clus>
<clus scale="   86.126">  5  6 -1 -1</clus>
<clus scale="   89.190">  7  8 -1 -1</clus>
<clus scale="  491.565">  1  5  2 -1</clus>
<clus scale="  492.112">  2  5  1 -1</clus>
</clustering>
</event>
<event>
 9    1  0.1434065E-005  0.1004520E+03  0.7546771E-02  0.1283250E+00
         -1   -1    0    0    0  501 -0.00000000000E+00  0.00000000000E+00  0.68205783945E+02  0.68205783945E+02  0.00000000000E+00 0.  1.
          1   -1    0    0  502    0  0.00000000000E+00 -0.00000000000E+00 -0.22657808605E+03  0.22657808605E+03  0.00000000000E+00 0. -1.
         23    2    1    2    0    0  0.64648755608E+01  0.27108439429E+02 -0.53285947762E+02  0.10851402885E+03  0.90328512240E+02 0.  0.
         23    2    1    2    0    0 -0.28197879646E+02 -0.32741857371E+01 -0.11399602258E+03  0.15280676741E+03  0.97718853319E+02 0.  0.
        -11    1    4    4    0    0  0.22927744135E+02  0.21712463187E+02 -0.81209044183E+02  0.87132206249E+02  0.00000000000E+00 0. -1.
         11    1    4    4    0    0 -0.51125623781E+02 -0.24986648924E+02 -0.32786978397E+02  0.65674561162E+02  0.00000000000E+00 0.  1.
        -13    1    3    3    0    0 -0.37701820050E+02  0.32832262236E+02 -0.28208044062E+02  0.57402773700E+02  0.00000000000E+00 0.  1.
         13    1    3    3    0    0  0.44166695611E+02 -0.57238228069E+01 -0.25077903700E+02  0.51111255147E+02  0.00000000000E+00 0. -1.
         21    1    1    2  502  501  0.21733004085E+02 -0.23834253692E+02  0.89096682393E+01  0.33463073735E+02  0.00000000000E+00 0.  1.
<scales pt_clust_5="13000.00000" pt_clust_6="13000.00000" pt_clust_7="13000.00000" pt_clust_8="13000.00000" pt_clust_9="32.25516"></scales>
<clustering>
<clus scale="   32.255">  1  9  2 -1</clus>
<clus scale="   90.329">  7  8 -1 -1</clus>
<clus scale="   93.278">  1  7  2 -1</clus>
<clus scale="   97.719">  5  6 -1 -1</clus>
<clus scale="  100.452">  2  5  1 -1</clus>
</clustering>
</event>
<event>
 9    1  0.1434065E-005  0.1154331E+03  0.7546771E-02  0.1253022E+00
          1   -1    0    0  502    0  0.00000000000E+00  0.00000000000E+00  0.21557363835E+03  0.21557363835E+03  0.00000000000E+00 0. -1.
         -1   -1    0    0    0  501 -0.00000000000E+00 -0.00000000000E+00 -0.27243350696E+03  0.27243350696E+03  0.00000000000E+00 0.  1.
         23    2    1    2    0    0 -0.35835038220E+02 -0.68044242487E+02  0.19523278327E+02  0.12189131414E+03  0.92531968344E+02 0.  0.
         23    2    1    2    0    0  0.48121897374E+02  0.46465622128E+02  0.12341486202E+03  0.16478066745E+03  0.86294085252E+02 0.  0.
        -11    1    3    3    0    0 -0.42447701126E+02 -0.88646072535E+02  0.12153311686E+02  0.99033511962E+02  0.00000000000E+00 0.  1.
         11    1    3    3    0    0  0.66126629057E+01  0.20601830047E+02  0.73699666410E+01  0.22857802175E+02  0.00000000000E+00 0. -1.
        -13    1    4    4    0    0  0.38012242392E+02 -0.17765400044E+02  0.65038271120E+02  0.77398428413E+02  0.00000000000E+00 0.  1.
         13    1    4    4    0    0  0.10109654982E+02  0.64231022173E+02  0.58376590903E+02  0.87382239034E+02  0.00000000000E+00 0. -1.
         21    1    1    2  502  501 -0.12286859153E+02  0.21578620359E+02 -0.19979800897E+03  0.20133516373E+03  0.00000000000E+00 0.  1.
<scales pt_clust_5="13000.00000" pt_clust_6="13000.00000" pt_clust_7="13000.00000" pt_clust_8="13000.00000" pt_clust_9="24.83151"></scales>
<clustering>
<clus scale="   24.832">  2  9  1 -1</clus>
<clus scale="   86.294">  7  8 -1 -1</clus>
<clus scale="   92.532">  5  6 -1 -1</clus>
<clus scale="  110.496">  1  7  2 -1</clus>
<clus scale="  110.496">  1  5  2 -1</clus>
</clustering>
</event>
<event>
 9    1  0.2222768E-005  0.1229340E+03  0.7546771E-02  0.1239469E+00
         -2   -1    0    0    0  501 -0.00000000000E+00  0.00000000000E+00  0.22456927733E+03  0.22456927733E+03  0.00000000000E+00 0.  1.
          2   -1    0    0  502    0  0.00000000000E+00 -0.00000000000E+00 -0.68405476198E+03  0.68405476198E+03  0.00000000000E+00 0. -1.
         23    2    1    2    0    0  0.11109771048E+03  0.43090703835E+02  0.97024881403E+02  0.17771319910E+03  0.89267258797E+02 0.  0.
         23    2    1    2    0    0 -0.79001736295E+02  0.52002766175E+01 -0.62748446477E+03  0.63926209204E+03  0.93010491767E+02 0.  0.
        -13    1    3    3    0    0  0.10485997711E+03  0.64278457086E+02  0.65863726608E+02  0.13951833330E+03  0.00000000000E+00 0.  1.
         13    1    3    3    0    0  0.62377333722E+01 -0.21187753251E+02  0.31161154795E+02  0.38194865802E+02  0.00000000000E+00 0. -1.
        -13    1    4    4    0    0 -0.91962019477E+02 -0.18584094395E+02 -0.52142816635E+03  0.52980158008E+03  0.00000000000E+00 0. -1.
         13    1    4    4    0    0  0.12960283181E+02  0.23784371013E+02 -0.10605629843E+03  0.10946051197E+03  0.00000000000E+00 0.  1.
         21    1    1    2  502  501 -0.32095974185E+02 -0.48290980452E+02  0.70974098718E+02  0.91648748168E+02  0.00000000000E+00 0.  1.
<scales pt_clust_5="13000.00000" pt_clust_6="13000.00000" pt_clust_7="13000.00000" pt_clust_8="13000.00000" pt_clust_9="57.98423"></scales>
<clustering>
<clus scale="   57.984">  1  9  2 -1</clus>
<clus scale="   89.267">  5  6 -1 -1</clus>
<clus scale="   93.010">  7  8 -1 -1</clus>
<clus scale="  120.127">  1  5  2 -1</clus>
<clus scale="  122.934">  2  5  1 -1</clus>
</clustering>
</event>
<event>
 9    1  0.1434065E-005  0.1108152E+03  0.7546771E-02  0.1261740E+00
         -1   -1    0    0    0  501 -0.00000000000E+00  0.00000000000E+00  0.22466229736E+02  0.22466229736E+02  0.00000000000E+00 0.  1.
          1   -1    0    0  502    0  0.00000000000E+00 -0.00000000000E+00 -0.76043568370E+03  0.76043568370E+03  0.00000000000E+00 0. -1.
         23    2    1    2    0    0 -0.36411783179E+02  0.67265096752E+02 -0.29685305527E+03  0.32000467202E+03  0.91819619351E+02 0.  0.
         23    2    1    2    0    0  0.44547688282E+02 -0.33616616883E+02 -0.37160497194E+03  0.38524254678E+03  0.84893999881E+02 0.  0.
        -11    1    3    3    0    0  0.95216794694E+01  0.54966785941E+02 -0.23744278737E+03  0.24390794823E+03  0.00000000000E+00 0. -1.
         11    1    3    3    0    0 -0.45933462648E+02  0.12298310811E+02 -0.59410267897E+02  0.76096723788E+02  0.00000000000E+00 0.  1.
        -11    1    4    4    0    0 -0.49532163479E+01 -0.48252933895E+02 -0.21281646641E+03  0.21827443359E+03  0.00000000000E+00 0.  1.
         11    1    4    4    0    0  0.49500904630E+02  0.14636317012E+02 -0.15878850553E+03  0.16696811319E+03  0.00000000000E+00 0. -1.
         21    1    1    2  502  501 -0.81359051034E+01 -0.33648479869E+02 -0.69511426749E+02  0.77654694630E+02  0.00000000000E+00 0. -1.
<scales pt_clust_5="13000.00000" pt_clust_6="13000.00000" pt_clust_7="13000.00000" pt_clust_8="13000.00000" pt_clust_9="34.61810"></scales>
<clustering>
<clus scale="   34.618">  1  9  2 -1</clus>
<clus scale="   84.894">  7  8 -1 -1</clus>
<clus scale="   91.820">  5  6 -1 -1</clus>
<clus scale="  105.148">  2  7  1 -1</clus>
<clus scale="  105.148">  2  5  1 -1</clus>
</clustering>
</event>
<event>
 9    1  0.1434065E-005  0.1915063E+03  0.7546771E-02  0.1158885E+00
          2   -1    0    0  502    0  0.00000000000E+00  0.00000000000E+00  0.78027272063E+03  0.78027272063E+03  0.00000000000E+00 0. -1.
         -2   -1    0    0    0  501 -0.00000000000E+00 -0.00000000000E+00 -0.16865027584E+03  0.16865027584E+03  0.00000000000E+00 0.  1.
         23    2    1    2    0    0  0.11172533125E+03  0.55403627009E+02  0.19651514860E+03  0.24969370322E+03  0.90424721546E+02 0.  0.
         23    2    1    2    0    0 -0.19401449651E+03 -0.17096743160E+02  0.51720869845E+03  0.56261443164E+03  0.10533867979E+03 0.  0.
        -13    1    4    4    0    0 -0.26900994092E+02 -0.25894913368E+02  0.20511782512E+03  0.20848868603E+03  0.00000000000E+00 0.  1.
         13    1    4    4    0    0 -0.16711350242E+03  0.87981702076E+01  0.31209087333E+03  0.35412574561E+03  0.00000000000E+00 0. -1.
        -13    1    3    3    0    0  0.10547856255E+03  0.86593173485E+01  0.12198573767E+03  0.16149684557E+03  0.00000000000E+00 0.  1.
         13    1    3    3    0    0  0.62467687056E+01  0.46744309661E+02  0.74529410931E+02  0.88196857646E+02  0.00000000000E+00 0. -1.
         21    1    1    2  502  501  0.82289165259E+02 -0.38306883849E+02 -0.10210140226E+03  0.13661486161E+03  0.00000000000E+00 0.  1.
<scales pt_clust_5="13000.00000" pt_clust_6="13000.00000" pt_clust_7="13000.00000" pt_clust_8="13000.00000" pt_clust_9="90.76852"></scales>
<clustering>
<clus scale="   90.425">  7  8 -1 -1</clus>
<clus scale="   90.769">  2  9  1 -1</clus>
<clus scale="  105.339">  5  6 -1 -1</clus>
<clus scale="  183.726">  2  7  1 -1</clus>
<clus scale="  191.506">  1  5  2 -1</clus>
</clustering>
</event>
<event>
 9    1  0.1434065E-005  0.1517487E+03  0.7546771E-02  0.1206528E+00
          1   -1    0    0  502    0  0.00000000000E+00  0.00000000000E+00  0.51212522250E+03  0.51212522250E+03  0.00000000000E+00 0. -1.
         -1   -1    0    0    0  501 -0.00000000000E+00 -0.00000000000E+00 -0.12589702716E+03  0.12589702716E+03  0.00000000000E+00 0.  1.
         23    2    1    2    0    0 -0.38864646991E+02  0.82897484835E+02 -0.30289583068E+02  0.13067820715E+03  0.88186627128E+02 0.  0.
         23    2    1    2    0    0 -0.99123178778E+02 -0.20157682619E+02  0.15691244574E+03  0.20672492869E+03  0.88780311869E+02 0.  0.
        -11    1    3    3    0    0  0.13135618819E+02  0.33659195495E+02 -0.44856543890E+02  0.57598571622E+02  0.00000000000E+00 0.  1.
         11    1    3    3    0    0 -0.52000265810E+02  0.49238289340E+02  0.14566960822E+02  0.73079635529E+02  0.00000000000E+00 0. -1.
        -13    1    4    4    0    0  0.11065294476E+02 -0.21731124992E+02  0.28088785097E+02  0.37197612604E+02  0.00000000000E+00 0.  1.
         13    1    4    4    0    0 -0.11018847325E+03  0.15734423727E+01  0.12882366064E+03  0.16952731609E+03  0.00000000000E+00 0. -1.
         21    1    1    2  502  501  0.13798782577E+03 -0.62739802216E+02  0.25960533267E+03  0.30061911382E+03  0.00000000000E+00 0.  1.
<scales pt_clust_5="13000.00000" pt_clust_6="13000.00000" pt_clust_7="13000.00000" pt_clust_8="13000.00000" pt_clust_9="123.06795"></scales>
<clustering>
<clus scale="   88.187">  5  6 -1 -1</clus>
<clus scale="   88.780">  7  8 -1 -1</clus>
<clus scale="  127.119">  2  5  1 -1</clus>
<clus scale="  123.068">  2  9  1 -1</clus>
<clus scale="  151.749">  1  5  2 -1</clus>
</clustering>
</event>
<event>
 9    1  0.1434065E-005  0.1121659E+03  0.7546771E-02  0.1257256E+00
         -2   -1    0    0    0  501 -0.00000000000E+00  0.00000000000E+00  0.52025495747E+02  0.52025495747E+02  0.00000000000E+00 0.  1.
          2   -1    0    0  502    0  0.00000000000E+00 -0.00000000000E+00 -0.32176870630E+03  0.32176870630E+03  0.00000000000E+00 0. -1.
         23    2    1    2    0    0  0.33282461710E+02  0.37909782159E+02 -0.84715746303E+02  0.13617076766E+03  0.93919361430E+02 0.  0.
         23    2    1    2    0    0 -0.52577600824E+02 -0.43940706566E+02 -0.18456597624E+03  0.21740246968E+03  0.92217375997E+02 0.  0.
        -11    1    4    4    0    0 -0.39451172319E+02 -0.71888455136E+02 -0.15075568023E+03  0.17161474325E+03  0.00000000000E+00 0.  1.
         11    1    4    4    0    0 -0.13126428506E+02  0.27947748570E+02 -0.33810296016E+02  0.45787726436E+02  0.00000000000E+00 0. -1.
        -13    1    3    3    0    0  0.57200369817E+02  0.51316491246E+02 -0.48979790184E+02  0.91127846608E+02  0.00000000000E+00 0. -1.
         13    1    3    3    0    0 -0.23917908107E+02 -0.13406709087E+02 -0.35735956120E+02  0.45042921048E+02  0.00000000000E+00 0.  1.
         21    1    1    2  502  501  0.19295139114E+02  0.60309244070E+01 -0.46148801044E+00  0.20220964711E+02  0.00000000000E+00 0. -1.
<scales pt_clust_5="13000.00000" pt_clust_6="13000.00000" pt_clust_7="13000.00000" pt_clust_8="13000.00000" pt_clust_9="20.21570"></scales>
<clustering>
<clus scale="   20.216">  1  9  2 -1</clus>
<clus scale="   92.217">  5  6 -1 -1</clus>
<clus scale="   93.919">  7  8 -1 -1</clus>
<clus scale="  110.745">  2  5  1 -1</clus>
<clus scale="  110.745">  2  5  1 -1</clus>
</clustering>
</event>
<event>
 9    1  0.1434065E-005  0.9431882E+02  0.7546771E-02  0.1294348E+00
         -1   -1    0    0    0  501 -0.00000000000E+00  0.00000000000E+00  0.17704100110E+03  0.17704100110E+03  0.00000000000E+00 0.  1.
          1   -1    0    0  502    0  0.00000000000E+00 -0.00000000000E+00 -0.17257551539E+03  0.17257551539E+03  0.00000000000E+00 0. -1.
         23    2    1    2    0    0 -0.20982425549E+02  0.70553339868E+01  0.13112717248E+03  0.16139683805E+03  0.91457990633E+02 0.  0.
         23    2    1    2    0    0  0.74443097368E+00  0.44167781221E-01 -0.13545667475E+03  0.16503927370E+03  0.94280936575E+02 0.  0.
        -11    1    4    4    0    0  0.43839045254E+02 -0.18106866799E+02 -0.71843924219E+02  0.86088733068E+02  0.00000000000E+00 0.  1.
         11    1    4    4    0    0 -0.43094614280E+02  0.18151034580E+02 -0.63612750532E+02  0.78950540635E+02  0.00000000000E+00 0. -1.
        -13    1    3    3    0    0 -0.11755415936E+02 -0.34426434230E+02  0.10590768719E+03  0.11198128140E+03  0.00000000000E+00 0.  1.
         13    1    3    3    0    0 -0.92270096126E+01  0.41481768217E+02  0.25219485285E+02  0.49415556648E+02  0.00000000000E+00 0. -1.
         21    1    1    2  502  501  0.20237994575E+02 -0.70995017680E+01  0.87949879797E+01  0.23180404728E+02  0.00000000000E+00 0. -1.
<scales pt_clust_5="13000.00000" pt_clust_6="13000.00000" pt_clust_7="13000.00000" pt_clust_8="13000.00000" pt_clust_9="21.44713"></scales>
<clustering>
<clus scale="   21.447">  1  9  2 -1</clus>
<clus scale="   91.458">  7  8 -1 -1</clus>
<clus scale="   91.497">  1  7  2 -1</clus>
<clus scale="   94.281">  5  6 -1 -1</clus>
<clus scale="   94.319">  2  5  1 -1</clus>
</clustering>
</event>
<event>
 9    1  0.1434065E-005  0.2894016E+03  0.7546771E-02  0.1090695E+00
          1   -1    0    0  502    0  0.00000000000E+00  0.00000000000E+00  0.11713322167E+04  0.11713322167E+04  0.00000000000E+00 0. -1.
         -1   -1    0    0    0  501 -0.00000000000E+00 -0.00000000000E+00 -0.16430251518E+03  0.16430251518E+03  0.00000000000E+00 0.  1.
         23    2    1    2    0    0 -0.11984982907E+03  0.32702245128E+03  0.39298069536E+03  0.53315452454E+03  0.92261882398E+02 0.  0.
         23    2    1    2    0    0  0.64885563543E+02 -0.23851789444E+03  0.64251937458E+03  0.69447701782E+03  0.91467257708E+02 0.  0.
        -11    1    4    4    0    0  0.39343768730E+02 -0.27946369056E+02  0.81752726279E+02  0.94933871381E+02  0.00000000000E+00 0.  1.
         11    1    4    4    0    0  0.25541794813E+02 -0.21057152539E+03  0.56076664830E+03  0.59954314644E+03  0.00000000000E+00 0. -1.
        -11    1    3    3    0    0 -0.93429233928E+02  0.31238174840E+03  0.33328213193E+03  0.46624924445E+03  0.00000000000E+00 0.  1.
         11    1    3    3    0    0 -0.26420595141E+02  0.14640702880E+02  0.59698563432E+02  0.66905280092E+02  0.00000000000E+00 0. -1.
         21    1    1    2  502  501  0.54964265526E+02 -0.88504556839E+02 -0.28470368437E+02  0.10800318951E+03  0.00000000000E+00 0.  1.
<scales pt_clust_5="13000.00000" pt_clust_6="13000.00000" pt_clust_7="13000.00000" pt_clust_8="13000.00000" pt_clust_9="104.18314"></scales>
<clustering>
<clus scale="   91.467">  5  6 -1 -1</clus>
<clus scale="   92.262">  7  8 -1 -1</clus>
<clus scale="  104.183">  2  9  1 -1</clus>
<clus scale="  289.149">  1  5  2 -1</clus>
<clus scale="  289.149">  1  5  2 -1</clus>
</clustering>
</event>
<event>
 9    1  0.1434065E-005  0.1292772E+03  0.7546771E-02  0.1228629E+00
         -2   -1    0    0    0  501 -0.00000000000E+00  0.00000000000E+00  0.32887958990E+02  0.32887958990E+02  0.00000000000E+00 0.  1.
          2   -1    0    0  502    0  0.00000000000E+00 -0.00000000000E+00 -0.10379982788E+04  0.10379982788E+04  0.00000000000E+00 0. -1.
         23    2    1    2    0    0 -0.22371325914E+02 -0.11672358516E+03 -0.37595245643E+03  0.40468547497E+03  0.91132939147E+02 0.  0.
         23    2    1    2    0    0 -0.27740502386E+02  0.78826377229E+02 -0.55710314512E+03  0.57060120149E+03  0.90767194599E+02 0.  0.
        -13    1    4    4    0    0  0.29768346176E+02  0.51219590983E+02 -0.24706355992E+03  0.25406692736E+03  0.00000000000E+00 0.  1.
         13    1    4    4    0    0 -0.57508848563E+02  0.27606786247E+02 -0.31003958520E+03  0.31653427413E+03  0.00000000000E+00 0. -1.
        -13    1    3    3    0    0  0.25993269210E+02 -0.73283820493E+02 -0.14230966627E+03  0.16216722697E+03  0.00000000000E+00 0. -1.
         13    1    3    3    0    0 -0.48364595124E+02 -0.43439764667E+02 -0.23364279017E+03  0.24251824800E+03  0.00000000000E+00 0.  1.
         21    1    1    2  502  501  0.50111828300E+02  0.37897207931E+02 -0.72054718269E+02  0.95599561346E+02  0.00000000000E+00 0.  1.
<scales pt_clust_5="13000.00000" pt_clust_6="13000.00000" pt_clust_7="13000.00000" pt_clust_8="13000.00000" pt_clust_9="62.82829"></scales>
<clustering>
<clus scale="   62.828">  1  9  2 -1</clus>
<clus scale="   90.767">  5  6 -1 -1</clus>
<clus scale="   91.133">  7  8 -1 -1</clus>
<clus scale="  129.020">  2  5  1 -1</clus>
<clus scale="  129.020">  2  5  1 -1</clus>
</clustering>
</event>
<event>
 9    1  0.1434065E-005  0.1424464E+03  0.7546771E-02  0.1211480E+00
         -1   -1    0    0    0  501 -0.00000000000E+00  0.00000000000E+00  0.82167164047E+02  0.82167164047E+02  0.00000000000E+00 0.  1.
          1   -1    0    0  502    0  0.00000000000E+00 -0.00000000000E+00 -0.52911402717E+03  0.52911402717E+03  0.00000000000E+00 0. -1.
         23    2    1    2    0    0 -0.81447618777E+02  0.22097572504E+02 -0.13980130634E+03  0.18436576148E+03  0.85582191129E+02 0.  0.
         23    2    1    2    0    0  0.12442819997E+03 -0.62355479690E+02 -0.32768719301E+03  0.36454565925E+03  0.78384044409E+02 0.  0.
        -13    1    4    4    0    0  0.13609324794E+02 -0.41652285985E+02 -0.61923860393E+02  0.75859680563E+02  0.00000000000E+00 0.  1.
         13    1    4    4    0    0  0.11081887518E+03 -0.20703193704E+02 -0.26576333262E+03  0.28868597869E+03  0.00000000000E+00 0. -1.
        -13    1    3    3    0    0  0.15029343398E+02  0.18216892645E+02 -0.26104804053E+02  0.35202231964E+02  0.00000000000E+00 0. -1.
         13    1    3    3    0    0 -0.96476962175E+02  0.38806798597E+01 -0.11369650229E+03  0.14916352952E+03  0.00000000000E+00 0.  1.
         21    1    1    2  502  501 -0.42980581192E+02  0.40257907185E+02  0.20541636234E+02  0.62369770480E+02  0.00000000000E+00 0.  1.
<scales pt_clust_5="13000.00000" pt_clust_6="13000.00000" pt_clust_7="13000.00000" pt_clust_8="13000.00000" pt_clust_9="58.88998"></scales>
<clustering>
<clus scale="   58.890">  1  9  2 -1</clus>
<clus scale="   78.384">  5  6 -1 -1</clus>
<clus scale="   85.582">  7  8 -1 -1</clus>
<clus scale="  138.242">  2  5  1 -1</clus>
<clus scale="  138.242">  2  5  1 -1</clus>
</clustering>
</event>
<event>
 9    1  0.1434065E-005  0.1061660E+03  0.7546771E-02  0.1278932E+00
         -1   -1    0    0    0  501 -0.00000000000E+00  0.00000000000E+00  0.75790191120E+02  0.75790191120E+02  0.00000000000E+00 0.  1.
          1   -1    0    0  502    0  0.00000000000E+00 -0.00000000000E+00 -0.22096347485E+03  0.22096347485E+03  0.00000000000E+00 0. -1.
         23    2    1    2    0    0 -0.13849341408E+02 -0.10507573249E+02 -0.64953210110E+02  0.12327619841E+03  0.10332418999E+03 0.  0.
         23    2    1    2    0    0 -0.76613647282E+01  0.32259656474E+02 -0.10258160396E+03  0.13558417471E+03  0.82223482151E+02 0.  0.
        -13    1    4    4    0    0  0.41540495342E+01  0.50846929790E+02 -0.10142053954E+03  0.11352881677E+03  0.00000000000E+00 0. -1.
         13    1    4    4    0    0 -0.11815414262E+02 -0.18587273315E+02 -0.11610644187E+01  0.22055357945E+02  0.00000000000E+00 0.  1.
        -13    1    3    3    0    0  0.27610328976E+02  0.39749594383E+01 -0.73429332237E+02  0.78549331006E+02  0.00000000000E+00 0.  1.
         13    1    3    3    0    0 -0.41459670384E+02 -0.14482532688E+02  0.84761221270E+01  0.44726867404E+02  0.00000000000E+00 0. -1.
         21    1    1    2  502  501  0.21510706136E+02 -0.21752083225E+02  0.22361530342E+02  0.37893292841E+02  0.00000000000E+00 0.  1.
<scales pt_clust_5="13000.00000" pt_clust_6="13000.00000" pt_clust_7="13000.00000" pt_clust_8="13000.00000" pt_clust_9="30.59189"></scales>
<clustering>
<clus scale="   30.592">  1  9  2 -1</clus>
<clus scale="   82.223">  5  6 -1 -1</clus>
<clus scale="   85.767">  2  5  1 -1</clus>
<clus scale="  103.324">  7  8 -1 -1</clus>
<clus scale="   85.767">  2  5  1 -1</clus>
</clustering>
</event>
<event>
 9    1  0.1434065E-005  0.1384933E+03  0.7546771E-02  0.1215800E+00
          2   -1    0    0  502    0  0.00000000000E+00  0.00000000000E+00  0.35599474530E+03  0.35599474530E+03  0.00000000000E+00 0.  1.
         -2   -1    0    0    0  501 -0.00000000000E+00 -0.00000000000E+00 -0.83524202496E+02  0.83524202496E+02  0.00000000000E+00 0. -1.
         23    2    1    2    0    0  0.39748022913E+02  0.96555029307E+02  0.33842077169E+02  0.14275353357E+03  0.91271606485E+02 0.  0.
         23    2    1    2    0    0 -0.17885486680E+02 -0.10317263242E+03  0.23672889441E+03  0.27384442968E+03  0.89362853037E+02 0.  0.
        -13    1    4    4    0    0  0.25373187182E+02 -0.18325463155E+02  0.20080398785E+02  0.37186605693E+02  0.00000000000E+00 0.  1.
         13    1    4    4    0    0 -0.43258673862E+02 -0.84847169267E+02  0.21664849563E+03  0.23665782399E+03  0.00000000000E+00 0. -1.
        -13    1    3    3    0    0  0.19449012308E+02 -0.11154822519E+02 -0.10197505387E+02  0.24630941138E+02  0.00000000000E+00 0. -1.
         13    1    3    3    0    0  0.20299010605E+02  0.10770985183E+03  0.44039582556E+02  0.11812259244E+03  0.00000000000E+00 0.  1.
         21    1    1    2  502  501 -0.21862536234E+02  0.66176031150E+01  0.18995712238E+01  0.22920984543E+02  0.00000000000E+00 0.  1.
<scales pt_clust_5="13000.00000" pt_clust_6="13000.00000" pt_clust_7="13000.00000" pt_clust_8="13000.00000" pt_clust_9="22.84214"></scales>
<clustering>
<clus scale="   22.842">  2  9  1 -1</clus>
<clus scale="   89.363">  5  6 -1 -1</clus>
<clus scale="   91.272">  7  8 -1 -1</clus>
<clus scale="  137.243">  1  5  2 -1</clus>
<clus scale="  137.243">  1  5  2 -1</clus>
</clustering>
</event>
<event>
 9    1  0.2144245E-005  0.1767008E+03  0.7546771E-02  0.1171757E+00
          2   -1    0    0  502    0  0.00000000000E+00  0.00000000000E+00  0.36795898439E+03  0.36795898439E+03  0.00000000000E+00 0. -1.
         -2   -1    0    0    0  501 -0.00000000000E+00 -0.00000000000E+00 -0.16507744733E+03  0.16507744733E+03  0.00000000000E+00 0.  1.
         23    2    1    2    0    0 -0.71286491036E+01 -0.14112302426E+03 -0.73787508359E+02  0.18503155449E+03  0.93944420555E+02 0.  0.
         23    2    1    2    0    0  0.25431350792E+02  0.14931275936E+03  0.27712095235E+03  0.32794833540E+03  0.88391372594E+02 0.  0.
        -13    1    4    4    0    0  0.45172399794E+02  0.14281926072E+03  0.26349947940E+03  0.30310041666E+03  0.00000000000E+00 0. -1.
         13    1    4    4    0    0 -0.19741049001E+02  0.64934986425E+01  0.13621472945E+02  0.24847918735E+02  0.00000000000E+00 0.  1.
        -13    1    3    3    0    0  0.18651700868E+02 -0.12967092878E+03 -0.32413590872E+02  0.13495583200E+03  0.00000000000E+00 0.  1.
         13    1    3    3    0    0 -0.25780349971E+02 -0.11452095483E+02 -0.41373917488E+02  0.50075722500E+02  0.00000000000E+00 0. -1.
         21    1    1    2  502  501 -0.18302701689E+02 -0.81897351005E+01 -0.45190693028E+00  0.20056541825E+02  0.00000000000E+00 0.  1.
<scales pt_clust_5="13000.00000" pt_clust_6="13000.00000" pt_clust_7="13000.00000" pt_clust_8="13000.00000" pt_clust_9="20.05145"></scales>
<clustering>
<clus scale="   20.051">  2  9  1 -1</clus>
<clus scale="   88.391">  5  6 -1 -1</clus>
<clus scale="   93.944">  7  8 -1 -1</clus>
<clus scale="  173.812">  1  5  2 -1</clus>
<clus scale="  173.812">  1  5  2 -1</clus>
</clustering>
</event>
<event>
 9    1  0.1434065E-005  0.1664048E+03  0.7546771E-02  0.1181868E+00
          1   -1    0    0  502    0  0.00000000000E+00  0.00000000000E+00  0.58341952898E+02  0.58341952898E+02  0.00000000000E+00 0. -1.
         -1   -1    0    0    0  501 -0.00000000000E+00 -0.00000000000E+00 -0.68208804658E+03  0.68208804658E+03  0.00000000000E+00 0.  1.
         23    2    1    2    0    0 -0.85659713911E+02 -0.67298090646E+02 -0.32362334027E+03  0.35335918620E+03  0.90906702257E+02 0.  0.
         23    2    1    2    0    0  0.14078223183E+03  0.78222590371E+02 -0.19751992861E+03  0.27008715487E+03  0.89412183639E+02 0.  0.
        -11    1    4    4    0    0  0.10713832322E+03  0.14219314249E+02 -0.14439171329E+03  0.18036012882E+03  0.00000000000E+00 0. -1.
         11    1    4    4    0    0  0.33643908617E+02  0.64003276123E+02 -0.53128215317E+02  0.89727026052E+02  0.00000000000E+00 0.  1.
        -13    1    3    3    0    0 -0.53775614510E+02 -0.37062456264E+02 -0.69136736881E+02  0.95106943841E+02  0.00000000000E+00 0. -1.
         13    1    3    3    0    0 -0.31884099401E+02 -0.30235634383E+02 -0.25448660339E+03  0.25825224236E+03  0.00000000000E+00 0.  1.
         21    1    1    2  502  501 -0.55122517922E+02 -0.10924499725E+02 -0.10260282480E+03  0.11698365840E+03  0.00000000000E+00 0.  1.
<scales pt_clust_5="13000.00000" pt_clust_6="13000.00000" pt_clust_7="13000.00000" pt_clust_8="13000.00000" pt_clust_9="56.19463"></scales>
<clustering>
<clus scale="   56.195">  2  9  1 -1</clus>
<clus scale="   89.412">  5  6 -1 -1</clus>
<clus scale="   90.907">  7  8 -1 -1</clus>
<clus scale="  165.593">  1  5  2 -1</clus>
<clus scale="  165.593">  1  5  2 -1</clus>
</clustering>
</event>
<event>
 9    1  0.1434065E-005  0.9302428E+02  0.7546771E-02  0.1296486E+00
         -2   -1    0    0    0  501 -0.00000000000E+00  0.00000000000E+00  0.51559051042E+02  0.51559051042E+02  0.00000000000E+00 0.  1.
          2   -1    0    0  502    0  0.00000000000E+00 -0.00000000000E+00 -0.55153152900E+03  0.55153152900E+03  0.00000000000E+00 0. -1.
         23    2    1    2    0    0  0.26329424972E+02  0.15257576459E+01 -0.20526708588E+02  0.96676927378E+02  0.90716679646E+02 0.  0.
         23    2    1    2    0    0  0.22401666596E+02 -0.24267825310E+02 -0.39485966722E+03  0.40618027696E+03  0.89316843809E+02 0.  0.
        -11    1    3    3    0    0 -0.33870398103E+02  0.50330536006E+00 -0.32003759532E+01  0.34024984793E+02  0.00000000000E+00 0. -1.
         11    1    3    3    0    0  0.60199823075E+02  0.10224522859E+01 -0.17326332635E+02  0.62651942584E+02  0.00000000000E+00 0.  1.
        -11    1    4    4    0    0 -0.19803104446E+02  0.22430450151E+02 -0.88501759511E+02  0.93422960113E+02  0.00000000000E+00 0.  1.
         11    1    4    4    0    0  0.42204771042E+02 -0.46698275461E+02 -0.30635790771E+03  0.31275731685E+03  0.00000000000E+00 0. -1.
         21    1    1    2  502  501 -0.48731091569E+02  0.22742067664E+02 -0.84586102153E+02  0.10023337570E+03  0.00000000000E+00 0. -1.
<scales pt_clust_5="13000.00000" pt_clust_6="13000.00000" pt_clust_7="13000.00000" pt_clust_8="13000.00000" pt_clust_9="53.77658"></scales>
<clustering>
<clus scale="   53.777">  2  9  1 -1</clus>
<clus scale="   89.317">  7  8 -1 -1</clus>
<clus scale="   90.717">  5  6 -1 -1</clus>
<clus scale="   91.660">  2  7  1 -1</clus>
<clus scale="   53.777">  2  5  1 -1</clus>
</clustering>
</event>
<event>
 9    1  0.1434065E-005  0.1907266E+03  0.7546771E-02  0.1160599E+00
         -1   -1    0    0    0  501 -0.00000000000E+00  0.00000000000E+00  0.13789366564E+03  0.13789366564E+03  0.00000000000E+00 0.  1.
          1   -1    0    0  502    0  0.00000000000E+00 -0.00000000000E+00 -0.32119428391E+03  0.32119428391E+03  0.00000000000E+00 0. -1.
         23    2    1    2    0    0 -0.13379961173E+03  0.36294463954E+02  0.57794291388E+01  0.16703228139E+03  0.92987940148E+02 0.  0.
         23    2    1    2    0    0  0.15570374902E+03 -0.34665346680E+02 -0.18496194147E+03  0.26970831820E+03  0.11439542559E+03 0.  0.
        -13    1    3    3    0    0  0.83828791651E+01  0.21802210888E+02  0.59855179259E+01  0.24112973428E+02  0.00000000000E+00 0. -1.
         13    1    3    3    0    0 -0.14218249090E+03  0.14492253066E+02 -0.20608878714E+00  0.14291930797E+03  0.00000000000E+00 0.  1.
        -13    1    4    4    0    0  0.22873500250E+02  0.36103668747E+02 -0.62286141362E+02  0.75539627458E+02  0.00000000000E+00 0.  1.
         13    1    4    4    0    0  0.13283024877E+03 -0.70769015427E+02 -0.12267580011E+03  0.19416869075E+03  0.00000000000E+00 0. -1.
         21    1    1    2  502  501 -0.21904137289E+02 -0.16291172738E+01 -0.41181059295E+01  0.22347349952E+02  0.00000000000E+00 0.  1.
<scales pt_clust_5="13000.00000" pt_clust_6="13000.00000" pt_clust_7="13000.00000" pt_clust_8="13000.00000" pt_clust_9="21.96464"></scales>
<clustering>
<clus scale="   21.965">  1  9  2 -1</clus>
<clus scale="   92.988">  5  6 -1 -1</clus>
<clus scale="  114.395">  7  8 -1 -1</clus>
<clus scale="  178.710">  1  5  2 -1</clus>
<clus scale="  190.727">  2  5  1 -1</clus>
</clustering>
</event>
<event>
 9    1  0.1434065E-005  0.1042064E+03  0.7546771E-02  0.1277166E+00
          2   -1    0    0  502    0  0.00000000000E+00  0.00000000000E+00  0.73284143376E+02  0.73284143376E+02  0.00000000000E+00 0. -1.
         -2   -1    0    0    0  501 -0.00000000000E+00 -0.00000000000E+00 -0.26000585789E+03  0.26000585789E+03  0.00000000000E+00 0.  1.
         23    2    1    2    0    0 -0.18321575160E+01  0.50285126819E+00 -0.15011150619E+03  0.17581215969E+03  0.91503232431E+02 0.  0.
         23    2    1    2    0    0 -0.27348234770E+02  0.37688860430E+01  0.56410434384E+01  0.10595201010E+03  0.10213655871E+03 0.  0.
        -11    1    3    3    0    0  0.42135496833E+02 -0.15261351446E+02 -0.73211742517E+02  0.85838617089E+02  0.00000000000E+00 0. -1.
         11    1    3    3    0    0 -0.43967654349E+02  0.15764202714E+02 -0.76899763668E+02  0.89973542602E+02  0.00000000000E+00 0.  1.
        -13    1    4    4    0    0  0.22355268983E+02  0.33189363333E+02 -0.17571248528E+02  0.43704011996E+02  0.00000000000E+00 0.  1.
         13    1    4    4    0    0 -0.49703503753E+02 -0.29420477290E+02  0.23212291967E+02  0.62247998101E+02  0.00000000000E+00 0. -1.
         21    1    1    2  502  501  0.29180392286E+02 -0.42717373112E+01 -0.42251251769E+02  0.51525831480E+02  0.00000000000E+00 0.  1.
<scales pt_clust_5="13000.00000" pt_clust_6="13000.00000" pt_clust_7="13000.00000" pt_clust_8="13000.00000" pt_clust_9="29.49141"></scales>
<clustering>
<clus scale="   29.491">  2  9  1 -1</clus>
<clus scale="   91.503">  5  6 -1 -1</clus>
<clus scale="   93.808">  2  5  1 -1</clus>
<clus scale="  102.137">  7  8 -1 -1</clus>
<clus scale="  104.206">  1  5  2 -1</clus>
</clustering>
</event>
<event>
 9    1  0.1434065E-005  0.1038402E+03  0.7546771E-02  0.1273581E+00
          1   -1    0    0  502    0  0.00000000000E+00  0.00000000000E+00  0.34511391483E+03  0.34511391483E+03  0.00000000000E+00 0. -1.
         -1   -1    0    0    0  501 -0.00000000000E+00 -0.00000000000E+00 -0.76750386584E+02  0.76750386584E+02  0.00000000000E+00 0.  1.
         23    2    1    2    0    0  0.29111416100E+02  0.26791609299E+01  0.62882377352E+02  0.11298637484E+03  0.89202438687E+02 0.  0.
         23    2    1    2    0    0 -0.56013561563E+02 -0.13521866151E+02  0.24026841759E+03  0.26358506167E+03  0.91803117064E+02 0.  0.
        -13    1    3    3    0    0  0.55282479574E+02 -0.20051334347E+02  0.34457520812E+02  0.68158119821E+02  0.00000000000E+00 0. -1.
         13    1    3    3    0    0 -0.26171063474E+02  0.22730495277E+02  0.28424856540E+02  0.44828255021E+02  0.00000000000E+00 0.  1.
        -13    1    4    4    0    0  0.17362313935E+02  0.17883774246E+02  0.90585693006E+02  0.93952366143E+02  0.00000000000E+00 0. -1.
         13    1    4    4    0    0 -0.73375875498E+02 -0.31405640397E+02  0.14968272459E+03  0.16963269553E+03  0.00000000000E+00 0.  1.
         21    1    1    2  502  501  0.26902145463E+02  0.10842705222E+02 -0.34787266694E+02  0.45292864903E+02  0.00000000000E+00 0.  1.
<scales pt_clust_5="13000.00000" pt_clust_6="13000.00000" pt_clust_7="13000.00000" pt_clust_8="13000.00000" pt_clust_9="29.00499"></scales>
<clustering>
<clus scale="   29.005">  2  9  1 -1</clus>
<clus scale="   89.202">  5  6 -1 -1</clus>
<clus scale="   91.803">  7  8 -1 -1</clus>
<clus scale="  101.548">  2  5  1 -1</clus>
<clus scale="  103.840">  1  5  2 -1</clus>
</clustering>
</event>
<event>
 9    1  0.1434065E-005  0.1097824E+03  0.7546771E-02  0.1262089E+00
         -2   -1    0    0    0  501 -0.00000000000E+00  0.00000000000E+00  0.22247886996E+03  0.22247886996E+03  0.00000000000E+00 0.  1.
          2   -1    0    0  502    0  0.00000000000E+00 -0.00000000000E+00 -0.33066978673E+03  0.33066978673E+03  0.00000000000E+00 0. -1.
         23    2    1    2    0    0  0.58573858145E+02  0.39750913130E+02  0.13459004051E+03  0.17735436473E+03  0.91263682437E+02 0.  0.
         23    2    1    2    0    0 -0.53756579887E+02 -0.15506676692E+02 -0.29683097153E+03  0.31636035206E+03  0.94047965369E+02 0.  0.
        -11    1    3    3    0    0 -0.15416125111E+02 -0.15706608401E+02  0.35946311515E+02  0.42148449229E+02  0.00000000000E+00 0.  1.
         11    1    3    3    0    0  0.73989983256E+02  0.55457521531E+02  0.98643728994E+02  0.13520591550E+03  0.00000000000E+00 0. -1.
        -13    1    4    4    0    0  0.24280189440E+01 -0.36904577998E+02 -0.19185331059E+03  0.19538560832E+03  0.00000000000E+00 0.  1.
         13    1    4    4    0    0 -0.56184598831E+02  0.21397901306E+02 -0.10497766094E+03  0.12097474374E+03  0.00000000000E+00 0. -1.
         21    1    1    2  502  501 -0.48172782586E+01 -0.24244236438E+02  0.54050014255E+02  0.59433939893E+02  0.00000000000E+00 0.  1.
<scales pt_clust_5="13000.00000" pt_clust_6="13000.00000" pt_clust_7="13000.00000" pt_clust_8="13000.00000" pt_clust_9="24.71820"></scales>
<clustering>
<clus scale="   24.718">  1  9  2 -1</clus>
<clus scale="   91.264">  5  6 -1 -1</clus>
<clus scale="   94.048">  7  8 -1 -1</clus>
<clus scale="  107.407">  1  5  2 -1</clus>
<clus scale="  109.782">  2  5  1 -1</clus>
</clustering>
</event>
<event>
 9    1  0.1434065E-005  0.9234173E+02  0.7546771E-02  0.1297923E+00
         -1   -1    0    0    0  501 -0.00000000000E+00  0.00000000000E+00  0.71407939552E+02  0.71407939552E+02  0.00000000000E+00 0.  1.
          1   -1    0    0  502    0  0.00000000000E+00 -0.00000000000E+00 -0.20129440659E+03  0.20129440659E+03  0.00000000000E+00 0. -1.
         23    2    1    2    0    0  0.70623552646E+00  0.29934834925E+01 -0.91505213486E+01  0.91565981411E+02  0.91055681859E+02 0.  0.
         23    2    1    2    0    0  0.21131732068E+02 -0.26247289636E+00 -0.12808684380E+03  0.15793311171E+03  0.89944478581E+02 0.  0.
        -11    1    3    3    0    0 -0.40282417241E+02  0.69854157797E+01 -0.24445868999E+02  0.47634752897E+02  0.00000000000E+00 0. -1.
         11    1    3    3    0    0  0.40988652768E+02 -0.39919322872E+01  0.15295347650E+02  0.43931228515E+02  0.00000000000E+00 0.  1.
        -11    1    4    4    0    0  0.50489665819E+02 -0.62233310934E+01 -0.39464898951E+02  0.64384893055E+02  0.00000000000E+00 0.  1.
         11    1    4    4    0    0 -0.29357933751E+02  0.59608581970E+01 -0.88621944851E+02  0.93548218656E+02  0.00000000000E+00 0. -1.
         21    1    1    2  502  501 -0.21837967594E+02 -0.27310105961E+01  0.73508981154E+01  0.23203253018E+02  0.00000000000E+00 0. -1.
<scales pt_clust_5="13000.00000" pt_clust_6="13000.00000" pt_clust_7="13000.00000" pt_clust_8="13000.00000" pt_clust_9="22.00807"></scales>
<clustering>
<clus scale="   22.008">  1  9  2 -1</clus>
<clus scale="   89.944">  7  8 -1 -1</clus>
<clus scale="   91.056">  5  6 -1 -1</clus>
<clus scale="   91.246">  2  7  1 -1</clus>
<clus scale="   91.246">  2  5  1 -1</clus>
</clustering>
</event>
<event>
 9    1  0.1434065E-005  0.1590165E+03  0.7546771E-02  0.1190220E+00
          2   -1    0    0  502    0  0.00000000000E+00  0.00000000000E+00  0.86281876719E+03  0.86281876719E+03  0.00000000000E+00 0.  1.
         -2   -1    0    0    0  501 -0.00000000000E+00 -0.00000000000E+00 -0.86793919883E+02  0.86793919883E+02  0.00000000000E+00 0. -1.
         23    2    1    2    0    0 -0.67285069904E+02  0.30256138121E+02  0.35432496774E+02  0.12187125876E+03  0.90301867965E+02 0.  0.
         23    2    1    2    0    0  0.12091133889E+03 -0.73499156140E+02  0.73974318290E+03  0.75884689719E+03  0.92773697264E+02 0.  0.
        -11    1    4    4    0    0 -0.13074427091E+02 -0.22047201571E+02  0.11831266320E+03  0.12105744923E+03  0.00000000000E+00 0.  1.
         11    1    4    4    0    0  0.13398576598E+03 -0.51451954570E+02  0.62143051970E+03  0.63778944796E+03  0.00000000000E+00 0. -1.
        -13    1    3    3    0    0 -0.58569327042E+02  0.58435883895E+02  0.10790889565E+02  0.83435974821E+02  0.00000000000E+00 0. -1.
         13    1    3    3    0    0 -0.87157428619E+01 -0.28179745774E+02  0.24641607210E+02  0.38435283938E+02  0.00000000000E+00 0.  1.
         21    1    1    2  502  501 -0.53626268990E+02  0.43243018019E+02  0.84916763480E+00  0.68894531124E+02  0.00000000000E+00 0. -1.
<scales pt_clust_5="13000.00000" pt_clust_6="13000.00000" pt_clust_7="13000.00000" pt_clust_8="13000.00000" pt_clust_9="68.88930"></scales>
<clustering>
<clus scale="   68.889">  2  9  1 -1</clus>
<clus scale="   90.302">  7  8 -1 -1</clus>
<clus scale="   92.774">  5  6 -1 -1</clus>
<clus scale="  157.587">  2  7  1 -1</clus>
<clus scale="  159.017">  1  5  2 -1</clus>
</clustering>
</event>
<event>
 9    1  0.1434065E-005  0.1545924E+03  0.7546771E-02  0.1209251E+00
         -1   -1    0    0    0  501 -0.00000000000E+00  0.00000000000E+00  0.65991772922E+03  0.65991772922E+03  0.00000000000E+00 0.  1.
          1   -1    0    0  502    0  0.00000000000E+00 -0.00000000000E+00 -0.22375285729E+03  0.22375285729E+03  0.00000000000E+00 0. -1.
         23    2    1    2    0    0  0.94402326961E+02 -0.70757671143E+02  0.19778973748E+03  0.24433117320E+03  0.81599599168E+02 0.  0.
         23    2    1    2    0    0  0.22627883564E+02 -0.21923265492E+01 -0.17221534446E+03  0.20620858584E+03  0.11111718407E+03 0.  0.
        -11    1    3    3    0    0 -0.22688221082E+01 -0.37235763926E+02  0.30292805107E+02  0.48055215224E+02  0.00000000000E+00 0.  1.
         11    1    3    3    0    0  0.96671149069E+02 -0.33521907217E+02  0.16749693237E+03  0.19627595798E+03  0.00000000000E+00 0. -1.
        -13    1    4    4    0    0 -0.42550420372E+02  0.16451597435E+02 -0.68196301904E+02  0.82048332862E+02  0.00000000000E+00 0.  1.
         13    1    4    4    0    0  0.65178303936E+02 -0.18643923984E+02 -0.10401904255E+03  0.12416025297E+03  0.00000000000E+00 0. -1.
         21    1    1    2  502  501 -0.11703021052E+03  0.72949997692E+02  0.41059047891E+03  0.43313082747E+03  0.00000000000E+00 0.  1.
<scales pt_clust_5="13000.00000" pt_clust_6="13000.00000" pt_clust_7="13000.00000" pt_clust_8="13000.00000" pt_clust_9="131.30243"></scales>
<clustering>
<clus scale="   81.600">  5  6 -1 -1</clus>
<clus scale="  111.117">  7  8 -1 -1</clus>
<clus scale="  113.419">  2  7  1 -1</clus>
<clus scale="  131.302">  1  9  2 -1</clus>
<clus scale="  113.419">  2  5  1 -1</clus>
</clustering>
</event>
<event>
 9    1  0.1434065E-005  0.9569177E+02  0.7546771E-02  0.1291808E+00
          1   -1    0    0  502    0  0.00000000000E+00  0.00000000000E+00  0.27323428286E+03  0.27323428286E+03  0.00000000000E+00 0. -1.
         -1   -1    0    0    0  501 -0.00000000000E+00 -0.00000000000E+00 -0.13139887514E+03  0.13139887514E+03  0.00000000000E+00 0.  1.
         23    2    1    2    0    0  0.25244778197E+02  0.11550324510E+02 -0.94523038551E+02  0.13477055526E+03  0.91966237970E+02 0.  0.
         23    2    1    2    0    0 -0.24440141621E+02  0.24116712662E+02  0.17655719124E+03  0.20022802020E+03  0.87976598839E+02 0.  0.
        -11    1    4    4    0    0 -0.39617567382E+02 -0.14804745003E+02  0.43099577568E+02  0.60384647936E+02  0.00000000000E+00 0.  1.
         11    1    4    4    0    0  0.15177425761E+02  0.38921457665E+02  0.13345761367E+03  0.13984337227E+03  0.00000000000E+00 0. -1.
        -13    1    3    3    0    0 -0.24780189023E+02  0.22643527567E+02 -0.84740687554E+01  0.34620758946E+02  0.00000000000E+00 0. -1.
         13    1    3    3    0    0  0.50024967220E+02 -0.11093203057E+02 -0.86048969795E+02  0.10014979632E+03  0.00000000000E+00 0.  1.
         21    1    1    2  502  501 -0.80463657603E+00 -0.35667037172E+02  0.59801255034E+02  0.69634582532E+02  0.00000000000E+00 0.  1.
<scales pt_clust_5="13000.00000" pt_clust_6="13000.00000" pt_clust_7="13000.00000" pt_clust_8="13000.00000" pt_clust_9="35.67611"></scales>
<clustering>
<clus scale="   35.676">  1  9  2 -1</clus>
<clus scale="   87.977">  5  6 -1 -1</clus>
<clus scale="   91.864">  1  5  2 -1</clus>
<clus scale="   91.966">  7  8 -1 -1</clus>
<clus scale="   35.676">  1  5  2 -1</clus>
</clustering>
</event>
<event>
 9    1  0.1434065E-005  0.1027351E+03  0.7546771E-02  0.1277954E+00
          1   -1    0    0  502    0  0.00000000000E+00  0.00000000000E+00  0.44108938793E+03  0.44108938793E+03  0.00000000000E+00 0. -1.
         -1   -1    0    0    0  501 -0.00000000000E+00 -0.00000000000E+00 -0.42848576625E+02  0.42848576625E+02  0.00000000000E+00 0.  1.
         23    2    1    2    0    0 -0.78183740075E+01  0.58133177262E+02  0.71555283136E+02  0.12670357400E+03  0.86562369711E+02 0.  0.
         23    2    1    2    0    0  0.15609223387E+02 -0.35001762044E+02  0.31370883674E+03  0.32959105095E+03  0.93532109011E+02 0.  0.
        -13    1    4    4    0    0 -0.12768944030E+02 -0.57287623696E+02  0.24558437923E+03  0.25250070313E+03  0.00000000000E+00 0. -1.
         13    1    4    4    0    0  0.28378167417E+02  0.22285861652E+02  0.68124457508E+02  0.77090347815E+02  0.00000000000E+00 0.  1.
        -13    1    3    3    0    0  0.28181867451E+02  0.97950010670E+01 -0.39466059193E+01  0.30095438146E+02  0.00000000000E+00 0.  1.
         13    1    3    3    0    0 -0.36000241459E+02  0.48338176195E+02  0.75501889055E+02  0.96608135857E+02  0.00000000000E+00 0. -1.
         21    1    1    2  502  501 -0.77908493792E+01 -0.23131415218E+02  0.12976691434E+02  0.27643339607E+02  0.00000000000E+00 0.  1.
<scales pt_clust_5="13000.00000" pt_clust_6="13000.00000" pt_clust_7="13000.00000" pt_clust_8="13000.00000" pt_clust_9="24.40819"></scales>
<clustering>
<clus scale="   24.408">  2  9  1 -1</clus>
<clus scale="   86.562">  7  8 -1 -1</clus>
<clus scale="   93.532">  5  6 -1 -1</clus>
<clus scale="   96.433">  2  7  1 -1</clus>
<clus scale="  102.735">  1  5  2 -1</clus>
</clustering>
</event>
<event>
 9    1  0.1434065E-005  0.9325908E+02  0.7546771E-02  0.1295835E+00
         -1   -1    0    0    0  501 -0.00000000000E+00  0.00000000000E+00  0.80101753456E+02  0.80101753456E+02  0.00000000000E+00 0.  1.
          1   -1    0    0  502    0  0.00000000000E+00 -0.00000000000E+00 -0.42913264642E+03  0.42913264642E+03  0.00000000000E+00 0. -1.
         23    2    1    2    0    0 -0.43848106277E+02 -0.60455329542E+01 -0.84113455350E+02  0.13165735615E+03  0.91100939432E+02 0.  0.
         23    2    1    2    0    0  0.30738359845E+01 -0.86201020533E+01 -0.30485234516E+03  0.31864981056E+03  0.92298400802E+02 0.  0.
        -11    1    4    4    0    0  0.58432537247E+01 -0.47191511668E+02 -0.22444125847E+03  0.22942332247E+03  0.00000000000E+00 0. -1.
         11    1    4    4    0    0 -0.27694177403E+01  0.38571409615E+02 -0.80411086694E+02  0.89226488094E+02  0.00000000000E+00 0.  1.
        -13    1    3    3    0    0  0.75343089067E+01  0.24444985440E+02  0.32831305654E+01  0.25789572896E+02  0.00000000000E+00 0.  1.
         13    1    3    3    0    0 -0.51382415184E+02 -0.30490518394E+02 -0.87396585915E+02  0.10586778326E+03  0.00000000000E+00 0. -1.
         21    1    1    2  502  501  0.40774270293E+02  0.14665635008E+02  0.39934907546E+02  0.58927233168E+02  0.00000000000E+00 0.  1.
<scales pt_clust_5="13000.00000" pt_clust_6="13000.00000" pt_clust_7="13000.00000" pt_clust_8="13000.00000" pt_clust_9="43.33154"></scales>
<clustering>
<clus scale="   43.332">  1  9  2 -1</clus>
<clus scale="   91.101">  7  8 -1 -1</clus>
<clus scale="   92.074">  1  7  2 -1</clus>
<clus scale="   92.298">  5  6 -1 -1</clus>
<clus scale="   93.259">  2  5  1 -1</clus>
</clustering>
</event>
<event>
 9    1  0.1434065E-005  0.9131814E+02  0.7546771E-02  0.1300145E+00
          1   -1    0    0  502    0  0.00000000000E+00  0.00000000000E+00  0.53353387908E+03  0.53353387908E+03  0.00000000000E+00 0. -1.
         -1   -1    0    0    0  501 -0.00000000000E+00 -0.00000000000E+00 -0.25682018582E+02  0.25682018582E+02  0.00000000000E+00 0.  1.
         23    2    1    2    0    0 -0.10689254870E+02 -0.16720480357E+02  0.18593917135E+03  0.20774930429E+03  0.90512780073E+02 0.  0.
         23    2    1    2    0    0 -0.92277116091E+01 -0.16023076755E+02  0.27798501173E+03  0.29317022187E+03  0.91275531222E+02 0.  0.
        -11    1    3    3    0    0 -0.44045515760E+02  0.12821271484E+02  0.11691681183E+03  0.12559432053E+03  0.00000000000E+00 0. -1.
         11    1    3    3    0    0  0.33356260890E+02 -0.29541751840E+02  0.69022359523E+02  0.82154983760E+02  0.00000000000E+00 0.  1.
        -11    1    4    4    0    0  0.81714081167E+01  0.36154343264E+02  0.13418337066E+03  0.13920878352E+03  0.00000000000E+00 0. -1.
         11    1    4    4    0    0 -0.17399119726E+02 -0.52177420020E+02  0.14380164107E+03  0.15396143836E+03  0.00000000000E+00 0.  1.
         21    1    1    2  502  501  0.19916966479E+02  0.32743557112E+02  0.43927677416E+02  0.58296371493E+02  0.00000000000E+00 0. -1.
<scales pt_clust_5="13000.00000" pt_clust_6="13000.00000" pt_clust_7="13000.00000" pt_clust_8="13000.00000" pt_clust_9="38.32527"></scales>
<clustering>
<clus scale="   38.325">  2  9  1 -1</clus>
<clus scale="   90.513">  5  6 -1 -1</clus>
<clus scale="   90.556">  2  5  1 -1</clus>
<clus scale="   91.276">  7  8 -1 -1</clus>
<clus scale="   91.318">  1  5  2 -1</clus>
</clustering>
</event>
<event>
 9    1  0.1434065E-005  0.9602341E+02  0.7546771E-02  0.1289126E+00
          3   -1    0    0  502    0  0.00000000000E+00  0.00000000000E+00  0.26340495147E+03  0.26340495147E+03  0.00000000000E+00 0. -1.
         -3   -1    0    0    0  501 -0.00000000000E+00 -0.00000000000E+00 -0.47786865642E+02  0.47786865642E+02  0.00000000000E+00 0.  1.
         23    2    1    2    0    0  0.17882793754E+02  0.12767753710E+02  0.53344622931E+02  0.10857056002E+03  0.91973408437E+02 0.  0.
         23    2    1    2    0    0 -0.38737092184E+02 -0.94920965849E+01  0.13978131849E+03  0.17177440551E+03  0.91525773316E+02 0.  0.
        -11    1    4    4    0    0  0.81994812678E+01 -0.19680403223E+02 -0.26301479472E+01  0.21481793275E+02  0.00000000000E+00 0.  1.
         11    1    4    4    0    0 -0.46936573452E+02  0.10188306639E+02  0.14241146644E+03  0.15029261224E+03  0.00000000000E+00 0. -1.
        -13    1    3    3    0    0 -0.22719693980E+02 -0.26522972531E+02  0.72863873405E+01  0.35675537935E+02  0.00000000000E+00 0.  1.
         13    1    3    3    0    0  0.40602487734E+02  0.39290726241E+02  0.46058235590E+02  0.72895022082E+02  0.00000000000E+00 0. -1.
         21    1    1    2  502  501  0.20854298430E+02 -0.32756571248E+01  0.22492144400E+02  0.30846851579E+02  0.00000000000E+00 0. -1.
<scales pt_clust_5="13000.00000" pt_clust_6="13000.00000" pt_clust_7="13000.00000" pt_clust_8="13000.00000" pt_clust_9="21.10999"></scales>
<clustering>
<clus scale="   21.110">  1  9  2 -1</clus>
<clus scale="   91.526">  5  6 -1 -1</clus>
<clus scale="   91.973">  7  8 -1 -1</clus>
<clus scale="   95.595">  1  5  2 -1</clus>
<clus scale="   21.110">  1  5  2 -1</clus>
</clustering>
</event>
<event>
 9    1  0.1434065E-005  0.1396530E+03  0.7546771E-02  0.1214664E+00
         -1   -1    0    0    0  501 -0.00000000000E+00  0.00000000000E+00  0.44370046801E+02  0.44370046801E+02  0.00000000000E+00 0.  1.
          1   -1    0    0  502    0  0.00000000000E+00 -0.00000000000E+00 -0.75773806144E+03  0.75773806144E+03  0.00000000000E+00 0. -1.
         23    2    1    2    0    0  0.40421605352E+02  0.11041699344E+03 -0.26092718423E+03  0.30001490694E+03  0.90000723864E+02 0.  0.
         23    2    1    2    0    0 -0.12808008264E+02 -0.96307575685E+02 -0.45128254284E+03  0.47106211940E+03  0.93831725212E+02 0.  0.
        -11    1    3    3    0    0  0.55770519978E+02  0.74937864824E+02 -0.23651774408E+03  0.25429643676E+03  0.00000000000E+00 0.  1.
         11    1    3    3    0    0 -0.15348914627E+02  0.35479128614E+02 -0.24409440156E+02  0.45718470186E+02  0.00000000000E+00 0. -1.
        -11    1    4    4    0    0 -0.39150359112E+02 -0.98391496337E+01 -0.89917554310E+02  0.98563309894E+02  0.00000000000E+00 0.  1.
         11    1    4    4    0    0  0.26342350848E+02 -0.86468426051E+02 -0.36136498853E+03  0.37249880951E+03  0.00000000000E+00 0. -1.
         21    1    1    2  502  501 -0.27613597087E+02 -0.14109417753E+02 -0.11582875659E+01  0.31031081894E+02  0.00000000000E+00 0.  1.
<scales pt_clust_5="13000.00000" pt_clust_6="13000.00000" pt_clust_7="13000.00000" pt_clust_8="13000.00000" pt_clust_9="31.00946"></scales>
<clustering>
<clus scale="   31.009">  1  9  2 -1</clus>
<clus scale="   90.001">  5  6 -1 -1</clus>
<clus scale="   93.832">  7  8 -1 -1</clus>
<clus scale="  137.108">  1  5  2 -1</clus>
<clus scale="  139.653">  2  5  1 -1</clus>
</clustering>
</event>
<event>
 9    1  0.1434065E-005  0.1109638E+03  0.7546771E-02  0.1259393E+00
          1   -1    0    0  502    0  0.00000000000E+00  0.00000000000E+00  0.23498132665E+03  0.23498132665E+03  0.00000000000E+00 0. -1.
         -1   -1    0    0    0  501 -0.00000000000E+00 -0.00000000000E+00 -0.30892824428E+03  0.30892824428E+03  0.00000000000E+00 0.  1.
         23    2    1    2    0    0  0.77162730117E+02 -0.58560507829E+02 -0.14767659108E+03  0.19885556756E+03  0.91387861341E+02 0.  0.
         23    2    1    2    0    0 -0.39647132294E+02  0.41893026116E+02  0.19138746999E+03  0.22044027174E+03  0.92939921460E+02 0.  0.
        -11    1    3    3    0    0  0.29489918851E+02 -0.25239264583E+01  0.43947138464E+01  0.29922216302E+02  0.00000000000E+00 0. -1.
         11    1    3    3    0    0  0.47672811266E+02 -0.56036581371E+02 -0.15207130492E+03  0.16893335126E+03  0.00000000000E+00 0.  1.
        -13    1    4    4    0    0 -0.66999491003E+02  0.46056464141E+02  0.13409555349E+03  0.15681756008E+03  0.00000000000E+00 0. -1.
         13    1    4    4    0    0  0.27352358709E+02 -0.41634380254E+01  0.57291916498E+02  0.63622711661E+02  0.00000000000E+00 0.  1.
         21    1    1    2  502  501 -0.37515597822E+02  0.16667481713E+02 -0.11765779654E+03  0.12461373164E+03  0.00000000000E+00 0.  1.
<scales pt_clust_5="13000.00000" pt_clust_6="13000.00000" pt_clust_7="13000.00000" pt_clust_8="13000.00000" pt_clust_9="41.05149"></scales>
<clustering>
<clus scale="   41.051">  2  9  1 -1</clus>
<clus scale="   91.388">  5  6 -1 -1</clus>
<clus scale="   92.940">  7  8 -1 -1</clus>
<clus scale="  109.667">  2  5  1 -1</clus>
<clus scale="  110.964">  1  5  2 -1</clus>
</clustering>
</event>
<event>
 9    1  0.1434065E-005  0.1057362E+03  0.7546771E-02  0.1268690E+00
         -2   -1    0    0    0  501 -0.00000000000E+00  0.00000000000E+00  0.69687799846E+02  0.69687799846E+02  0.00000000000E+00 0.  1.
          2   -1    0    0  502    0  0.00000000000E+00 -0.00000000000E+00 -0.49604320998E+03  0.49604320998E+03  0.00000000000E+00 0. -1.
         23    2    1    2    0    0  0.21968705998E+02  0.69001556232E+01 -0.21351608740E+02  0.96538203098E+02  0.91287990835E+02 0.  0.
         23    2    1    2    0    0 -0.29898106491E+02 -0.52237257027E+02 -0.40864052378E+03  0.42302405208E+03  0.91321646778E+02 0.  0.
        -13    1    3    3    0    0  0.37486658812E+02  0.36020051409E+02  0.77251713671E+01  0.52558272090E+02  0.00000000000E+00 0.  1.
         13    1    3    3    0    0 -0.15517952813E+02 -0.29119895786E+02 -0.29076780107E+02  0.43979931008E+02  0.00000000000E+00 0. -1.
        -13    1    4    4    0    0  0.67902099734E+01 -0.63727417248E+02 -0.32079415514E+03  0.32713327656E+03  0.00000000000E+00 0. -1.
         13    1    4    4    0    0 -0.36688316464E+02  0.11490160221E+02 -0.87846368641E+02  0.95890775523E+02  0.00000000000E+00 0.  1.
         21    1    1    2  502  501  0.79294004925E+01  0.45337101404E+02  0.36367223868E+01  0.46168754646E+02  0.00000000000E+00 0.  1.
<scales pt_clust_5="13000.00000" pt_clust_6="13000.00000" pt_clust_7="13000.00000" pt_clust_8="13000.00000" pt_clust_9="46.02530"></scales>
<clustering>
<clus scale="   46.025">  1  9  2 -1</clus>
<clus scale="   91.288">  5  6 -1 -1</clus>
<clus scale="   91.322">  7  8 -1 -1</clus>
<clus scale="  105.707">  1  5  2 -1</clus>
<clus scale="  105.736">  2  5  1 -1</clus>
</clustering>
</event>
<event>
 9    1  0.1434065E-005  0.2471027E+03  0.7546771E-02  0.1115384E+00
          1   -1    0    0  502    0  0.00000000000E+00  0.00000000000E+00  0.75307700395E+03  0.75307700395E+03  0.00000000000E+00 0. -1.
         -1   -1    0    0    0  501 -0.00000000000E+00 -0.00000000000E+00 -0.23235778639E+03  0.23235778639E+03  0.00000000000E+00 0.  1.
         23    2    1    2    0    0  0.16714295024E+03 -0.41727961904E+02 -0.54246460958E+02  0.20382500736E+03  0.94466747999E+02 0.  0.
         23    2    1    2    0    0 -0.23905116521E+03  0.16094964825E+02  0.63485510818E+03  0.68458099497E+03  0.90584892789E+02 0.  0.
        -11    1    4    4    0    0 -0.21159427729E+03 -0.13333441532E+02  0.57110601413E+03  0.60918962419E+03  0.00000000000E+00 0. -1.
         11    1    4    4    0    0 -0.27456887916E+02  0.29428406357E+02  0.63749094053E+02  0.75391370775E+02  0.00000000000E+00 0.  1.
        -13    1    3    3    0    0  0.50296653163E+02  0.23658814421E+01  0.24691214594E+02  0.56080360132E+02  0.00000000000E+00 0. -1.
         13    1    3    3    0    0  0.11684629708E+03 -0.44093843346E+02 -0.78937675552E+02  0.14774464722E+03  0.00000000000E+00 0.  1.
         21    1    1    2  502  501  0.71908214967E+02  0.25632997079E+02 -0.59889429669E+02  0.97028788022E+02  0.00000000000E+00 0.  1.
<scales pt_clust_5="13000.00000" pt_clust_6="13000.00000" pt_clust_7="13000.00000" pt_clust_8="13000.00000" pt_clust_9="76.34030"></scales>
<clustering>
<clus scale="   76.340">  2  9  1 -1</clus>
<clus scale="   90.585">  5  6 -1 -1</clus>
<clus scale="   94.467">  7  8 -1 -1</clus>
<clus scale="  245.645">  1  5  2 -1</clus>
<clus scale="  245.645">  1  5  2 -1</clus>
</clustering>
</event>
<event>
 9    1  0.1434065E-005  0.1168327E+03  0.7546771E-02  0.1249047E+00
         -2   -1    0    0    0  501 -0.00000000000E+00  0.00000000000E+00  0.12477296772E+03  0.12477296772E+03  0.00000000000E+00 0.  1.
          2   -1    0    0  502    0  0.00000000000E+00 -0.00000000000E+00 -0.37978495828E+03  0.37978495828E+03  0.00000000000E+00 0. -1.
         23    2    1    2    0    0 -0.53824377225E+02 -0.24391969533E+02 -0.20990318200E+02  0.11029714642E+03  0.90734972803E+02 0.  0.
         23    2    1    2    0    0  0.36519073686E+02  0.68016209132E+02 -0.29420210875E+03  0.31794411865E+03  0.92594461724E+02 0.  0.
        -11    1    3    3    0    0 -0.75904619870E+02 -0.29436071267E+02 -0.31634325185E+01  0.81473927820E+02  0.00000000000E+00 0.  1.
         11    1    3    3    0    0  0.22080242644E+02  0.50441017333E+01 -0.17826885682E+02  0.28823218603E+02  0.00000000000E+00 0. -1.
        -11    1    4    4    0    0  0.41002675389E+02 -0.10104752251E+02 -0.97778891268E+02  0.10650838927E+03  0.00000000000E+00 0.  1.
         11    1    4    4    0    0 -0.44836017037E+01  0.78120961384E+02 -0.19642321748E+03  0.21143572938E+03  0.00000000000E+00 0. -1.
         21    1    1    2  502  501  0.17305303540E+02 -0.43624239599E+02  0.60180436391E+02  0.76316660930E+02  0.00000000000E+00 0.  1.
<scales pt_clust_5="13000.00000" pt_clust_6="13000.00000" pt_clust_7="13000.00000" pt_clust_8="13000.00000" pt_clust_9="46.93131"></scales>
<clustering>
<clus scale="   46.931">  1  9  2 -1</clus>
<clus scale="   90.735">  5  6 -1 -1</clus>
<clus scale="   92.594">  7  8 -1 -1</clus>
<clus scale="  115.365">  1  5  2 -1</clus>
<clus scale="  116.833">  2  5  1 -1</clus>
</clustering>
</event>
<event>
 9    1  0.1434065E-005  0.2736879E+03  0.7546771E-02  0.1099292E+00
          3   -1    0    0  502    0  0.00000000000E+00  0.00000000000E+00  0.28007162195E+03  0.28007162195E+03  0.00000000000E+00 0. -1.
         -3   -1    0    0    0  501 -0.00000000000E+00 -0.00000000000E+00 -0.37773165914E+03  0.37773165914E+03  0.00000000000E+00 0.  1.
         23    2    1    2    0    0 -0.70615113903E+02 -0.23733859879E+03 -0.14501152355E+03  0.30065640707E+03  0.89720835722E+02 0.  0.
         23    2    1    2    0    0  0.59966673140E+02  0.25650612331E+03  0.10400703091E+03  0.29639628541E+03  0.87417974969E+02 0.  0.
        -11    1    4    4    0    0  0.37680419858E+02  0.15899904378E+03  0.17834097222E+02  0.16437324900E+03  0.00000000000E+00 0.  1.
         11    1    4    4    0    0  0.22286253281E+02  0.97507079529E+02  0.86172933692E+02  0.13202303642E+03  0.00000000000E+00 0. -1.
        -13    1    3    3    0    0 -0.58618277523E+02 -0.18971839790E+03 -0.69104160390E+02  0.21024880010E+03  0.00000000000E+00 0.  1.
         13    1    3    3    0    0 -0.11996836381E+02 -0.47620200895E+02 -0.75907363159E+02  0.90407606971E+02  0.00000000000E+00 0. -1.
         21    1    1    2  502  501  0.10648440764E+02 -0.19167524513E+02 -0.56655544556E+02  0.60750588602E+02  0.00000000000E+00 0.  1.
<scales pt_clust_5="13000.00000" pt_clust_6="13000.00000" pt_clust_7="13000.00000" pt_clust_8="13000.00000" pt_clust_9="21.92677"></scales>
<clustering>
<clus scale="   21.927">  2  9  1 -1</clus>
<clus scale="   87.418">  5  6 -1 -1</clus>
<clus scale="   89.721">  7  8 -1 -1</clus>
<clus scale="  272.942">  1  5  2 -1</clus>
<clus scale="  272.942">  1  5  2 -1</clus>
</clustering>
</event>
<event>
 9    1  0.1434065E-005  0.1047888E+03  0.7546771E-02  0.1272674E+00
         -1   -1    0    0    0  501 -0.00000000000E+00  0.00000000000E+00  0.59571137637E+02  0.59571137637E+02  0.00000000000E+00 0.  1.
          1   -1    0    0  502    0  0.00000000000E+00 -0.00000000000E+00 -0.35450946610E+03  0.35450946610E+03  0.00000000000E+00 0. -1.
         23    2    1    2    0    0  0.69747805608E+02 -0.23801241760E+02 -0.13002084094E+03  0.17222213498E+03  0.85579139994E+02 0.  0.
         23    2    1    2    0    0 -0.37072005448E+02 -0.34910693334E+02 -0.12918723556E+03  0.16575689096E+03  0.90514722396E+02 0.  0.
        -13    1    3    3    0    0  0.79095116164E+02 -0.41554457614E+02 -0.12051049534E+03  0.15001863163E+03  0.00000000000E+00 0.  1.
         13    1    3    3    0    0 -0.93473105555E+01  0.17753215853E+02 -0.95103456039E+01  0.22203503355E+02  0.00000000000E+00 0. -1.
        -13    1    4    4    0    0 -0.62122136127E+02 -0.39090516981E+02 -0.11565745412E+03  0.13698129438E+03  0.00000000000E+00 0. -1.
         13    1    4    4    0    0  0.25050130679E+02  0.41798236471E+01 -0.13529781439E+02  0.28775596580E+02  0.00000000000E+00 0.  1.
         21    1    1    2  502  501 -0.32675800160E+02  0.58711935094E+02 -0.35730251960E+02  0.76101577801E+02  0.00000000000E+00 0. -1.
<scales pt_clust_5="13000.00000" pt_clust_6="13000.00000" pt_clust_7="13000.00000" pt_clust_8="13000.00000" pt_clust_9="67.19226"></scales>
<clustering>
<clus scale="   67.192">  1  9  2 -1</clus>
<clus scale="   85.579">  5  6 -1 -1</clus>
<clus scale="   90.515">  7  8 -1 -1</clus>
<clus scale="  100.556">  1  5  2 -1</clus>
<clus scale="  104.789">  2  5  1 -1</clus>
</clustering>
</event>
<event>
 9    1  0.1434065E-005  0.1185049E+03  0.7546771E-02  0.1246186E+00
          2   -1    0    0  502    0  0.00000000000E+00  0.00000000000E+00  0.50739840909E+03  0.50739840909E+03  0.00000000000E+00 0. -1.
         -2   -1    0    0    0  501 -0.00000000000E+00 -0.00000000000E+00 -0.12517593007E+03  0.12517593007E+03  0.00000000000E+00 0.  1.
         23    2    1    2    0    0 -0.51650126050E+02  0.50495701927E+02  0.16886961801E+02  0.11989863363E+03  0.94196398199E+02 0.  0.
         23    2    1    2    0    0  0.74618890935E+02 -0.13000519948E+01  0.41949668105E+03  0.43598667241E+03  0.92397208196E+02 0.  0.
        -13    1    4    4    0    0 -0.18133774868E+02  0.11730064338E+02  0.12807147497E+03  0.12987967855E+03  0.00000000000E+00 0. -1.
         13    1    4    4    0    0  0.92752665802E+02 -0.13030116333E+02  0.29142520609E+03  0.30610699386E+03  0.00000000000E+00 0.  1.
        -13    1    3    3    0    0  0.99661457575E+01 -0.20843969272E+02  0.10612852983E+02  0.25424943751E+02  0.00000000000E+00 0.  1.
         13    1    3    3    0    0 -0.61616271807E+02  0.71339671199E+02  0.62741088184E+01  0.94473689881E+02  0.00000000000E+00 0. -1.
         21    1    1    2  502  501 -0.22968764885E+02 -0.49195649932E+02 -0.54161163841E+02  0.76689033122E+02  0.00000000000E+00 0.  1.
<scales pt_clust_5="13000.00000" pt_clust_6="13000.00000" pt_clust_7="13000.00000" pt_clust_8="13000.00000" pt_clust_9="54.29343"></scales>
<clustering>
<clus scale="   54.293">  2  9  1 -1</clus>
<clus scale="   92.397">  5  6 -1 -1</clus>
<clus scale="   94.196">  7  8 -1 -1</clus>
<clus scale="  117.080">  1  5  2 -1</clus>
<clus scale="  117.080">  1  5  2 -1</clus>
</clustering>
</event>
<event>
 9    1  0.1434065E-005  0.1126702E+03  0.7546771E-02  0.1256308E+00
         -1   -1    0    0    0  501 -0.00000000000E+00  0.00000000000E+00  0.77501304494E+02  0.77501304494E+02  0.00000000000E+00 0.  1.
          1   -1    0    0  502    0  0.00000000000E+00 -0.00000000000E+00 -0.30740936155E+03  0.30740936155E+03  0.00000000000E+00 0. -1.
         23    2    1    2    0    0  0.15637239494E+02  0.63613723648E+02 -0.27469387774E+02  0.11440234888E+03  0.89677762397E+02 0.  0.
         23    2    1    2    0    0 -0.67168935824E+02 -0.46100700806E+02 -0.16027444798E+03  0.20166034513E+03  0.91334854069E+02 0.  0.
        -11    1    4    4    0    0  0.19850480895E+02 -0.11916575015E+02 -0.11261582112E+02  0.25746253777E+02  0.00000000000E+00 0.  1.
         11    1    4    4    0    0 -0.87019416719E+02 -0.34184125791E+02 -0.14901286587E+03  0.17591409136E+03  0.00000000000E+00 0. -1.
        -13    1    3    3    0    0  0.49032023426E+02  0.56719614892E+02 -0.86976663854E+01  0.75477834066E+02  0.00000000000E+00 0.  1.
         13    1    3    3    0    0 -0.33394783932E+02  0.68941087555E+01 -0.18771721388E+02  0.38924514811E+02  0.00000000000E+00 0. -1.
         21    1    1    2  502  501  0.51531696330E+02 -0.17513022841E+02 -0.42164221303E+02  0.68847972038E+02  0.00000000000E+00 0.  1.
<scales pt_clust_5="13000.00000" pt_clust_6="13000.00000" pt_clust_7="13000.00000" pt_clust_8="13000.00000" pt_clust_9="54.42630"></scales>
<clustering>
<clus scale="   54.426">  2  9  1 -1</clus>
<clus scale="   89.678">  7  8 -1 -1</clus>
<clus scale="   91.335">  5  6 -1 -1</clus>
<clus scale="  111.331">  1  7  2 -1</clus>
<clus scale="   54.426">  2  5  1 -1</clus>
</clustering>
</event>
<event>
 9    1  0.1434065E-005  0.1462120E+03  0.7546771E-02  0.1209074E+00
          1   -1    0    0  502    0  0.00000000000E+00  0.00000000000E+00  0.91442655437E+03  0.91442655437E+03  0.00000000000E+00 0. -1.
         -1   -1    0    0    0  501 -0.00000000000E+00 -0.00000000000E+00 -0.30636239670E+02  0.30636239670E+02  0.00000000000E+00 0.  1.
         23    2    1    2    0    0 -0.27860169006E+02 -0.83729679760E+02  0.23055692934E+03  0.26254733935E+03  0.89374266092E+02 0.  0.
         23    2    1    2    0    0  0.10596282890E+02  0.10804207076E+03  0.61794211181E+03  0.63631363537E+03  0.10610004122E+03 0.  0.
        -11    1    3    3    0    0  0.19169732191E+02 -0.75445644069E+02  0.14270377707E+03  0.16255427349E+03  0.00000000000E+00 0.  1.
         11    1    3    3    0    0 -0.47029901198E+02 -0.82840356911E+01  0.87853152276E+02  0.99993065854E+02  0.00000000000E+00 0. -1.
        -11    1    4    4    0    0  0.57025072490E+02  0.53901436094E+02  0.27180544499E+03  0.28290532627E+03  0.00000000000E+00 0.  1.
         11    1    4    4    0    0 -0.46428789600E+02  0.54140634669E+02  0.34613666682E+03  0.35340830910E+03  0.00000000000E+00 0. -1.
         21    1    1    2  502  501  0.17263886117E+02 -0.24312391003E+02  0.35291273548E+02  0.46201819323E+02  0.00000000000E+00 0.  1.
<scales pt_clust_5="13000.00000" pt_clust_6="13000.00000" pt_clust_7="13000.00000" pt_clust_8="13000.00000" pt_clust_9="29.81835"></scales>
<clustering>
<clus scale="   29.818">  2  9  1 -1</clus>
<clus scale="   89.374">  5  6 -1 -1</clus>
<clus scale="  106.100">  7  8 -1 -1</clus>
<clus scale="  134.568">  2  5  1 -1</clus>
<clus scale="  146.212">  1  5  2 -1</clus>
</clustering>
</event>
<event>
 9    1  0.1434065E-005  0.9400594E+02  0.7546771E-02  0.1295056E+00
         -3   -1    0    0    0  501 -0.00000000000E+00  0.00000000000E+00  0.20249257134E+03  0.20249257134E+03  0.00000000000E+00 0.  1.
          3   -1    0    0  502    0  0.00000000000E+00 -0.00000000000E+00 -0.95726942216E+02  0.95726942216E+02  0.00000000000E+00 0. -1.
         23    2    1    2    0    0  0.15680576776E+02 -0.31874981151E+02  0.74633281970E+02  0.12186021599E+03  0.89542674477E+02 0.  0.
         23    2    1    2    0    0 -0.38904381119E+00  0.12119641754E+02 -0.38962887696E+02  0.10100256705E+03  0.92392504361E+02 0.  0.
        -11    1    4    4    0    0  0.20881989035E+02 -0.31688901167E+02 -0.35846210208E+02  0.52203397491E+02  0.00000000000E+00 0. -1.
         11    1    4    4    0    0 -0.21271032847E+02  0.43808542922E+02 -0.31166774878E+01  0.48799169561E+02  0.00000000000E+00 0.  1.
        -13    1    3    3    0    0 -0.25321500374E+02  0.15875782855E+02  0.96793575142E+01  0.31415105035E+02  0.00000000000E+00 0.  1.
         13    1    3    3    0    0  0.41002077150E+02 -0.47750764006E+02  0.64953924456E+02  0.90445110957E+02  0.00000000000E+00 0. -1.
         21    1    1    2  502  501 -0.15291532965E+02  0.19755339397E+02  0.71095234852E+02  0.75356730514E+02  0.00000000000E+00 0.  1.
<scales pt_clust_5="13000.00000" pt_clust_6="13000.00000" pt_clust_7="13000.00000" pt_clust_8="13000.00000" pt_clust_9="24.98208"></scales>
<clustering>
<clus scale="   24.982">  1  9  2 -1</clus>
<clus scale="   89.543">  7  8 -1 -1</clus>
<clus scale="   91.207">  1  7  2 -1</clus>
<clus scale="   92.393">  5  6 -1 -1</clus>
<clus scale="   94.006">  2  5  1 -1</clus>
</clustering>
</event>
<event>
 9    1  0.1434065E-005  0.1705732E+03  0.7546771E-02  0.1177355E+00
          3   -1    0    0  502    0  0.00000000000E+00  0.00000000000E+00  0.84054590473E+02  0.84054590473E+02  0.00000000000E+00 0. -1.
         -3   -1    0    0    0  501 -0.00000000000E+00 -0.00000000000E+00 -0.50265411302E+03  0.50265411302E+03  0.00000000000E+00 0.  1.
         23    2    1    2    0    0 -0.79952945741E+02 -0.12689357842E+03 -0.27153343887E+03  0.32256617498E+03  0.88453801725E+02 0.  0.
         23    2    1    2    0    0  0.37376724923E+02  0.14046463912E+03 -0.93903129389E+02  0.19469320903E+03  0.89220589133E+02 0.  0.
        -11    1    3    3    0    0 -0.74232757314E+02 -0.36639940441E+02 -0.14623483166E+03  0.16804051144E+03  0.00000000000E+00 0. -1.
         11    1    3    3    0    0 -0.57201884263E+01 -0.90253637976E+02 -0.12529860721E+03  0.15452566354E+03  0.00000000000E+00 0.  1.
        -11    1    4    4    0    0  0.39294690599E+00  0.29455147017E+02 -0.69055140227E+02  0.75075778284E+02  0.00000000000E+00 0.  1.
         11    1    4    4    0    0  0.36983778017E+02  0.11100949211E+03 -0.24847989161E+02  0.11961743075E+03  0.00000000000E+00 0. -1.
         21    1    1    2  502  501  0.42576220817E+02 -0.13571060705E+02 -0.53162954295E+02  0.69449319486E+02  0.00000000000E+00 0.  1.
<scales pt_clust_5="13000.00000" pt_clust_6="13000.00000" pt_clust_7="13000.00000" pt_clust_8="13000.00000" pt_clust_9="44.68678"></scales>
<clustering>
<clus scale="   44.687">  2  9  1 -1</clus>
<clus scale="   88.454">  5  6 -1 -1</clus>
<clus scale="   89.221">  7  8 -1 -1</clus>
<clus scale="  170.173">  2  5  1 -1</clus>
<clus scale="  170.573">  1  5  2 -1</clus>
</clustering>
</event>
<event>
 9    1  0.1434065E-005  0.1300870E+03  0.7546771E-02  0.1228077E+00
          2   -1    0    0  502    0  0.00000000000E+00  0.00000000000E+00  0.26711591019E+03  0.26711591019E+03  0.00000000000E+00 0. -1.
         -2   -1    0    0    0  501 -0.00000000000E+00 -0.00000000000E+00 -0.11040521614E+03  0.11040521614E+03  0.00000000000E+00 0.  1.
         23    2    1    2    0    0 -0.76435293571E+02  0.18838072958E+02  0.37694999555E+02  0.12559548894E+03  0.90311055557E+02 0.  0.
         23    2    1    2    0    0  0.98086289656E+02 -0.59857125914E+01  0.15639386293E+03  0.20685817380E+03  0.93137074952E+02 0.  0.
        -11    1    4    4    0    0  0.45535058323E+02 -0.47242875328E+02  0.55989893082E+02  0.86256587767E+02  0.00000000000E+00 0.  1.
         11    1    4    4    0    0  0.52551231332E+02  0.41257162737E+02  0.10040396985E+03  0.12060158603E+03  0.00000000000E+00 0. -1.
        -13    1    3    3    0    0 -0.44737216556E+02 -0.23512641737E+02 -0.13150261259E+02  0.52222526153E+02  0.00000000000E+00 0.  1.
         13    1    3    3    0    0 -0.31698077015E+02  0.42350714695E+02  0.50845260814E+02  0.73372962792E+02  0.00000000000E+00 0. -1.
         21    1    1    2  502  501 -0.21650996084E+02 -0.12852360367E+02 -0.37378168440E+02  0.45067463590E+02  0.00000000000E+00 0.  1.
<scales pt_clust_5="13000.00000" pt_clust_6="13000.00000" pt_clust_7="13000.00000" pt_clust_8="13000.00000" pt_clust_9="25.17834"></scales>
<clustering>
<clus scale="   25.178">  2  9  1 -1</clus>
<clus scale="   90.311">  7  8 -1 -1</clus>
<clus scale="   93.137">  5  6 -1 -1</clus>
<clus scale="  128.079">  2  7  1 -1</clus>
<clus scale="  130.087">  1  5  2 -1</clus>
</clustering>
</event>
<event>
 9    1  0.1434065E-005  0.2809297E+03  0.7546771E-02  0.1095378E+00
         -1   -1    0    0    0  501 -0.00000000000E+00  0.00000000000E+00  0.14868453209E+03  0.14868453209E+03  0.00000000000E+00 0.  1.
          1   -1    0    0  502    0  0.00000000000E+00 -0.00000000000E+00 -0.85901944853E+03  0.85901944853E+03  0.00000000000E+00 0. -1.
         23    2    1    2    0    0  0.19944192161E+03  0.14895510480E+03 -0.31611533453E+03  0.41361681040E+03  0.95839750515E+02 0.  0.
         23    2    1    2    0    0 -0.22833115305E+03 -0.15807505668E+03 -0.44646143142E+03  0.53369700498E+03  0.91552413265E+02 0.  0.
        -11    1    3    3    0    0  0.13621793900E+03  0.14994432023E+03 -0.25503765818E+03  0.32570359710E+03  0.00000000000E+00 0.  1.
         11    1    3    3    0    0  0.63223982612E+02 -0.98921542863E+00 -0.61077676357E+02  0.87913213305E+02  0.00000000000E+00 0. -1.
        -13    1    4    4    0    0 -0.13275440196E+03 -0.11498706752E+03 -0.20182900123E+03  0.26754570203E+03  0.00000000000E+00 0. -1.
         13    1    4    4    0    0 -0.95576751090E+02 -0.43087989163E+02 -0.24463243019E+03  0.26615130295E+03  0.00000000000E+00 0.  1.
         21    1    1    2  502  501  0.28889231440E+02  0.91199518834E+01  0.52241849525E+02  0.60390165237E+02  0.00000000000E+00 0.  1.
<scales pt_clust_5="13000.00000" pt_clust_6="13000.00000" pt_clust_7="13000.00000" pt_clust_8="13000.00000" pt_clust_9="30.29457"></scales>
<clustering>
<clus scale="   30.295">  1  9  2 -1</clus>
<clus scale="   91.552">  7  8 -1 -1</clus>
<clus scale="   95.840">  5  6 -1 -1</clus>
<clus scale="  279.496">  2  7  1 -1</clus>
<clus scale="  279.496">  2  5  1 -1</clus>
</clustering>
</event>
<event>
 9    1  0.1434065E-005  0.9456297E+02  0.7546771E-02  0.1292357E+00
         -2   -1    0    0    0  501 -0.00000000000E+00  0.00000000000E+00  0.84198042000E+03  0.84198042000E+03  0.00000000000E+00 0.  1.
          2   -1    0    0  502    0  0.00000000000E+00 -0.00000000000E+00 -0.18031649995E+02  0.18031649995E+02  0.00000000000E+00 0. -1.
         23    2    1    2    0    0  0.23828947305E+02 -0.24565982326E+02  0.39864941135E+03  0.41009326858E+03  0.89910119241E+02 0.  0.
         23    2    1    2    0    0  0.16259658122E+02  0.30072310523E+02  0.21374146706E+03  0.23452577128E+03  0.90267393416E+02 0.  0.
        -11    1    3    3    0    0  0.25516196366E+02 -0.56694028959E+02  0.22215535005E+03  0.23069089439E+03  0.00000000000E+00 0. -1.
         11    1    3    3    0    0 -0.16872490614E+01  0.32128046633E+02  0.17649406130E+03  0.17940237419E+03  0.00000000000E+00 0.  1.
        -11    1    4    4    0    0 -0.28769515367E+02  0.18399809886E+02  0.31563275332E+02  0.46502455505E+02  0.00000000000E+00 0.  1.
         11    1    4    4    0    0  0.45029173489E+02  0.11672500636E+02  0.18217819172E+03  0.18802331578E+03  0.00000000000E+00 0. -1.
         21    1    1    2  502  501 -0.40088605426E+02 -0.55063281965E+01  0.21155789159E+03  0.21539303014E+03  0.00000000000E+00 0.  1.
<scales pt_clust_5="13000.00000" pt_clust_6="13000.00000" pt_clust_7="13000.00000" pt_clust_8="13000.00000" pt_clust_9="40.46500"></scales>
<clustering>
<clus scale="   40.465">  1  9  2 -1</clus>
<clus scale="   89.910">  5  6 -1 -1</clus>
<clus scale="   90.267">  7  8 -1 -1</clus>
<clus scale="   94.222">  1  5  2 -1</clus>
<clus scale="   94.563">  2  5  1 -1</clus>
</clustering>
</event>
<event>
 9    1  0.1434065E-005  0.4028708E+03  0.7546771E-02  0.1042795E+00
         -1   -1    0    0    0  501 -0.00000000000E+00  0.00000000000E+00  0.10921403634E+03  0.10921403634E+03  0.00000000000E+00 0.  1.
          1   -1    0    0  502    0  0.00000000000E+00 -0.00000000000E+00 -0.16895751707E+04  0.16895751707E+04  0.00000000000E+00 0. -1.
         23    2    1    2    0    0 -0.27469497557E+03  0.26181540762E+03 -0.54167603613E+03  0.66758776821E+03  0.90861779007E+02 0.  0.
         23    2    1    2    0    0  0.28747751102E+03 -0.27908143816E+03 -0.10283539685E+04  0.11073636272E+04  0.90623119171E+02 0.  0.
        -11    1    4    4    0    0  0.27593936959E+02 -0.62593370675E+02 -0.12073059571E+03  0.13876322333E+03  0.00000000000E+00 0.  1.
         11    1    4    4    0    0  0.25988357407E+03 -0.21648806749E+03 -0.90762337284E+03  0.96860040386E+03  0.00000000000E+00 0. -1.
        -13    1    3    3    0    0 -0.23487337325E+03  0.17114923213E+03 -0.41925615393E+03  0.51013065358E+03  0.00000000000E+00 0.  1.
         13    1    3    3    0    0 -0.39821602317E+02  0.90666175494E+02 -0.12241988220E+03  0.15745711463E+03  0.00000000000E+00 0. -1.
         21    1    1    2  502  501 -0.12782535458E+02  0.17266030543E+02 -0.10331129701E+02  0.23837811652E+02  0.00000000000E+00 0.  1.
<scales pt_clust_5="13000.00000" pt_clust_6="13000.00000" pt_clust_7="13000.00000" pt_clust_8="13000.00000" pt_clust_9="21.48276"></scales>
<clustering>
<clus scale="   21.483">  1  9  2 -1</clus>
<clus scale="   90.623">  5  6 -1 -1</clus>
<clus scale="   90.862">  7  8 -1 -1</clus>
<clus scale="  402.817">  2  5  1 -1</clus>
<clus scale="  402.817">  2  5  1 -1</clus>
</clustering>
</event>
<event>
 9    1  0.1434065E-005  0.9998510E+02  0.7546771E-02  0.1281077E+00
          2   -1    0    0  502    0  0.00000000000E+00  0.00000000000E+00  0.45178750684E+03  0.45178750684E+03  0.00000000000E+00 0. -1.
         -2   -1    0    0    0  501 -0.00000000000E+00 -0.00000000000E+00 -0.47922413222E+02  0.47922413222E+02  0.00000000000E+00 0.  1.
         23    2    1    2    0    0  0.16533594796E+02 -0.36697515067E+01  0.78954126392E+02  0.12368639843E+03  0.93689616544E+02 0.  0.
         23    2    1    2    0    0 -0.56188782720E+02 -0.50023385225E+02  0.22932487550E+03  0.25943798311E+03  0.95176941463E+02 0.  0.
        -11    1    3    3    0    0  0.52939473617E+01 -0.41560730003E+02  0.82727931508E+01  0.42705494536E+02  0.00000000000E+00 0.  1.
         11    1    3    3    0    0  0.11239647435E+02  0.37890978497E+02  0.70681333242E+02  0.80980903889E+02  0.00000000000E+00 0. -1.
        -13    1    4    4    0    0 -0.31770240017E+02 -0.14097675124E+02  0.20829751478E+03  0.21117752546E+03  0.00000000000E+00 0. -1.
         13    1    4    4    0    0 -0.24418542703E+02 -0.35925710101E+02  0.21027360712E+02  0.48260457649E+02  0.00000000000E+00 0.  1.
         21    1    1    2  502  501  0.39655187924E+02  0.53693136732E+02  0.95586091727E+02  0.11658553852E+03  0.00000000000E+00 0. -1.
<scales pt_clust_5="13000.00000" pt_clust_6="13000.00000" pt_clust_7="13000.00000" pt_clust_8="13000.00000" pt_clust_9="66.74943"></scales>
<clustering>
<clus scale="   66.749">  1  9  2 -1</clus>
<clus scale="   93.690">  5  6 -1 -1</clus>
<clus scale="   95.177">  7  8 -1 -1</clus>
<clus scale="   98.570">  2  5  1 -1</clus>
<clus scale="   66.749">  1  5  2 -1</clus>
</clustering>
</event>
<event>
 9    1  0.1434065E-005  0.1009395E+03  0.7546771E-02  0.1279296E+00
          1   -1    0    0  502    0  0.00000000000E+00  0.00000000000E+00  0.15336778208E+03  0.15336778208E+03  0.00000000000E+00 0. -1.
         -1   -1    0    0    0  501 -0.00000000000E+00 -0.00000000000E+00 -0.14366711869E+03  0.14366711869E+03  0.00000000000E+00 0.  1.
         23    2    1    2    0    0  0.94424059964E+01 -0.18739556925E+02 -0.58361229772E+02  0.11337382934E+03  0.94906596262E+02 0.  0.
         23    2    1    2    0    0 -0.32471851657E+02  0.20215293939E+02  0.10162206705E+03  0.14293247659E+03  0.92949282367E+02 0.  0.
        -11    1    3    3    0    0  0.14907104812E+02  0.37262842222E+02 -0.31517292403E+02  0.51030196010E+02  0.00000000000E+00 0.  1.
         11    1    3    3    0    0 -0.54646988152E+01 -0.56002399147E+02 -0.26843937368E+02  0.62343633330E+02  0.00000000000E+00 0. -1.
        -11    1    4    4    0    0 -0.54590508948E+02  0.22294464002E+02  0.26598827567E+02  0.64688982217E+02  0.00000000000E+00 0.  1.
         11    1    4    4    0    0  0.22118657291E+02 -0.20791700626E+01  0.75023239484E+02  0.78243494370E+02  0.00000000000E+00 0. -1.
         21    1    1    2  502  501  0.23029445661E+02 -0.14757370137E+01 -0.33560173885E+02  0.40728594849E+02  0.00000000000E+00 0. -1.
<scales pt_clust_5="13000.00000" pt_clust_6="13000.00000" pt_clust_7="13000.00000" pt_clust_8="13000.00000" pt_clust_9="23.07668"></scales>
<clustering>
<clus scale="   23.077">  2  9  1 -1</clus>
<clus scale="   92.949">  7  8 -1 -1</clus>
<clus scale="   94.907">  5  6 -1 -1</clus>
<clus scale="   99.101">  1  7  2 -1</clus>
<clus scale="   99.101">  1  5  2 -1</clus>
</clustering>
</event>
<event>
 9    1  0.1434065E-005  0.1559791E+03  0.7546771E-02  0.1205643E+00
          1   -1    0    0  502    0  0.00000000000E+00  0.00000000000E+00  0.25567463117E+03  0.25567463117E+03  0.00000000000E+00 0. -1.
         -1   -1    0    0    0  501 -0.00000000000E+00 -0.00000000000E+00 -0.17296082352E+03  0.17296082352E+03  0.00000000000E+00 0.  1.
         23    2    1    2    0    0  0.13718955281E+03  0.13768210615E+02  0.28268273031E+02  0.16736475012E+03  0.90561179853E+02 0.  0.
         23    2    1    2    0    0 -0.37801942361E+02  0.68689508656E+02  0.56742105567E+02  0.13211015790E+03  0.89923255224E+02 0.  0.
        -11    1    4    4    0    0 -0.66483375725E+01  0.84183055922E+02  0.42156194738E+02  0.94382901267E+02  0.00000000000E+00 0. -1.
         11    1    4    4    0    0 -0.31153604789E+02 -0.15493547266E+02  0.14585910830E+02  0.37727256632E+02  0.00000000000E+00 0.  1.
        -11    1    3    3    0    0  0.56640663317E+02  0.27071521237E+02  0.52895346251E+02  0.82091105840E+02  0.00000000000E+00 0. -1.
         11    1    3    3    0    0  0.80548889497E+02 -0.13303310622E+02 -0.24627073219E+02  0.85273644276E+02  0.00000000000E+00 0.  1.
         21    1    1    2  502  501 -0.99387610452E+02 -0.82457719271E+02 -0.22965709491E+01  0.12916054667E+03  0.00000000000E+00 0.  1.
<scales pt_clust_5="13000.00000" pt_clust_6="13000.00000" pt_clust_7="13000.00000" pt_clust_8="13000.00000" pt_clust_9="126.99663"></scales>
<clustering>
<clus scale="   89.923">  5  6 -1 -1</clus>
<clus scale="   90.561">  7  8 -1 -1</clus>
<clus scale="  119.304">  1  5  2 -1</clus>
<clus scale="  126.997">  2  9  1 -1</clus>
<clus scale="  119.304">  1  5  2 -1</clus>
</clustering>
</event>
<event>
 9    1  0.1434065E-005  0.1815037E+03  0.7546771E-02  0.1187622E+00
         -1   -1    0    0    0  501 -0.00000000000E+00  0.00000000000E+00  0.14607148405E+03  0.14607148405E+03  0.00000000000E+00 0.  1.
          1   -1    0    0  502    0  0.00000000000E+00 -0.00000000000E+00 -0.71612363015E+03  0.71612363015E+03  0.00000000000E+00 0. -1.
         23    2    1    2    0    0  0.92614370783E+02  0.37567880902E+02 -0.47333463331E+03  0.49236436342E+03  0.91587247600E+02 0.  0.
         23    2    1    2    0    0  0.57258249667E+02  0.27284593854E+02 -0.15936282936E+03  0.19492482884E+03  0.92607890052E+02 0.  0.
        -11    1    4    4    0    0 -0.14245993722E+02  0.14442475939E+02 -0.97250695495E+02  0.99344004463E+02  0.00000000000E+00 0. -1.
         11    1    4    4    0    0  0.71504243389E+02  0.12842117915E+02 -0.62112133860E+02  0.95580824373E+02  0.00000000000E+00 0.  1.
        -11    1    3    3    0    0  0.31984314946E+02 -0.28572468014E+02 -0.20460113034E+03  0.20904785305E+03  0.00000000000E+00 0.  1.
         11    1    3    3    0    0  0.60630055837E+02  0.66140348916E+02 -0.26873350297E+03  0.28331651036E+03  0.00000000000E+00 0. -1.
         21    1    1    2  502  501 -0.14987262045E+03 -0.64852474757E+02  0.62645316565E+02  0.17490592194E+03  0.00000000000E+00 0.  1.
<scales pt_clust_5="13000.00000" pt_clust_6="13000.00000" pt_clust_7="13000.00000" pt_clust_8="13000.00000" pt_clust_9="156.70147"></scales>
<clustering>
<clus scale="   91.587">  7  8 -1 -1</clus>
<clus scale="   92.608">  5  6 -1 -1</clus>
<clus scale="  112.246">  2  5  1 -1</clus>
<clus scale="  156.701">  1  9  2 -1</clus>
<clus scale="  112.246">  2  5  1 -1</clus>
</clustering>
</event>
<event>
 9    1  0.1434065E-005  0.1115402E+03  0.7546771E-02  0.1259614E+00
         -2   -1    0    0    0  501 -0.00000000000E+00  0.00000000000E+00  0.13874567150E+03  0.13874567150E+03  0.00000000000E+00 0.  1.
          2   -1    0    0  502    0  0.00000000000E+00 -0.00000000000E+00 -0.32179826790E+03  0.32179826790E+03  0.00000000000E+00 0. -1.
         23    2    1    2    0    0  0.94122343824E+02 -0.83217003736E+01 -0.36448345393E+02  0.13935726906E+03  0.95727217930E+02 0.  0.
         23    2    1    2    0    0 -0.41234483893E+02  0.29356970973E+02 -0.21096840836E+03  0.23526604948E+03  0.90996320286E+02 0.  0.
        -13    1    3    3    0    0  0.86327018625E+02 -0.43582271350E+02 -0.16500807030E+02  0.98102217882E+02  0.00000000000E+00 0.  1.
         13    1    3    3    0    0  0.77953251989E+01  0.35260570977E+02 -0.19947538363E+02  0.41255051173E+02  0.00000000000E+00 0. -1.
        -13    1    4    4    0    0 -0.22129830521E+02 -0.29183250319E+02 -0.43673756062E+02  0.56998144414E+02  0.00000000000E+00 0.  1.
         13    1    4    4    0    0 -0.19104653373E+02  0.58540221292E+02 -0.16729465230E+03  0.17826790507E+03  0.00000000000E+00 0. -1.
         21    1    1    2  502  501 -0.52887859931E+02 -0.21035270600E+02  0.64364157358E+02  0.85920620864E+02  0.00000000000E+00 0. -1.
<scales pt_clust_5="13000.00000" pt_clust_6="13000.00000" pt_clust_7="13000.00000" pt_clust_8="13000.00000" pt_clust_9="56.91756"></scales>
<clustering>
<clus scale="   56.918">  1  9  2 -1</clus>
<clus scale="   90.996">  7  8 -1 -1</clus>
<clus scale="   95.727">  5  6 -1 -1</clus>
<clus scale="  107.507">  2  7  1 -1</clus>
<clus scale="  107.507">  2  5  1 -1</clus>
</clustering>
</event>
<event>
 9    1  0.1434065E-005  0.1059709E+03  0.7546771E-02  0.1268982E+00
         -3   -1    0    0    0  501 -0.00000000000E+00  0.00000000000E+00  0.91153063948E+02  0.91153063948E+02  0.00000000000E+00 0.  1.
          3   -1    0    0  502    0  0.00000000000E+00 -0.00000000000E+00 -0.18472941789E+03  0.18472941789E+03  0.00000000000E+00 0. -1.
         23    2    1    2    0    0 -0.46644223219E+02  0.53680265744E+02 -0.55522868251E+02  0.12842749948E+03  0.91397917015E+02 0.  0.
         23    2    1    2    0    0  0.21034603377E+02 -0.24715146449E+02 -0.44540049429E+02  0.10825158616E+03  0.93173477452E+02 0.  0.
        -11    1    4    4    0    0 -0.10797245399E+02 -0.22927059505E+02 -0.65409007779E+02  0.70146766599E+02  0.00000000000E+00 0. -1.
         11    1    4    4    0    0  0.31831848776E+02 -0.17880869437E+01  0.20868958349E+02  0.38104819564E+02  0.00000000000E+00 0.  1.
        -13    1    3    3    0    0 -0.63665174216E+02  0.66162088620E+02 -0.55560683546E+02  0.10732038918E+03  0.00000000000E+00 0. -1.
         13    1    3    3    0    0  0.17020950998E+02 -0.12481822876E+02  0.37815295083E-01  0.21107110299E+02  0.00000000000E+00 0.  1.
         21    1    1    2  502  501  0.25609619842E+02 -0.28965119296E+02  0.64865637335E+01  0.39203396196E+02  0.00000000000E+00 0.  1.
<scales pt_clust_5="13000.00000" pt_clust_6="13000.00000" pt_clust_7="13000.00000" pt_clust_8="13000.00000" pt_clust_9="38.66304"></scales>
<clustering>
<clus scale="   38.663">  1  9  2 -1</clus>
<clus scale="   91.398">  7  8 -1 -1</clus>
<clus scale="   93.173">  5  6 -1 -1</clus>
<clus scale="  104.413">  1  7  2 -1</clus>
<clus scale="  105.971">  2  5  1 -1</clus>
</clustering>
</event>
<event>
 9    1  0.1434065E-005  0.1101004E+03  0.7546771E-02  0.1260810E+00
         -1   -1    0    0    0  501 -0.00000000000E+00  0.00000000000E+00  0.11557853389E+03  0.11557853389E+03  0.00000000000E+00 0.  1.
          1   -1    0    0  502    0  0.00000000000E+00 -0.00000000000E+00 -0.31542651836E+03  0.31542651836E+03  0.00000000000E+00 0. -1.
         23    2    1    2    0    0  0.31456757219E+02 -0.83298620164E+02  0.24627822465E+02  0.12982336710E+03  0.91210686374E+02 0.  0.
         23    2    1    2    0    0 -0.43535164453E+01  0.55876038245E+02 -0.23716320089E+03  0.26059161710E+03  0.92306675229E+02 0.  0.
        -13    1    4    4    0    0 -0.19456991950E+01  0.81569706562E+02 -0.19114960259E+03  0.20783544775E+03  0.00000000000E+00 0. -1.
         13    1    4    4    0    0 -0.24078172503E+01 -0.25693668316E+02 -0.46013598303E+02  0.52756169348E+02  0.00000000000E+00 0.  1.
        -13    1    3    3    0    0 -0.29365120264E+02 -0.34261553536E+02  0.25219982415E+02  0.51693441091E+02  0.00000000000E+00 0.  1.
         13    1    3    3    0    0  0.60821877483E+02 -0.49037066628E+02 -0.59215994955E+00  0.78129926004E+02  0.00000000000E+00 0. -1.
         21    1    1    2  502  501 -0.27103240773E+02  0.27422581918E+02  0.12687393950E+02  0.40590068055E+02  0.00000000000E+00 0. -1.
<scales pt_clust_5="13000.00000" pt_clust_6="13000.00000" pt_clust_7="13000.00000" pt_clust_8="13000.00000" pt_clust_9="38.55624"></scales>
<clustering>
<clus scale="   38.556">  1  9  2 -1</clus>
<clus scale="   91.211">  7  8 -1 -1</clus>
<clus scale="   92.307">  5  6 -1 -1</clus>
<clus scale="  109.183">  1  7  2 -1</clus>
<clus scale="  110.100">  2  5  1 -1</clus>
</clustering>
</event>
<event>
 9    1  0.1434065E-005  0.1012558E+03  0.7546771E-02  0.1277796E+00
          1   -1    0    0  502    0  0.00000000000E+00  0.00000000000E+00  0.26068733932E+03  0.26068733932E+03  0.00000000000E+00 0. -1.
         -1   -1    0    0    0  501 -0.00000000000E+00 -0.00000000000E+00 -0.72059422733E+02  0.72059422733E+02  0.00000000000E+00 0.  1.
         23    2    1    2    0    0  0.19824474901E+02  0.65599181395E+02  0.46619602352E+02  0.12361576227E+03  0.91712632465E+02 0.  0.
         23    2    1    2    0    0 -0.31341493033E+02 -0.17787489931E+02  0.12034738336E+03  0.15539278737E+03  0.91458961840E+02 0.  0.
        -11    1    3    3    0    0  0.19937729912E+02 -0.17402622982E+02 -0.34392132750E+01  0.26686935917E+02  0.00000000000E+00 0. -1.
         11    1    3    3    0    0 -0.11325501112E+00  0.83001804377E+02  0.50058815627E+02  0.96928826355E+02  0.00000000000E+00 0.  1.
        -11    1    4    4    0    0  0.11750119778E+02 -0.25661436214E+02  0.10539111225E+03  0.10910481733E+03  0.00000000000E+00 0. -1.
         11    1    4    4    0    0 -0.43091612811E+02  0.78739462831E+01  0.14956271110E+02  0.46287970037E+02  0.00000000000E+00 0.  1.
         21    1    1    2  502  501  0.11517018131E+02 -0.47811691464E+02  0.21660930878E+02  0.53738212417E+02  0.00000000000E+00 0. -1.
<scales pt_clust_5="13000.00000" pt_clust_6="13000.00000" pt_clust_7="13000.00000" pt_clust_8="13000.00000" pt_clust_9="49.17926"></scales>
<clustering>
<clus scale="   49.179">  2  9  1 -1</clus>
<clus scale="   91.459">  7  8 -1 -1</clus>
<clus scale="   91.713">  5  6 -1 -1</clus>
<clus scale="  101.026">  1  7  2 -1</clus>
<clus scale="  101.026">  1  5  2 -1</clus>
</clustering>
</event>
<event>
 9    1  0.1434065E-005  0.9306433E+02  0.7546771E-02  0.1297117E+00
         -2   -1    0    0    0  501 -0.00000000000E+00  0.00000000000E+00  0.14477099430E+03  0.14477099430E+03  0.00000000000E+00 0.  1.
          2   -1    0    0  502    0  0.00000000000E+00 -0.00000000000E+00 -0.20837018883E+03  0.20837018883E+03  0.00000000000E+00 0. -1.
         23    2    1    2    0    0 -0.76543737832E+01 -0.15769618346E+02 -0.54741372951E+02  0.10628584345E+03  0.89402417780E+02 0.  0.
         23    2    1    2    0    0 -0.30004071141E+02 -0.10169947597E+02 -0.10330123197E+03  0.14192404158E+03  0.92019655145E+02 0.  0.
        -11    1    3    3    0    0  0.63628729505E+01  0.36119171924E+02 -0.28648319310E+02  0.46538230864E+02  0.00000000000E+00 0.  1.
         11    1    3    3    0    0 -0.14017246734E+02 -0.51888790270E+02 -0.26093053642E+02  0.59747612588E+02  0.00000000000E+00 0. -1.
        -13    1    4    4    0    0  0.13428116694E+02 -0.17032820692E+02 -0.94658558604E+02  0.97111657465E+02  0.00000000000E+00 0. -1.
         13    1    4    4    0    0 -0.43432187835E+02  0.68628730953E+01 -0.86426733667E+01  0.44812384116E+02  0.00000000000E+00 0.  1.
         21    1    1    2  502  501  0.37658444924E+02  0.25939565943E+02  0.94443410389E+02  0.10493129810E+03  0.00000000000E+00 0.  1.
<scales pt_clust_5="13000.00000" pt_clust_6="13000.00000" pt_clust_7="13000.00000" pt_clust_8="13000.00000" pt_clust_9="45.72767"></scales>
<clustering>
<clus scale="   45.728">  1  9  2 -1</clus>
<clus scale="   89.402">  5  6 -1 -1</clus>
<clus scale="   90.477">  1  5  2 -1</clus>
<clus scale="   92.020">  7  8 -1 -1</clus>
<clus scale="   93.064">  2  5  1 -1</clus>
</clustering>
</event>
<event>
 9    1  0.1434065E-005  0.1151625E+03  0.7546771E-02  0.1251606E+00
          2   -1    0    0  502    0  0.00000000000E+00  0.00000000000E+00  0.37689738390E+03  0.37689738390E+03  0.00000000000E+00 0. -1.
         -2   -1    0    0    0  501 -0.00000000000E+00 -0.00000000000E+00 -0.79625233054E+02  0.79625233054E+02  0.00000000000E+00 0.  1.
         23    2    1    2    0    0  0.26923133784E+02  0.50188079595E+02  0.11384868905E+03  0.15701794759E+03  0.91920690830E+02 0.  0.
         23    2    1    2    0    0 -0.26510272536E+02 -0.71565976901E+02  0.22368858851E+03  0.25391447988E+03  0.92798140407E+02 0.  0.
        -11    1    4    4    0    0  0.23779069639E+02 -0.50833321337E+02  0.16312801543E+03  0.17251150724E+03  0.00000000000E+00 0. -1.
         11    1    4    4    0    0 -0.50289342175E+02 -0.20732655564E+02  0.60560573077E+02  0.81402972640E+02  0.00000000000E+00 0.  1.
        -11    1    3    3    0    0  0.86769014145E+00 -0.26324145950E+02  0.37556647398E+02  0.45871726695E+02  0.00000000000E+00 0.  1.
         11    1    3    3    0    0  0.26055443643E+02  0.76512225545E+02  0.76292041651E+02  0.11114622090E+03  0.00000000000E+00 0. -1.
         21    1    1    2  502  501 -0.41286124805E+00  0.21377897306E+02 -0.40265126713E+02  0.45590189480E+02  0.00000000000E+00 0.  1.
<scales pt_clust_5="13000.00000" pt_clust_6="13000.00000" pt_clust_7="13000.00000" pt_clust_8="13000.00000" pt_clust_9="21.38188"></scales>
<clustering>
<clus scale="   21.382">  2  9  1 -1</clus>
<clus scale="   91.921">  7  8 -1 -1</clus>
<clus scale="   92.798">  5  6 -1 -1</clus>
<clus scale="  114.457">  2  7  1 -1</clus>
<clus scale="  115.163">  1  5  2 -1</clus>
</clustering>
</event>
<event>
 9    1  0.1434065E-005  0.1183313E+03  0.7546771E-02  0.1247333E+00
         -1   -1    0    0    0  501 -0.00000000000E+00  0.00000000000E+00  0.16879420566E+03  0.16879420566E+03  0.00000000000E+00 0.  1.
          1   -1    0    0  502    0  0.00000000000E+00 -0.00000000000E+00 -0.13744006000E+03  0.13744006000E+03  0.00000000000E+00 0. -1.
         23    2    1    2    0    0 -0.72413097631E+02  0.67243003145E+02  0.60744723613E+01  0.13796170423E+03  0.96079417359E+02 0.  0.
         23    2    1    2    0    0  0.47885252333E+02 -0.10002905907E+02  0.14213658756E+02  0.10502305072E+03  0.91840936240E+02 0.  0.
        -11    1    3    3    0    0 -0.44070239541E+02  0.86493513769E+02  0.22978591357E+02  0.99756351167E+02  0.00000000000E+00 0.  1.
         11    1    3    3    0    0 -0.28342858089E+02 -0.19250510624E+02 -0.16904118995E+02  0.38205353067E+02  0.00000000000E+00 0. -1.
        -13    1    4    4    0    0  0.13710428003E+02  0.19158452495E+02  0.44839432697E+02  0.50651721221E+02  0.00000000000E+00 0.  1.
         13    1    4    4    0    0  0.34174824330E+02 -0.29161358402E+02 -0.30625773941E+02  0.54371329497E+02  0.00000000000E+00 0. -1.
         21    1    1    2  502  501  0.24527845298E+02 -0.57240097239E+02  0.11066014537E+02  0.63249510706E+02  0.00000000000E+00 0. -1.
<scales pt_clust_5="13000.00000" pt_clust_6="13000.00000" pt_clust_7="13000.00000" pt_clust_8="13000.00000" pt_clust_9="62.27394"></scales>
<clustering>
<clus scale="   62.274">  1  9  2 -1</clus>
<clus scale="   91.841">  7  8 -1 -1</clus>
<clus scale="   96.079">  5  6 -1 -1</clus>
<clus scale="  114.916">  2  7  1 -1</clus>
<clus scale="  114.916">  2  5  1 -1</clus>
</clustering>
</event>
<event>
 9    1  0.1434065E-005  0.2053662E+03  0.7546771E-02  0.1166471E+00
          2   -1    0    0  502    0  0.00000000000E+00  0.00000000000E+00  0.10506335167E+04  0.10506335167E+04  0.00000000000E+00 0.  1.
         -2   -1    0    0    0  501 -0.00000000000E+00 -0.00000000000E+00 -0.94664004727E+02  0.94664004727E+02  0.00000000000E+00 0. -1.
         23    2    1    2    0    0  0.16157272104E+03  0.66053144321E+02  0.32004256993E+03  0.37583378960E+03  0.91405846543E+02 0.  0.
         23    2    1    2    0    0  0.31632351532E+02 -0.75603251255E+02  0.53861918920E+03  0.55292689112E+03  0.94345422154E+02 0.  0.
        -11    1    3    3    0    0  0.11908513805E+03  0.13467214393E+02  0.25621565112E+03  0.28285879136E+03  0.00000000000E+00 0.  1.
         11    1    3    3    0    0  0.42487582985E+02  0.52585929928E+02  0.63826918809E+02  0.92974998246E+02  0.00000000000E+00 0. -1.
        -13    1    4    4    0    0  0.62031069090E+02 -0.28018004700E+02  0.31726154510E+03  0.32448073921E+03  0.00000000000E+00 0.  1.
         13    1    4    4    0    0 -0.30398717558E+02 -0.47585246555E+02  0.22135764410E+03  0.22844615191E+03  0.00000000000E+00 0. -1.
         21    1    1    2  502  501 -0.19320507257E+03  0.95501069339E+01  0.97307752793E+02  0.21653684066E+03  0.00000000000E+00 0. -1.
<scales pt_clust_5="13000.00000" pt_clust_6="13000.00000" pt_clust_7="13000.00000" pt_clust_8="13000.00000" pt_clust_9="183.90279"></scales>
<clustering>
<clus scale="   91.406">  5  6 -1 -1</clus>
<clus scale="   94.345">  7  8 -1 -1</clus>
<clus scale="  124.970">  1  7  2 -1</clus>
<clus scale="  183.903">  2  9  1 -1</clus>
<clus scale="  124.970">  1  5  2 -1</clus>
</clustering>
</event>
<event>
 9    1  0.1434065E-005  0.1100488E+03  0.7546771E-02  0.1261830E+00
         -3   -1    0    0    0  501 -0.00000000000E+00  0.00000000000E+00  0.17174285162E+03  0.17174285162E+03  0.00000000000E+00 0.  1.
          3   -1    0    0  502    0  0.00000000000E+00 -0.00000000000E+00 -0.19110642629E+03  0.19110642629E+03  0.00000000000E+00 0. -1.
         23    2    1    2    0    0  0.20039772080E+02  0.72927188841E+02  0.55826140728E+02  0.12982745299E+03  0.89546871654E+02 0.  0.
         23    2    1    2    0    0 -0.90381608407E+01 -0.54735470965E+02 -0.13296054530E+03  0.17146337436E+03  0.92970543761E+02 0.  0.
        -11    1    4    4    0    0 -0.25236561734E+02 -0.74932557154E+02 -0.11645041541E+03  0.14075678107E+03  0.00000000000E+00 0. -1.
         11    1    4    4    0    0  0.16198400894E+02  0.20197086189E+02 -0.16510129888E+02  0.30706593282E+02  0.00000000000E+00 0.  1.
        -13    1    3    3    0    0  0.44938825067E+02  0.63360896074E+02  0.12112034722E+02  0.78618080203E+02  0.00000000000E+00 0.  1.
         13    1    3    3    0    0 -0.24899052987E+02  0.95662927666E+01  0.43714106006E+02  0.51209372783E+02  0.00000000000E+00 0. -1.
         21    1    1    2  502  501 -0.11001611239E+02 -0.18191717876E+02  0.57770829898E+02  0.61558450567E+02  0.00000000000E+00 0. -1.
<scales pt_clust_5="13000.00000" pt_clust_6="13000.00000" pt_clust_7="13000.00000" pt_clust_8="13000.00000" pt_clust_9="21.25968"></scales>
<clustering>
<clus scale="   21.260">  1  9  2 -1</clus>
<clus scale="   89.547">  7  8 -1 -1</clus>
<clus scale="   92.971">  5  6 -1 -1</clus>
<clus scale="  107.172">  1  7  2 -1</clus>
<clus scale="  110.049">  2  5  1 -1</clus>
</clustering>
</event>
<event>
 9    1  0.1434065E-005  0.1337805E+03  0.7546771E-02  0.1234297E+00
         -1   -1    0    0    0  501 -0.00000000000E+00  0.00000000000E+00  0.69046376564E+03  0.69046376564E+03  0.00000000000E+00 0.  1.
          1   -1    0    0  502    0  0.00000000000E+00 -0.00000000000E+00 -0.17617804007E+03  0.17617804007E+03  0.00000000000E+00 0. -1.
         23    2    1    2    0    0  0.48049920072E+02  0.10645307130E+03  0.14667514025E+03  0.22465800667E+03  0.12376013892E+03 0.  0.
         23    2    1    2    0    0 -0.12202707646E+02 -0.42499100602E+02 -0.11562604065E+03  0.15321721907E+03  0.90283195089E+02 0.  0.
        -11    1    3    3    0    0 -0.33764419042E+02  0.66635225543E+02  0.91986974941E+02  0.11849849297E+03  0.00000000000E+00 0.  1.
         11    1    3    3    0    0  0.81814339113E+02  0.39817845755E+02  0.54688165304E+02  0.10615951370E+03  0.00000000000E+00 0. -1.
        -13    1    4    4    0    0  0.37434141656E+02 -0.26519758403E+02 -0.71268630250E+02  0.84757478755E+02  0.00000000000E+00 0. -1.
         13    1    4    4    0    0 -0.49636849302E+02 -0.15979342199E+02 -0.44357410404E+02  0.68459740311E+02  0.00000000000E+00 0.  1.
         21    1    1    2  502  501 -0.35847212425E+02 -0.63953970697E+02  0.48323662598E+03  0.48876657997E+03  0.00000000000E+00 0.  1.
<scales pt_clust_5="13000.00000" pt_clust_6="13000.00000" pt_clust_7="13000.00000" pt_clust_8="13000.00000" pt_clust_9="73.31530"></scales>
<clustering>
<clus scale="   73.315">  1  9  2 -1</clus>
<clus scale="   90.283">  7  8 -1 -1</clus>
<clus scale="  103.594">  2  7  1 -1</clus>
<clus scale="  123.760">  5  6 -1 -1</clus>
<clus scale="  103.594">  2  5  1 -1</clus>
</clustering>
</event>
<event>
 9    1  0.1434065E-005  0.9582379E+02  0.7546771E-02  0.1290474E+00
          3   -1    0    0  502    0  0.00000000000E+00  0.00000000000E+00  0.11724598829E+03  0.11724598829E+03  0.00000000000E+00 0. -1.
         -3   -1    0    0    0  501 -0.00000000000E+00 -0.00000000000E+00 -0.24737054801E+03  0.24737054801E+03  0.00000000000E+00 0.  1.
         23    2    1    2    0    0 -0.62249872658E+02 -0.16413165477E+02 -0.13906524722E+03  0.17677559336E+03  0.88125074615E+02 0.  0.
         23    2    1    2    0    0  0.27513574133E+02 -0.16884722505E+01  0.68446955458E+02  0.11659997403E+03  0.90281341000E+02 0.  0.
        -13    1    4    4    0    0 -0.26889487997E+02 -0.23232097272E+02  0.30766300048E+02  0.47003618234E+02  0.00000000000E+00 0.  1.
         13    1    4    4    0    0  0.54403062131E+02  0.21543625022E+02  0.37680655410E+02  0.69596355799E+02  0.00000000000E+00 0. -1.
        -13    1    3    3    0    0 -0.82399904604E+02 -0.17258575382E+02 -0.87583436906E+02  0.12148440691E+03  0.00000000000E+00 0.  1.
         13    1    3    3    0    0  0.20150031946E+02  0.84540990427E+00 -0.51481810312E+02  0.55291186443E+02  0.00000000000E+00 0. -1.
         21    1    1    2  502  501  0.34736298524E+02  0.18101637728E+02 -0.59506267968E+02  0.71240968909E+02  0.00000000000E+00 0. -1.
<scales pt_clust_5="13000.00000" pt_clust_6="13000.00000" pt_clust_7="13000.00000" pt_clust_8="13000.00000" pt_clust_9="39.16988"></scales>
<clustering>
<clus scale="   39.170">  2  9  1 -1</clus>
<clus scale="   88.125">  7  8 -1 -1</clus>
<clus scale="   90.281">  5  6 -1 -1</clus>
<clus scale="   93.795">  2  7  1 -1</clus>
<clus scale="   95.824">  1  5  2 -1</clus>
</clustering>
</event>
<event>
 9    1  0.1434065E-005  0.9501800E+02  0.7546771E-02  0.1293353E+00
         -1   -1    0    0    0  501 -0.00000000000E+00  0.00000000000E+00  0.49956334999E+02  0.49956334999E+02  0.00000000000E+00 0.  1.
          1   -1    0    0  502    0  0.00000000000E+00 -0.00000000000E+00 -0.29888764755E+03  0.29888764755E+03  0.00000000000E+00 0. -1.
         23    2    1    2    0    0 -0.23065891285E+00  0.19897899469E+01 -0.48469551052E+02  0.10576514243E+03  0.93983804488E+02 0.  0.
         23    2    1    2    0    0 -0.16512955508E+02  0.99401011150E+01 -0.20244790856E+03  0.22242416257E+03  0.90088118546E+02 0.  0.
        -11    1    4    4    0    0 -0.34520250917E+02 -0.29970954658E+02 -0.76926423061E+02  0.89485084855E+02  0.00000000000E+00 0.  1.
         11    1    4    4    0    0  0.18007295408E+02  0.39911055773E+02 -0.12552148550E+03  0.13293907771E+03  0.00000000000E+00 0. -1.
        -11    1    3    3    0    0 -0.83610579136E+01  0.27455822737E+02 -0.67234490195E+02  0.73104077611E+02  0.00000000000E+00 0. -1.
         11    1    3    3    0    0  0.81303990007E+01 -0.25466032790E+02  0.18764939143E+02  0.32661064817E+02  0.00000000000E+00 0.  1.
         21    1    1    2  502  501  0.16743614421E+02 -0.11929891062E+02  0.19861470635E+01  0.20654677552E+02  0.00000000000E+00 0.  1.
<scales pt_clust_5="13000.00000" pt_clust_6="13000.00000" pt_clust_7="13000.00000" pt_clust_8="13000.00000" pt_clust_9="20.55896"></scales>
<clustering>
<clus scale="   20.559">  1  9  2 -1</clus>
<clus scale="   90.088">  5  6 -1 -1</clus>
<clus scale="   91.167">  2  5  1 -1</clus>
<clus scale="   93.984">  7  8 -1 -1</clus>
<clus scale="   91.167">  2  5  1 -1</clus>
</clustering>
</event>
<event>
 9    1  0.1434065E-005  0.1111456E+03  0.7546771E-02  0.1259693E+00
          1   -1    0    0  502    0  0.00000000000E+00  0.00000000000E+00  0.19994394457E+03  0.19994394457E+03  0.00000000000E+00 0. -1.
         -1   -1    0    0    0  501 -0.00000000000E+00 -0.00000000000E+00 -0.17590673293E+03  0.17590673293E+03  0.00000000000E+00 0.  1.
         23    2    1    2    0    0 -0.52480793466E+02  0.30694975754E+02 -0.43793809395E+02  0.11767318498E+03  0.90734037180E+02 0.  0.
         23    2    1    2    0    0  0.60884114806E+02  0.98169908027E+00  0.13981233088E+03  0.17908680719E+03  0.93897590357E+02 0.  0.
        -11    1    3    3    0    0 -0.36037760280E+02 -0.66403353842E+01 -0.62767230242E+02  0.72681080154E+02  0.00000000000E+00 0.  1.
         11    1    3    3    0    0 -0.16443033185E+02  0.37335311138E+02  0.18973420847E+02  0.44992104827E+02  0.00000000000E+00 0. -1.
        -13    1    4    4    0    0  0.30026966031E+02 -0.45179850899E+02  0.86550364786E+02  0.10214598994E+03  0.00000000000E+00 0. -1.
         13    1    4    4    0    0  0.30857148775E+02  0.46161549979E+02  0.53261966094E+02  0.76940817251E+02  0.00000000000E+00 0.  1.
         21    1    1    2  502  501 -0.84033213401E+01 -0.31676674835E+02 -0.71981309850E+02  0.79090685329E+02  0.00000000000E+00 0. -1.
<scales pt_clust_5="13000.00000" pt_clust_6="13000.00000" pt_clust_7="13000.00000" pt_clust_8="13000.00000" pt_clust_9="32.77236"></scales>
<clustering>
<clus scale="   32.772">  2  9  1 -1</clus>
<clus scale="   90.734">  5  6 -1 -1</clus>
<clus scale="   93.898">  7  8 -1 -1</clus>
<clus scale="  108.486">  2  5  1 -1</clus>
<clus scale="  111.146">  1  5  2 -1</clus>
</clustering>
</event>
<event>
 9    1  0.1434065E-005  0.1643727E+03  0.7546771E-02  0.1184528E+00
         -2   -1    0    0    0  501 -0.00000000000E+00  0.00000000000E+00  0.64156533839E+02  0.64156533839E+02  0.00000000000E+00 0.  1.
          2   -1    0    0  502    0  0.00000000000E+00 -0.00000000000E+00 -0.75460286484E+03  0.75460286484E+03  0.00000000000E+00 0. -1.
         23    2    1    2    0    0  0.35143587443E+02  0.12821172301E+03 -0.13740620602E+03  0.21198130200E+03  0.91554843059E+02 0.  0.
         23    2    1    2    0    0 -0.34654322798E+01 -0.13461466349E+03 -0.55001468449E+03  0.57431802195E+03  0.95874503087E+02 0.  0.
        -13    1    4    4    0    0  0.15264675422E+02 -0.23187311675E+02 -0.25248496091E+02  0.37525302042E+02  0.00000000000E+00 0.  1.
         13    1    4    4    0    0 -0.18730107702E+02 -0.11142735181E+03 -0.52476618840E+03  0.53679271991E+03  0.00000000000E+00 0. -1.
        -13    1    3    3    0    0  0.55538797203E+02  0.12463459144E+03 -0.13352984794E+03  0.19091505878E+03  0.00000000000E+00 0.  1.
         13    1    3    3    0    0 -0.20395209759E+02  0.35771315722E+01 -0.38763580840E+01  0.21066243220E+02  0.00000000000E+00 0. -1.
         21    1    1    2  502  501 -0.31678155163E+02  0.64029404737E+01 -0.30254404938E+01  0.32460074730E+02  0.00000000000E+00 0. -1.
<scales pt_clust_5="13000.00000" pt_clust_6="13000.00000" pt_clust_7="13000.00000" pt_clust_8="13000.00000" pt_clust_9="32.31877"></scales>
<clustering>
<clus scale="   32.319">  1  9  2 -1</clus>
<clus scale="   91.555">  7  8 -1 -1</clus>
<clus scale="   95.875">  5  6 -1 -1</clus>
<clus scale="  161.891">  1  7  2 -1</clus>
<clus scale="  164.373">  2  5  1 -1</clus>
</clustering>
</event>
<event>
 9    1  0.1434065E-005  0.1373971E+03  0.7546771E-02  0.1217194E+00
          1   -1    0    0  502    0  0.00000000000E+00  0.00000000000E+00  0.24631213610E+03  0.24631213610E+03  0.00000000000E+00 0. -1.
         -1   -1    0    0    0  501 -0.00000000000E+00 -0.00000000000E+00 -0.99087647959E+02  0.99087647959E+02  0.00000000000E+00 0.  1.
         23    2    1    2    0    0  0.96133228943E+02  0.32654068303E+02  0.46476456573E+02  0.14431327404E+03  0.91424144327E+02 0.  0.
         23    2    1    2    0    0 -0.83573881384E+02 -0.60347134919E+02  0.99416495876E+02  0.17064942512E+03  0.92796639483E+02 0.  0.
        -11    1    3    3    0    0  0.44715803418E+02  0.34075122240E+02 -0.20521153160E+02  0.59847596092E+02  0.00000000000E+00 0.  1.
         11    1    3    3    0    0  0.51417425525E+02 -0.14210539370E+01  0.66997609733E+02  0.84465677951E+02  0.00000000000E+00 0. -1.
        -13    1    4    4    0    0 -0.73811592261E+02 -0.32618693315E+01  0.28742701213E+02  0.79277574487E+02  0.00000000000E+00 0.  1.
         13    1    4    4    0    0 -0.97622891237E+01 -0.57085265587E+02  0.70673794664E+02  0.91371850634E+02  0.00000000000E+00 0. -1.
         21    1    1    2  502  501 -0.12559347559E+02  0.27693066615E+02  0.13315356935E+01  0.30437084896E+02  0.00000000000E+00 0. -1.
<scales pt_clust_5="13000.00000" pt_clust_6="13000.00000" pt_clust_7="13000.00000" pt_clust_8="13000.00000" pt_clust_9="30.40795"></scales>
<clustering>
<clus scale="   30.408">  2  9  1 -1</clus>
<clus scale="   91.424">  5  6 -1 -1</clus>
<clus scale="   92.797">  7  8 -1 -1</clus>
<clus scale="  136.474">  2  5  1 -1</clus>
<clus scale="  137.397">  1  5  2 -1</clus>
</clustering>
</event>
<event>
 9    1  0.1434065E-005  0.3540917E+03  0.7546771E-02  0.1061018E+00
         -1   -1    0    0    0  501 -0.00000000000E+00  0.00000000000E+00  0.56900359676E+03  0.56900359676E+03  0.00000000000E+00 0.  1.
          1   -1    0    0  502    0  0.00000000000E+00 -0.00000000000E+00 -0.52748003631E+03  0.52748003631E+03  0.00000000000E+00 0. -1.
         23    2    1    2    0    0 -0.27874874489E+03  0.72610347945E+02  0.25614501084E+03  0.39627908433E+03  0.91944117247E+02 0.  0.
         23    2    1    2    0    0  0.33493998369E+03 -0.11573572250E+03 -0.37577857469E+03  0.52416798446E+03  0.89235579229E+02 0.  0.
        -11    1    3    3    0    0 -0.16198801285E+03 -0.96985956354E+00  0.16281323569E+03  0.22967195443E+03  0.00000000000E+00 0.  1.
         11    1    3    3    0    0 -0.11676073204E+03  0.73580207508E+02  0.93331775156E+02  0.16660712991E+03  0.00000000000E+00 0. -1.
        -13    1    4    4    0    0  0.47421450605E+02 -0.39065756514E+02 -0.31266161997E+02  0.68938379699E+02  0.00000000000E+00 0.  1.
         13    1    4    4    0    0  0.28751853309E+03 -0.76669965987E+02 -0.34451241269E+03  0.45522960477E+03  0.00000000000E+00 0. -1.
         21    1    1    2  502  501 -0.56191238807E+02  0.43125374556E+02  0.16115712430E+03  0.17603656428E+03  0.00000000000E+00 0.  1.
<scales pt_clust_5="13000.00000" pt_clust_6="13000.00000" pt_clust_7="13000.00000" pt_clust_8="13000.00000" pt_clust_9="70.83257"></scales>
<clustering>
<clus scale="   70.833">  1  9  2 -1</clus>
<clus scale="   89.236">  7  8 -1 -1</clus>
<clus scale="   91.944">  5  6 -1 -1</clus>
<clus scale="  353.398">  2  7  1 -1</clus>
<clus scale="  353.398">  2  5  1 -1</clus>
</clustering>
</event>
<event>
 9    1  0.1434065E-005  0.3748336E+03  0.7546771E-02  0.1053425E+00
         -2   -1    0    0    0  501 -0.00000000000E+00  0.00000000000E+00  0.29532012585E+03  0.29532012585E+03  0.00000000000E+00 0.  1.
          2   -1    0    0  502    0  0.00000000000E+00 -0.00000000000E+00 -0.89524002410E+03  0.89524002410E+03  0.00000000000E+00 0. -1.
         23    2    1    2    0    0  0.26650742121E+02 -0.34416766428E+03 -0.28362993033E+03  0.45584292493E+03  0.90472048926E+02 0.  0.
         23    2    1    2    0    0  0.57966115381E+02  0.36826452609E+03 -0.43703760533E+03  0.58531621009E+03  0.11231369289E+03 0.  0.
        -11    1    4    4    0    0 -0.30423229857E+02  0.50438421814E+02 -0.55399598870E+02  0.80862369895E+02  0.00000000000E+00 0. -1.
         11    1    4    4    0    0  0.88389345238E+02  0.31782610427E+03 -0.38163800646E+03  0.50445384019E+03  0.00000000000E+00 0.  1.
        -13    1    3    3    0    0  0.51503682915E+02 -0.30940823147E+03 -0.25688248224E+03  0.40543148957E+03  0.00000000000E+00 0. -1.
         13    1    3    3    0    0 -0.24852940794E+02 -0.34759432810E+02 -0.26747448096E+02  0.50411435360E+02  0.00000000000E+00 0.  1.
         21    1    1    2  502  501 -0.84616857502E+02 -0.24096861811E+02  0.12074763741E+03  0.14940101493E+03  0.00000000000E+00 0.  1.
<scales pt_clust_5="13000.00000" pt_clust_6="13000.00000" pt_clust_7="13000.00000" pt_clust_8="13000.00000" pt_clust_9="87.98109"></scales>
<clustering>
<clus scale="   87.981">  1  9  2 -1</clus>
<clus scale="   90.472">  7  8 -1 -1</clus>
<clus scale="  112.314">  5  6 -1 -1</clus>
<clus scale="  368.878">  1  7  2 -1</clus>
<clus scale="  374.834">  2  5  1 -1</clus>
</clustering>
</event>
<event>
 9    1  0.1434065E-005  0.1063567E+03  0.7546771E-02  0.1275697E+00
          1   -1    0    0  502    0  0.00000000000E+00  0.00000000000E+00  0.36622634415E+03  0.36622634415E+03  0.00000000000E+00 0. -1.
         -1   -1    0    0    0  501 -0.00000000000E+00 -0.00000000000E+00 -0.36280855742E+02  0.36280855742E+02  0.00000000000E+00 0.  1.
         23    2    1    2    0    0 -0.38000014944E+02 -0.44974767506E+02  0.14129604128E+03  0.17215223211E+03  0.78772386605E+02 0.  0.
         23    2    1    2    0    0  0.11255382030E+02  0.29977943280E+02  0.14591319436E+03  0.17775679836E+03  0.96340325744E+02 0.  0.
        -11    1    4    4    0    0 -0.27266039350E+02  0.50595382123E+02  0.90194687562E+02  0.10695050845E+03  0.00000000000E+00 0.  1.
         11    1    4    4    0    0  0.38521421380E+02 -0.20617438843E+02  0.55718506802E+02  0.70806289903E+02  0.00000000000E+00 0. -1.
        -13    1    3    3    0    0 -0.20536000501E+02  0.47681540452E+01  0.10746014347E+03  0.10950865283E+03  0.00000000000E+00 0. -1.
         13    1    3    3    0    0 -0.17464014443E+02 -0.49742921552E+02  0.33835897813E+02  0.62643579286E+02  0.00000000000E+00 0.  1.
         21    1    1    2  502  501  0.26744632915E+02  0.14996824226E+02  0.42736252768E+02  0.52598169428E+02  0.00000000000E+00 0.  1.
<scales pt_clust_5="13000.00000" pt_clust_6="13000.00000" pt_clust_7="13000.00000" pt_clust_8="13000.00000" pt_clust_9="30.66236"></scales>
<clustering>
<clus scale="   30.662">  2  9  1 -1</clus>
<clus scale="   78.772">  7  8 -1 -1</clus>
<clus scale="   90.749">  2  7  1 -1</clus>
<clus scale="   96.340">  5  6 -1 -1</clus>
<clus scale="  106.357">  1  5  2 -1</clus>
</clustering>
</event>
<event>
 9    1  0.1434065E-005  0.9432352E+02  0.7546771E-02  0.1297461E+00
         -2   -1    0    0    0  501 -0.00000000000E+00  0.00000000000E+00  0.39530125928E+02  0.39530125928E+02  0.00000000000E+00 0.  1.
          2   -1    0    0  502    0  0.00000000000E+00 -0.00000000000E+00 -0.29835348262E+03  0.29835348262E+03  0.00000000000E+00 0. -1.
         23    2    1    2    0    0 -0.17042247342E+02 -0.13601572657E+02 -0.68939231008E+02  0.10873755456E+03  0.81214513646E+02 0.  0.
         23    2    1    2    0    0  0.36986833357E+02 -0.37960777189E+01 -0.17104124693E+03  0.19665730471E+03  0.89646814204E+02 0.  0.
        -11    1    4    4    0    0  0.53541248189E+01 -0.26094562847E+02 -0.15050501045E+03  0.15284420510E+03  0.00000000000E+00 0. -1.
         11    1    4    4    0    0  0.31632708538E+02  0.22298485128E+02 -0.20536236477E+02  0.43813099606E+02  0.00000000000E+00 0.  1.
        -13    1    3    3    0    0  0.74058467506E+01  0.18910977206E+02  0.79024237268E+01  0.21792657611E+02  0.00000000000E+00 0.  1.
         13    1    3    3    0    0 -0.24448094092E+02 -0.32512549863E+02 -0.76841654735E+02  0.86944896950E+02  0.00000000000E+00 0. -1.
         21    1    1    2  502  501 -0.19944586016E+02  0.17397650376E+02 -0.18842878763E+02  0.32488749284E+02  0.00000000000E+00 0. -1.
<scales pt_clust_5="13000.00000" pt_clust_6="13000.00000" pt_clust_7="13000.00000" pt_clust_8="13000.00000" pt_clust_9="26.46629"></scales>
<clustering>
<clus scale="   26.466">  1  9  2 -1</clus>
<clus scale="   81.215">  7  8 -1 -1</clus>
<clus scale="   86.349">  1  7  2 -1</clus>
<clus scale="   89.647">  5  6 -1 -1</clus>
<clus scale="   94.324">  2  5  1 -1</clus>
</clustering>
</event>
<event>
 9    1  0.1434065E-005  0.9482213E+02  0.7546771E-02  0.1303405E+00
          1   -1    0    0  502    0  0.00000000000E+00  0.00000000000E+00  0.21846329242E+02  0.21846329242E+02  0.00000000000E+00 0. -1.
         -1   -1    0    0    0  501 -0.00000000000E+00 -0.00000000000E+00 -0.46707732669E+03  0.46707732669E+03  0.00000000000E+00 0.  1.
         23    2    1    2    0    0 -0.20461566507E+02 -0.26578414256E+02 -0.18752299423E+03  0.21102414716E+03  0.90781217826E+02 0.  0.
         23    2    1    2    0    0 -0.33008912446E-01  0.25339933308E+02 -0.14632425275E+03  0.16463918331E+03  0.71085585233E+02 0.  0.
        -11    1    3    3    0    0 -0.54971546300E+02 -0.32643591837E+01 -0.10294963152E+03  0.11675253133E+03  0.00000000000E+00 0. -1.
         11    1    3    3    0    0  0.34509979793E+02 -0.23314055073E+02 -0.84573362713E+02  0.94271615823E+02  0.00000000000E+00 0.  1.
        -13    1    4    4    0    0 -0.66081818377E+01 -0.21746797708E+02 -0.79105728561E+02  0.82306181839E+02  0.00000000000E+00 0.  1.
         13    1    4    4    0    0  0.65751729252E+01  0.47086731016E+02 -0.67218524188E+02  0.82333001468E+02  0.00000000000E+00 0. -1.
         21    1    1    2  502  501  0.20494575419E+02  0.12384809487E+01 -0.11138375047E+03  0.11326032547E+03  0.00000000000E+00 0.  1.
<scales pt_clust_5="13000.00000" pt_clust_6="13000.00000" pt_clust_7="13000.00000" pt_clust_8="13000.00000" pt_clust_9="20.53196"></scales>
<clustering>
<clus scale="   20.532">  2  9  1 -1</clus>
<clus scale="   71.086">  7  8 -1 -1</clus>
<clus scale="   76.179">  1  7  2 -1</clus>
<clus scale="   90.781">  5  6 -1 -1</clus>
<clus scale="   76.179">  1  5  2 -1</clus>
</clustering>
</event>
<event>
 9    1  0.1434065E-005  0.9444831E+02  0.7546771E-02  0.1292713E+00
         -1   -1    0    0    0  501 -0.00000000000E+00  0.00000000000E+00  0.13523307088E+03  0.13523307088E+03  0.00000000000E+00 0.  1.
          1   -1    0    0  502    0  0.00000000000E+00 -0.00000000000E+00 -0.13680988489E+03  0.13680988489E+03  0.00000000000E+00 0. -1.
         23    2    1    2    0    0  0.14978939339E+02 -0.39864973489E+02 -0.18811272887E+02  0.10281972973E+03  0.91675777059E+02 0.  0.
         23    2    1    2    0    0 -0.36911023108E+01  0.80637795124E+01 -0.42231132774E+02  0.10085007492E+03  0.91151633336E+02 0.  0.
        -11    1    3    3    0    0 -0.30349901731E+02  0.93829345720E+01 -0.16616322149E+02  0.35850497319E+02  0.00000000000E+00 0.  1.
         11    1    3    3    0    0  0.45328841069E+02 -0.49247908061E+02 -0.21949507374E+01  0.66969232412E+02  0.00000000000E+00 0. -1.
        -11    1    4    4    0    0  0.71659615714E+01 -0.37222155359E+02 -0.38662201715E+02  0.54144304375E+02  0.00000000000E+00 0. -1.
         11    1    4    4    0    0 -0.10857063882E+02  0.45285934872E+02 -0.35689310595E+01  0.46705770546E+02  0.00000000000E+00 0.  1.
         21    1    1    2  502  501 -0.11287837028E+02  0.31801193977E+02  0.59465591651E+02  0.68373151115E+02  0.00000000000E+00 0. -1.
<scales pt_clust_5="13000.00000" pt_clust_6="13000.00000" pt_clust_7="13000.00000" pt_clust_8="13000.00000" pt_clust_9="33.74509"></scales>
<clustering>
<clus scale="   33.745">  1  9  2 -1</clus>
<clus scale="   91.152">  7  8 -1 -1</clus>
<clus scale="   91.676">  5  6 -1 -1</clus>
<clus scale="   93.940">  2  7  1 -1</clus>
<clus scale="   93.940">  2  5  1 -1</clus>
</clustering>
</event>
<event>
 9    1  0.1434065E-005  0.9615794E+02  0.7546771E-02  0.1289836E+00
          1   -1    0    0  502    0  0.00000000000E+00  0.00000000000E+00  0.51164399799E+03  0.51164399799E+03  0.00000000000E+00 0. -1.
         -1   -1    0    0    0  501 -0.00000000000E+00 -0.00000000000E+00 -0.17744468376E+03  0.17744468376E+03  0.00000000000E+00 0.  1.
         23    2    1    2    0    0 -0.48195892456E+02 -0.27009576697E+02  0.17878487627E+03  0.20863618616E+03  0.92264104122E+02 0.  0.
         23    2    1    2    0    0  0.17479108717E+02 -0.11227283235E+02  0.30728855634E+03  0.32085510809E+03  0.89945385663E+02 0.  0.
        -11    1    4    4    0    0  0.38018391798E+02  0.21746037053E+02  0.89650709115E+02  0.99777441775E+02  0.00000000000E+00 0. -1.
         11    1    4    4    0    0 -0.20539283081E+02 -0.32973320287E+02  0.21763784722E+03  0.22107766632E+03  0.00000000000E+00 0.  1.
        -11    1    3    3    0    0  0.33044763452E+00 -0.34409841191E+02  0.14794938216E+02  0.37457129671E+02  0.00000000000E+00 0.  1.
         11    1    3    3    0    0 -0.48526340091E+02  0.74002644941E+01  0.16398993806E+03  0.17117905649E+03  0.00000000000E+00 0. -1.
         21    1    1    2  502  501  0.30716783740E+02  0.38236859931E+02 -0.15187411838E+03  0.15959738749E+03  0.00000000000E+00 0.  1.
<scales pt_clust_5="13000.00000" pt_clust_6="13000.00000" pt_clust_7="13000.00000" pt_clust_8="13000.00000" pt_clust_9="49.04669"></scales>
<clustering>
<clus scale="   49.047">  2  9  1 -1</clus>
<clus scale="   89.945">  5  6 -1 -1</clus>
<clus scale="   92.264">  7  8 -1 -1</clus>
<clus scale="   93.935">  1  5  2 -1</clus>
<clus scale="   93.935">  1  5  2 -1</clus>
</clustering>
</event>
<event>
 9    1  0.1434065E-005  0.1081187E+03  0.7546771E-02  0.1264197E+00
          2   -1    0    0  502    0  0.00000000000E+00  0.00000000000E+00  0.36192476894E+03  0.36192476894E+03  0.00000000000E+00 0. -1.
         -2   -1    0    0    0  501 -0.00000000000E+00 -0.00000000000E+00 -0.45989124977E+02  0.45989124977E+02  0.00000000000E+00 0.  1.
         23    2    1    2    0    0  0.26238040761E+01 -0.69064419481E+02  0.14494897577E+03  0.18478801570E+03  0.91430994649E+02 0.  0.
         23    2    1    2    0    0  0.14626560953E+02  0.48338151297E+02  0.16553484508E+03  0.19561450490E+03  0.91174209278E+02 0.  0.
        -11    1    3    3    0    0 -0.14527262516E+01 -0.30630320057E+02  0.14282523380E+03  0.14608002714E+03  0.00000000000E+00 0. -1.
         11    1    3    3    0    0  0.40765303276E+01 -0.38434099424E+02  0.21237419723E+01  0.38707988556E+02  0.00000000000E+00 0.  1.
        -11    1    4    4    0    0 -0.23816276897E+02  0.26967389535E+02  0.15340605296E+02  0.39112521197E+02  0.00000000000E+00 0.  1.
         11    1    4    4    0    0  0.38442837850E+02  0.21370761763E+02  0.15019423978E+03  0.15650198371E+03  0.00000000000E+00 0. -1.
         21    1    1    2  502  501 -0.17250365029E+02  0.20726268184E+02  0.54518231163E+01  0.27511373316E+02  0.00000000000E+00 0.  1.
<scales pt_clust_5="13000.00000" pt_clust_6="13000.00000" pt_clust_7="13000.00000" pt_clust_8="13000.00000" pt_clust_9="26.96578"></scales>
<clustering>
<clus scale="   26.966">  2  9  1 -1</clus>
<clus scale="   91.174">  7  8 -1 -1</clus>
<clus scale="   91.431">  5  6 -1 -1</clus>
<clus scale="  107.902">  1  7  2 -1</clus>
<clus scale="  107.902">  1  5  2 -1</clus>
</clustering>
</event>
<event>
 9    1  0.1434065E-005  0.1499755E+03  0.7546771E-02  0.1200904E+00
          1   -1    0    0  502    0  0.00000000000E+00  0.00000000000E+00  0.13234882724E+03  0.13234882724E+03  0.00000000000E+00 0. -1.
         -1   -1    0    0    0  501 -0.00000000000E+00 -0.00000000000E+00 -0.51699236937E+03  0.51699236937E+03  0.00000000000E+00 0.  1.
         23    2    1    2    0    0 -0.14154926815E+03  0.17305044696E+02 -0.23325789832E+03  0.28761487707E+03  0.89316350671E+02 0.  0.
         23    2    1    2    0    0  0.11414377861E+03  0.10591972708E+02  0.51252434610E+02  0.15534924896E+03  0.91463572083E+02 0.  0.
        -13    1    4    4    0    0  0.74737774614E+02 -0.36569752756E+02  0.16768441163E+02  0.84877926400E+02  0.00000000000E+00 0.  1.
         13    1    4    4    0    0  0.39406004001E+02  0.47161725464E+02  0.34483993447E+02  0.70471322565E+02  0.00000000000E+00 0. -1.
        -13    1    3    3    0    0 -0.10387903812E+03  0.45119523303E+02 -0.20113763857E+03  0.23083105423E+03  0.00000000000E+00 0.  1.
         13    1    3    3    0    0 -0.37670230032E+02 -0.27814478607E+02 -0.32120259751E+02  0.56783822848E+02  0.00000000000E+00 0. -1.
         21    1    1    2  502  501  0.27405489539E+02 -0.27897017404E+02 -0.20263807841E+03  0.20637707057E+03  0.00000000000E+00 0. -1.
<scales pt_clust_5="13000.00000" pt_clust_6="13000.00000" pt_clust_7="13000.00000" pt_clust_8="13000.00000" pt_clust_9="39.10632"></scales>
<clustering>
<clus scale="   39.106">  2  9  1 -1</clus>
<clus scale="   89.316">  7  8 -1 -1</clus>
<clus scale="   91.464">  5  6 -1 -1</clus>
<clus scale="  148.676">  2  7  1 -1</clus>
<clus scale="  149.975">  1  5  2 -1</clus>
</clustering>
</event>
<event>
 9    1  0.1434065E-005  0.1150451E+03  0.7546771E-02  0.1256141E+00
          4   -1    0    0  502    0  0.00000000000E+00  0.00000000000E+00  0.19746413052E+02  0.19746413052E+02  0.00000000000E+00 0. -1.
         -4   -1    0    0    0  501 -0.00000000000E+00 -0.00000000000E+00 -0.78006733931E+03  0.78006733931E+03  0.00000000000E+00 0.  1.
         23    2    1    2    0    0  0.21685736471E+02 -0.41872530205E+02 -0.33598161710E+03  0.35503714945E+03  0.10461429400E+03 0.  0.
         23    2    1    2    0    0 -0.26472628094E+01  0.50450343992E+02 -0.28992720450E+03  0.30875213361E+03  0.93369432330E+02 0.  0.
        -13    1    3    3    0    0 -0.25848120047E+02  0.22395798088E+02 -0.11820080521E+03  0.12304928863E+03  0.00000000000E+00 0. -1.
         13    1    3    3    0    0  0.47533856518E+02 -0.64268328293E+02 -0.21778081189E+03  0.23198786082E+03  0.00000000000E+00 0.  1.
        -13    1    4    4    0    0  0.88105205160E+01  0.76253898068E+02 -0.19020321294E+03  0.20510861624E+03  0.00000000000E+00 0. -1.
         13    1    4    4    0    0 -0.11457783325E+02 -0.25803554076E+02 -0.99723991558E+02  0.10364351738E+03  0.00000000000E+00 0.  1.
         21    1    1    2  502  501 -0.19038473661E+02 -0.85778137866E+01 -0.13441210466E+03  0.13602446930E+03  0.00000000000E+00 0.  1.
<scales pt_clust_5="13000.00000" pt_clust_6="13000.00000" pt_clust_7="13000.00000" pt_clust_8="13000.00000" pt_clust_9="20.88163"></scales>
<clustering>
<clus scale="   20.882">  2  9  1 -1</clus>
<clus scale="   93.369">  7  8 -1 -1</clus>
<clus scale="  104.614">  5  6 -1 -1</clus>
<clus scale="  104.924">  1  7  2 -1</clus>
<clus scale="  104.924">  1  5  2 -1</clus>
</clustering>
</event>
<event>
 9    1  0.1434065E-005  0.9288472E+02  0.7546771E-02  0.1297145E+00
         -1   -1    0    0    0  501 -0.00000000000E+00  0.00000000000E+00  0.59508797223E+03  0.59508797223E+03  0.00000000000E+00 0.  1.
          1   -1    0    0  502    0  0.00000000000E+00 -0.00000000000E+00 -0.50889175869E+02  0.50889175869E+02  0.00000000000E+00 0. -1.
         23    2    1    2    0    0 -0.84959712792E+02  0.19723959874E+02  0.38524128449E+03  0.40449821918E+03  0.87182421670E+02 0.  0.
         23    2    1    2    0    0  0.15179452723E+02  0.93635599880E+01  0.37438803614E+02  0.98363014495E+02  0.89193758547E+02 0.  0.
        -11    1    3    3    0    0 -0.61817330848E+02 -0.29107068610E+02  0.18980246494E+03  0.20172649686E+03  0.00000000000E+00 0.  1.
         11    1    3    3    0    0 -0.23142381944E+02  0.48831028484E+02  0.19543881955E+03  0.20277172232E+03  0.00000000000E+00 0. -1.
        -11    1    4    4    0    0 -0.30665424982E+02 -0.17859964352E+02  0.47044073026E+01  0.35797738253E+02  0.00000000000E+00 0.  1.
         11    1    4    4    0    0  0.45844877705E+02  0.27223524340E+02  0.32734396312E+02  0.62565276241E+02  0.00000000000E+00 0. -1.
         21    1    1    2  502  501  0.69780260069E+02 -0.29087519862E+02  0.12151870825E+03  0.14311591443E+03  0.00000000000E+00 0.  1.
<scales pt_clust_5="13000.00000" pt_clust_6="13000.00000" pt_clust_7="13000.00000" pt_clust_8="13000.00000" pt_clust_9="75.60006"></scales>
<clustering>
<clus scale="   75.600">  1  9  2 -1</clus>
<clus scale="   87.182">  5  6 -1 -1</clus>
<clus scale="   89.194">  7  8 -1 -1</clus>
<clus scale="   90.955">  1  5  2 -1</clus>
<clus scale="   92.885">  2  5  1 -1</clus>
</clustering>
</event>
<event>
 9    1  0.1434065E-005  0.9829740E+02  0.7546771E-02  0.1290343E+00
         -1   -1    0    0    0  501 -0.00000000000E+00  0.00000000000E+00  0.11232876088E+03  0.11232876088E+03  0.00000000000E+00 0.  1.
          1   -1    0    0  502    0  0.00000000000E+00 -0.00000000000E+00 -0.21856117029E+03  0.21856117029E+03  0.00000000000E+00 0. -1.
         23    2    1    2    0    0 -0.15895391539E+02 -0.56409168130E+01  0.55590379738E+02  0.10452038397E+03  0.86889222176E+02 0.  0.
         23    2    1    2    0    0 -0.69445670503E+01  0.46877037630E+01 -0.17440155184E+03  0.20027744889E+03  0.98106848248E+02 0.  0.
        -11    1    4    4    0    0 -0.45668695006E+01 -0.40824766514E+02 -0.13120036915E+03  0.13748110678E+03  0.00000000000E+00 0.  1.
         11    1    4    4    0    0 -0.23776975497E+01  0.45512470277E+02 -0.43201182690E+02  0.62796342108E+02  0.00000000000E+00 0. -1.
        -11    1    3    3    0    0  0.52744836127E+00 -0.37393653270E+02  0.57644751630E+02  0.68713032950E+02  0.00000000000E+00 0.  1.
         11    1    3    3    0    0 -0.16422839900E+02  0.31752736457E+02 -0.20543718923E+01  0.35807351016E+02  0.00000000000E+00 0. -1.
         21    1    1    2  502  501  0.22839958589E+02  0.95321305005E+00  0.12578762687E+02  0.26092098310E+02  0.00000000000E+00 0.  1.
<scales pt_clust_5="13000.00000" pt_clust_6="13000.00000" pt_clust_7="13000.00000" pt_clust_8="13000.00000" pt_clust_9="22.85984"></scales>
<clustering>
<clus scale="   22.860">  1  9  2 -1</clus>
<clus scale="   86.889">  7  8 -1 -1</clus>
<clus scale="   87.104">  1  7  2 -1</clus>
<clus scale="   98.107">  5  6 -1 -1</clus>
<clus scale="   98.297">  2  5  1 -1</clus>
</clustering>
</event>
<event>
 9    1  0.1434065E-005  0.1410829E+03  0.7546771E-02  0.1221777E+00
          1   -1    0    0  502    0  0.00000000000E+00  0.00000000000E+00  0.39256728056E+03  0.39256728056E+03  0.00000000000E+00 0. -1.
         -1   -1    0    0    0  501 -0.00000000000E+00 -0.00000000000E+00 -0.90556038188E+02  0.90556038188E+02  0.00000000000E+00 0.  1.
         23    2    1    2    0    0 -0.74546170882E+02  0.26268652877E+02  0.27970720262E+01  0.11924695029E+03  0.89245940107E+02 0.  0.
         23    2    1    2    0    0  0.52625439408E+02 -0.47688553358E+02  0.30191856979E+03  0.33310878192E+03  0.12150309794E+03 0.  0.
        -11    1    3    3    0    0 -0.17814885371E+02 -0.25793639933E+02  0.23886884728E+02  0.39411486445E+02  0.00000000000E+00 0. -1.
         11    1    3    3    0    0 -0.56731285511E+02  0.52062292810E+02 -0.21089812702E+02  0.79835463850E+02  0.00000000000E+00 0.  1.
        -13    1    4    4    0    0  0.28430166214E+02 -0.82499582525E+02  0.25669697792E+03  0.27112320805E+03  0.00000000000E+00 0. -1.
         13    1    4    4    0    0  0.24195273194E+02  0.34811029167E+02  0.45221591872E+02  0.61985573870E+02  0.00000000000E+00 0.  1.
         21    1    1    2  502  501  0.21920731474E+02  0.21419900481E+02 -0.27043994456E+01  0.30767586538E+02  0.00000000000E+00 0.  1.
<scales pt_clust_5="13000.00000" pt_clust_6="13000.00000" pt_clust_7="13000.00000" pt_clust_8="13000.00000" pt_clust_9="30.64850"></scales>
<clustering>
<clus scale="   30.649">  2  9  1 -1</clus>
<clus scale="   89.246">  5  6 -1 -1</clus>
<clus scale="  114.482">  2  5  1 -1</clus>
<clus scale="  121.503">  7  8 -1 -1</clus>
<clus scale="  141.083">  1  5  2 -1</clus>
</clustering>
</event>
<event>
 9    1  0.1434065E-005  0.1023748E+03  0.7546771E-02  0.1276997E+00
         -2   -1    0    0    0  501 -0.00000000000E+00  0.00000000000E+00  0.74698078331E+02  0.74698078331E+02  0.00000000000E+00 0.  1.
          2   -1    0    0  502    0  0.00000000000E+00 -0.00000000000E+00 -0.24299725566E+03  0.24299725566E+03  0.00000000000E+00 0. -1.
         23    2    1    2    0    0 -0.56459706650E+02  0.41924931848E+01 -0.30897204653E+02  0.10957038515E+03  0.88576275446E+02 0.  0.
         23    2    1    2    0    0  0.36678578419E+02 -0.19024323124E+02 -0.14968212943E+03  0.18051918018E+03  0.92060803581E+02 0.  0.
        -11    1    4    4    0    0  0.44817694195E+02 -0.46040094849E+02 -0.13308769659E+03  0.14778582824E+03  0.00000000000E+00 0.  1.
         11    1    4    4    0    0 -0.81391157751E+01  0.27015771725E+02 -0.16594432844E+02  0.32733351935E+02  0.00000000000E+00 0. -1.
        -13    1    3    3    0    0  0.41188111465E+01 -0.20589275872E+02  0.18171146412E+02  0.27768209307E+02  0.00000000000E+00 0.  1.
         13    1    3    3    0    0 -0.60578517796E+02  0.24781769057E+02 -0.49068351065E+02  0.81802175840E+02  0.00000000000E+00 0. -1.
         21    1    1    2  502  501  0.19781128230E+02  0.14831829939E+02  0.12280156758E+02  0.27605768662E+02  0.00000000000E+00 0. -1.
<scales pt_clust_5="13000.00000" pt_clust_6="13000.00000" pt_clust_7="13000.00000" pt_clust_8="13000.00000" pt_clust_9="24.72400"></scales>
<clustering>
<clus scale="   24.724">  1  9  2 -1</clus>
<clus scale="   88.576">  7  8 -1 -1</clus>
<clus scale="   92.061">  5  6 -1 -1</clus>
<clus scale="   99.253">  1  7  2 -1</clus>
<clus scale="  102.375">  2  5  1 -1</clus>
</clustering>
</event>
<event>
 9    1  0.1434065E-005  0.1077628E+03  0.7546771E-02  0.1264809E+00
         -2   -1    0    0    0  501 -0.00000000000E+00  0.00000000000E+00  0.10492372924E+03  0.10492372924E+03  0.00000000000E+00 0.  1.
          2   -1    0    0  502    0  0.00000000000E+00 -0.00000000000E+00 -0.14873140945E+03  0.14873140945E+03  0.00000000000E+00 0. -1.
         23    2    1    2    0    0  0.10613675522E+02 -0.52014027845E+02  0.44605263146E+01  0.10554283654E+03  0.91111387044E+02 0.  0.
         23    2    1    2    0    0  0.13952502776E+02  0.60802967704E+02 -0.51599095725E+02  0.12180949996E+03  0.91013264881E+02 0.  0.
        -11    1    3    3    0    0 -0.23388239812E+02 -0.56240746201E+02  0.24722985847E+02  0.65736270992E+02  0.00000000000E+00 0.  1.
         11    1    3    3    0    0  0.34001915334E+02  0.42267183560E+01 -0.20262459532E+02  0.39806565548E+02  0.00000000000E+00 0. -1.
        -13    1    4    4    0    0 -0.37492019679E+02  0.11833246089E+02 -0.18205601261E+02  0.43325756426E+02  0.00000000000E+00 0.  1.
         13    1    4    4    0    0  0.51444522455E+02  0.48969721616E+02 -0.33393494465E+02  0.78483743529E+02  0.00000000000E+00 0. -1.
         21    1    1    2  502  501 -0.24566178298E+02 -0.87889398591E+01  0.33308891993E+01  0.26302802187E+02  0.00000000000E+00 0.  1.
<scales pt_clust_5="13000.00000" pt_clust_6="13000.00000" pt_clust_7="13000.00000" pt_clust_8="13000.00000" pt_clust_9="26.09104"></scales>
<clustering>
<clus scale="   26.091">  1  9  2 -1</clus>
<clus scale="   91.013">  7  8 -1 -1</clus>
<clus scale="   91.111">  5  6 -1 -1</clus>
<clus scale="  107.680">  2  7  1 -1</clus>
<clus scale="  107.680">  2  5  1 -1</clus>
</clustering>
</event>
<event>
 9    1  0.1434065E-005  0.1169439E+03  0.7546771E-02  0.1249333E+00
          1   -1    0    0  502    0  0.00000000000E+00  0.00000000000E+00  0.99697865929E+02  0.99697865929E+02  0.00000000000E+00 0. -1.
         -1   -1    0    0    0  501 -0.00000000000E+00 -0.00000000000E+00 -0.48567424708E+03  0.48567424708E+03  0.00000000000E+00 0.  1.
         23    2    1    2    0    0 -0.19464694386E+02  0.47882982921E+02 -0.35281446477E+03  0.36714645657E+03  0.87446095601E+02 0.  0.
         23    2    1    2    0    0  0.41956695549E+02 -0.63617504678E+02  0.51497588073E+02  0.12922735879E+03  0.90775313160E+02 0.  0.
        -11    1    4    4    0    0  0.63422990777E+02 -0.26763798759E+02  0.97138479746E+01  0.69520756077E+02  0.00000000000E+00 0.  1.
         11    1    4    4    0    0 -0.21466295228E+02 -0.36853705918E+02  0.41783740099E+02  0.59706602712E+02  0.00000000000E+00 0. -1.
        -13    1    3    3    0    0 -0.50762870890E+02  0.47216880342E+02 -0.26501394431E+03  0.27393191404E+03  0.00000000000E+00 0.  1.
         13    1    3    3    0    0  0.31298176505E+02  0.66610257817E+00 -0.87800520462E+02  0.93214542528E+02  0.00000000000E+00 0. -1.
         21    1    1    2  502  501 -0.22492001163E+02  0.15734521757E+02 -0.84659504448E+02  0.88998297650E+02  0.00000000000E+00 0.  1.
<scales pt_clust_5="13000.00000" pt_clust_6="13000.00000" pt_clust_7="13000.00000" pt_clust_8="13000.00000" pt_clust_9="27.44932"></scales>
<clustering>
<clus scale="   27.449">  2  9  1 -1</clus>
<clus scale="   87.446">  7  8 -1 -1</clus>
<clus scale="   90.775">  5  6 -1 -1</clus>
<clus scale="  114.379">  2  7  1 -1</clus>
<clus scale="  116.944">  1  5  2 -1</clus>
</clustering>
</event>
<event>
 9    1  0.1434065E-005  0.1099827E+03  0.7546771E-02  0.1262252E+00
         -1   -1    0    0    0  501 -0.00000000000E+00  0.00000000000E+00  0.74490482578E+02  0.74490482578E+02  0.00000000000E+00 0.  1.
          1   -1    0    0  502    0  0.00000000000E+00 -0.00000000000E+00 -0.23164040045E+03  0.23164040045E+03  0.00000000000E+00 0. -1.
         23    2    1    2    0    0  0.39822895094E+02 -0.33842702485E+02 -0.20405218619E+02  0.10404758722E+03  0.87626114687E+02 0.  0.
         23    2    1    2    0    0 -0.65945775503E+02  0.42189897165E+02 -0.10351555047E+03  0.15899899624E+03  0.91849762591E+02 0.  0.
        -11    1    4    4    0    0 -0.88964067311E+02  0.28740452177E+02 -0.86521990402E+02  0.12738396166E+03  0.00000000000E+00 0.  1.
         11    1    4    4    0    0  0.23018291808E+02  0.13449444988E+02 -0.16993560069E+02  0.31615034589E+02  0.00000000000E+00 0. -1.
        -11    1    3    3    0    0  0.51183971574E+02 -0.56769815618E+02 -0.14972084138E+02  0.77889500029E+02  0.00000000000E+00 0. -1.
         11    1    3    3    0    0 -0.11361076480E+02  0.22927113133E+02 -0.54331344817E+01  0.26158087195E+02  0.00000000000E+00 0.  1.
         21    1    1    2  502  501  0.26122880409E+02 -0.83471946798E+01 -0.33229148787E+02  0.43084299565E+02  0.00000000000E+00 0. -1.
<scales pt_clust_5="13000.00000" pt_clust_6="13000.00000" pt_clust_7="13000.00000" pt_clust_8="13000.00000" pt_clust_9="27.42409"></scales>
<clustering>
<clus scale="   27.424">  2  9  1 -1</clus>
<clus scale="   87.626">  7  8 -1 -1</clus>
<clus scale="   91.850">  5  6 -1 -1</clus>
<clus scale="  106.481">  1  7  2 -1</clus>
<clus scale="   27.424">  2  5  1 -1</clus>
</clustering>
</event>
<event>
 9    1  0.1434065E-005  0.1145762E+03  0.7546771E-02  0.1252830E+00
          2   -1    0    0  502    0  0.00000000000E+00  0.00000000000E+00  0.54464375696E+03  0.54464375696E+03  0.00000000000E+00 0. -1.
         -2   -1    0    0    0  501 -0.00000000000E+00 -0.00000000000E+00 -0.76428501428E+02  0.76428501428E+02  0.00000000000E+00 0.  1.
         23    2    1    2    0    0  0.83597335225E+02 -0.19217011142E+02  0.16196747751E+03  0.20404378040E+03  0.89680502764E+02 0.  0.
         23    2    1    2    0    0 -0.61480914456E+02  0.12911226046E+02  0.35027988238E+03  0.36735227435E+03  0.91132293243E+02 0.  0.
        -11    1    4    4    0    0  0.32426696072E+01  0.36043529168E+02  0.70408621452E+02  0.79164543047E+02  0.00000000000E+00 0.  1.
         11    1    4    4    0    0 -0.64723584063E+02 -0.23132303122E+02  0.27987126093E+03  0.28818773130E+03  0.00000000000E+00 0. -1.
        -13    1    3    3    0    0  0.49574988469E+02  0.31504365686E+02  0.52939232966E+02  0.79074439145E+02  0.00000000000E+00 0.  1.
         13    1    3    3    0    0  0.34022346757E+02 -0.50721376829E+02  0.10902824454E+03  0.12496934126E+03  0.00000000000E+00 0. -1.
         21    1    1    2  502  501 -0.22116420769E+02  0.63057850967E+01 -0.44032104357E+02  0.49676203633E+02  0.00000000000E+00 0.  1.
<scales pt_clust_5="13000.00000" pt_clust_6="13000.00000" pt_clust_7="13000.00000" pt_clust_8="13000.00000" pt_clust_9="22.99780"></scales>
<clustering>
<clus scale="   22.998">  2  9  1 -1</clus>
<clus scale="   89.681">  7  8 -1 -1</clus>
<clus scale="   91.132">  5  6 -1 -1</clus>
<clus scale="  113.425">  2  7  1 -1</clus>
<clus scale="  114.576">  1  5  2 -1</clus>
</clustering>
</event>
<event>
 9    1  0.1434065E-005  0.9914573E+02  0.7546771E-02  0.1284669E+00
         -1   -1    0    0    0  501 -0.00000000000E+00  0.00000000000E+00  0.54304996238E+02  0.54304996238E+02  0.00000000000E+00 0.  1.
          1   -1    0    0  502    0  0.00000000000E+00 -0.00000000000E+00 -0.36963151176E+03  0.36963151176E+03  0.00000000000E+00 0. -1.
         23    2    1    2    0    0  0.12176506241E+01 -0.33012755887E+02 -0.11535579820E+03  0.15080052557E+03  0.91337361518E+02 0.  0.
         23    2    1    2    0    0 -0.31154716879E+02  0.32871755769E+02 -0.21759709252E+03  0.23839498474E+03  0.86211979250E+02 0.  0.
        -13    1    4    4    0    0 -0.10984748228E+02  0.45344393016E+02 -0.20739608693E+03  0.21257919829E+03  0.00000000000E+00 0.  1.
         13    1    4    4    0    0 -0.20169968652E+02 -0.12472637247E+02 -0.10201005595E+02  0.25815786458E+02  0.00000000000E+00 0. -1.
        -13    1    3    3    0    0 -0.37744241561E+02  0.98769068098E+01 -0.50809832768E+02  0.64061065907E+02  0.00000000000E+00 0. -1.
         13    1    3    3    0    0  0.38961892186E+02 -0.42889662697E+02 -0.64545965432E+02  0.86739459662E+02  0.00000000000E+00 0.  1.
         21    1    1    2  502  501  0.29937066255E+02  0.14100011792E+00  0.17626375204E+02  0.34740997681E+02  0.00000000000E+00 0.  1.
<scales pt_clust_5="13000.00000" pt_clust_6="13000.00000" pt_clust_7="13000.00000" pt_clust_8="13000.00000" pt_clust_9="29.93740"></scales>
<clustering>
<clus scale="   29.937">  1  9  2 -1</clus>
<clus scale="   86.212">  5  6 -1 -1</clus>
<clus scale="   91.337">  7  8 -1 -1</clus>
<clus scale="   94.445">  2  5  1 -1</clus>
<clus scale="   94.445">  2  5  1 -1</clus>
</clustering>
</event>
<event>
 9    1  0.1434065E-005  0.1172617E+03  0.7546771E-02  0.1250262E+00
          2   -1    0    0  502    0  0.00000000000E+00  0.00000000000E+00  0.48647552958E+03  0.48647552958E+03  0.00000000000E+00 0. -1.
         -2   -1    0    0    0  501 -0.00000000000E+00 -0.00000000000E+00 -0.50660938880E+02  0.50660938880E+02  0.00000000000E+00 0.  1.
         23    2    1    2    0    0  0.16664912763E+02 -0.46593968699E+02  0.83660427793E+02  0.13269759175E+03  0.90337514027E+02 0.  0.
         23    2    1    2    0    0 -0.35216917766E+02  0.62429837719E+02  0.35920793975E+03  0.37904778762E+03  0.97514949560E+02 0.  0.
        -11    1    4    4    0    0 -0.65471969865E+02  0.52068729976E+02  0.20228654720E+03  0.21890084206E+03  0.00000000000E+00 0.  1.
         11    1    4    4    0    0  0.30255052099E+02  0.10361107743E+02  0.15692139255E+03  0.16014694556E+03  0.00000000000E+00 0. -1.
        -11    1    3    3    0    0  0.28613158925E+02  0.20237579261E+02  0.26268147410E+02  0.43798265335E+02  0.00000000000E+00 0. -1.
         11    1    3    3    0    0 -0.11948246162E+02 -0.66831547960E+02  0.57392280383E+02  0.88899326412E+02  0.00000000000E+00 0.  1.
         21    1    1    2  502  501  0.18552005003E+02 -0.15835869020E+02 -0.70537768448E+01  0.25391089087E+02  0.00000000000E+00 0.  1.
<scales pt_clust_5="13000.00000" pt_clust_6="13000.00000" pt_clust_7="13000.00000" pt_clust_8="13000.00000" pt_clust_9="24.39163"></scales>
<clustering>
<clus scale="   24.392">  2  9  1 -1</clus>
<clus scale="   90.338">  7  8 -1 -1</clus>
<clus scale="   97.515">  5  6 -1 -1</clus>
<clus scale="  111.364">  2  7  1 -1</clus>
<clus scale="  117.262">  1  5  2 -1</clus>
</clustering>
</event>
<event>
 9    1  0.1434065E-005  0.1109840E+03  0.7546771E-02  0.1259909E+00
         -2   -1    0    0    0  501 -0.00000000000E+00  0.00000000000E+00  0.32926488963E+02  0.32926488963E+02  0.00000000000E+00 0.  1.
          2   -1    0    0  502    0  0.00000000000E+00 -0.00000000000E+00 -0.81706959918E+03  0.81706959918E+03  0.00000000000E+00 0. -1.
         23    2    1    2    0    0  0.33591578540E+02 -0.26755359477E+01 -0.11607377972E+03  0.15075322007E+03  0.90099158603E+02 0.  0.
         23    2    1    2    0    0 -0.20571114364E+02  0.78506005211E+02 -0.48884692961E+03  0.50420322715E+03  0.93076366874E+02 0.  0.
        -13    1    3    3    0    0 -0.22113649703E+01 -0.36079351023E+02 -0.16383783822E+02  0.39686749395E+02  0.00000000000E+00 0.  1.
         13    1    3    3    0    0  0.35802943510E+02  0.33403815075E+02 -0.99689995896E+02  0.11106647067E+03  0.00000000000E+00 0. -1.
        -13    1    4    4    0    0 -0.51337435449E+02  0.71022483907E+02 -0.40949907879E+03  0.41877108428E+03  0.00000000000E+00 0.  1.
         13    1    4    4    0    0  0.30766321085E+02  0.74835213044E+01 -0.79347850819E+02  0.85432142861E+02  0.00000000000E+00 0. -1.
         21    1    1    2  502  501 -0.13020464176E+02 -0.75830469264E+02 -0.17922240089E+03  0.19503964094E+03  0.00000000000E+00 0. -1.
<scales pt_clust_5="13000.00000" pt_clust_6="13000.00000" pt_clust_7="13000.00000" pt_clust_8="13000.00000" pt_clust_9="76.94019"></scales>
<clustering>
<clus scale="   76.940">  1  9  2 -1</clus>
<clus scale="   90.099">  5  6 -1 -1</clus>
<clus scale="   93.076">  7  8 -1 -1</clus>
<clus scale="  108.499">  1  5  2 -1</clus>
<clus scale="  110.984">  2  5  1 -1</clus>
</clustering>
</event>
<event>
 9    1  0.1434065E-005  0.9536680E+02  0.7546771E-02  0.1290829E+00
         -1   -1    0    0    0  501 -0.00000000000E+00  0.00000000000E+00  0.65772807713E+02  0.65772807713E+02  0.00000000000E+00 0.  1.
          1   -1    0    0  502    0  0.00000000000E+00 -0.00000000000E+00 -0.27007710632E+03  0.27007710632E+03  0.00000000000E+00 0. -1.
         23    2    1    2    0    0  0.67297918561E+01  0.98448747618E+01 -0.42428921327E+02  0.10077397219E+03  0.90625429365E+02 0.  0.
         23    2    1    2    0    0 -0.79360320434E+01 -0.36725305358E+02 -0.17861285532E+03  0.20338752541E+03  0.89734077970E+02 0.  0.
        -11    1    4    4    0    0  0.99247127763E+01 -0.61777159644E+02 -0.14441315397E+03  0.15738512133E+03  0.00000000000E+00 0. -1.
         11    1    4    4    0    0 -0.17860744820E+02  0.25051854286E+02 -0.34199701356E+02  0.46002404084E+02  0.00000000000E+00 0.  1.
        -13    1    3    3    0    0 -0.29728136546E+02 -0.25466885853E+02 -0.27600591549E+02  0.47896941775E+02  0.00000000000E+00 0. -1.
         13    1    3    3    0    0  0.36457928402E+02  0.35311760615E+02 -0.14828329779E+02  0.52877030411E+02  0.00000000000E+00 0.  1.
         21    1    1    2  502  501  0.12062401873E+01  0.26880430596E+02  0.16737478047E+02  0.31688416430E+02  0.00000000000E+00 0.  1.
<scales pt_clust_5="13000.00000" pt_clust_6="13000.00000" pt_clust_7="13000.00000" pt_clust_8="13000.00000" pt_clust_9="26.90748"></scales>
<clustering>
<clus scale="   26.907">  1  9  2 -1</clus>
<clus scale="   89.734">  5  6 -1 -1</clus>
<clus scale="   90.625">  7  8 -1 -1</clus>
<clus scale="   94.520">  2  5  1 -1</clus>
<clus scale="   94.520">  2  5  1 -1</clus>
</clustering>
</event>
<event>
 9    1  0.1434065E-005  0.1031537E+03  0.7546771E-02  0.1274297E+00
         -2   -1    0    0    0  501 -0.00000000000E+00  0.00000000000E+00  0.66275663401E+02  0.66275663401E+02  0.00000000000E+00 0.  1.
          2   -1    0    0  502    0  0.00000000000E+00 -0.00000000000E+00 -0.23314054878E+03  0.23314054878E+03  0.00000000000E+00 0. -1.
         23    2    1    2    0    0  0.14965484765E+02 -0.36357841308E+02 -0.32433927851E+02  0.10523016181E+03  0.92062853098E+02 0.  0.
         23    2    1    2    0    0 -0.21752692274E+01  0.62725152251E+02 -0.11134246304E+03  0.15687783040E+03  0.90963361152E+02 0.  0.
        -13    1    3    3    0    0 -0.33173784336E+02  0.21700182709E+01  0.42011401400E+01  0.33509081231E+02  0.00000000000E+00 0.  1.
         13    1    3    3    0    0  0.48139269100E+02 -0.38527859579E+02 -0.36635067991E+02  0.71721080583E+02  0.00000000000E+00 0. -1.
        -13    1    4    4    0    0 -0.77105626056E+01  0.34943942723E+02  0.58948380671E+01  0.36266803341E+02  0.00000000000E+00 0.  1.
         13    1    4    4    0    0  0.55352933782E+01  0.27781209528E+02 -0.11723730111E+03  0.12061102706E+03  0.00000000000E+00 0. -1.
         21    1    1    2  502  501 -0.12790215537E+02 -0.26367310943E+02 -0.23088494485E+02  0.37308219972E+02  0.00000000000E+00 0.  1.
<scales pt_clust_5="13000.00000" pt_clust_6="13000.00000" pt_clust_7="13000.00000" pt_clust_8="13000.00000" pt_clust_9="29.30571"></scales>
<clustering>
<clus scale="   29.306">  2  9  1 -1</clus>
<clus scale="   90.963">  7  8 -1 -1</clus>
<clus scale="   92.063">  5  6 -1 -1</clus>
<clus scale="  102.174">  2  7  1 -1</clus>
<clus scale="   29.306">  2  5  1 -1</clus>
</clustering>
</event>
<event>
 9    1  0.1434065E-005  0.1321583E+03  0.7546771E-02  0.1224877E+00
         -2   -1    0    0    0  501 -0.00000000000E+00  0.00000000000E+00  0.98919463287E+02  0.98919463287E+02  0.00000000000E+00 0.  1.
          2   -1    0    0  502    0  0.00000000000E+00 -0.00000000000E+00 -0.23463667260E+03  0.23463667260E+03  0.00000000000E+00 0. -1.
         23    2    1    2    0    0 -0.30989224482E+02  0.72077521649E+02  0.18766081152E+01  0.12102523188E+03  0.92130797960E+02 0.  0.
         23    2    1    2    0    0  0.40636799324E+02 -0.90336968449E+02 -0.13409314086E+03  0.19158483435E+03  0.94401594255E+02 0.  0.
        -13    1    4    4    0    0 -0.23142953344E+02 -0.24215191606E+02 -0.61197822275E+01  0.34050308787E+02  0.00000000000E+00 0. -1.
         13    1    4    4    0    0  0.63779752668E+02 -0.66121776843E+02 -0.12797335864E+03  0.15753452556E+03  0.00000000000E+00 0.  1.
        -13    1    3    3    0    0 -0.54385903425E+02  0.57644828286E+02 -0.24475439694E+02  0.82944559000E+02  0.00000000000E+00 0. -1.
         13    1    3    3    0    0  0.23396678944E+02  0.14432693363E+02  0.26352047809E+02  0.38080672881E+02  0.00000000000E+00 0.  1.
         21    1    1    2  502  501 -0.96475748424E+01  0.18259446800E+02 -0.35006765676E+01  0.20946069660E+02  0.00000000000E+00 0.  1.
<scales pt_clust_5="13000.00000" pt_clust_6="13000.00000" pt_clust_7="13000.00000" pt_clust_8="13000.00000" pt_clust_9="20.65147"></scales>
<clustering>
<clus scale="   20.651">  1  9  2 -1</clus>
<clus scale="   92.131">  7  8 -1 -1</clus>
<clus scale="   94.402">  5  6 -1 -1</clus>
<clus scale="  130.546">  1  7  2 -1</clus>
<clus scale="  132.158">  2  5  1 -1</clus>
</clustering>
</event>
<event>
 9    1  0.1434065E-005  0.2233569E+03  0.7546771E-02  0.1131424E+00
         -1   -1    0    0    0  501 -0.00000000000E+00  0.00000000000E+00  0.31152252046E+03  0.31152252046E+03  0.00000000000E+00 0.  1.
          1   -1    0    0  502    0  0.00000000000E+00 -0.00000000000E+00 -0.29554481319E+03  0.29554481319E+03  0.00000000000E+00 0. -1.
         23    2    1    2    0    0 -0.25895432330E+03  0.25448560421E+00  0.21586465304E+02  0.27484776460E+03  0.89542793682E+02 0.  0.
         23    2    1    2    0    0  0.18010843401E+03 -0.52301251392E+01 -0.86528891278E+02  0.21912890096E+03  0.89798797325E+02 0.  0.
        -11    1    3    3    0    0 -0.10268073817E+03  0.39975226829E+02  0.27244229465E+02  0.11350595047E+03  0.00000000000E+00 0.  1.
         11    1    3    3    0    0 -0.15627358513E+03 -0.39720741224E+02 -0.56577641610E+01  0.16134181413E+03  0.00000000000E+00 0. -1.
        -11    1    4    4    0    0  0.26036100868E+02  0.32678345717E+02 -0.99622306448E+01  0.42953449997E+02  0.00000000000E+00 0. -1.
         11    1    4    4    0    0  0.15407233314E+03 -0.37908470857E+02 -0.76566660633E+02  0.17617545097E+03  0.00000000000E+00 0.  1.
         21    1    1    2  502  501  0.78845889288E+02  0.49756395350E+01  0.80920133235E+02  0.11309066809E+03  0.00000000000E+00 0.  1.
<scales pt_clust_5="13000.00000" pt_clust_6="13000.00000" pt_clust_7="13000.00000" pt_clust_8="13000.00000" pt_clust_9="79.00273"></scales>
<clustering>
<clus scale="   79.003">  1  9  2 -1</clus>
<clus scale="   89.543">  5  6 -1 -1</clus>
<clus scale="   89.799">  7  8 -1 -1</clus>
<clus scale="  223.254">  1  5  2 -1</clus>
<clus scale="  223.357">  2  5  1 -1</clus>
</clustering>
</event>
<event>
 9    1  0.1434065E-005  0.1157817E+03  0.7546771E-02  0.1256033E+00
          3   -1    0    0  502    0  0.00000000000E+00  0.00000000000E+00  0.22566748611E+03  0.22566748611E+03  0.00000000000E+00 0. -1.
         -3   -1    0    0    0  501 -0.00000000000E+00 -0.00000000000E+00 -0.38187948069E+03  0.38187948069E+03  0.00000000000E+00 0.  1.
         23    2    1    2    0    0 -0.13537303541E+02  0.41423133302E+02 -0.12558553437E+03  0.16831532867E+03  0.10324334780E+03 0.  0.
         23    2    1    2    0    0  0.51908479876E+02 -0.17370518570E+02  0.18850787127E+03  0.21546673765E+03  0.88850843001E+02 0.  0.
        -11    1    4    4    0    0  0.96996739596E+01 -0.27711214873E+02  0.16183575665E+03  0.16447737606E+03  0.00000000000E+00 0. -1.
         11    1    4    4    0    0  0.42208805916E+02  0.10340696304E+02  0.26672114627E+02  0.50989361592E+02  0.00000000000E+00 0.  1.
        -11    1    3    3    0    0 -0.25517705572E+02  0.78135428227E+01 -0.12968240206E+03  0.13239988729E+03  0.00000000000E+00 0.  1.
         11    1    3    3    0    0  0.11980402031E+02  0.33609590479E+02  0.40968676953E+01  0.35915441385E+02  0.00000000000E+00 0. -1.
         21    1    1    2  502  501 -0.38371176335E+02 -0.24052614732E+02 -0.21913433149E+03  0.22376490048E+03  0.00000000000E+00 0.  1.
<scales pt_clust_5="13000.00000" pt_clust_6="13000.00000" pt_clust_7="13000.00000" pt_clust_8="13000.00000" pt_clust_9="45.28659"></scales>
<clustering>
<clus scale="   45.287">  2  9  1 -1</clus>
<clus scale="   88.851">  5  6 -1 -1</clus>
<clus scale="  103.154">  1  5  2 -1</clus>
<clus scale="  103.243">  7  8 -1 -1</clus>
<clus scale="  103.154">  1  5  2 -1</clus>
</clustering>
</event>
<event>
 9    1  0.1434065E-005  0.1379606E+03  0.7546771E-02  0.1216172E+00
          1   -1    0    0  502    0  0.00000000000E+00  0.00000000000E+00  0.30375531710E+03  0.30375531710E+03  0.00000000000E+00 0. -1.
         -1   -1    0    0    0  501 -0.00000000000E+00 -0.00000000000E+00 -0.12960182858E+03  0.12960182858E+03  0.00000000000E+00 0.  1.
         23    2    1    2    0    0 -0.33266993448E+02 -0.77625389913E+02  0.66847804820E+02  0.14096856901E+03  0.90945667440E+02 0.  0.
         23    2    1    2    0    0  0.99669375498E+02  0.78164942833E+02  0.14749121584E+03  0.21477128187E+03  0.91265010072E+02 0.  0.
        -11    1    3    3    0    0 -0.47894368474E+02 -0.29418469753E+01  0.27195461758E+02  0.55155399875E+02  0.00000000000E+00 0.  1.
         11    1    3    3    0    0  0.14627375026E+02 -0.74683542938E+02  0.39652343063E+02  0.85813169131E+02  0.00000000000E+00 0. -1.
        -11    1    4    4    0    0  0.11250403894E+03  0.47682185402E+02  0.12481434742E+03  0.17466931873E+03  0.00000000000E+00 0. -1.
         11    1    4    4    0    0 -0.12834663441E+02  0.30482757431E+02  0.22676868418E+02  0.40101963138E+02  0.00000000000E+00 0.  1.
         21    1    1    2  502  501 -0.66402382050E+02 -0.53955291961E+00 -0.40185532147E+02  0.77617294807E+02  0.00000000000E+00 0.  1.
<scales pt_clust_5="13000.00000" pt_clust_6="13000.00000" pt_clust_7="13000.00000" pt_clust_8="13000.00000" pt_clust_9="66.40457"></scales>
<clustering>
<clus scale="   66.405">  2  9  1 -1</clus>
<clus scale="   90.946">  5  6 -1 -1</clus>
<clus scale="   91.265">  7  8 -1 -1</clus>
<clus scale="  137.750">  2  5  1 -1</clus>
<clus scale="  137.961">  1  5  2 -1</clus>
</clustering>
</event>
<event>
 9    1  0.1434065E-005  0.9524336E+02  0.7546771E-02  0.1292145E+00
          2   -1    0    0  502    0  0.00000000000E+00  0.00000000000E+00  0.37101060794E+03  0.37101060794E+03  0.00000000000E+00 0.  1.
         -2   -1    0    0    0  501 -0.00000000000E+00 -0.00000000000E+00 -0.66462645538E+02  0.66462645538E+02  0.00000000000E+00 0. -1.
         23    2    1    2    0    0  0.13639723040E+01  0.13497711318E+02  0.14195751308E+03  0.16929726741E+03  0.91244619590E+02 0.  0.
         23    2    1    2    0    0  0.50423996805E+02 -0.84791169391E+01  0.18514391727E+03  0.21146761851E+03  0.88463600977E+02 0.  0.
        -11    1    3    3    0    0  0.75008228401E+01  0.50334398024E+02  0.56520100236E+02  0.76054820349E+02  0.00000000000E+00 0.  1.
         11    1    3    3    0    0 -0.61368505361E+01 -0.36836686706E+02  0.85437412840E+02  0.93242447066E+02  0.00000000000E+00 0. -1.
        -11    1    4    4    0    0  0.43266174412E+02 -0.32035912905E+02  0.47985603850E+02  0.72117125156E+02  0.00000000000E+00 0. -1.
         11    1    4    4    0    0  0.71578223931E+01  0.23556795966E+02  0.13715831342E+03  0.13935049335E+03  0.00000000000E+00 0.  1.
         21    1    1    2  502  501 -0.51787969109E+02 -0.50185943788E+01 -0.22553467947E+02  0.56708367552E+02  0.00000000000E+00 0.  1.
<scales pt_clust_5="13000.00000" pt_clust_6="13000.00000" pt_clust_7="13000.00000" pt_clust_8="13000.00000" pt_clust_9="52.03057"></scales>
<clustering>
<clus scale="   52.031">  2  9  1 -1</clus>
<clus scale="   88.464">  7  8 -1 -1</clus>
<clus scale="   91.245">  5  6 -1 -1</clus>
<clus scale="   92.583">  1  7  2 -1</clus>
<clus scale="   92.583">  1  5  2 -1</clus>
</clustering>
</event>
<event>
 9    1  0.1434065E-005  0.1002900E+03  0.7546771E-02  0.1279829E+00
          2   -1    0    0  502    0  0.00000000000E+00  0.00000000000E+00  0.24821301779E+03  0.24821301779E+03  0.00000000000E+00 0. -1.
         -2   -1    0    0    0  501 -0.00000000000E+00 -0.00000000000E+00 -0.65621293422E+02  0.65621293422E+02  0.00000000000E+00 0.  1.
         23    2    1    2    0    0 -0.25343623310E+02 -0.24112262457E+02  0.51324229184E+02  0.11001018212E+03  0.90798475903E+02 0.  0.
         23    2    1    2    0    0  0.49205569329E+02  0.40571820207E+01  0.13736640517E+03  0.17206258911E+03  0.91095315593E+02 0.  0.
        -11    1    3    3    0    0 -0.56244113249E+02 -0.17208028363E+02  0.51753262215E+02  0.78344857299E+02  0.00000000000E+00 0.  1.
         11    1    3    3    0    0  0.30900489939E+02 -0.69042340944E+01 -0.42903303121E+00  0.31665324825E+02  0.00000000000E+00 0. -1.
        -13    1    4    4    0    0  0.52551046635E+02 -0.35769166825E+02  0.87584463554E+02  0.10822238241E+03  0.00000000000E+00 0. -1.
         13    1    4    4    0    0 -0.33454773066E+01  0.39826348846E+02  0.49781941615E+02  0.63840206702E+02  0.00000000000E+00 0.  1.
         21    1    1    2  502  501 -0.23861946019E+02  0.20055080436E+02 -0.60989099820E+01  0.31761539983E+02  0.00000000000E+00 0.  1.
<scales pt_clust_5="13000.00000" pt_clust_6="13000.00000" pt_clust_7="13000.00000" pt_clust_8="13000.00000" pt_clust_9="31.17048"></scales>
<clustering>
<clus scale="   31.170">  2  9  1 -1</clus>
<clus scale="   90.798">  5  6 -1 -1</clus>
<clus scale="   91.095">  7  8 -1 -1</clus>
<clus scale="  100.020">  2  5  1 -1</clus>
<clus scale="  100.290">  1  5  2 -1</clus>
</clustering>
</event>
<event>
 9    1  0.1434065E-005  0.1263116E+03  0.7546771E-02  0.1233113E+00
         -2   -1    0    0    0  501 -0.00000000000E+00  0.00000000000E+00  0.14960214667E+03  0.14960214667E+03  0.00000000000E+00 0.  1.
          2   -1    0    0  502    0  0.00000000000E+00 -0.00000000000E+00 -0.16187775542E+03  0.16187775542E+03  0.00000000000E+00 0. -1.
         23    2    1    2    0    0  0.96980597189E+02  0.30455301787E+02 -0.16486216468E+02  0.13812367645E+03  0.92052121245E+02 0.  0.
         23    2    1    2    0    0 -0.69428646483E+02 -0.30230853412E+02 -0.36274919711E+02  0.12438441440E+03  0.91768029812E+02 0.  0.
        -11    1    4    4    0    0 -0.39509485866E+02  0.29929679652E+02 -0.27331782439E+02  0.56602221942E+02  0.00000000000E+00 0.  1.
         11    1    4    4    0    0 -0.29919160617E+02 -0.60160533063E+02 -0.89431372715E+01  0.67782192461E+02  0.00000000000E+00 0. -1.
        -13    1    3    3    0    0  0.74219943443E+02 -0.27209974663E+00  0.28121520033E+02  0.79369351339E+02  0.00000000000E+00 0.  1.
         13    1    3    3    0    0  0.22760653746E+02  0.30727401534E+02 -0.44607736501E+02  0.58754325115E+02  0.00000000000E+00 0. -1.
         21    1    1    2  502  501 -0.27551950706E+02 -0.22444837580E+00  0.40485527422E+02  0.48971811233E+02  0.00000000000E+00 0. -1.
<scales pt_clust_5="13000.00000" pt_clust_6="13000.00000" pt_clust_7="13000.00000" pt_clust_8="13000.00000" pt_clust_9="27.55286"></scales>
<clustering>
<clus scale="   27.553">  1  9  2 -1</clus>
<clus scale="   91.768">  5  6 -1 -1</clus>
<clus scale="   92.052">  7  8 -1 -1</clus>
<clus scale="  126.105">  2  5  1 -1</clus>
<clus scale="  126.105">  2  5  1 -1</clus>
</clustering>
</event>
<event>
 9    1  0.1434065E-005  0.9537447E+02  0.7546771E-02  0.1291117E+00
          2   -1    0    0  502    0  0.00000000000E+00  0.00000000000E+00  0.19504272756E+03  0.19504272756E+03  0.00000000000E+00 0. -1.
         -2   -1    0    0    0  501 -0.00000000000E+00 -0.00000000000E+00 -0.95811918853E+02  0.95811918853E+02  0.00000000000E+00 0.  1.
         23    2    1    2    0    0 -0.74083979444E+01 -0.96457845989E+01  0.35515671169E+02  0.98801030568E+02  0.91391220705E+02 0.  0.
         23    2    1    2    0    0 -0.41537940298E+02  0.40026258276E+01  0.90314351643E+02  0.13606158553E+03  0.92815146637E+02 0.  0.
        -11    1    4    4    0    0 -0.46319339226E+01 -0.33377128222E+02  0.73583946373E+02  0.80932593336E+02  0.00000000000E+00 0. -1.
         11    1    4    4    0    0 -0.36906006375E+02  0.37379754049E+02  0.16730405270E+02  0.55128992190E+02  0.00000000000E+00 0.  1.
        -11    1    3    3    0    0  0.40961363189E+02 -0.62823745596E+01  0.55711887454E+01  0.41813151621E+02  0.00000000000E+00 0.  1.
         11    1    3    3    0    0 -0.48369761134E+02 -0.33634100393E+01  0.29944482423E+02  0.56987878947E+02  0.00000000000E+00 0. -1.
         21    1    1    2  502  501  0.48946338242E+02  0.56431587713E+01 -0.26599214105E+02  0.55992030319E+02  0.00000000000E+00 0.  1.
<scales pt_clust_5="13000.00000" pt_clust_6="13000.00000" pt_clust_7="13000.00000" pt_clust_8="13000.00000" pt_clust_9="49.27057"></scales>
<clustering>
<clus scale="   49.271">  2  9  1 -1</clus>
<clus scale="   91.391">  7  8 -1 -1</clus>
<clus scale="   92.815">  5  6 -1 -1</clus>
<clus scale="   93.989">  2  7  1 -1</clus>
<clus scale="   95.374">  1  5  2 -1</clus>
</clustering>
</event>
<event>
 9    1  0.1434065E-005  0.2400472E+03  0.7546771E-02  0.1143455E+00
         -1   -1    0    0    0  501 -0.00000000000E+00  0.00000000000E+00  0.13416635067E+04  0.13416635067E+04  0.00000000000E+00 0.  1.
          1   -1    0    0  502    0  0.00000000000E+00 -0.00000000000E+00 -0.84330355380E+02  0.84330355380E+02  0.00000000000E+00 0. -1.
         23    2    1    2    0    0  0.13572201074E+03 -0.12533679835E+03  0.16259520254E+03  0.26275979127E+03  0.92063732271E+02 0.  0.
         23    2    1    2    0    0 -0.38988813108E+02 -0.91364853388E+02  0.22850367147E+03  0.26508111024E+03  0.90478744197E+02 0.  0.
        -13    1    3    3    0    0  0.10638591554E+03 -0.10619902152E+03  0.74114132822E+02  0.16759803066E+03  0.00000000000E+00 0. -1.
         13    1    3    3    0    0  0.29336095197E+02 -0.19137776828E+02  0.88481069722E+02  0.95161760611E+02  0.00000000000E+00 0.  1.
        -13    1    4    4    0    0  0.23235430087E+02 -0.45014597134E+02  0.13112960620E+03  0.14057443861E+03  0.00000000000E+00 0.  1.
         13    1    4    4    0    0 -0.62224243195E+02 -0.46350256254E+02  0.97374065263E+02  0.12450667164E+03  0.00000000000E+00 0. -1.
         21    1    1    2  502  501 -0.96733197627E+02  0.21670165174E+03  0.86623427734E+03  0.89815296059E+03  0.00000000000E+00 0.  1.
<scales pt_clust_5="13000.00000" pt_clust_6="13000.00000" pt_clust_7="13000.00000" pt_clust_8="13000.00000" pt_clust_9="221.69108"></scales>
<clustering>
<clus scale="   90.479">  7  8 -1 -1</clus>
<clus scale="   92.064">  5  6 -1 -1</clus>
<clus scale="  134.365">  2  7  1 -1</clus>
<clus scale="  221.691">  1  9  2 -1</clus>
<clus scale="  134.365">  2  5  1 -1</clus>
</clustering>
</event>
<event>
 9    1  0.1434065E-005  0.1118375E+03  0.7546771E-02  0.1257622E+00
          3   -1    0    0  502    0  0.00000000000E+00  0.00000000000E+00  0.13766456475E+03  0.13766456475E+03  0.00000000000E+00 0. -1.
         -3   -1    0    0    0  501 -0.00000000000E+00 -0.00000000000E+00 -0.12386403570E+03  0.12386403570E+03  0.00000000000E+00 0.  1.
         23    2    1    2    0    0 -0.29285211462E+02  0.34966628619E+02 -0.28390075387E+02  0.10575121399E+03  0.91088057131E+02 0.  0.
         23    2    1    2    0    0  0.40680363676E+02 -0.62196916038E+02  0.43671332141E+02  0.12622183535E+03  0.92203135065E+02 0.  0.
        -11    1    4    4    0    0  0.43775189835E+02  0.50069786450E+01  0.38903953738E+02  0.58778012017E+02  0.00000000000E+00 0. -1.
         11    1    4    4    0    0 -0.30948261596E+01 -0.67203894683E+02  0.47673784032E+01  0.67443823337E+02  0.00000000000E+00 0.  1.
        -13    1    3    3    0    0 -0.89879022909E+01 -0.23025221169E+02 -0.36181017324E+02  0.43817909718E+02  0.00000000000E+00 0.  1.
         13    1    3    3    0    0 -0.20297309171E+02  0.57991849788E+02  0.77909419371E+01  0.61933304269E+02  0.00000000000E+00 0. -1.
         21    1    1    2  502  501 -0.11395152214E+02  0.27230287419E+02 -0.14807277053E+01  0.29555551110E+02  0.00000000000E+00 0.  1.
<scales pt_clust_5="13000.00000" pt_clust_6="13000.00000" pt_clust_7="13000.00000" pt_clust_8="13000.00000" pt_clust_9="29.51844"></scales>
<clustering>
<clus scale="   29.518">  2  9  1 -1</clus>
<clus scale="   91.088">  7  8 -1 -1</clus>
<clus scale="   92.203">  5  6 -1 -1</clus>
<clus scale="  110.920">  2  7  1 -1</clus>
<clus scale="  111.837">  1  5  2 -1</clus>
</clustering>
</event>
<event>
 9    1  0.1434065E-005  0.1222983E+03  0.7546771E-02  0.1239603E+00
          1   -1    0    0  502    0  0.00000000000E+00  0.00000000000E+00  0.47478260178E+03  0.47478260178E+03  0.00000000000E+00 0. -1.
         -1   -1    0    0    0  501 -0.00000000000E+00 -0.00000000000E+00 -0.72626808482E+02  0.72626808482E+02  0.00000000000E+00 0.  1.
         23    2    1    2    0    0 -0.63042807545E+02 -0.93617245768E+01 -0.62656892602E+01  0.11062180611E+03  0.90199155505E+02 0.  0.
         23    2    1    2    0    0  0.82669941403E+02  0.18373758478E+02  0.38653410823E+03  0.40603864818E+03  0.91032152452E+02 0.  0.
        -13    1    3    3    0    0  0.19545912318E+01 -0.22733163673E+02 -0.32124353075E+02  0.39402934129E+02  0.00000000000E+00 0.  1.
         13    1    3    3    0    0 -0.64997398777E+02  0.13371439096E+02  0.25858663815E+02  0.71218871976E+02  0.00000000000E+00 0. -1.
        -13    1    4    4    0    0  0.98633396747E+02  0.35424670805E+01  0.34848661954E+03  0.36219334619E+03  0.00000000000E+00 0. -1.
         13    1    4    4    0    0 -0.15963455344E+02  0.14831291398E+02  0.38047488693E+02  0.43845301993E+02  0.00000000000E+00 0.  1.
         21    1    1    2  502  501 -0.19627133858E+02 -0.90120339016E+01  0.21887374324E+02  0.30748955971E+02  0.00000000000E+00 0. -1.
<scales pt_clust_5="13000.00000" pt_clust_6="13000.00000" pt_clust_7="13000.00000" pt_clust_8="13000.00000" pt_clust_9="21.59725"></scales>
<clustering>
<clus scale="   21.597">  2  9  1 -1</clus>
<clus scale="   90.199">  5  6 -1 -1</clus>
<clus scale="   91.032">  7  8 -1 -1</clus>
<clus scale="  121.680">  2  5  1 -1</clus>
<clus scale="  122.298">  1  5  2 -1</clus>
</clustering>
</event>
<event>
 9    1  0.1434065E-005  0.2287359E+03  0.7546771E-02  0.1127654E+00
          1   -1    0    0  502    0  0.00000000000E+00  0.00000000000E+00  0.51983149257E+03  0.51983149257E+03  0.00000000000E+00 0. -1.
         -1   -1    0    0    0  501 -0.00000000000E+00 -0.00000000000E+00 -0.20125532896E+03  0.20125532896E+03  0.00000000000E+00 0.  1.
         23    2    1    2    0    0 -0.91033375047E+02  0.20578141589E+03 -0.22193934006E+02  0.24352097505E+03  0.90425815374E+02 0.  0.
         23    2    1    2    0    0  0.90527728975E+02 -0.18471639902E+03  0.37490896466E+03  0.43744785977E+03  0.92132949924E+02 0.  0.
        -11    1    4    4    0    0  0.73251744083E+02 -0.13607066502E+03  0.18706860208E+03  0.24264316552E+03  0.00000000000E+00 0.  1.
         11    1    4    4    0    0  0.17275984892E+02 -0.48645733997E+02  0.18784036257E+03  0.19480469425E+03  0.00000000000E+00 0. -1.
        -13    1    3    3    0    0 -0.22177788576E+02  0.15591349380E+03 -0.13497579514E+02  0.15806029390E+03  0.00000000000E+00 0.  1.
         13    1    3    3    0    0 -0.68855586471E+02  0.49867922091E+02 -0.86963544919E+01  0.85460681155E+02  0.00000000000E+00 0. -1.
         21    1    1    2  502  501  0.50564607170E+00 -0.21065016872E+02 -0.34138867047E+02  0.40117986702E+02  0.00000000000E+00 0. -1.
<scales pt_clust_5="13000.00000" pt_clust_6="13000.00000" pt_clust_7="13000.00000" pt_clust_8="13000.00000" pt_clust_9="21.07108"></scales>
<clustering>
<clus scale="   21.071">  2  9  1 -1</clus>
<clus scale="   90.426">  7  8 -1 -1</clus>
<clus scale="   92.133">  5  6 -1 -1</clus>
<clus scale="  228.054">  2  7  1 -1</clus>
<clus scale="  228.736">  1  5  2 -1</clus>
</clustering>
</event>
<event>
 9    1  0.1434065E-005  0.1253902E+03  0.7546771E-02  0.1240710E+00
          1   -1    0    0  502    0  0.00000000000E+00  0.00000000000E+00  0.55397889337E+03  0.55397889337E+03  0.00000000000E+00 0. -1.
         -1   -1    0    0    0  501 -0.00000000000E+00 -0.00000000000E+00 -0.46330511772E+02  0.46330511772E+02  0.00000000000E+00 0.  1.
         23    2    1    2    0    0 -0.57021191769E+02  0.28193342638E+02  0.22176229236E+03  0.25272814109E+03  0.10318293515E+03 0.  0.
         23    2    1    2    0    0 -0.33387249395E+01 -0.30713628698E+02  0.24639271514E+03  0.27540510466E+03  0.11909713483E+03 0.  0.
        -11    1    3    3    0    0  0.68078257740E+01 -0.32444271737E+02  0.58451753479E+02  0.67198100755E+02  0.00000000000E+00 0.  1.
         11    1    3    3    0    0 -0.63829017543E+02  0.60637614375E+02  0.16331053888E+03  0.18553004033E+03  0.00000000000E+00 0. -1.
        -11    1    4    4    0    0 -0.44768949207E+02 -0.51598366443E+02  0.19266342038E+03  0.20441585992E+03  0.00000000000E+00 0.  1.
         11    1    4    4    0    0  0.41430224267E+02  0.20884737745E+02  0.53729294760E+02  0.70989244741E+02  0.00000000000E+00 0. -1.
         21    1    1    2  502  501  0.60359916709E+02  0.25202860602E+01  0.39493374095E+02  0.72176159390E+02  0.00000000000E+00 0. -1.
<scales pt_clust_5="13000.00000" pt_clust_6="13000.00000" pt_clust_7="13000.00000" pt_clust_8="13000.00000" pt_clust_9="60.41251"></scales>
<clustering>
<clus scale="   60.413">  2  9  1 -1</clus>
<clus scale="  103.183">  5  6 -1 -1</clus>
<clus scale="  110.387">  2  5  1 -1</clus>
<clus scale="  119.097">  7  8 -1 -1</clus>
<clus scale="  125.390">  1  5  2 -1</clus>
</clustering>
</event>
<event>
 9    1  0.1434065E-005  0.9732210E+02  0.7546771E-02  0.1286519E+00
         -3   -1    0    0    0  501 -0.00000000000E+00  0.00000000000E+00  0.17533887352E+03  0.17533887352E+03  0.00000000000E+00 0.  1.
          3   -1    0    0  502    0  0.00000000000E+00 -0.00000000000E+00 -0.15107003796E+03  0.15107003796E+03  0.00000000000E+00 0. -1.
         23    2    1    2    0    0 -0.17169656681E+02  0.55445856997E+01  0.98392744761E+02  0.13449315700E+03  0.89898484516E+02 0.  0.
         23    2    1    2    0    0  0.31294668552E+02 -0.20970658756E+02 -0.11174894677E+03  0.14886783766E+03  0.90855276008E+02 0.  0.
        -11    1    3    3    0    0 -0.49452011460E+02  0.15318315460E+02  0.34405234259E+02  0.62160054460E+02  0.00000000000E+00 0. -1.
         11    1    3    3    0    0  0.32282354779E+02 -0.97737297604E+01  0.63987510502E+02  0.72333102545E+02  0.00000000000E+00 0.  1.
        -13    1    4    4    0    0  0.33740507356E+01 -0.23995620590E+02 -0.11769305207E+03  0.12016167663E+03  0.00000000000E+00 0. -1.
         13    1    4    4    0    0  0.27920617816E+02  0.30249618331E+01  0.59441053003E+01  0.28706161031E+02  0.00000000000E+00 0.  1.
         21    1    1    2  502  501 -0.14125011871E+02  0.15426073057E+02  0.37625037561E+02  0.43047916811E+02  0.00000000000E+00 0.  1.
<scales pt_clust_5="13000.00000" pt_clust_6="13000.00000" pt_clust_7="13000.00000" pt_clust_8="13000.00000" pt_clust_9="20.91602"></scales>
<clustering>
<clus scale="   20.916">  1  9  2 -1</clus>
<clus scale="   89.898">  5  6 -1 -1</clus>
<clus scale="   90.855">  7  8 -1 -1</clus>
<clus scale="   96.429">  1  5  2 -1</clus>
<clus scale="   97.322">  2  5  1 -1</clus>
</clustering>
</event>
<event>
 9    1  0.1434065E-005  0.1225175E+03  0.7546771E-02  0.1239598E+00
          1   -1    0    0  502    0  0.00000000000E+00  0.00000000000E+00  0.29094462573E+03  0.29094462573E+03  0.00000000000E+00 0. -1.
         -1   -1    0    0    0  501 -0.00000000000E+00 -0.00000000000E+00 -0.80783478741E+02  0.80783478741E+02  0.00000000000E+00 0.  1.
         23    2    1    2    0    0  0.31069203363E+02  0.80743922658E+02  0.63696919501E+02  0.14145644580E+03  0.92020389369E+02 0.  0.
         23    2    1    2    0    0 -0.99051209387E+01 -0.78249909948E+02  0.16374688037E+03  0.20283393692E+03  0.90041131207E+02 0.  0.
        -11    1    4    4    0    0  0.22314821894E+02  0.10136538360E+02  0.23487688630E+02  0.33946608126E+02  0.00000000000E+00 0.  1.
         11    1    4    4    0    0 -0.32219942833E+02 -0.88386448307E+02  0.14025919174E+03  0.16888732880E+03  0.00000000000E+00 0. -1.
        -13    1    3    3    0    0  0.43979295662E+01  0.93152701273E+02  0.32955997963E+02  0.98908368406E+02  0.00000000000E+00 0.  1.
         13    1    3    3    0    0  0.26671273797E+02 -0.12408778615E+02  0.30740921537E+02  0.42548077391E+02  0.00000000000E+00 0. -1.
         21    1    1    2  502  501 -0.21164082425E+02 -0.24940127107E+01 -0.17282652883E+02  0.27437721752E+02  0.00000000000E+00 0.  1.
<scales pt_clust_5="13000.00000" pt_clust_6="13000.00000" pt_clust_7="13000.00000" pt_clust_8="13000.00000" pt_clust_9="21.31053"></scales>
<clustering>
<clus scale="   21.311">  2  9  1 -1</clus>
<clus scale="   90.041">  5  6 -1 -1</clus>
<clus scale="   92.020">  7  8 -1 -1</clus>
<clus scale="  121.038">  1  5  2 -1</clus>
<clus scale="  121.038">  1  5  2 -1</clus>
</clustering>
</event>
<event>
 9    1  0.1434065E-005  0.9980754E+02  0.7546771E-02  0.1282616E+00
          2   -1    0    0  502    0  0.00000000000E+00  0.00000000000E+00  0.15559408191E+03  0.15559408191E+03  0.00000000000E+00 0. -1.
         -2   -1    0    0    0  501 -0.00000000000E+00 -0.00000000000E+00 -0.11011769579E+03  0.11011769579E+03  0.00000000000E+00 0.  1.
         23    2    1    2    0    0  0.25087693025E+02  0.17041891587E+02 -0.36135385673E+01  0.99396217779E+02  0.94587166348E+02 0.  0.
         23    2    1    2    0    0 -0.34646354178E+02  0.33080126126E+01  0.81484183161E+02  0.12688366184E+03  0.90821135932E+02 0.  0.
        -11    1    3    3    0    0 -0.23024009294E+02  0.35264973517E+02  0.14967790105E+02  0.44696287338E+02  0.00000000000E+00 0. -1.
         11    1    3    3    0    0  0.48111702319E+02 -0.18223081930E+02 -0.18581328673E+02  0.54699930442E+02  0.00000000000E+00 0.  1.
        -13    1    4    4    0    0  0.16165762208E+02 -0.31500421142E+02  0.25306562613E+02  0.43520460834E+02  0.00000000000E+00 0.  1.
         13    1    4    4    0    0 -0.50812116386E+02  0.34808433754E+02  0.56177620549E+02  0.83363201010E+02  0.00000000000E+00 0. -1.
         21    1    1    2  502  501  0.95586611531E+01 -0.20349904200E+02 -0.32394258478E+02  0.39431898082E+02  0.00000000000E+00 0.  1.
<scales pt_clust_5="13000.00000" pt_clust_6="13000.00000" pt_clust_7="13000.00000" pt_clust_8="13000.00000" pt_clust_9="22.48303"></scales>
<clustering>
<clus scale="   22.483">  2  9  1 -1</clus>
<clus scale="   90.821">  7  8 -1 -1</clus>
<clus scale="   94.587">  5  6 -1 -1</clus>
<clus scale="   96.246">  1  7  2 -1</clus>
<clus scale="   96.246">  1  5  2 -1</clus>
</clustering>
</event>
<event>
 9    1  0.1434065E-005  0.1169548E+03  0.7546771E-02  0.1252546E+00
         -1   -1    0    0    0  501 -0.00000000000E+00  0.00000000000E+00  0.80808241204E+03  0.80808241204E+03  0.00000000000E+00 0.  1.
          1   -1    0    0  502    0  0.00000000000E+00 -0.00000000000E+00 -0.46422856980E+02  0.46422856980E+02  0.00000000000E+00 0. -1.
         23    2    1    2    0    0  0.16466765170E+02  0.71199251355E+02  0.67104351952E+03  0.68174793724E+03  0.95605214773E+02 0.  0.
         23    2    1    2    0    0  0.10480312527E+01 -0.31305408887E+02  0.22555979493E+02  0.91946082628E+02  0.83451680059E+02 0.  0.
        -13    1    4    4    0    0 -0.85180821171E+01  0.18219729535E+02  0.34660675381E+02  0.40073416191E+02  0.00000000000E+00 0.  1.
         13    1    4    4    0    0  0.95661133697E+01 -0.49525138423E+02 -0.12104695888E+02  0.51872666437E+02  0.00000000000E+00 0. -1.
        -13    1    3    3    0    0  0.28427266335E+02  0.91904474719E+02  0.55333503163E+03  0.56163529018E+03  0.00000000000E+00 0.  1.
         13    1    3    3    0    0 -0.11960501166E+02 -0.20705223364E+02  0.11770848789E+03  0.12011264706E+03  0.00000000000E+00 0. -1.
         21    1    1    2  502  501 -0.17514796422E+02 -0.39893842468E+02  0.68060056049E+02  0.80811249155E+02  0.00000000000E+00 0. -1.
<scales pt_clust_5="13000.00000" pt_clust_6="13000.00000" pt_clust_7="13000.00000" pt_clust_8="13000.00000" pt_clust_9="43.56933"></scales>
<clustering>
<clus scale="   43.569">  2  9  1 -1</clus>
<clus scale="   83.452">  5  6 -1 -1</clus>
<clus scale="   95.605">  7  8 -1 -1</clus>
<clus scale="  107.249">  2  5  1 -1</clus>
<clus scale="   43.569">  2  5  1 -1</clus>
</clustering>
</event>
<event>
 9    1  0.1434065E-005  0.1023723E+03  0.7546771E-02  0.1276028E+00
         -3   -1    0    0    0  501 -0.00000000000E+00  0.00000000000E+00  0.12405988345E+03  0.12405988345E+03  0.00000000000E+00 0.  1.
          3   -1    0    0  502    0  0.00000000000E+00 -0.00000000000E+00 -0.27793347219E+03  0.27793347219E+03  0.00000000000E+00 0. -1.
         23    2    1    2    0    0 -0.71009758995E+02 -0.65964193491E+02 -0.10397710485E+03  0.16918793553E+03  0.91758697126E+02 0.  0.
         23    2    1    2    0    0  0.15558027248E+02 -0.50398720574E+01 -0.93266665595E+02  0.13281819824E+03  0.93137266172E+02 0.  0.
        -11    1    3    3    0    0 -0.72261364831E+02 -0.36372154182E+02 -0.11231601489E+03  0.13841793832E+03  0.00000000000E+00 0. -1.
         11    1    3    3    0    0  0.12516058365E+01 -0.29592039308E+02  0.83389100364E+01  0.30769997208E+02  0.00000000000E+00 0.  1.
        -13    1    4    4    0    0  0.16233597270E+02 -0.45078108287E+02 -0.25941130609E+02  0.54484014025E+02  0.00000000000E+00 0.  1.
         13    1    4    4    0    0 -0.67557002226E+00  0.40038236230E+02 -0.67325534986E+02  0.78334184213E+02  0.00000000000E+00 0. -1.
         21    1    1    2  502  501  0.55451731747E+02  0.71004065548E+02  0.43370181709E+02  0.99987221881E+02  0.00000000000E+00 0.  1.
<scales pt_clust_5="13000.00000" pt_clust_6="13000.00000" pt_clust_7="13000.00000" pt_clust_8="13000.00000" pt_clust_9="90.09146"></scales>
<clustering>
<clus scale="   90.091">  1  9  2 -1</clus>
<clus scale="   91.759">  5  6 -1 -1</clus>
<clus scale="   93.137">  7  8 -1 -1</clus>
<clus scale="  101.120">  1  5  2 -1</clus>
<clus scale="  102.372">  2  5  1 -1</clus>
</clustering>
</event>
<event>
 9    1  0.1434065E-005  0.1242688E+03  0.7546771E-02  0.1236874E+00
         -1   -1    0    0    0  501 -0.00000000000E+00  0.00000000000E+00  0.13755694560E+03  0.13755694560E+03  0.00000000000E+00 0.  1.
          1   -1    0    0  502    0  0.00000000000E+00 -0.00000000000E+00 -0.23765027024E+03  0.23765027024E+03  0.00000000000E+00 0. -1.
         23    2    1    2    0    0  0.51854198880E+02  0.57157245093E+01 -0.39946575733E+01  0.10487345965E+03  0.90889811321E+02 0.  0.
         23    2    1    2    0    0 -0.93202072258E+02 -0.32550711944E+02 -0.14659555363E+03  0.19976677570E+03  0.93114624021E+02 0.  0.
        -11    1    4    4    0    0 -0.96782480546E+02  0.49802217583E+01 -0.93622313666E+02  0.13474712897E+03  0.00000000000E+00 0. -1.
         11    1    4    4    0    0  0.35804082878E+01 -0.37530933703E+02 -0.52973239966E+02  0.65019646728E+02  0.00000000000E+00 0.  1.
        -11    1    3    3    0    0 -0.25055618357E+02 -0.10817309581E+01  0.88661574243E+01  0.26600054522E+02  0.00000000000E+00 0. -1.
         11    1    3    3    0    0  0.76909817236E+02  0.67974554674E+01 -0.12860814998E+02  0.78273405129E+02  0.00000000000E+00 0.  1.
         21    1    1    2  502  501  0.41347873379E+02  0.26834987435E+02  0.50496886568E+02  0.70566980498E+02  0.00000000000E+00 0.  1.
<scales pt_clust_5="13000.00000" pt_clust_6="13000.00000" pt_clust_7="13000.00000" pt_clust_8="13000.00000" pt_clust_9="49.29263"></scales>
<clustering>
<clus scale="   49.293">  1  9  2 -1</clus>
<clus scale="   90.890">  7  8 -1 -1</clus>
<clus scale="   93.115">  5  6 -1 -1</clus>
<clus scale="  122.611">  1  7  2 -1</clus>
<clus scale="  124.269">  2  5  1 -1</clus>
</clustering>
</event>
<event>
 9    1  0.1434065E-005  0.9903344E+02  0.7546771E-02  0.1283005E+00
         -2   -1    0    0    0  501 -0.00000000000E+00  0.00000000000E+00  0.36420463287E+02  0.36420463287E+02  0.00000000000E+00 0.  1.
          2   -1    0    0  502    0  0.00000000000E+00 -0.00000000000E+00 -0.49198261287E+03  0.49198261287E+03  0.00000000000E+00 0. -1.
         23    2    1    2    0    0 -0.20854000407E+02 -0.19540872560E+02 -0.17964499327E+03  0.20341518362E+03  0.91042178601E+02 0.  0.
         23    2    1    2    0    0  0.43025557675E+02  0.19908689457E+02 -0.28385074886E+03  0.30143677512E+03  0.89695748151E+02 0.  0.
        -11    1    3    3    0    0  0.18417847998E+01 -0.40173815940E+02 -0.16423860415E+03  0.16909064656E+03  0.00000000000E+00 0. -1.
         11    1    3    3    0    0 -0.22695785207E+02  0.20632943380E+02 -0.15406389118E+02  0.34324537059E+02  0.00000000000E+00 0.  1.
        -13    1    4    4    0    0  0.11863731165E+02  0.51764337929E+02 -0.11279420951E+03  0.12467088071E+03  0.00000000000E+00 0. -1.
         13    1    4    4    0    0  0.31161826511E+02 -0.31855648472E+02 -0.17105653936E+03  0.17676589441E+03  0.00000000000E+00 0.  1.
         21    1    1    2  502  501 -0.22171557268E+02 -0.36781689713E+00  0.79335925507E+01  0.23551117420E+02  0.00000000000E+00 0. -1.
<scales pt_clust_5="13000.00000" pt_clust_6="13000.00000" pt_clust_7="13000.00000" pt_clust_8="13000.00000" pt_clust_9="22.17461"></scales>
<clustering>
<clus scale="   22.175">  1  9  2 -1</clus>
<clus scale="   89.696">  7  8 -1 -1</clus>
<clus scale="   91.042">  5  6 -1 -1</clus>
<clus scale="   97.797">  2  7  1 -1</clus>
<clus scale="   97.797">  2  5  1 -1</clus>
</clustering>
</event>
<event>
 9    1  0.1434065E-005  0.1450690E+03  0.7546771E-02  0.1206801E+00
          1   -1    0    0  502    0  0.00000000000E+00  0.00000000000E+00  0.28237445589E+03  0.28237445589E+03  0.00000000000E+00 0. -1.
         -1   -1    0    0    0  501 -0.00000000000E+00 -0.00000000000E+00 -0.16809168326E+03  0.16809168326E+03  0.00000000000E+00 0.  1.
         23    2    1    2    0    0 -0.31346137158E+02 -0.11276625565E+03 -0.95922526788E+02  0.17511772516E+03  0.88126487452E+02 0.  0.
         23    2    1    2    0    0 -0.12592401110E+01  0.10908468764E+03  0.19294349240E+03  0.23827234959E+03  0.87438358619E+02 0.  0.
        -11    1    3    3    0    0  0.15835931741E+02 -0.41682367454E+02  0.27511825910E+01  0.44673991274E+02  0.00000000000E+00 0. -1.
         11    1    3    3    0    0 -0.47182068900E+02 -0.71083888195E+02 -0.98673709379E+02  0.13044373388E+03  0.00000000000E+00 0.  1.
        -11    1    4    4    0    0 -0.31468310572E+02  0.80486463787E+02  0.17014940397E+03  0.19083800747E+03  0.00000000000E+00 0. -1.
         11    1    4    4    0    0  0.30209070461E+02  0.28598223851E+02  0.22794088435E+02  0.47434342128E+02  0.00000000000E+00 0.  1.
         21    1    1    2  502  501  0.32605377269E+02  0.36815680103E+01  0.17261807017E+02  0.37076064400E+02  0.00000000000E+00 0.  1.
<scales pt_clust_5="13000.00000" pt_clust_6="13000.00000" pt_clust_7="13000.00000" pt_clust_8="13000.00000" pt_clust_9="32.81257"></scales>
<clustering>
<clus scale="   32.813">  1  9  2 -1</clus>
<clus scale="   87.438">  7  8 -1 -1</clus>
<clus scale="   88.126">  5  6 -1 -1</clus>
<clus scale="  144.652">  1  7  2 -1</clus>
<clus scale="   32.813">  1  5  2 -1</clus>
</clustering>
</event>
<event>
 9    1  0.1434065E-005  0.1788599E+03  0.7546771E-02  0.1171467E+00
          1   -1    0    0  502    0  0.00000000000E+00  0.00000000000E+00  0.14406876462E+03  0.14406876462E+03  0.00000000000E+00 0. -1.
         -1   -1    0    0    0  501 -0.00000000000E+00 -0.00000000000E+00 -0.40813478036E+03  0.40813478036E+03  0.00000000000E+00 0.  1.
         23    2    1    2    0    0 -0.12008497425E+03 -0.25309938271E+02 -0.16606106553E+03  0.22369686115E+03  0.86040770489E+02 0.  0.
         23    2    1    2    0    0  0.15424480900E+03  0.78992567564E+01  0.35278771327E+02  0.18981790790E+03  0.10455805608E+03 0.  0.
        -11    1    3    3    0    0 -0.11408720949E+03 -0.48893599135E+02 -0.12631487734E+03  0.17709298022E+03  0.00000000000E+00 0.  1.
         11    1    3    3    0    0 -0.59977647590E+01  0.23583660864E+02 -0.39746188194E+02  0.46603880930E+02  0.00000000000E+00 0. -1.
        -13    1    4    4    0    0  0.13708036491E+02 -0.27146286589E+02 -0.18175310883E+02  0.35428421722E+02  0.00000000000E+00 0.  1.
         13    1    4    4    0    0  0.14053677251E+03  0.35045543346E+02  0.53454082210E+02  0.15438948618E+03  0.00000000000E+00 0. -1.
         21    1    1    2  502  501 -0.34159834756E+02  0.17410681515E+02 -0.13328372154E+03  0.13868877593E+03  0.00000000000E+00 0.  1.
<scales pt_clust_5="13000.00000" pt_clust_6="13000.00000" pt_clust_7="13000.00000" pt_clust_8="13000.00000" pt_clust_9="38.34092"></scales>
<clustering>
<clus scale="   38.341">  2  9  1 -1</clus>
<clus scale="   86.041">  5  6 -1 -1</clus>
<clus scale="  104.558">  7  8 -1 -1</clus>
<clus scale="  168.705">  2  5  1 -1</clus>
<clus scale="  178.860">  1  5  2 -1</clus>
</clustering>
</event>
